Generated by trjconv : CNT in water t= 207.00000
33518
    1C        C    1   2.851   2.770   4.744
    1C        C    2   2.903   2.720   4.865
    1C        C    3   2.845   2.772   4.981
    1C        C    4   2.852   2.776   4.258
    1C        C    5   2.903   2.728   4.380
    1C        C    6   2.852   2.778   4.502
    1C        C    7   3.014   2.635   4.622
    1C        C    8   2.904   2.724   4.622
    1C        C    9   3.077   2.598   4.743
    1C        C   10   3.010   2.628   4.864
    1C        C   11   3.178   2.483   4.971
    1C        C   12   3.057   2.554   4.973
    1C        C   13   2.850   2.774   3.770
    1C        C   14   2.904   2.726   3.891
    1C        C   15   2.853   2.775   4.013
    1C        C   16   3.019   2.645   4.138
    1C        C   17   2.905   2.728   4.136
    1C        C   18   3.082   2.606   4.259
    1C        C   19   3.017   2.644   4.378
    1C        C   20   3.209   2.552   4.501
    1C        C   21   3.077   2.603   4.500
    1C        C   22   3.280   2.530   4.621
    1C        C   23   3.211   2.549   4.742
    1C        C   24   3.411   2.480   4.860
    1C        C   25   3.269   2.499   4.862
    1C        C   26   3.488   2.478   4.977
    1C        C   27   2.855   2.770   3.278
    1C        C   28   2.913   2.733   3.402
    1C        C   29   2.860   2.780   3.524
    1C        C   30   3.017   2.642   3.646
    1C        C   31   2.908   2.732   3.648
    1C        C   32   3.077   2.604   3.768
    1C        C   33   3.020   2.645   3.891
    1C        C   34   3.210   2.556   4.014
    1C        C   35   3.078   2.608   4.015
    1C        C   36   3.279   2.532   4.135
    1C        C   37   3.211   2.550   4.257
    1C        C   38   3.415   2.495   4.379
    1C        C   39   3.277   2.528   4.380
    1C        C   40   3.489   2.490   4.499
    1C        C   41   3.418   2.496   4.621
    1C        C   42   3.629   2.475   4.744
    1C        C   43   3.487   2.468   4.741
    1C        C   44   3.704   2.483   4.864
    1C        C   45   3.627   2.477   4.980
    1C        C   46   2.835   2.750   2.792
    1C        C   47   2.897   2.712   2.914
    1C        C   48   2.850   2.769   3.034
    1C        C   49   3.021   2.639   3.158
    1C        C   50   2.906   2.722   3.155
    1C        C   51   3.083   2.604   3.280
    1C        C   52   3.025   2.648   3.402
    1C        C   53   3.208   2.547   3.525
    1C        C   54   3.078   2.603   3.525
    1C        C   55   3.276   2.526   3.647
    1C        C   56   3.206   2.547   3.769
    1C        C   57   3.413   2.505   3.892
    1C        C   58   3.274   2.529   3.891
    1C        C   59   3.486   2.491   4.013
    1C        C   60   3.416   2.499   4.135
    1C        C   61   3.628   2.493   4.258
    1C        C   62   3.487   2.490   4.258
    1C        C   63   3.700   2.500   4.379
    1C        C   64   3.630   2.489   4.501
    1C        C   65   3.834   2.537   4.620
    1C        C   66   3.701   2.491   4.623
    1C        C   67   3.903   2.563   4.741
    1C        C   68   3.840   2.523   4.860
    1C        C   69   4.050   2.585   4.979
    1C        C   70   3.919   2.536   4.975
    1C        C   71   2.824   2.733   2.307
    1C        C   72   2.886   2.693   2.427
    1C        C   73   2.835   2.747   2.547
    1C        C   74   3.006   2.624   2.670
    1C        C   75   2.888   2.702   2.670
    1C        C   76   3.071   2.592   2.791
    1C        C   77   3.014   2.633   2.914
    1C        C   78   3.211   2.549   3.036
    1C        C   79   3.081   2.607   3.035
    1C        C   80   3.276   2.522   3.159
    1C        C   81   3.211   2.544   3.282
    1C        C   82   3.415   2.493   3.400
    1C        C   83   3.277   2.520   3.405
    1C        C   84   3.483   2.491   3.524
    1C        C   85   3.415   2.500   3.647
    1C        C   86   3.625   2.501   3.768
    1C        C   87   3.484   2.499   3.770
    1C        C   88   3.696   2.509   3.890
    1C        C   89   3.627   2.499   4.013
    1C        C   90   3.833   2.545   4.136
    1C        C   91   3.698   2.504   4.135
    1C        C   92   3.902   2.567   4.257
    1C        C   93   3.835   2.540   4.378
    1C        C   94   4.028   2.631   4.497
    1C        C   95   3.903   2.564   4.500
    1C        C   96   4.085   2.674   4.618
    1C        C   97   4.029   2.629   4.740
    1C        C   98   4.190   2.763   4.862
    1C        C   99   4.098   2.653   4.863
    1C        C  100   4.207   2.845   4.974
    1C        C  101   2.826   2.732   2.068
    1C        C  102   2.992   2.592   2.188
    1C        C  103   2.876   2.677   2.187
    1C        C  104   3.065   2.570   2.308
    1C        C  105   3.004   2.616   2.427
    1C        C  106   3.200   2.532   2.548
    1C        C  107   3.070   2.589   2.549
    1C        C  108   3.270   2.517   2.669
    1C        C  109   3.204   2.544   2.791
    1C        C  110   3.412   2.494   2.911
    1C        C  111   3.274   2.523   2.913
    1C        C  112   3.483   2.486   3.033
    1C        C  113   3.414   2.493   3.156
    1C        C  114   3.627   2.487   3.277
    1C        C  115   3.486   2.486   3.277
    1C        C  116   3.694   2.498   3.401
    1C        C  117   3.625   2.493   3.524
    1C        C  118   3.833   2.542   3.646
    1C        C  119   3.695   2.511   3.646
    1C        C  120   3.896   2.568   3.770
    1C        C  121   3.833   2.541   3.893
    1C        C  122   4.027   2.633   4.011
    1C        C  123   3.901   2.568   4.014
    1C        C  124   4.088   2.671   4.132
    1C        C  125   4.028   2.633   4.254
    1C        C  126   4.194   2.765   4.376
    1C        C  127   4.088   2.673   4.376
    1C        C  128   4.239   2.821   4.498
    1C        C  129   4.190   2.768   4.619
    1C        C  130   4.322   2.934   4.739
    1C        C  131   4.243   2.816   4.741
    1C        C  132   4.353   3.005   4.857
    1C        C  133   4.282   2.961   4.970
    1C        C  134   3.174   2.464   2.080
    1C        C  135   3.043   2.512   2.081
    1C        C  136   3.261   2.473   2.190
    1C        C  137   3.196   2.515   2.308
    1C        C  138   3.406   2.473   2.425
    1C        C  139   3.267   2.498   2.429
    1C        C  140   3.480   2.471   2.546
    1C        C  141   3.410   2.496   2.666
    1C        C  142   3.622   2.485   2.790
    1C        C  143   3.481   2.484   2.788
    1C        C  144   3.693   2.496   2.911
    1C        C  145   3.624   2.488   3.034
    1C        C  146   3.834   2.528   3.157
    1C        C  147   3.698   2.492   3.155
    1C        C  148   3.901   2.554   3.279
    1C        C  149   3.831   2.533   3.400
    1C        C  150   4.023   2.625   3.520
    1C        C  151   3.897   2.562   3.522
    1C        C  152   4.082   2.666   3.642
    1C        C  153   4.019   2.637   3.766
    1C        C  154   4.190   2.765   3.885
    1C        C  155   4.081   2.674   3.887
    1C        C  156   4.241   2.813   4.008
    1C        C  157   4.196   2.763   4.132
    1C        C  158   4.334   2.924   4.251
    1C        C  159   4.247   2.812   4.253
    1C        C  160   4.374   2.982   4.374
    1C        C  161   4.330   2.929   4.497
    1C        C  162   4.437   3.114   4.615
    1C        C  163   4.362   2.995   4.618
    1C        C  164   4.468   3.182   4.735
    1C        C  165   4.428   3.125   4.857
    1C        C  166   4.513   3.324   4.969
    1C        C  167   4.475   3.190   4.972
    1C        C  168   3.478   2.427   2.071
    1C        C  169   3.401   2.453   2.185
    1C        C  170   3.619   2.458   2.303
    1C        C  171   3.477   2.464   2.304
    1C        C  172   3.691   2.479   2.423
    1C        C  173   3.621   2.475   2.545
    1C        C  174   3.826   2.537   2.665
    1C        C  175   3.690   2.498   2.667
    1C        C  176   3.893   2.557   2.788
    1C        C  177   3.830   2.532   2.912
    1C        C  178   4.022   2.624   3.030
    1C        C  179   3.895   2.560   3.033
    1C        C  180   4.082   2.660   3.152
    1C        C  181   4.025   2.621   3.275
    1C        C  182   4.191   2.752   3.398
    1C        C  183   4.083   2.661   3.397
    1C        C  184   4.244   2.802   3.519
    1C        C  185   4.194   2.751   3.641
    1C        C  186   4.330   2.919   3.763
    1C        C  187   4.242   2.809   3.761
    1C        C  188   4.369   2.979   3.885
    1C        C  189   4.332   2.921   4.009
    1C        C  190   4.443   3.106   4.128
    1C        C  191   4.375   2.982   4.129
    1C        C  192   4.471   3.173   4.250
    1C        C  193   4.438   3.107   4.370
    1C        C  194   4.506   3.312   4.490
    1C        C  195   4.463   3.177   4.491
    1C        C  196   4.526   3.384   4.610
    1C        C  197   4.512   3.318   4.733
    1C        C  198   4.558   3.536   4.850
    1C        C  199   4.536   3.395   4.850
    1C        C  200   4.581   3.619   4.964
    1C        C  201   3.617   2.411   2.068
    1C        C  202   3.825   2.509   2.179
    1C        C  203   3.693   2.456   2.181
    1C        C  204   3.895   2.537   2.300
    1C        C  205   3.827   2.515   2.422
    1C        C  206   4.018   2.616   2.541
    1C        C  207   3.893   2.550   2.542
    1C        C  208   4.076   2.659   2.663
    1C        C  209   4.017   2.625   2.787
    1C        C  210   4.195   2.743   2.906
    1C        C  211   4.083   2.656   2.907
    1C        C  212   4.246   2.794   3.028
    1C        C  213   4.190   2.751   3.150
    1C        C  214   4.330   2.907   3.269
    1C        C  215   4.241   2.798   3.274
    1C        C  216   4.369   2.968   3.391
    1C        C  217   4.330   2.914   3.516
    1C        C  218   4.432   3.099   3.636
    1C        C  219   4.368   2.973   3.638
    1C        C  220   4.463   3.165   3.757
    1C        C  221   4.437   3.102   3.881
    1C        C  222   4.498   3.305   4.002
    1C        C  223   4.465   3.168   4.003
    1C        C  224   4.514   3.377   4.122
    1C        C  225   4.503   3.310   4.247
    1C        C  226   4.522   3.523   4.366
    1C        C  227   4.517   3.382   4.368
    1C        C  228   4.523   3.597   4.486
    1C        C  229   4.536   3.525   4.607
    1C        C  230   4.500   3.738   4.725
    1C        C  231   4.541   3.602   4.725
    1C        C  232   4.490   3.815   4.843
    1C        C  233   4.540   3.753   4.958
    1C        C  234   4.015   2.607   2.061
    1C        C  235   3.890   2.547   2.061
    1C        C  236   4.082   2.645   2.178
    1C        C  237   4.020   2.605   2.298
    1C        C  238   4.193   2.734   2.420
    1C        C  239   4.080   2.647   2.418
    1C        C  240   4.245   2.787   2.540
    1C        C  241   4.189   2.743   2.663
    1C        C  242   4.329   2.905   2.782
    1C        C  243   4.242   2.794   2.783
    1C        C  244   4.370   2.962   2.904
    1C        C  245   4.335   2.904   3.028
    1C        C  246   4.432   3.095   3.147
    1C        C  247   4.374   2.966   3.149
    1C        C  248   4.455   3.161   3.270
    1C        C  249   4.431   3.095   3.393
    1C        C  250   4.497   3.300   3.512
    1C        C  251   4.455   3.166   3.513
    1C        C  252   4.507   3.372   3.634
    1C        C  253   4.498   3.302   3.756
    1C        C  254   4.522   3.512   3.879
    1C        C  255   4.511   3.371   3.878
    1C        C  256   4.516   3.589   3.998
    1C        C  257   4.519   3.518   4.120
    1C        C  258   4.490   3.730   4.239
    1C        C  259   4.513   3.590   4.242
    1C        C  260   4.475   3.802   4.360
    1C        C  261   4.488   3.734   4.483
    1C        C  262   4.420   3.937   4.604
    1C        C  263   4.468   3.804   4.604
    1C        C  264   4.393   4.007   4.723
    1C        C  265   4.429   3.942   4.844
    1C        C  266   4.309   4.124   4.957
    1C        C  267   4.394   4.014   4.959
    1C        C  268   4.256   2.776   2.060
    1C        C  269   4.200   2.724   2.177
    1C        C  270   4.344   2.884   2.298
    1C        C  271   4.249   2.778   2.298
    1C        C  272   4.381   2.949   2.418
    1C        C  273   4.337   2.894   2.541
    1C        C  274   4.444   3.083   2.660
    1C        C  275   4.374   2.960   2.660
    1C        C  276   4.469   3.151   2.781
    1C        C  277   4.440   3.085   2.902
    1C        C  278   4.497   3.291   3.025
    1C        C  279   4.463   3.154   3.023
    1C        C  280   4.509   3.364   3.145
    1C        C  281   4.497   3.295   3.268
    1C        C  282   4.515   3.508   3.388
    1C        C  283   4.513   3.367   3.389
    1C        C  284   4.515   3.580   3.510
    1C        C  285   4.514   3.514   3.635
    1C        C  286   4.491   3.723   3.751
    1C        C  287   4.515   3.584   3.757
    1C        C  288   4.476   3.794   3.872
    1C        C  289   4.491   3.728   3.996
    1C        C  290   4.421   3.930   4.114
    1C        C  291   4.475   3.799   4.117
    1C        C  292   4.394   3.995   4.237
    1C        C  293   4.428   3.935   4.360
    1C        C  294   4.324   4.124   4.478
    1C        C  295   4.392   4.000   4.480
    1C        C  296   4.279   4.183   4.598
    1C        C  297   4.319   4.128   4.721
    1C        C  298   4.196   4.312   4.836
    1C        C  299   4.274   4.193   4.840
    1C        C  300   4.166   4.400   4.946
    1C        C  301   4.350   2.879   2.061
    1C        C  302   4.464   3.065   2.178
    1C        C  303   4.396   2.939   2.178
    1C        C  304   4.477   3.140   2.298
    1C        C  305   4.449   3.072   2.419
    1C        C  306   4.501   3.285   2.536
    1C        C  307   4.472   3.147   2.537
    1C        C  308   4.517   3.357   2.657
    1C        C  309   4.496   3.290   2.779
    1C        C  310   4.525   3.499   2.899
    1C        C  311   4.513   3.359   2.902
    1C        C  312   4.516   3.573   3.020
    1C        C  313   4.518   3.505   3.143
    1C        C  314   4.484   3.715   3.263
    1C        C  315   4.511   3.577   3.265
    1C        C  316   4.472   3.787   3.384
    1C        C  317   4.491   3.720   3.507
    1C        C  318   4.422   3.922   3.626
    1C        C  319   4.470   3.789   3.628
    1C        C  320   4.390   3.987   3.747
    1C        C  321   4.423   3.925   3.870
    1C        C  322   4.315   4.110   3.991
    1C        C  323   4.389   3.990   3.990
    1C        C  324   4.269   4.166   4.112
    1C        C  325   4.318   4.114   4.234
    1C        C  326   4.187   4.282   4.353
    1C        C  327   4.284   4.179   4.354
    1C        C  328   4.134   4.336   4.472
    1C        C  329   4.189   4.292   4.594
    1C        C  330   4.030   4.443   4.709
    1C        C  331   4.141   4.354   4.712
    1C        C  332   3.971   4.496   4.826
    1C        C  333   4.049   4.477   4.941
    1C        C  334   4.550   3.264   2.065
    1C        C  335   4.528   3.126   2.065
    1C        C  336   4.536   3.348   2.176
    1C        C  337   4.515   3.277   2.296
    1C        C  338   4.526   3.496   2.410
    1C        C  339   4.520   3.355   2.414
    1C        C  340   4.524   3.567   2.532
    1C        C  341   4.528   3.498   2.655
    1C        C  342   4.496   3.707   2.772
    1C        C  343   4.528   3.569   2.777
    1C        C  344   4.477   3.778   2.893
    1C        C  345   4.491   3.712   3.017
    1C        C  346   4.420   3.913   3.137
    1C        C  347   4.468   3.780   3.139
    1C        C  348   4.384   3.977   3.258
    1C        C  349   4.420   3.918   3.381
    1C        C  350   4.316   4.103   3.503
    1C        C  351   4.394   3.985   3.503
    1C        C  352   4.272   4.161   3.624
    1C        C  353   4.313   4.105   3.747
    1C        C  354   4.176   4.268   3.867
    1C        C  355   4.271   4.164   3.868
    1C        C  356   4.121   4.319   3.987
    1C        C  357   4.174   4.271   4.108
    1C        C  358   4.007   4.397   4.229
    1C        C  359   4.128   4.323   4.231
    1C        C  360   3.948   4.442   4.350
    1C        C  361   4.015   4.413   4.471
    1C        C  362   3.828   4.518   4.591
    1C        C  363   3.960   4.468   4.589
    1C        C  364   3.763   4.554   4.711
    1C        C  365   3.839   4.545   4.829
    1C        C  366   3.629   4.586   4.948
    1C        C  367   3.767   4.570   4.947
    1C        C  368   4.499   3.564   2.056
    1C        C  369   4.522   3.489   2.171
    1C        C  370   4.499   3.707   2.287
    1C        C  371   4.515   3.567   2.289
    1C        C  372   4.487   3.778   2.409
    1C        C  373   4.503   3.707   2.530
    1C        C  374   4.424   3.906   2.646
    1C        C  375   4.482   3.777   2.651
    1C        C  376   4.389   3.967   2.768
    1C        C  377   4.425   3.910   2.892
    1C        C  378   4.318   4.095   3.012
    1C        C  379   4.395   3.976   3.013
    1C        C  380   4.268   4.151   3.132
    1C        C  381   4.310   4.097   3.256
    1C        C  382   4.175   4.258   3.376
    1C        C  383   4.271   4.154   3.379
    1C        C  384   4.121   4.305   3.498
    1C        C  385   4.172   4.261   3.622
    1C        C  386   4.006   4.393   3.740
    1C        C  387   4.122   4.313   3.744
    1C        C  388   3.944   4.431   3.861
    1C        C  389   4.006   4.400   3.985
    1C        C  390   3.818   4.496   4.106
    1C        C  391   3.945   4.434   4.108
    1C        C  392   3.749   4.519   4.227
    1C        C  393   3.819   4.498   4.348
    1C        C  394   3.616   4.552   4.474
    1C        C  395   3.756   4.530   4.470
    1C        C  396   3.546   4.568   4.595
    1C        C  397   3.623   4.570   4.714
    1C        C  398   3.409   4.555   4.838
    1C        C  399   3.549   4.568   4.835
    1C        C  400   3.340   4.509   4.951
    1C        C  401   4.511   3.703   2.052
    1C        C  402   4.453   3.916   2.165
    1C        C  403   4.494   3.781   2.167
    1C        C  404   4.414   3.979   2.285
    1C        C  405   4.434   3.909   2.406
    1C        C  406   4.326   4.095   2.524
    1C        C  407   4.404   3.977   2.525
    1C        C  408   4.274   4.143   2.646
    1C        C  409   4.310   4.084   2.769
    1C        C  410   4.171   4.247   2.887
    1C        C  411   4.269   4.146   2.890
    1C        C  412   4.121   4.298   3.008
    1C        C  413   4.167   4.249   3.133
    1C        C  414   4.003   4.383   3.251
    1C        C  415   4.118   4.301   3.254
    1C        C  416   3.940   4.415   3.373
    1C        C  417   4.001   4.380   3.496
    1C        C  418   3.813   4.478   3.617
    1C        C  419   3.942   4.423   3.617
    1C        C  420   3.747   4.506   3.739
    1C        C  421   3.814   4.487   3.861
    1C        C  422   3.611   4.537   3.985
    1C        C  423   3.750   4.515   3.984
    1C        C  424   3.540   4.549   4.107
    1C        C  425   3.611   4.548   4.229
    1C        C  426   3.404   4.546   4.353
    1C        C  427   3.544   4.561   4.352
    1C        C  428   3.333   4.542   4.475
    1C        C  429   3.405   4.557   4.596
    1C        C  430   3.197   4.516   4.719
    1C        C  431   3.335   4.550   4.718
    1C        C  432   3.126   4.495   4.841
    1C        C  433   3.202   4.492   4.958
    1C        C  434   4.380   4.120   2.053
    1C        C  435   4.446   3.997   2.051
    1C        C  436   4.300   4.164   2.162
    1C        C  437   4.334   4.097   2.283
    1C        C  438   4.186   4.254   2.401
    1C        C  439   4.282   4.151   2.402
    1C        C  440   4.127   4.298   2.522
    1C        C  441   4.174   4.243   2.644
    1C        C  442   4.005   4.376   2.763
    1C        C  443   4.118   4.292   2.764
    1C        C  444   3.941   4.412   2.884
    1C        C  445   4.003   4.377   3.006
    1C        C  446   3.812   4.469   3.128
    1C        C  447   3.942   4.416   3.128
    1C        C  448   3.744   4.492   3.250
    1C        C  449   3.811   4.472   3.372
    1C        C  450   3.606   4.527   3.495
    1C        C  451   3.745   4.498   3.494
    1C        C  452   3.537   4.545   3.617
    1C        C  453   3.609   4.538   3.738
    1C        C  454   3.401   4.544   3.862
    1C        C  455   3.542   4.545   3.862
    1C        C  456   3.331   4.533   3.984
    1C        C  457   3.398   4.542   4.108
    1C        C  458   3.193   4.502   4.234
    1C        C  459   3.332   4.530   4.232
    1C        C  460   3.126   4.489   4.358
    1C        C  461   3.196   4.509   4.478
    1C        C  462   2.999   4.430   4.603
    1C        C  463   3.127   4.490   4.600
    1C        C  464   2.932   4.399   4.724
    1C        C  465   2.991   4.447   4.844
    1C        C  466   2.805   4.332   4.962
    1C        C  467   2.908   4.426   4.958
    1C        C  468   4.122   4.284   2.037
    1C        C  469   4.185   4.250   2.157
    1C        C  470   4.008   4.372   2.278
    1C        C  471   4.128   4.296   2.279
    1C        C  472   3.944   4.406   2.399
    1C        C  473   4.009   4.376   2.521
    1C        C  474   3.812   4.464   2.642
    1C        C  475   3.943   4.410   2.641
    1C        C  476   3.747   4.493   2.763
    1C        C  477   3.813   4.470   2.886
    1C        C  478   3.605   4.516   3.007
    1C        C  479   3.744   4.495   3.007
    1C        C  480   3.535   4.530   3.129
    1C        C  481   3.607   4.527   3.250
    1C        C  482   3.395   4.532   3.373
    1C        C  483   3.536   4.535   3.372
    1C        C  484   3.326   4.524   3.497
    1C        C  485   3.396   4.540   3.618
    1C        C  486   3.193   4.492   3.744
    1C        C  487   3.328   4.532   3.742
    1C        C  488   3.127   4.469   3.867
    1C        C  489   3.196   4.493   3.988
    1C        C  490   3.005   4.406   4.113
    1C        C  491   3.129   4.473   4.112
    1C        C  492   2.943   4.378   4.237
    1C        C  493   2.998   4.427   4.357
    1C        C  494   2.835   4.296   4.483
    1C        C  495   2.942   4.388   4.481
    1C        C  496   2.777   4.251   4.604
    1C        C  497   2.820   4.311   4.724
    1C        C  498   2.662   4.168   4.842
    1C        C  499   2.756   4.274   4.844
    1C        C  500   2.589   4.120   4.952
    1C        C  501   4.004   4.358   2.042
    1C        C  502   3.816   4.468   2.156
    1C        C  503   3.943   4.407   2.158
    1C        C  504   3.745   4.482   2.277
    1C        C  505   3.813   4.457   2.398
    1C        C  506   3.606   4.512   2.520
    1C        C  507   3.744   4.482   2.519
    1C        C  508   3.535   4.524   2.642
    1C        C  509   3.608   4.518   2.763
    1C        C  510   3.395   4.529   2.884
    1C        C  511   3.536   4.527   2.884
    1C        C  512   3.324   4.517   3.006
    1C        C  513   3.393   4.526   3.128
    1C        C  514   3.188   4.486   3.253
    1C        C  515   3.324   4.523   3.251
    1C        C  516   3.125   4.461   3.377
    1C        C  517   3.190   4.487   3.499
    1C        C  518   2.999   4.402   3.623
    1C        C  519   3.124   4.468   3.623
    1C        C  520   2.941   4.365   3.747
    1C        C  521   3.003   4.402   3.868
    1C        C  522   2.835   4.277   3.994
    1C        C  523   2.945   4.366   3.992
    1C        C  524   2.786   4.232   4.119
    1C        C  525   2.837   4.285   4.240
    1C        C  526   2.696   4.131   4.364
    1C        C  527   2.786   4.240   4.363
    1C        C  528   2.659   4.070   4.487
    1C        C  529   2.692   4.139   4.606
    1C        C  530   2.587   3.957   4.733
    1C        C  531   2.641   4.088   4.728
    1C        C  532   2.542   3.898   4.854
    1C        C  533   2.529   3.994   4.960
    1C        C  534   3.616   4.549   2.038
    1C        C  535   3.753   4.519   2.041
    1C        C  536   3.535   4.528   2.154
    1C        C  537   3.605   4.507   2.276
    1C        C  538   3.395   4.520   2.397
    1C        C  539   3.536   4.522   2.398
    1C        C  540   3.324   4.508   2.518
    1C        C  541   3.394   4.512   2.640
    1C        C  542   3.188   4.474   2.762
    1C        C  543   3.324   4.510   2.763
    1C        C  544   3.124   4.452   2.886
    1C        C  545   3.187   4.481   3.009
    1C        C  546   2.998   4.388   3.134
    1C        C  547   3.122   4.457   3.132
    1C        C  548   2.937   4.357   3.258
    1C        C  549   2.997   4.400   3.378
    1C        C  550   2.827   4.276   3.504
    1C        C  551   2.938   4.363   3.501
    1C        C  552   2.774   4.229   3.626
    1C        C  553   2.831   4.276   3.746
    1C        C  554   2.700   4.116   3.875
    1C        C  555   2.787   4.227   3.871
    1C        C  556   2.659   4.060   3.998
    1C        C  557   2.700   4.120   4.119
    1C        C  558   2.595   3.941   4.245
    1C        C  559   2.659   4.067   4.244
    1C        C  560   2.564   3.879   4.368
    1C        C  561   2.589   3.948   4.489
    1C        C  562   2.529   3.750   4.612
    1C        C  563   2.559   3.888   4.613
    1C        C  564   2.514   3.681   4.735
    1C        C  565   2.520   3.757   4.855
    1C        C  566   2.533   3.544   4.975
    1C        C  567   2.525   3.683   4.974
    1C        C  568   3.327   4.463   2.039
    1C        C  569   3.395   4.504   2.155
    1C        C  570   3.185   4.468   2.280
    1C        C  571   3.322   4.508   2.276
    1C        C  572   3.115   4.446   2.401
    1C        C  573   3.188   4.471   2.520
    1C        C  574   2.990   4.392   2.646
    1C        C  575   3.118   4.452   2.641
    1C        C  576   2.935   4.349   2.769
    1C        C  577   3.000   4.384   2.889
    1C        C  578   2.825   4.266   3.013
    1C        C  579   2.938   4.350   3.012
    1C        C  580   2.777   4.218   3.137
    1C        C  581   2.827   4.269   3.259
    1C        C  582   2.687   4.114   3.382
    1C        C  583   2.777   4.223   3.383
    1C        C  584   2.653   4.055   3.506
    1C        C  585   2.688   4.117   3.628
    1C        C  586   2.588   3.936   3.754
    1C        C  587   2.655   4.060   3.754
    1C        C  588   2.564   3.870   3.877
    1C        C  589   2.591   3.936   3.999
    1C        C  590   2.533   3.737   4.127
    1C        C  591   2.567   3.874   4.124
    1C        C  592   2.513   3.671   4.250
    1C        C  593   2.528   3.743   4.371
    1C        C  594   2.515   3.532   4.497
    1C        C  595   2.521   3.673   4.494
    1C        C  596   2.522   3.463   4.620
    1C        C  597   2.517   3.539   4.739
    1C        C  598   2.531   3.325   4.861
    1C        C  599   2.526   3.466   4.859
    1C        C  600   2.528   3.246   4.977
    1C        C  601   3.194   4.427   2.044
    1C        C  602   2.980   4.387   2.157
    1C        C  603   3.116   4.431   2.161
    1C        C  604   2.922   4.354   2.282
    1C        C  605   2.986   4.390   2.403
    1C        C  606   2.818   4.263   2.527
    1C        C  607   2.928   4.351   2.525
    1C        C  608   2.767   4.216   2.650
    1C        C  609   2.826   4.259   2.770
    1C        C  610   2.680   4.107   2.893
    1C        C  611   2.773   4.213   2.893
    1C        C  612   2.647   4.048   3.018
    1C        C  613   2.690   4.107   3.139
    1C        C  614   2.581   3.926   3.267
    1C        C  615   2.648   4.051   3.262
    1C        C  616   2.553   3.865   3.391
    1C        C  617   2.586   3.931   3.512
    1C        C  618   2.523   3.729   3.637
    1C        C  619   2.563   3.865   3.634
    1C        C  620   2.510   3.662   3.760
    1C        C  621   2.524   3.735   3.880
    1C        C  622   2.510   3.527   4.009
    1C        C  623   2.519   3.668   4.005
    1C        C  624   2.510   3.457   4.131
    1C        C  625   2.512   3.529   4.252
    1C        C  626   2.534   3.320   4.377
    1C        C  627   2.522   3.461   4.375
    1C        C  628   2.552   3.251   4.499
    1C        C  629   2.537   3.322   4.620
    1C        C  630   2.600   3.119   4.741
    1C        C  631   2.548   3.251   4.742
    1C        C  632   2.616   3.047   4.863
    1C        C  633   2.558   3.109   4.978
    1C        C  634   2.777   4.304   2.052
    1C        C  635   2.888   4.390   2.047
    1C        C  636   2.739   4.233   2.166
    1C        C  637   2.806   4.271   2.285
    1C        C  638   2.672   4.105   2.407
    1C        C  639   2.762   4.215   2.406
    1C        C  640   2.635   4.047   2.530
    1C        C  641   2.678   4.106   2.651
    1C        C  642   2.574   3.921   2.775
    1C        C  643   2.636   4.048   2.773
    1C        C  644   2.553   3.855   2.898
    1C        C  645   2.583   3.922   3.019
    1C        C  646   2.520   3.725   3.148
    1C        C  647   2.558   3.861   3.144
    1C        C  648   2.501   3.657   3.270
    1C        C  649   2.515   3.729   3.391
    1C        C  650   2.500   3.519   3.516
    1C        C  651   2.507   3.660   3.514
    1C        C  652   2.506   3.451   3.640
    1C        C  653   2.504   3.521   3.763
    1C        C  654   2.529   3.314   3.888
    1C        C  655   2.509   3.454   3.887
    1C        C  656   2.542   3.246   4.011
    1C        C  657   2.527   3.316   4.132
    1C        C  658   2.601   3.119   4.256
    1C        C  659   2.551   3.251   4.255
    1C        C  660   2.632   3.054   4.378
    1C        C  661   2.599   3.118   4.500
    1C        C  662   2.713   2.937   4.623
    1C        C  663   2.633   3.054   4.621
    1C        C  664   2.759   2.878   4.743
    1C        C  665   2.699   2.930   4.861
    1C        C  666   2.740   2.863   4.978
    1C        C  667   2.673   4.024   2.055
    1C        C  668   2.676   4.107   2.168
    1C        C  669   2.579   3.912   2.289
    1C        C  670   2.632   4.044   2.286
    1C        C  671   2.554   3.848   2.413
    1C        C  672   2.580   3.917   2.533
    1C        C  673   2.509   3.716   2.658
    1C        C  674   2.547   3.852   2.654
    1C        C  675   2.492   3.647   2.781
    1C        C  676   2.513   3.720   2.900
    1C        C  677   2.499   3.514   3.028
    1C        C  678   2.509   3.655   3.026
    1C        C  679   2.501   3.443   3.150
    1C        C  680   2.495   3.516   3.271
    1C        C  681   2.532   3.309   3.397
    1C        C  682   2.503   3.448   3.394
    1C        C  683   2.554   3.244   3.520
    1C        C  684   2.533   3.312   3.642
    1C        C  685   2.603   3.116   3.769
    1C        C  686   2.548   3.246   3.766
    1C        C  687   2.635   3.054   3.892
    1C        C  688   2.600   3.117   4.013
    1C        C  689   2.717   2.939   4.135
    1C        C  690   2.635   3.054   4.135
    1C        C  691   2.757   2.881   4.258
    1C        C  692   2.714   2.939   4.379
    1C        C  693   2.759   2.884   4.501
    1C        C  694   2.619   3.895   2.052
    1C        C  695   2.519   3.706   2.175
    1C        C  696   2.571   3.837   2.170
    1C        C  697   2.504   3.638   2.298
    1C        C  698   2.517   3.712   2.417
    1C        C  699   2.489   3.501   2.540
    1C        C  700   2.496   3.642   2.538
    1C        C  701   2.497   3.432   2.663
    1C        C  702   2.490   3.506   2.784
    1C        C  703   2.519   3.300   2.911
    1C        C  704   2.502   3.440   2.908
    1C        C  705   2.539   3.230   3.032
    1C        C  706   2.526   3.304   3.151
    1C        C  707   2.599   3.108   3.277
    1C        C  708   2.548   3.239   3.275
    1C        C  709   2.636   3.049   3.400
    1C        C  710   2.606   3.112   3.522
    1C        C  711   2.716   2.936   3.647
    1C        C  712   2.638   3.054   3.647
    1C        C  713   2.760   2.883   3.770
    1C        C  714   2.713   2.936   3.892
    1C        C  715   2.759   2.880   4.014
    1C        C  716   2.449   3.498   2.064
    1C        C  717   2.486   3.633   2.060
    1C        C  718   2.463   3.420   2.183
    1C        C  719   2.477   3.498   2.301
    1C        C  720   2.507   3.286   2.425
    1C        C  721   2.480   3.425   2.422
    1C        C  722   2.533   3.218   2.545
    1C        C  723   2.527   3.294   2.664
    1C        C  724   2.592   3.099   2.788
    1C        C  725   2.538   3.230   2.789
    1C        C  726   2.624   3.038   2.911
    1C        C  727   2.593   3.099   3.035
    1C        C  728   2.717   2.928   3.157
    1C        C  729   2.629   3.039   3.157
    1C        C  730   2.759   2.874   3.280
    1C        C  731   2.718   2.934   3.402
    1C        C  732   2.761   2.880   3.525
    1C        C  733   2.487   3.197   2.071
    1C        C  734   2.489   3.280   2.184
    1C        C  735   2.576   3.081   2.305
    1C        C  736   2.521   3.212   2.305
    1C        C  737   2.598   3.014   2.427
    1C        C  738   2.570   3.081   2.548
    1C        C  739   2.704   2.915   2.667
    1C        C  740   2.622   3.030   2.669
    1C        C  741   2.743   2.857   2.790
    1C        C  742   2.704   2.921   2.910
    1C        C  743   2.751   2.869   3.032
    1C        C  744   2.546   3.071   2.072
    1C        C  745   2.691   2.900   2.186
    1C        C  746   2.611   3.017   2.184
    1C        C  747   2.730   2.840   2.308
    1C        C  748   2.683   2.901   2.426
    1C        C  749   2.742   2.854   2.546
    1C        C  750   2.736   2.838   2.069
    1C        C  751   3.659   2.295   1.986
    1C        O  752   3.652   2.179   2.034
    1C        O  753   3.672   2.297   1.846
    1C        C  754   4.618   3.050   1.975
    1C        O  755   4.595   3.028   1.853
    1C        O  756   4.752   3.029   2.011
    1C        C  757   4.447   4.220   1.966
    1C        O  758   4.499   4.321   2.021
    1C        O  759   4.479   4.193   1.832
    1C        C  760   3.586   4.662   1.946
    1C        O  761   3.551   4.774   1.991
    1C        O  762   3.593   4.652   1.807
    1C        C  763   2.880   4.499   1.947
    1C        O  764   2.904   4.472   1.827
    1C        O  765   2.786   4.603   1.952
    1C        C  766   2.351   3.468   1.958
    1C        O  767   2.385   3.437   1.840
    1C        O  768   2.213   3.484   1.976
    1C        C  769   4.667   3.592   5.082
    1C        O  770   4.611   3.569   5.192
    1C        O  771   4.802   3.628   5.093
    1C        C  772   4.259   4.425   5.058
    1C        O  773   4.272   4.349   5.157
    1C        O  774   4.356   4.526   5.048
    1C        C  775   4.129   2.490   5.060
    1C        O  776   4.184   2.393   5.001
    1C        O  777   4.106   2.458   5.195
    1C        C  778   2.879   4.546   5.040
    1C        O  779   2.840   4.653   4.985
    1C        O  780   2.840   4.551   5.175
    1C        C  781   2.464   3.031   5.061
    1C        O  782   2.366   2.964   5.017
    1C        O  783   2.483   3.022   5.198
    1C        C  784   2.453   3.967   5.085
    1C        O  785   2.333   3.930   5.089
    1C        O  786   2.517   3.973   5.210
    1C        C  787   2.954   2.451   1.980
    1C        O  788   2.981   2.441   1.857
    1C        O  789   2.833   2.385   2.004
    1C        C  790   3.182   2.365   5.060
    1C        O  791   3.101   2.270   5.040
    1C        O  792   3.194   2.389   5.197
    1C        H  793   4.286   3.013   5.064
    1C        H  794   4.216   2.794   5.068
    1C        H  795   4.437   3.155   5.066
    1C        H  796   4.551   3.366   5.060
    1C        H  797   4.508   3.792   5.052
    1C        H  798   4.452   4.007   5.048
    1C        H  799   4.253   4.145   5.046
    1C        H  800   4.007   4.507   5.035
    1C        H  801   3.816   4.598   5.038
    1C        H  802   3.587   4.597   5.046
    1C        H  803   3.393   4.446   5.019
    1C        H  804   3.158   4.521   5.051
    1C        H  805   3.879   2.506   5.070
    1C        H  806   3.678   2.459   5.073
    1C        H  807   3.037   2.587   5.073
    1C        H  808   3.434   2.477   5.070
    1C        H  809   2.904   2.773   5.071
    1C        H  810   2.667   2.861   5.056
    1C        H  811   2.513   3.296   5.070
    1C        H  812   2.556   3.500   5.070
    1C        H  813   2.512   3.730   5.070
    1C        H  814   2.567   4.190   5.029
    1C        H  815   2.780   4.290   5.057
    1C        H  816   2.693   2.870   1.977
    1C        H  817   2.840   2.682   1.975
    1C        H  818   3.209   2.420   1.989
    1C        H  819   3.434   2.468   1.982
    1C        H  820   3.843   2.534   1.965
    1C        H  821   4.081   2.583   1.980
    1C        H  822   4.251   2.715   1.973
    1C        H  823   4.408   2.900   1.973
    1C        H  824   4.607   3.299   1.982
    1C        H  825   4.484   3.516   1.961
    1C        H  826   4.548   3.749   1.963
    1C        H  827   3.815   4.550   1.960
    1C        H  828   3.976   4.395   1.946
    1C        H  829   4.127   4.210   1.960
    1C        H  830   4.519   3.983   1.974
    1C        H  831   2.658   3.827   1.979
    1C        H  832   2.744   4.047   1.978
    1C        H  833   2.702   4.317   1.976
    1C        H  834   3.361   4.502   1.945
    1C        H  835   3.152   4.385   1.955
    1C        H  836   2.509   3.004   1.997
    1C        H  837   2.455   3.239   1.978
    1C        H  838   2.471   3.687   1.968
    2V3OU   H29  839   2.799   3.549   1.982
    2V3OU   C27  840   2.784   3.497   2.080
    2V3OU   H27  841   2.727   3.569   2.144
    2V3OU   H28  842   2.722   3.404   2.078
    2V3OU   O11  843   2.908   3.473   2.148
    2V3OU   C15  844   2.924   3.392   2.258
    2V3OU   C13  845   3.052   3.368   2.313
    2V3OU   C14  846   3.075   3.268   2.407
    2V3OU   C16  847   2.973   3.184   2.451
    2V3OU    H6  848   2.996   3.096   2.513
    2V3OU   C12  849   3.207   3.234   2.465
    2V3OU    O2  850   3.233   3.129   2.528
    2V3OU   C10  851   3.322   3.308   2.412
    2V3OU    C8  852   3.454   3.269   2.431
    2V3OU   O10  853   3.484   3.155   2.500
    2V3OU   H26  854   3.400   3.111   2.517
    2V3OU    C6  855   3.563   3.345   2.379
    2V3OU    C5  856   3.533   3.465   2.314
    2V3OU    C4  857   3.700   3.290   2.393
    2V3OU    H4  858   3.722   3.232   2.488
    2V3OU    H5  859   3.709   3.224   2.301
    2V3OU    C2  860   3.813   3.393   2.392
    2V3OU    O6  861   3.799   3.473   2.510
    2V3OU   H21  862   3.757   3.555   2.477
    2V3OU    C3  863   3.782   3.496   2.283
    2V3OU    H2  864   3.857   3.578   2.277
    2V3OU    H3  865   3.785   3.438   2.188
    2V3OU   C25  866   3.949   3.324   2.385
    2V3OU    O7  867   3.998   3.300   2.274
    2V3OU   C26  868   4.022   3.291   2.514
    2V3OU   H22  869   4.066   3.377   2.571
    2V3OU   H23  870   4.109   3.224   2.492
    2V3OU    O8  871   3.954   3.213   2.609
    2V3OU   H24  872   3.925   3.273   2.680
    2V3OU    C1  873   3.645   3.562   2.294
    2V3OU    H1  874   3.626   3.617   2.197
    2V3OU    O3  875   3.661   3.654   2.403
    2V3OU   C19  876   3.618   3.790   2.392
    2V3OU    H9  877   3.518   3.800   2.341
    2V3OU    O4  878   3.715   3.845   2.306
    2V3OU   C20  879   3.844   3.869   2.364
    2V3OU   H10  880   3.896   3.771   2.386
    2V3OU   C24  881   3.612   3.860   2.528
    2V3OU   H16  882   3.548   3.791   2.590
    2V3OU   H17  883   3.563   3.960   2.518
    2V3OU   C23  884   3.750   3.876   2.593
    2V3OU   H15  885   3.792   3.770   2.602
    2V3OU    N1  886   3.739   3.953   2.715
    2V3OU   H19  887   3.811   3.919   2.776
    2V3OU   H20  888   3.648   3.922   2.744
    2V3OU   C21  889   3.848   3.947   2.495
    2V3OU   H11  890   3.953   3.923   2.530
    2V3OU    O5  891   3.828   4.088   2.494
    2V3OU   H18  892   3.775   4.102   2.574
    2V3OU   C22  893   3.916   3.947   2.255
    2V3OU   H12  894   3.859   4.040   2.232
    2V3OU   H13  895   3.909   3.889   2.159
    2V3OU   H14  896   4.023   3.960   2.284
    2V3OU   C11  897   3.160   3.466   2.296
    2V3OU    O1  898   3.135   3.586   2.273
    2V3OU    C9  899   3.297   3.424   2.334
    2V3OU    C7  900   3.399   3.503   2.282
    2V3OU    O9  901   3.386   3.624   2.219
    2V3OU   H25  902   3.289   3.631   2.215
    2V3OU   C17  903   2.824   3.312   2.317
    2V3OU    H7  904   2.723   3.352   2.302
    2V3OU   C18  905   2.844   3.208   2.406
    2V3OU    H8  906   2.769   3.162   2.474
    3SOL     OW  907   3.120   4.877   0.883
    3SOL    HW1  908   3.151   4.784   0.866
    3SOL    HW2  909   3.050   4.877   0.954
    4SOL     OW  910   6.509   5.694   1.894
    4SOL    HW1  911   6.513   5.776   1.836
    4SOL    HW2  912   6.414   5.663   1.901
    5SOL     OW  913   4.863   1.355   2.696
    5SOL    HW1  914   4.795   1.295   2.653
    5SOL    HW2  915   4.944   1.362   2.638
    6SOL     OW  916   3.843   1.007   1.557
    6SOL    HW1  917   3.819   1.026   1.462
    6SOL    HW2  918   3.942   1.015   1.568
    7SOL     OW  919   6.937   3.993   2.233
    7SOL    HW1  920   7.010   3.929   2.253
    7SOL    HW2  921   6.860   3.978   2.295
    8SOL     OW  922   2.631   0.441   6.781
    8SOL    HW1  923   2.720   0.485   6.786
    8SOL    HW2  924   2.571   0.480   6.852
    9SOL     OW  925   6.819   6.757   6.475
    9SOL    HW1  926   6.759   6.715   6.408
    9SOL    HW2  927   6.897   6.799   6.429
   10SOL     OW  928   1.273   5.194   6.271
   10SOL    HW1  929   1.237   5.275   6.317
   10SOL    HW2  930   1.227   5.112   6.306
   11SOL     OW  931   2.514   0.548   6.258
   11SOL    HW1  932   2.537   0.486   6.333
   11SOL    HW2  933   2.450   0.617   6.291
   12SOL     OW  934   3.773   0.099   4.009
   12SOL    HW1  935   3.735   0.141   3.927
   12SOL    HW2  936   3.858   0.146   4.033
   13SOL     OW  937   4.241   5.687   3.721
   13SOL    HW1  938   4.184   5.637   3.786
   13SOL    HW2  939   4.206   5.674   3.629
   14SOL     OW  940   4.233   5.298   5.849
   14SOL    HW1  941   4.168   5.305   5.924
   14SOL    HW2  942   4.194   5.339   5.766
   15SOL     OW  943   1.405   6.295   1.379
   15SOL    HW1  944   1.362   6.339   1.301
   15SOL    HW2  945   1.371   6.336   1.464
   16SOL     OW  946   5.193   2.996   5.424
   16SOL    HW1  947   5.166   3.089   5.402
   16SOL    HW2  948   5.259   2.997   5.499
   17SOL     OW  949   4.847   5.959   5.579
   17SOL    HW1  950   4.787   5.913   5.644
   17SOL    HW2  951   4.813   5.945   5.486
   18SOL     OW  952   3.487   0.886   6.133
   18SOL    HW1  953   3.517   0.900   6.038
   18SOL    HW2  954   3.563   0.851   6.187
   19SOL     OW  955   0.094   0.415   3.006
   19SOL    HW1  956   0.012   0.381   3.054
   19SOL    HW2  957   0.136   0.488   3.060
   20SOL     OW  958   5.847   2.646   4.342
   20SOL    HW1  959   5.894   2.734   4.335
   20SOL    HW2  960   5.750   2.661   4.360
   21SOL     OW  961   3.297   2.114   2.382
   21SOL    HW1  962   3.338   2.114   2.291
   21SOL    HW2  963   3.369   2.128   2.450
   22SOL     OW  964   2.449   6.583   0.325
   22SOL    HW1  965   2.431   6.649   0.253
   22SOL    HW2  966   2.429   6.624   0.414
   23SOL     OW  967   5.066   6.531   2.835
   23SOL    HW1  968   4.993   6.547   2.902
   23SOL    HW2  969   5.143   6.485   2.880
   24SOL     OW  970   4.638   1.507   3.068
   24SOL    HW1  971   4.603   1.424   3.112
   24SOL    HW2  972   4.604   1.587   3.117
   25SOL     OW  973   3.129   0.037   5.121
   25SOL    HW1  974   3.127   0.122   5.069
   25SOL    HW2  975   3.223   0.007   5.133
   26SOL     OW  976   6.792   1.036   0.635
   26SOL    HW1  977   6.768   1.086   0.718
   26SOL    HW2  978   6.882   0.994   0.647
   27SOL     OW  979   1.187   1.730   2.324
   27SOL    HW1  980   1.252   1.695   2.257
   27SOL    HW2  981   1.141   1.654   2.370
   28SOL     OW  982   3.690   1.691   6.476
   28SOL    HW1  983   3.605   1.672   6.525
   28SOL    HW2  984   3.672   1.759   6.404
   29SOL     OW  985   4.681   2.757   2.044
   29SOL    HW1  986   4.727   2.842   2.071
   29SOL    HW2  987   4.696   2.741   1.947
   30SOL     OW  988   3.263   1.367   4.032
   30SOL    HW1  989   3.248   1.359   3.933
   30SOL    HW2  990   3.318   1.289   4.063
   31SOL     OW  991   1.005   2.644   6.198
   31SOL    HW1  992   1.084   2.600   6.155
   31SOL    HW2  993   0.931   2.578   6.207
   32SOL     OW  994   0.271   1.420   3.063
   32SOL    HW1  995   0.288   1.448   3.157
   32SOL    HW2  996   0.181   1.451   3.034
   33SOL     OW  997   2.001   4.276   6.731
   33SOL    HW1  998   2.067   4.239   6.796
   33SOL    HW2  999   2.045   4.288   6.642
   34SOL     OW 1000   2.394   1.586   3.844
   34SOL    HW1 1001   2.447   1.671   3.849
   34SOL    HW2 1002   2.329   1.582   3.920
   35SOL     OW 1003   3.512   3.407   6.619
   35SOL    HW1 1004   3.487   3.311   6.631
   35SOL    HW2 1005   3.517   3.429   6.522
   36SOL     OW 1006   6.143   0.851   5.622
   36SOL    HW1 1007   6.067   0.840   5.685
   36SOL    HW2 1008   6.113   0.830   5.529
   37SOL     OW 1009   0.917   0.809   0.433
   37SOL    HW1 1010   0.868   0.840   0.352
   37SOL    HW2 1011   0.992   0.749   0.406
   38SOL     OW 1012   6.641   4.939   3.101
   38SOL    HW1 1013   6.576   4.914   3.030
   38SOL    HW2 1014   6.732   4.906   3.076
   39SOL     OW 1015   6.954   5.074   6.951
   39SOL    HW1 1016   6.903   5.108   0.010
   39SOL    HW2 1017   0.029   5.061   6.977
   40SOL     OW 1018   5.142   2.185   1.520
   40SOL    HW1 1019   5.222   2.144   1.474
   40SOL    HW2 1020   5.065   2.187   1.456
   41SOL     OW 1021   6.991   6.044   4.135
   41SOL    HW1 1022   0.029   6.065   4.056
   41SOL    HW2 1023   0.015   5.976   4.192
   42SOL     OW 1024   2.548   5.284   5.051
   42SOL    HW1 1025   2.594   5.281   5.140
   42SOL    HW2 1026   2.565   5.199   5.002
   43SOL     OW 1027   5.796   6.185   5.625
   43SOL    HW1 1028   5.807   6.104   5.568
   43SOL    HW2 1029   5.698   6.205   5.636
   44SOL     OW 1030   5.307   2.048   0.059
   44SOL    HW1 1031   5.344   1.970   0.007
   44SOL    HW2 1032   5.244   2.099   0.001
   45SOL     OW 1033   3.720   6.897   2.913
   45SOL    HW1 1034   3.819   6.909   2.922
   45SOL    HW2 1035   3.680   6.885   3.004
   46SOL     OW 1036   0.538   3.064   3.168
   46SOL    HW1 1037   0.606   3.034   3.235
   46SOL    HW2 1038   0.551   3.161   3.148
   47SOL     OW 1039   5.232   4.499   1.517
   47SOL    HW1 1040   5.197   4.484   1.609
   47SOL    HW2 1041   5.248   4.411   1.472
   48SOL     OW 1042   6.618   2.451   5.913
   48SOL    HW1 1043   6.602   2.446   5.814
   48SOL    HW2 1044   6.697   2.394   5.936
   49SOL     OW 1045   5.211   3.479   1.652
   49SOL    HW1 1046   5.283   3.491   1.720
   49SOL    HW2 1047   5.219   3.388   1.611
   50SOL     OW 1048   6.204   1.365   5.158
   50SOL    HW1 1049   6.180   1.379   5.254
   50SOL    HW2 1050   6.123   1.331   5.108
   51SOL     OW 1051   3.122   6.295   3.106
   51SOL    HW1 1052   3.217   6.298   3.137
   51SOL    HW2 1053   3.064   6.344   3.171
   52SOL     OW 1054   5.179   2.604   3.167
   52SOL    HW1 1055   5.137   2.643   3.249
   52SOL    HW2 1056   5.224   2.518   3.189
   53SOL     OW 1057   3.484   6.763   4.648
   53SOL    HW1 1058   3.455   6.763   4.552
   53SOL    HW2 1059   3.501   6.669   4.678
   54SOL     OW 1060   3.853   4.744   0.902
   54SOL    HW1 1061   3.941   4.778   0.867
   54SOL    HW2 1062   3.780   4.806   0.873
   55SOL     OW 1063   2.900   1.944   6.484
   55SOL    HW1 1064   2.889   2.010   6.558
   55SOL    HW2 1065   2.831   1.872   6.492
   56SOL     OW 1066   0.004   0.672   1.411
   56SOL    HW1 1067   6.931   0.697   1.385
   56SOL    HW2 1068   0.035   0.596   1.354
   57SOL     OW 1069   5.440   0.925   1.194
   57SOL    HW1 1070   5.456   0.893   1.287
   57SOL    HW2 1071   5.521   0.975   1.162
   58SOL     OW 1072   6.181   6.658   5.731
   58SOL    HW1 1073   6.105   6.723   5.740
   58SOL    HW2 1074   6.149   6.576   5.683
   59SOL     OW 1075   0.563   1.833   5.457
   59SOL    HW1 1076   0.606   1.744   5.443
   59SOL    HW2 1077   0.626   1.893   5.507
   60SOL     OW 1078   5.343   1.482   5.590
   60SOL    HW1 1079   5.286   1.508   5.669
   60SOL    HW2 1080   5.328   1.385   5.569
   61SOL     OW 1081   5.116   2.477   4.577
   61SOL    HW1 1082   5.040   2.510   4.633
   61SOL    HW2 1083   5.099   2.500   4.481
   62SOL     OW 1084   0.509   1.090   2.299
   62SOL    HW1 1085   0.477   1.089   2.205
   62SOL    HW2 1086   0.436   1.059   2.360
   63SOL     OW 1087   4.954   1.248   3.903
   63SOL    HW1 1088   4.936   1.274   3.808
   63SOL    HW2 1089   5.019   1.313   3.943
   64SOL     OW 1090   6.991   3.441   5.938
   64SOL    HW1 1091   6.971   3.430   5.840
   64SOL    HW2 1092   6.905   3.459   5.987
   65SOL     OW 1093   0.302   5.131   6.765
   65SOL    HW1 1094   0.265   5.223   6.753
   65SOL    HW2 1095   0.302   5.108   6.863
   66SOL     OW 1096   3.745   0.893   5.580
   66SOL    HW1 1097   3.834   0.866   5.544
   66SOL    HW2 1098   3.737   0.865   5.676
   67SOL     OW 1099   5.485   4.429   5.933
   67SOL    HW1 1100   5.392   4.396   5.918
   67SOL    HW2 1101   5.486   4.493   6.010
   68SOL     OW 1102   5.712   0.923   6.748
   68SOL    HW1 1103   5.686   1.020   6.751
   68SOL    HW2 1104   5.632   0.868   6.724
   69SOL     OW 1105   0.445   3.415   5.746
   69SOL    HW1 1106   0.408   3.506   5.766
   69SOL    HW2 1107   0.495   3.381   5.826
   70SOL     OW 1108   5.427   4.024   4.409
   70SOL    HW1 1109   5.444   4.057   4.502
   70SOL    HW2 1110   5.514   4.018   4.359
   71SOL     OW 1111   3.953   1.883   2.806
   71SOL    HW1 1112   3.858   1.913   2.798
   71SOL    HW2 1113   4.014   1.952   2.768
   72SOL     OW 1114   2.003   6.402   4.550
   72SOL    HW1 1115   1.912   6.379   4.586
   72SOL    HW2 1116   2.020   6.500   4.562
   73SOL     OW 1117   3.064   1.343   0.473
   73SOL    HW1 1118   3.019   1.257   0.447
   73SOL    HW2 1119   2.997   1.417   0.472
   74SOL     OW 1120   5.277   6.997   6.935
   74SOL    HW1 1121   5.337   0.009   6.861
   74SOL    HW2 1122   5.253   6.901   6.919
   75SOL     OW 1123   3.926   0.015   0.489
   75SOL    HW1 1124   3.834   0.014   0.528
   75SOL    HW2 1125   3.984   6.971   0.539
   76SOL     OW 1126   3.069   3.472   0.829
   76SOL    HW1 1127   3.014   3.492   0.748
   76SOL    HW2 1128   3.131   3.548   0.848
   77SOL     OW 1129   6.685   6.646   3.573
   77SOL    HW1 1130   6.621   6.570   3.587
   77SOL    HW2 1131   6.753   6.620   3.505
   78SOL     OW 1132   5.579   0.700   7.009
   78SOL    HW1 1133   5.489   0.734   6.980
   78SOL    HW2 1134   5.634   0.777   0.022
   79SOL     OW 1135   3.197   6.171   0.588
   79SOL    HW1 1136   3.194   6.093   0.526
   79SOL    HW2 1137   3.275   6.229   0.566
   80SOL     OW 1138   5.320   2.136   4.008
   80SOL    HW1 1139   5.395   2.107   3.949
   80SOL    HW2 1140   5.305   2.234   3.997
   81SOL     OW 1141   2.005   7.004   2.672
   81SOL    HW1 1142   1.942   6.973   2.743
   81SOL    HW2 1143   2.072   6.931   2.653
   82SOL     OW 1144   6.678   4.782   0.999
   82SOL    HW1 1145   6.729   4.698   1.016
   82SOL    HW2 1146   6.643   4.782   0.905
   83SOL     OW 1147   0.499   0.916   0.040
   83SOL    HW1 1148   0.519   0.950   0.132
   83SOL    HW2 1149   0.584   0.895   7.013
   84SOL     OW 1150   5.943   2.660   3.280
   84SOL    HW1 1151   6.022   2.701   3.327
   84SOL    HW2 1152   5.902   2.591   3.340
   85SOL     OW 1153   1.558   1.881   4.341
   85SOL    HW1 1154   1.502   1.821   4.399
   85SOL    HW2 1155   1.541   1.976   4.365
   86SOL     OW 1156   6.625   0.398   4.884
   86SOL    HW1 1157   6.655   0.483   4.926
   86SOL    HW2 1158   6.528   0.404   4.862
   87SOL     OW 1159   4.621   3.341   0.617
   87SOL    HW1 1160   4.660   3.348   0.525
   87SOL    HW2 1161   4.585   3.249   0.631
   88SOL     OW 1162   3.505   1.811   5.839
   88SOL    HW1 1163   3.527   1.881   5.771
   88SOL    HW2 1164   3.590   1.775   5.878
   89SOL     OW 1165   1.110   2.578   5.835
   89SOL    HW1 1166   1.149   2.545   5.921
   89SOL    HW2 1167   1.107   2.503   5.769
   90SOL     OW 1168   3.467   5.829   2.378
   90SOL    HW1 1169   3.477   5.839   2.279
   90SOL    HW2 1170   3.503   5.740   2.407
   91SOL     OW 1171   4.997   4.165   4.958
   91SOL    HW1 1172   5.023   4.108   5.036
   91SOL    HW2 1173   4.907   4.137   4.925
   92SOL     OW 1174   4.295   4.619   0.571
   92SOL    HW1 1175   4.324   4.552   0.502
   92SOL    HW2 1176   4.244   4.693   0.527
   93SOL     OW 1177   2.936   4.261   6.350
   93SOL    HW1 1178   2.950   4.301   6.259
   93SOL    HW2 1179   2.944   4.162   6.344
   94SOL     OW 1180   2.206   5.752   6.546
   94SOL    HW1 1181   2.180   5.760   6.450
   94SOL    HW2 1182   2.124   5.748   6.603
   95SOL     OW 1183   1.345   0.516   3.153
   95SOL    HW1 1184   1.272   0.583   3.138
   95SOL    HW2 1185   1.407   0.551   3.224
   96SOL     OW 1186   3.436   0.043   5.287
   96SOL    HW1 1187   3.500   0.052   5.210
   96SOL    HW2 1188   3.414   0.134   5.322
   97SOL     OW 1189   2.267   3.005   5.822
   97SOL    HW1 1190   2.346   3.059   5.792
   97SOL    HW2 1191   2.262   3.007   5.922
   98SOL     OW 1192   6.782   3.631   0.928
   98SOL    HW1 1193   6.713   3.614   0.998
   98SOL    HW2 1194   6.821   3.722   0.941
   99SOL     OW 1195   3.697   3.580   1.216
   99SOL    HW1 1196   3.696   3.538   1.125
   99SOL    HW2 1197   3.604   3.603   1.243
  100SOL     OW 1198   6.607   6.830   5.059
  100SOL    HW1 1199   6.559   6.904   5.106
  100SOL    HW2 1200   6.699   6.820   5.097
  101SOL     OW 1201   1.287   4.952   2.418
  101SOL    HW1 1202   1.381   4.919   2.406
  101SOL    HW2 1203   1.267   5.022   2.349
  102SOL     OW 1204   4.204   6.314   2.657
  102SOL    HW1 1205   4.180   6.363   2.741
  102SOL    HW2 1206   4.160   6.225   2.657
  103SOL     OW 1207   2.530   1.183   1.854
  103SOL    HW1 1208   2.525   1.215   1.949
  103SOL    HW2 1209   2.607   1.119   1.845
  104SOL     OW 1210   0.768   5.623   2.685
  104SOL    HW1 1211   0.682   5.656   2.645
  104SOL    HW2 1212   0.840   5.691   2.669
  105SOL     OW 1213   6.343   2.662   6.701
  105SOL    HW1 1214   6.316   2.742   6.755
  105SOL    HW2 1215   6.273   2.642   6.632
  106SOL     OW 1216   3.238   6.248   4.726
  106SOL    HW1 1217   3.185   6.331   4.738
  106SOL    HW2 1218   3.234   6.192   4.809
  107SOL     OW 1219   2.135   1.333   1.268
  107SOL    HW1 1220   2.225   1.335   1.224
  107SOL    HW2 1221   2.088   1.420   1.251
  108SOL     OW 1222   2.768   5.245   5.562
  108SOL    HW1 1223   2.826   5.164   5.556
  108SOL    HW2 1224   2.745   5.276   5.470
  109SOL     OW 1225   6.902   0.427   1.556
  109SOL    HW1 1226   6.936   0.499   1.495
  109SOL    HW2 1227   6.876   0.347   1.502
  110SOL     OW 1228   3.327   5.747   5.072
  110SOL    HW1 1229   3.316   5.754   5.171
  110SOL    HW2 1230   3.237   5.735   5.029
  111SOL     OW 1231   2.207   1.190   4.404
  111SOL    HW1 1232   2.229   1.283   4.433
  111SOL    HW2 1233   2.120   1.190   4.355
  112SOL     OW 1234   4.045   6.715   6.426
  112SOL    HW1 1235   4.123   6.775   6.405
  112SOL    HW2 1236   3.962   6.771   6.434
  113SOL     OW 1237   6.321   6.032   3.067
  113SOL    HW1 1238   6.333   5.957   3.002
  113SOL    HW2 1239   6.330   6.119   3.019
  114SOL     OW 1240   0.379   7.018   1.483
  114SOL    HW1 1241   0.421   6.988   1.397
  114SOL    HW2 1242   0.400   0.094   1.498
  115SOL     OW 1243   4.447   1.527   3.454
  115SOL    HW1 1244   4.527   1.560   3.404
  115SOL    HW2 1245   4.474   1.452   3.514
  116SOL     OW 1246   5.848   5.128   1.278
  116SOL    HW1 1247   5.934   5.178   1.292
  116SOL    HW2 1248   5.841   5.055   1.347
  117SOL     OW 1249   1.552   2.125   0.493
  117SOL    HW1 1250   1.603   2.095   0.574
  117SOL    HW2 1251   1.463   2.078   0.492
  118SOL     OW 1252   1.478   0.792   3.413
  118SOL    HW1 1253   1.479   0.698   3.447
  118SOL    HW2 1254   1.546   0.846   3.462
  119SOL     OW 1255   0.734   0.825   6.746
  119SOL    HW1 1256   0.643   0.804   6.708
  119SOL    HW2 1257   0.760   0.918   6.719
  120SOL     OW 1258   6.311   0.067   0.073
  120SOL    HW1 1259   6.377   0.141   0.062
  120SOL    HW2 1260   6.292   0.052   0.170
  121SOL     OW 1261   1.568   3.966   6.026
  121SOL    HW1 1262   1.472   3.939   6.016
  121SOL    HW2 1263   1.608   3.983   5.936
  122SOL     OW 1264   1.781   3.463   6.005
  122SOL    HW1 1265   1.848   3.522   5.961
  122SOL    HW2 1266   1.824   3.377   6.032
  123SOL     OW 1267   0.675   1.006   2.734
  123SOL    HW1 1268   0.654   0.911   2.711
  123SOL    HW2 1269   0.707   1.053   2.651
  124SOL     OW 1270   4.554   2.722   0.752
  124SOL    HW1 1271   4.502   2.802   0.782
  124SOL    HW2 1272   4.544   2.710   0.654
  125SOL     OW 1273   2.645   1.780   1.464
  125SOL    HW1 1274   2.604   1.864   1.428
  125SOL    HW2 1275   2.574   1.709   1.472
  126SOL     OW 1276   2.220   4.153   1.069
  126SOL    HW1 1277   2.126   4.128   1.093
  126SOL    HW2 1278   2.266   4.192   1.149
  127SOL     OW 1279   1.060   5.364   0.133
  127SOL    HW1 1280   1.118   5.286   0.157
  127SOL    HW2 1281   1.117   5.439   0.101
  128SOL     OW 1282   5.419   2.682   1.316
  128SOL    HW1 1283   5.386   2.776   1.314
  128SOL    HW2 1284   5.513   2.680   1.351
  129SOL     OW 1285   1.927   3.348   6.384
  129SOL    HW1 1286   2.026   3.358   6.375
  129SOL    HW2 1287   1.904   3.251   6.397
  130SOL     OW 1288   1.431   2.293   3.782
  130SOL    HW1 1289   1.396   2.254   3.697
  130SOL    HW2 1290   1.368   2.270   3.857
  131SOL     OW 1291   5.506   1.991   3.602
  131SOL    HW1 1292   5.520   2.039   3.689
  131SOL    HW2 1293   5.514   2.055   3.526
  132SOL     OW 1294   2.670   2.918   1.014
  132SOL    HW1 1295   2.574   2.925   1.042
  132SOL    HW2 1296   2.698   3.004   0.971
  133SOL     OW 1297   4.762   6.928   3.901
  133SOL    HW1 1298   4.798   6.848   3.853
  133SOL    HW2 1299   4.786   7.011   3.849
  134SOL     OW 1300   6.149   0.964   2.898
  134SOL    HW1 1301   6.083   0.973   2.824
  134SOL    HW2 1302   6.234   0.924   2.863
  135SOL     OW 1303   5.779   3.885   3.465
  135SOL    HW1 1304   5.751   3.892   3.561
  135SOL    HW2 1305   5.822   3.971   3.437
  136SOL     OW 1306   2.847   4.267   5.621
  136SOL    HW1 1307   2.819   4.338   5.556
  136SOL    HW2 1308   2.778   4.194   5.622
  137SOL     OW 1309   5.981   2.215   4.470
  137SOL    HW1 1310   6.063   2.158   4.476
  137SOL    HW2 1311   6.007   2.311   4.460
  138SOL     OW 1312   1.171   4.240   2.230
  138SOL    HW1 1313   1.228   4.203   2.304
  138SOL    HW2 1314   1.101   4.299   2.270
  139SOL     OW 1315   1.635   0.072   4.942
  139SOL    HW1 1316   1.720   0.028   4.914
  139SOL    HW2 1317   1.564   0.056   4.874
  140SOL     OW 1318   0.881   5.926   2.643
  140SOL    HW1 1319   0.873   5.932   2.742
  140SOL    HW2 1320   0.796   5.956   2.600
  141SOL     OW 1321   6.807   2.646   5.396
  141SOL    HW1 1322   6.792   2.558   5.350
  141SOL    HW2 1323   6.903   2.671   5.390
  142SOL     OW 1324   0.632   3.945   0.866
  142SOL    HW1 1325   0.718   3.905   0.898
  142SOL    HW2 1326   0.649   4.007   0.790
  143SOL     OW 1327   5.928   4.269   1.066
  143SOL    HW1 1328   5.910   4.183   1.017
  143SOL    HW2 1329   5.864   4.339   1.034
  144SOL     OW 1330   1.166   5.769   5.808
  144SOL    HW1 1331   1.261   5.792   5.833
  144SOL    HW2 1332   1.132   5.836   5.742
  145SOL     OW 1333   6.962   5.320   0.419
  145SOL    HW1 1334   7.001   5.296   0.508
  145SOL    HW2 1335   7.009   5.401   0.383
  146SOL     OW 1336   4.671   0.259   6.442
  146SOL    HW1 1337   4.573   0.266   6.457
  146SOL    HW2 1338   4.698   0.163   6.442
  147SOL     OW 1339   6.237   3.834   6.172
  147SOL    HW1 1340   6.249   3.736   6.156
  147SOL    HW2 1341   6.146   3.862   6.140
  148SOL     OW 1342   6.644   5.371   6.946
  148SOL    HW1 1343   6.660   5.290   7.002
  148SOL    HW2 1344   6.731   5.420   6.932
  149SOL     OW 1345   3.629   2.111   3.733
  149SOL    HW1 1346   3.555   2.166   3.695
  149SOL    HW2 1347   3.608   2.014   3.722
  150SOL     OW 1348   5.950   5.872   6.979
  150SOL    HW1 1349   5.933   5.852   6.882
  150SOL    HW2 1350   6.012   5.804   7.017
  151SOL     OW 1351   2.868   2.714   0.983
  151SOL    HW1 1352   2.850   2.688   0.889
  151SOL    HW2 1353   2.810   2.791   1.008
  152SOL     OW 1354   1.035   0.865   2.085
  152SOL    HW1 1355   0.976   0.803   2.034
  152SOL    HW2 1356   1.036   0.839   2.181
  153SOL     OW 1357   2.825   0.859   1.498
  153SOL    HW1 1358   2.873   0.828   1.580
  153SOL    HW2 1359   2.855   0.805   1.420
  154SOL     OW 1360   0.597   1.981   2.380
  154SOL    HW1 1361   0.558   1.936   2.300
  154SOL    HW2 1362   0.629   2.072   2.355
  155SOL     OW 1363   0.062   1.363   3.558
  155SOL    HW1 1364   0.074   1.377   3.459
  155SOL    HW2 1365   6.988   1.387   3.583
  156SOL     OW 1366   0.099   2.350   0.668
  156SOL    HW1 1367   0.190   2.311   0.664
  156SOL    HW2 1368   0.064   2.346   0.762
  157SOL     OW 1369   5.508   3.042   1.780
  157SOL    HW1 1370   5.576   2.988   1.731
  157SOL    HW2 1371   5.450   2.982   1.835
  158SOL     OW 1372   2.442   4.851   2.148
  158SOL    HW1 1373   2.537   4.827   2.128
  158SOL    HW2 1374   2.417   4.933   2.097
  159SOL     OW 1375   4.721   4.810   2.180
  159SOL    HW1 1376   4.756   4.717   2.191
  159SOL    HW2 1377   4.702   4.828   2.084
  160SOL     OW 1378   5.110   5.238   0.618
  160SOL    HW1 1379   5.101   5.139   0.618
  160SOL    HW2 1380   5.065   5.276   0.699
  161SOL     OW 1381   1.919   5.775   4.260
  161SOL    HW1 1382   1.872   5.864   4.268
  161SOL    HW2 1383   2.014   5.790   4.231
  162SOL     OW 1384   3.867   5.889   0.268
  162SOL    HW1 1385   3.787   5.950   0.265
  162SOL    HW2 1386   3.860   5.829   0.348
  163SOL     OW 1387   6.097   5.238   1.165
  163SOL    HW1 1388   6.184   5.280   1.140
  163SOL    HW2 1389   6.088   5.150   1.118
  164SOL     OW 1390   6.906   4.727   0.480
  164SOL    HW1 1391   6.980   4.690   0.536
  164SOL    HW2 1392   6.868   4.809   0.524
  165SOL     OW 1393   4.972   3.134   1.252
  165SOL    HW1 1394   4.985   3.205   1.321
  165SOL    HW2 1395   4.898   3.073   1.281
  166SOL     OW 1396   6.948   3.881   2.935
  166SOL    HW1 1397   7.019   3.833   2.986
  166SOL    HW2 1398   6.887   3.928   2.998
  167SOL     OW 1399   4.779   2.873   0.365
  167SOL    HW1 1400   4.702   2.894   0.426
  167SOL    HW2 1401   4.757   2.904   0.272
  168SOL     OW 1402   2.685   3.413   1.110
  168SOL    HW1 1403   2.607   3.476   1.108
  168SOL    HW2 1404   2.709   3.392   1.204
  169SOL     OW 1405   4.960   1.607   1.882
  169SOL    HW1 1406   5.008   1.640   1.801
  169SOL    HW2 1407   4.862   1.627   1.873
  170SOL     OW 1408   1.110   1.204   3.539
  170SOL    HW1 1409   1.185   1.139   3.529
  170SOL    HW2 1410   1.104   1.261   3.458
  171SOL     OW 1411   3.474   4.390   6.405
  171SOL    HW1 1412   3.433   4.305   6.372
  171SOL    HW2 1413   3.462   4.461   6.335
  172SOL     OW 1414   6.032   1.849   3.112
  172SOL    HW1 1415   6.049   1.885   3.204
  172SOL    HW2 1416   5.946   1.886   3.077
  173SOL     OW 1417   6.308   1.814   4.336
  173SOL    HW1 1418   6.253   1.730   4.342
  173SOL    HW2 1419   6.287   1.872   4.415
  174SOL     OW 1420   3.928   5.364   3.311
  174SOL    HW1 1421   4.027   5.352   3.311
  174SOL    HW2 1422   3.886   5.300   3.376
  175SOL     OW 1423   2.769   0.143   1.528
  175SOL    HW1 1424   2.822   0.066   1.565
  175SOL    HW2 1425   2.806   0.228   1.565
  176SOL     OW 1426   0.646   4.840   0.509
  176SOL    HW1 1427   0.625   4.904   0.435
  176SOL    HW2 1428   0.734   4.795   0.490
  177SOL     OW 1429   5.885   3.231   2.814
  177SOL    HW1 1430   5.952   3.304   2.803
  177SOL    HW2 1431   5.794   3.269   2.825
  178SOL     OW 1432   2.336   3.170   6.883
  178SOL    HW1 1433   2.333   3.092   6.947
  178SOL    HW2 1434   2.275   3.242   6.915
  179SOL     OW 1435   3.729   0.834   5.273
  179SOL    HW1 1436   3.674   0.792   5.346
  179SOL    HW2 1437   3.803   0.887   5.314
  180SOL     OW 1438   1.781   6.502   0.316
  180SOL    HW1 1439   1.834   6.423   0.349
  180SOL    HW2 1440   1.684   6.476   0.309
  181SOL     OW 1441   3.239   2.915   6.193
  181SOL    HW1 1442   3.297   2.852   6.142
  181SOL    HW2 1443   3.149   2.875   6.207
  182SOL     OW 1444   3.869   1.788   5.275
  182SOL    HW1 1445   3.880   1.827   5.184
  182SOL    HW2 1446   3.956   1.795   5.324
  183SOL     OW 1447   3.960   2.203   3.155
  183SOL    HW1 1448   4.018   2.185   3.235
  183SOL    HW2 1449   3.871   2.161   3.168
  184SOL     OW 1450   1.099   6.388   4.322
  184SOL    HW1 1451   1.062   6.380   4.229
  184SOL    HW2 1452   1.025   6.406   4.386
  185SOL     OW 1453   0.467   1.510   6.036
  185SOL    HW1 1454   0.478   1.545   6.129
  185SOL    HW2 1455   0.516   1.423   6.027
  186SOL     OW 1456   5.740   0.697   4.836
  186SOL    HW1 1457   5.733   0.755   4.917
  186SOL    HW2 1458   5.668   0.628   4.838
  187SOL     OW 1459   4.157   0.105   2.949
  187SOL    HW1 1460   4.198   0.053   3.024
  187SOL    HW2 1461   4.074   0.151   2.981
  188SOL     OW 1462   0.690   1.555   3.105
  188SOL    HW1 1463   0.708   1.622   3.032
  188SOL    HW2 1464   0.683   1.603   3.192
  189SOL     OW 1465   2.310   5.374   1.387
  189SOL    HW1 1466   2.296   5.472   1.404
  189SOL    HW2 1467   2.295   5.324   1.473
  190SOL     OW 1468   5.328   2.361   4.711
  190SOL    HW1 1469   5.373   2.435   4.762
  190SOL    HW2 1470   5.257   2.400   4.652
  191SOL     OW 1471   6.069   6.747   6.952
  191SOL    HW1 1472   6.010   6.674   6.917
  191SOL    HW2 1473   6.032   6.836   6.924
  192SOL     OW 1474   1.051   5.960   2.119
  192SOL    HW1 1475   1.142   5.927   2.144
  192SOL    HW2 1476   0.989   5.883   2.107
  193SOL     OW 1477   4.474   2.752   5.425
  193SOL    HW1 1478   4.528   2.803   5.358
  193SOL    HW2 1479   4.530   2.734   5.506
  194SOL     OW 1480   3.833   0.618   3.080
  194SOL    HW1 1481   3.858   0.709   3.048
  194SOL    HW2 1482   3.766   0.578   3.018
  195SOL     OW 1483   2.195   0.305   5.202
  195SOL    HW1 1484   2.216   0.237   5.131
  195SOL    HW2 1485   2.273   0.365   5.215
  196SOL     OW 1486   2.853   0.091   0.736
  196SOL    HW1 1487   2.754   0.097   0.738
  196SOL    HW2 1488   2.892   0.174   0.775
  197SOL     OW 1489   2.567   0.108   1.362
  197SOL    HW1 1490   2.490   0.059   1.403
  197SOL    HW2 1491   2.634   0.131   1.433
  198SOL     OW 1492   4.460   0.587   2.262
  198SOL    HW1 1493   4.511   0.667   2.292
  198SOL    HW2 1494   4.468   0.576   2.163
  199SOL     OW 1495   6.551   1.600   3.781
  199SOL    HW1 1496   6.591   1.563   3.697
  199SOL    HW2 1497   6.470   1.546   3.806
  200SOL     OW 1498   0.825   4.482   1.221
  200SOL    HW1 1499   0.840   4.469   1.319
  200SOL    HW2 1500   0.899   4.438   1.169
  201SOL     OW 1501   6.854   0.136   5.576
  201SOL    HW1 1502   6.780   0.079   5.539
  201SOL    HW2 1503   6.941   0.106   5.539
  202SOL     OW 1504   4.320   1.092   0.041
  202SOL    HW1 1505   4.296   1.188   0.049
  202SOL    HW2 1506   4.321   1.050   0.132
  203SOL     OW 1507   5.776   2.436   5.175
  203SOL    HW1 1508   5.864   2.484   5.182
  203SOL    HW2 1509   5.789   2.340   5.199
  204SOL     OW 1510   1.283   0.423   5.525
  204SOL    HW1 1511   1.363   0.441   5.584
  204SOL    HW2 1512   1.311   0.425   5.429
  205SOL     OW 1513   0.081   1.804   2.880
  205SOL    HW1 1514   0.062   1.882   2.821
  205SOL    HW2 1515   0.039   1.819   2.970
  206SOL     OW 1516   0.936   4.562   0.844
  206SOL    HW1 1517   1.021   4.614   0.833
  206SOL    HW2 1518   0.863   4.622   0.877
  207SOL     OW 1519   6.241   1.445   3.686
  207SOL    HW1 1520   6.298   1.423   3.765
  207SOL    HW2 1521   6.154   1.484   3.717
  208SOL     OW 1522   6.596   3.860   4.942
  208SOL    HW1 1523   6.551   3.812   5.017
  208SOL    HW2 1524   6.642   3.941   4.978
  209SOL     OW 1525   0.245   5.463   4.475
  209SOL    HW1 1526   0.167   5.423   4.525
  209SOL    HW2 1527   0.326   5.406   4.490
  210SOL     OW 1528   4.151   2.055   0.551
  210SOL    HW1 1529   4.209   2.081   0.628
  210SOL    HW2 1530   4.098   1.974   0.575
  211SOL     OW 1531   1.938   6.168   2.330
  211SOL    HW1 1532   1.882   6.241   2.369
  211SOL    HW2 1533   1.934   6.087   2.388
  212SOL     OW 1534   1.039   3.987   2.163
  212SOL    HW1 1535   0.992   3.970   2.076
  212SOL    HW2 1536   1.074   4.080   2.164
  213SOL     OW 1537   3.203   0.363   0.553
  213SOL    HW1 1538   3.165   0.406   0.471
  213SOL    HW2 1539   3.242   0.274   0.529
  214SOL     OW 1540   4.434   5.031   2.085
  214SOL    HW1 1541   4.387   4.967   2.146
  214SOL    HW2 1542   4.472   4.982   2.007
  215SOL     OW 1543   2.205   4.046   0.425
  215SOL    HW1 1544   2.284   4.108   0.432
  215SOL    HW2 1545   2.193   3.999   0.513
  216SOL     OW 1546   1.981   6.008   3.995
  216SOL    HW1 1547   2.011   6.085   4.051
  216SOL    HW2 1548   1.881   6.003   3.995
  217SOL     OW 1549   1.666   2.257   4.167
  217SOL    HW1 1550   1.668   2.344   4.118
  217SOL    HW2 1551   1.749   2.205   4.146
  218SOL     OW 1552   0.290   3.301   4.752
  218SOL    HW1 1553   0.310   3.282   4.848
  218SOL    HW2 1554   0.192   3.314   4.740
  219SOL     OW 1555   4.546   0.328   6.979
  219SOL    HW1 1556   4.593   0.401   0.008
  219SOL    HW2 1557   4.448   0.348   6.976
  220SOL     OW 1558   2.883   6.567   1.738
  220SOL    HW1 1559   2.802   6.518   1.704
  220SOL    HW2 1560   2.960   6.549   1.676
  221SOL     OW 1561   6.392   4.016   0.945
  221SOL    HW1 1562   6.398   4.109   0.981
  221SOL    HW2 1563   6.371   4.019   0.847
  222SOL     OW 1564   1.730   4.830   5.852
  222SOL    HW1 1565   1.721   4.859   5.948
  222SOL    HW2 1566   1.780   4.899   5.801
  223SOL     OW 1567   6.243   3.706   6.439
  223SOL    HW1 1568   6.189   3.623   6.424
  223SOL    HW2 1569   6.223   3.772   6.367
  224SOL     OW 1570   2.424   1.853   4.823
  224SOL    HW1 1571   2.465   1.908   4.896
  224SOL    HW2 1572   2.454   1.758   4.832
  225SOL     OW 1573   4.608   3.856   6.357
  225SOL    HW1 1574   4.612   3.936   6.297
  225SOL    HW2 1575   4.595   3.886   6.451
  226SOL     OW 1576   1.344   1.552   5.508
  226SOL    HW1 1577   1.413   1.558   5.436
  226SOL    HW2 1578   1.381   1.591   5.592
  227SOL     OW 1579   1.793   3.897   2.028
  227SOL    HW1 1580   1.844   3.833   1.970
  227SOL    HW2 1581   1.700   3.865   2.040
  228SOL     OW 1582   2.860   6.897   3.628
  228SOL    HW1 1583   2.884   6.989   3.658
  228SOL    HW2 1584   2.846   6.897   3.529
  229SOL     OW 1585   6.072   6.286   6.705
  229SOL    HW1 1586   6.117   6.335   6.631
  229SOL    HW2 1587   6.135   6.274   6.781
  230SOL     OW 1588   3.272   4.888   3.681
  230SOL    HW1 1589   3.352   4.885   3.741
  230SOL    HW2 1590   3.189   4.875   3.736
  231SOL     OW 1591   6.398   2.047   6.840
  231SOL    HW1 1592   6.469   2.060   6.909
  231SOL    HW2 1593   6.341   2.129   6.837
  232SOL     OW 1594   0.595   3.162   6.697
  232SOL    HW1 1595   0.590   3.154   6.598
  232SOL    HW2 1596   0.539   3.239   6.727
  233SOL     OW 1597   3.350   1.400   2.754
  233SOL    HW1 1598   3.407   1.330   2.797
  233SOL    HW2 1599   3.345   1.480   2.814
  234SOL     OW 1600   5.585   0.455   5.772
  234SOL    HW1 1601   5.617   0.476   5.680
  234SOL    HW2 1602   5.518   0.524   5.800
  235SOL     OW 1603   4.229   2.505   1.748
  235SOL    HW1 1604   4.281   2.510   1.663
  235SOL    HW2 1605   4.184   2.416   1.753
  236SOL     OW 1606   5.428   2.849   6.664
  236SOL    HW1 1607   5.437   2.873   6.567
  236SOL    HW2 1608   5.504   2.789   6.690
  237SOL     OW 1609   6.217   4.609   1.801
  237SOL    HW1 1610   6.285   4.677   1.829
  237SOL    HW2 1611   6.237   4.577   1.708
  238SOL     OW 1612   5.293   1.649   0.352
  238SOL    HW1 1613   5.277   1.735   0.303
  238SOL    HW2 1614   5.303   1.667   0.450
  239SOL     OW 1615   0.540   5.286   0.083
  239SOL    HW1 1616   0.519   5.383   0.075
  239SOL    HW2 1617   0.635   5.270   0.058
  240SOL     OW 1618   0.175   3.083   3.413
  240SOL    HW1 1619   0.237   3.005   3.423
  240SOL    HW2 1620   0.080   3.050   3.420
  241SOL     OW 1621   2.554   1.978   5.032
  241SOL    HW1 1622   2.646   1.939   5.033
  241SOL    HW2 1623   2.499   1.935   5.103
  242SOL     OW 1624   3.296   3.791   4.026
  242SOL    HW1 1625   3.324   3.698   4.050
  242SOL    HW2 1626   3.363   3.831   3.964
  243SOL     OW 1627   4.371   0.638   6.287
  243SOL    HW1 1628   4.317   0.660   6.206
  243SOL    HW2 1629   4.447   0.578   6.261
  244SOL     OW 1630   5.864   2.526   5.535
  244SOL    HW1 1631   5.804   2.463   5.488
  244SOL    HW2 1632   5.937   2.475   5.581
  245SOL     OW 1633   5.358   3.640   4.097
  245SOL    HW1 1634   5.401   3.550   4.109
  245SOL    HW2 1635   5.385   3.699   4.173
  246SOL     OW 1636   4.321   2.379   3.707
  246SOL    HW1 1637   4.367   2.413   3.790
  246SOL    HW2 1638   4.383   2.387   3.629
  247SOL     OW 1639   2.789   1.968   1.250
  247SOL    HW1 1640   2.865   1.905   1.234
  247SOL    HW2 1641   2.825   2.058   1.274
  248SOL     OW 1642   3.692   1.207   2.413
  248SOL    HW1 1643   3.625   1.185   2.484
  248SOL    HW2 1644   3.645   1.222   2.326
  249SOL     OW 1645   4.161   6.790   4.632
  249SOL    HW1 1646   4.112   6.850   4.695
  249SOL    HW2 1647   4.163   6.697   4.669
  250SOL     OW 1648   5.053   2.788   0.431
  250SOL    HW1 1649   4.957   2.807   0.412
  250SOL    HW2 1650   5.066   2.689   0.438
  251SOL     OW 1651   4.646   4.142   5.724
  251SOL    HW1 1652   4.728   4.110   5.772
  251SOL    HW2 1653   4.577   4.069   5.726
  252SOL     OW 1654   6.579   5.761   6.922
  252SOL    HW1 1655   6.623   5.753   6.833
  252SOL    HW2 1656   6.520   5.682   6.938
  253SOL     OW 1657   2.419   5.407   5.863
  253SOL    HW1 1658   2.456   5.456   5.942
  253SOL    HW2 1659   2.493   5.362   5.814
  254SOL     OW 1660   5.864   2.486   3.484
  254SOL    HW1 1661   5.825   2.394   3.494
  254SOL    HW2 1662   5.808   2.551   3.534
  255SOL     OW 1663   1.670   4.726   5.297
  255SOL    HW1 1664   1.690   4.804   5.238
  255SOL    HW2 1665   1.676   4.641   5.244
  256SOL     OW 1666   6.281   3.569   6.105
  256SOL    HW1 1667   6.257   3.496   6.041
  256SOL    HW2 1668   6.282   3.533   6.198
  257SOL     OW 1669   4.942   0.457   3.844
  257SOL    HW1 1670   4.857   0.456   3.895
  257SOL    HW2 1671   4.933   0.399   3.763
  258SOL     OW 1672   2.089   4.950   4.673
  258SOL    HW1 1673   2.113   5.016   4.602
  258SOL    HW2 1674   2.116   4.986   4.763
  259SOL     OW 1675   0.238   1.592   2.607
  259SOL    HW1 1676   0.269   1.545   2.689
  259SOL    HW2 1677   0.294   1.674   2.593
  260SOL     OW 1678   4.506   0.506   1.441
  260SOL    HW1 1679   4.488   0.511   1.539
  260SOL    HW2 1680   4.460   0.426   1.403
  261SOL     OW 1681   6.917   3.217   0.744
  261SOL    HW1 1682   6.920   3.280   0.821
  261SOL    HW2 1683   6.924   3.268   0.658
  262SOL     OW 1684   0.509   3.644   0.072
  262SOL    HW1 1685   0.438   3.626   0.141
  262SOL    HW2 1686   0.582   3.576   0.080
  263SOL     OW 1687   1.916   0.627   3.895
  263SOL    HW1 1688   1.917   0.717   3.940
  263SOL    HW2 1689   1.833   0.621   3.838
  264SOL     OW 1690   6.114   3.137   6.558
  264SOL    HW1 1691   6.205   3.139   6.517
  264SOL    HW2 1692   6.099   3.222   6.609
  265SOL     OW 1693   5.193   6.376   2.144
  265SOL    HW1 1694   5.279   6.367   2.195
  265SOL    HW2 1695   5.170   6.472   2.133
  266SOL     OW 1696   3.320   2.768   5.631
  266SOL    HW1 1697   3.404   2.796   5.584
  266SOL    HW2 1698   3.241   2.811   5.588
  267SOL     OW 1699   0.527   1.381   6.874
  267SOL    HW1 1700   0.451   1.431   6.914
  267SOL    HW2 1701   0.492   1.313   6.810
  268SOL     OW 1702   3.548   0.878   5.861
  268SOL    HW1 1703   3.493   0.914   5.786
  268SOL    HW2 1704   3.588   0.790   5.834
  269SOL     OW 1705   0.636   3.183   2.040
  269SOL    HW1 1706   0.588   3.230   1.966
  269SOL    HW2 1707   0.727   3.155   2.009
  270SOL     OW 1708   1.043   0.078   0.552
  270SOL    HW1 1709   1.027   0.090   0.649
  270SOL    HW2 1710   0.957   0.087   0.502
  271SOL     OW 1711   0.011   1.860   6.739
  271SOL    HW1 1712   6.999   1.805   6.662
  271SOL    HW2 1713   6.955   1.915   6.774
  272SOL     OW 1714   3.552   5.375   4.542
  272SOL    HW1 1715   3.496   5.338   4.468
  272SOL    HW2 1716   3.532   5.473   4.553
  273SOL     OW 1717   1.630   4.360   4.971
  273SOL    HW1 1718   1.635   4.260   4.966
  273SOL    HW2 1719   1.682   4.399   4.895
  274SOL     OW 1720   4.304   2.159   3.125
  274SOL    HW1 1721   4.305   2.174   3.026
  274SOL    HW2 1722   4.289   2.062   3.143
  275SOL     OW 1723   6.209   4.436   5.235
  275SOL    HW1 1724   6.207   4.362   5.303
  275SOL    HW2 1725   6.214   4.524   5.282
  276SOL     OW 1726   7.007   6.679   3.035
  276SOL    HW1 1727   6.915   6.672   3.074
  276SOL    HW2 1728   0.036   6.593   3.049
  277SOL     OW 1729   1.446   3.793   0.509
  277SOL    HW1 1730   1.500   3.877   0.503
  277SOL    HW2 1731   1.350   3.814   0.492
  278SOL     OW 1732   6.371   5.070   2.127
  278SOL    HW1 1733   6.317   5.047   2.046
  278SOL    HW2 1734   6.467   5.083   2.101
  279SOL     OW 1735   6.567   3.013   4.176
  279SOL    HW1 1736   6.661   3.014   4.210
  279SOL    HW2 1737   6.556   2.940   4.109
  280SOL     OW 1738   3.004   0.029   3.057
  280SOL    HW1 1739   2.943   0.100   3.093
  280SOL    HW2 1740   3.049   7.004   3.134
  281SOL     OW 1741   2.499   4.628   1.929
  281SOL    HW1 1742   2.470   4.541   1.969
  281SOL    HW2 1743   2.594   4.646   1.956
  282SOL     OW 1744   3.186   1.411   5.563
  282SOL    HW1 1745   3.088   1.434   5.567
  282SOL    HW2 1746   3.234   1.461   5.635
  283SOL     OW 1747   6.007   1.298   6.906
  283SOL    HW1 1748   6.073   1.373   6.909
  283SOL    HW2 1749   6.010   1.249   6.993
  284SOL     OW 1750   1.307   4.279   3.358
  284SOL    HW1 1751   1.352   4.212   3.299
  284SOL    HW2 1752   1.364   4.297   3.438
  285SOL     OW 1753   6.229   4.688   5.371
  285SOL    HW1 1754   6.290   4.736   5.433
  285SOL    HW2 1755   6.143   4.668   5.417
  286SOL     OW 1756   3.271   5.743   5.890
  286SOL    HW1 1757   3.297   5.837   5.915
  286SOL    HW2 1758   3.229   5.743   5.799
  287SOL     OW 1759   0.286   4.063   0.707
  287SOL    HW1 1760   0.374   4.081   0.749
  287SOL    HW2 1761   0.237   4.150   0.694
  288SOL     OW 1762   4.132   1.080   5.845
  288SOL    HW1 1763   4.129   1.004   5.780
  288SOL    HW2 1764   4.211   1.069   5.906
  289SOL     OW 1765   0.152   4.317   5.426
  289SOL    HW1 1766   0.222   4.280   5.364
  289SOL    HW2 1767   0.163   4.277   5.517
  290SOL     OW 1768   6.200   1.976   4.548
  290SOL    HW1 1769   6.126   1.916   4.516
  290SOL    HW2 1770   6.238   1.940   4.633
  291SOL     OW 1771   1.624   2.511   4.385
  291SOL    HW1 1772   1.525   2.497   4.384
  291SOL    HW2 1773   1.670   2.422   4.382
  292SOL     OW 1774   1.805   2.272   3.430
  292SOL    HW1 1775   1.794   2.180   3.392
  292SOL    HW2 1776   1.770   2.274   3.524
  293SOL     OW 1777   4.551   5.392   1.739
  293SOL    HW1 1778   4.499   5.405   1.824
  293SOL    HW2 1779   4.646   5.370   1.761
  294SOL     OW 1780   0.224   5.559   6.364
  294SOL    HW1 1781   0.301   5.605   6.407
  294SOL    HW2 1782   0.253   5.471   6.328
  295SOL     OW 1783   3.452   2.030   4.241
  295SOL    HW1 1784   3.510   1.960   4.284
  295SOL    HW2 1785   3.498   2.066   4.160
  296SOL     OW 1786   4.364   1.893   2.871
  296SOL    HW1 1787   4.313   1.907   2.956
  296SOL    HW2 1788   4.332   1.958   2.802
  297SOL     OW 1789   2.333   4.535   2.985
  297SOL    HW1 1790   2.319   4.633   3.002
  297SOL    HW2 1791   2.300   4.513   2.894
  298SOL     OW 1792   4.120   6.384   1.238
  298SOL    HW1 1793   4.105   6.288   1.213
  298SOL    HW2 1794   4.076   6.443   1.170
  299SOL     OW 1795   5.356   3.388   5.994
  299SOL    HW1 1796   5.429   3.446   6.030
  299SOL    HW2 1797   5.267   3.428   6.018
  300SOL     OW 1798   6.594   0.937   1.637
  300SOL    HW1 1799   6.665   0.873   1.668
  300SOL    HW2 1800   6.629   0.990   1.560
  301SOL     OW 1801   4.933   3.556   1.310
  301SOL    HW1 1802   4.922   3.609   1.394
  301SOL    HW2 1803   4.993   3.478   1.326
  302SOL     OW 1804   0.864   0.851   3.234
  302SOL    HW1 1805   0.806   0.786   3.184
  302SOL    HW2 1806   0.855   0.835   3.332
  303SOL     OW 1807   5.631   0.769   2.136
  303SOL    HW1 1808   5.728   0.746   2.148
  303SOL    HW2 1809   5.609   0.850   2.190
  304SOL     OW 1810   2.605   0.060   3.968
  304SOL    HW1 1811   2.622   6.995   4.017
  304SOL    HW2 1812   2.525   0.106   4.006
  305SOL     OW 1813   0.708   3.469   0.098
  305SOL    HW1 1814   0.794   3.457   0.049
  305SOL    HW2 1815   0.653   3.385   0.089
  306SOL     OW 1816   2.241   1.350   3.413
  306SOL    HW1 1817   2.280   1.432   3.370
  306SOL    HW2 1818   2.189   1.377   3.495
  307SOL     OW 1819   4.956   0.212   0.967
  307SOL    HW1 1820   4.995   0.147   1.033
  307SOL    HW2 1821   4.909   0.162   0.895
  308SOL     OW 1822   6.044   3.167   4.734
  308SOL    HW1 1823   6.068   3.245   4.676
  308SOL    HW2 1824   6.001   3.096   4.678
  309SOL     OW 1825   2.951   5.161   6.758
  309SOL    HW1 1826   2.865   5.111   6.751
  309SOL    HW2 1827   2.975   5.173   6.854
  310SOL     OW 1828   5.897   6.848   5.498
  310SOL    HW1 1829   5.810   6.895   5.485
  310SOL    HW2 1830   5.897   6.764   5.444
  311SOL     OW 1831   5.903   4.855   1.610
  311SOL    HW1 1832   5.878   4.801   1.530
  311SOL    HW2 1833   5.927   4.794   1.686
  312SOL     OW 1834   4.139   1.449   5.609
  312SOL    HW1 1835   4.214   1.419   5.668
  312SOL    HW2 1836   4.144   1.547   5.595
  313SOL     OW 1837   3.239   4.407   1.573
  313SOL    HW1 1838   3.280   4.485   1.621
  313SOL    HW2 1839   3.179   4.357   1.636
  314SOL     OW 1840   3.528   4.892   6.834
  314SOL    HW1 1841   3.446   4.936   6.871
  314SOL    HW2 1842   3.577   4.844   6.907
  315SOL     OW 1843   1.104   3.144   3.573
  315SOL    HW1 1844   1.088   3.087   3.654
  315SOL    HW2 1845   1.161   3.223   3.599
  316SOL     OW 1846   2.774   1.804   4.161
  316SOL    HW1 1847   2.871   1.787   4.144
  316SOL    HW2 1848   2.748   1.768   4.251
  317SOL     OW 1849   0.944   0.528   0.629
  317SOL    HW1 1850   0.974   0.623   0.641
  317SOL    HW2 1851   0.844   0.525   0.619
  318SOL     OW 1852   1.225   6.337   6.640
  318SOL    HW1 1853   1.275   6.396   6.703
  318SOL    HW2 1854   1.289   6.286   6.584
  319SOL     OW 1855   6.745   0.675   3.504
  319SOL    HW1 1856   6.812   0.602   3.490
  319SOL    HW2 1857   6.765   0.751   3.442
  320SOL     OW 1858   6.182   2.051   0.350
  320SOL    HW1 1859   6.133   2.110   0.285
  320SOL    HW2 1860   6.141   2.061   0.440
  321SOL     OW 1861   3.687   1.361   1.190
  321SOL    HW1 1862   3.749   1.396   1.260
  321SOL    HW2 1863   3.602   1.331   1.234
  322SOL     OW 1864   3.716   4.092   4.737
  322SOL    HW1 1865   3.655   4.120   4.811
  322SOL    HW2 1866   3.765   4.009   4.764
  323SOL     OW 1867   0.873   3.692   6.414
  323SOL    HW1 1868   0.945   3.630   6.382
  323SOL    HW2 1869   0.867   3.689   6.513
  324SOL     OW 1870   2.153   2.525   3.866
  324SOL    HW1 1871   2.104   2.597   3.817
  324SOL    HW2 1872   2.251   2.538   3.856
  325SOL     OW 1873   1.261   2.797   1.555
  325SOL    HW1 1874   1.314   2.881   1.565
  325SOL    HW2 1875   1.201   2.805   1.475
  326SOL     OW 1876   1.260   4.859   6.630
  326SOL    HW1 1877   1.323   4.935   6.649
  326SOL    HW2 1878   1.205   4.881   6.550
  327SOL     OW 1879   1.401   5.244   3.702
  327SOL    HW1 1880   1.304   5.268   3.703
  327SOL    HW2 1881   1.423   5.200   3.615
  328SOL     OW 1882   1.874   6.113   1.917
  328SOL    HW1 1883   1.893   6.211   1.914
  328SOL    HW2 1884   1.777   6.097   1.896
  329SOL     OW 1885   3.501   4.201   4.434
  329SOL    HW1 1886   3.595   4.180   4.405
  329SOL    HW2 1887   3.451   4.240   4.357
  330SOL     OW 1888   3.148   6.868   0.979
  330SOL    HW1 1889   3.163   6.966   0.994
  330SOL    HW2 1890   3.131   6.823   1.066
  331SOL     OW 1891   3.789   5.367   0.190
  331SOL    HW1 1892   3.868   5.427   0.202
  331SOL    HW2 1893   3.780   5.308   0.270
  332SOL     OW 1894   3.132   1.592   4.583
  332SOL    HW1 1895   3.135   1.686   4.551
  332SOL    HW2 1896   3.212   1.542   4.550
  333SOL     OW 1897   3.391   6.731   6.313
  333SOL    HW1 1898   3.387   6.813   6.369
  333SOL    HW2 1899   3.356   6.751   6.222
  334SOL     OW 1900   2.735   0.385   1.093
  334SOL    HW1 1901   2.769   0.326   1.166
  334SOL    HW2 1902   2.693   0.467   1.133
  335SOL     OW 1903   3.338   6.897   4.044
  335SOL    HW1 1904   3.414   6.951   4.081
  335SOL    HW2 1905   3.329   6.915   3.946
  336SOL     OW 1906   2.775   1.435   3.553
  336SOL    HW1 1907   2.775   1.435   3.453
  336SOL    HW2 1908   2.797   1.527   3.587
  337SOL     OW 1909   6.823   3.187   0.497
  337SOL    HW1 1910   6.858   3.124   0.429
  337SOL    HW2 1911   6.788   3.270   0.452
  338SOL     OW 1912   3.430   2.927   1.211
  338SOL    HW1 1913   3.357   2.889   1.268
  338SOL    HW2 1914   3.449   2.865   1.135
  339SOL     OW 1915   3.468   6.144   4.393
  339SOL    HW1 1916   3.548   6.200   4.374
  339SOL    HW2 1917   3.405   6.149   4.315
  340SOL     OW 1918   4.925   4.306   5.507
  340SOL    HW1 1919   4.913   4.304   5.606
  340SOL    HW2 1920   4.924   4.401   5.475
  341SOL     OW 1921   6.543   0.511   4.608
  341SOL    HW1 1922   6.451   0.477   4.594
  341SOL    HW2 1923   6.609   0.437   4.593
  342SOL     OW 1924   5.821   3.827   6.393
  342SOL    HW1 1925   5.826   3.729   6.412
  342SOL    HW2 1926   5.729   3.850   6.360
  343SOL     OW 1927   2.140   5.470   0.677
  343SOL    HW1 1928   2.141   5.551   0.736
  343SOL    HW2 1929   2.221   5.470   0.618
  344SOL     OW 1930   1.573   4.826   2.068
  344SOL    HW1 1931   1.548   4.814   1.972
  344SOL    HW2 1932   1.626   4.747   2.100
  345SOL     OW 1933   6.439   1.397   5.048
  345SOL    HW1 1934   6.415   1.405   4.951
  345SOL    HW2 1935   6.356   1.381   5.101
  346SOL     OW 1936   1.306   0.606   2.374
  346SOL    HW1 1937   1.328   0.564   2.286
  346SOL    HW2 1938   1.207   0.601   2.390
  347SOL     OW 1939   3.175   6.213   6.035
  347SOL    HW1 1940   3.229   6.141   5.991
  347SOL    HW2 1941   3.141   6.180   6.123
  348SOL     OW 1942   5.346   4.919   1.482
  348SOL    HW1 1943   5.370   5.013   1.508
  348SOL    HW2 1944   5.426   4.860   1.492
  349SOL     OW 1945   6.753   4.277   1.249
  349SOL    HW1 1946   6.823   4.311   1.311
  349SOL    HW2 1947   6.684   4.227   1.301
  350SOL     OW 1948   3.399   3.390   1.266
  350SOL    HW1 1949   3.441   3.480   1.254
  350SOL    HW2 1950   3.328   3.377   1.197
  351SOL     OW 1951   2.313   3.055   0.420
  351SOL    HW1 1952   2.299   2.992   0.496
  351SOL    HW2 1953   2.323   3.148   0.455
  352SOL     OW 1954   3.434   0.296   4.910
  352SOL    HW1 1955   3.493   0.295   4.830
  352SOL    HW2 1956   3.489   0.303   4.993
  353SOL     OW 1957   2.360   6.995   0.901
  353SOL    HW1 1958   2.284   6.998   0.836
  353SOL    HW2 1959   2.447   7.008   0.852
  354SOL     OW 1960   3.508   2.200   0.087
  354SOL    HW1 1961   3.569   2.223   0.164
  354SOL    HW2 1962   3.556   2.137   0.026
  355SOL     OW 1963   6.906   3.344   2.571
  355SOL    HW1 1964   6.830   3.386   2.620
  355SOL    HW2 1965   6.990   3.394   2.591
  356SOL     OW 1966   3.751   5.553   5.416
  356SOL    HW1 1967   3.827   5.604   5.456
  356SOL    HW2 1968   3.783   5.461   5.390
  357SOL     OW 1969   6.418   6.630   5.609
  357SOL    HW1 1970   6.463   6.541   5.623
  357SOL    HW2 1971   6.339   6.637   5.669
  358SOL     OW 1972   5.727   0.031   1.852
  358SOL    HW1 1973   5.791   0.099   1.817
  358SOL    HW2 1974   5.654   0.078   1.903
  359SOL     OW 1975   1.662   1.974   2.339
  359SOL    HW1 1976   1.737   1.946   2.279
  359SOL    HW2 1977   1.690   1.963   2.434
  360SOL     OW 1978   1.308   5.662   6.664
  360SOL    HW1 1979   1.241   5.600   6.622
  360SOL    HW2 1980   1.280   5.756   6.646
  361SOL     OW 1981   5.260   5.943   2.970
  361SOL    HW1 1982   5.164   5.923   2.950
  361SOL    HW2 1983   5.316   5.864   2.946
  362SOL     OW 1984   3.754   4.087   1.173
  362SOL    HW1 1985   3.781   4.003   1.219
  362SOL    HW2 1986   3.814   4.104   1.095
  363SOL     OW 1987   4.611   4.480   3.394
  363SOL    HW1 1988   4.634   4.387   3.365
  363SOL    HW2 1989   4.559   4.476   3.480
  364SOL     OW 1990   6.937   5.883   6.161
  364SOL    HW1 1991   6.950   5.934   6.077
  364SOL    HW2 1992   7.016   5.822   6.176
  365SOL     OW 1993   5.006   5.173   2.206
  365SOL    HW1 1994   4.971   5.210   2.292
  365SOL    HW2 1995   4.930   5.133   2.154
  366SOL     OW 1996   6.377   0.614   0.312
  366SOL    HW1 1997   6.436   0.685   0.274
  366SOL    HW2 1998   6.320   0.654   0.384
  367SOL     OW 1999   4.796   2.973   1.379
  367SOL    HW1 2000   4.732   3.049   1.383
  367SOL    HW2 2001   4.746   2.886   1.382
  368SOL     OW 2002   0.660   3.624   4.785
  368SOL    HW1 2003   0.665   3.526   4.804
  368SOL    HW2 2004   0.684   3.676   4.867
  369SOL     OW 2005   6.734   5.026   1.663
  369SOL    HW1 2006   6.688   4.952   1.614
  369SOL    HW2 2007   6.711   5.114   1.621
  370SOL     OW 2008   2.669   1.701   4.966
  370SOL    HW1 2009   2.692   1.612   4.927
  370SOL    HW2 2010   2.750   1.759   4.966
  371SOL     OW 2011   2.628   3.645   6.344
  371SOL    HW1 2012   2.627   3.712   6.269
  371SOL    HW2 2013   2.597   3.557   6.311
  372SOL     OW 2014   6.893   0.432   5.315
  372SOL    HW1 2015   6.875   0.333   5.308
  372SOL    HW2 2016   6.885   0.473   5.224
  373SOL     OW 2017   6.160   5.923   5.668
  373SOL    HW1 2018   6.200   6.014   5.665
  373SOL    HW2 2019   6.090   5.919   5.739
  374SOL     OW 2020   3.524   0.206   2.196
  374SOL    HW1 2021   3.564   0.120   2.164
  374SOL    HW2 2022   3.428   0.192   2.218
  375SOL     OW 2023   0.893   4.750   3.625
  375SOL    HW1 2024   0.840   4.821   3.577
  375SOL    HW2 2025   0.849   4.729   3.712
  376SOL     OW 2026   1.758   3.230   4.029
  376SOL    HW1 2027   1.663   3.230   4.060
  376SOL    HW2 2028   1.791   3.325   4.023
  377SOL     OW 2029   6.979   2.634   2.097
  377SOL    HW1 2030   6.940   2.669   2.182
  377SOL    HW2 2031   6.930   2.673   2.019
  378SOL     OW 2032   3.535   2.992   5.641
  378SOL    HW1 2033   3.608   3.044   5.594
  378SOL    HW2 2034   3.576   2.924   5.701
  379SOL     OW 2035   6.205   4.225   1.482
  379SOL    HW1 2036   6.295   4.201   1.517
  379SOL    HW2 2037   6.135   4.178   1.536
  380SOL     OW 2038   2.366   1.032   2.142
  380SOL    HW1 2039   2.342   1.028   2.239
  380SOL    HW2 2040   2.391   1.126   2.118
  381SOL     OW 2041   1.790   4.808   1.759
  381SOL    HW1 2042   1.691   4.795   1.756
  381SOL    HW2 2043   1.834   4.724   1.789
  382SOL     OW 2044   5.138   6.431   6.468
  382SOL    HW1 2045   5.213   6.431   6.534
  382SOL    HW2 2046   5.145   6.512   6.409
  383SOL     OW 2047   5.660   2.602   6.019
  383SOL    HW1 2048   5.636   2.554   6.103
  383SOL    HW2 2049   5.722   2.678   6.040
  384SOL     OW 2050   0.024   4.364   4.534
  384SOL    HW1 2051   0.075   4.381   4.449
  384SOL    HW2 2052   0.039   4.440   4.597
  385SOL     OW 2053   4.192   6.390   6.580
  385SOL    HW1 2054   4.100   6.376   6.545
  385SOL    HW2 2055   4.188   6.444   6.664
  386SOL     OW 2056   3.382   6.866   4.931
  386SOL    HW1 2057   3.313   6.904   4.869
  386SOL    HW2 2058   3.442   6.939   4.963
  387SOL     OW 2059   6.800   6.510   3.355
  387SOL    HW1 2060   6.785   6.423   3.401
  387SOL    HW2 2061   6.759   6.508   3.264
  388SOL     OW 2062   0.543   2.462   3.667
  388SOL    HW1 2063   0.616   2.395   3.680
  388SOL    HW2 2064   0.583   2.553   3.661
  389SOL     OW 2065   4.332   4.431   1.765
  389SOL    HW1 2066   4.312   4.478   1.851
  389SOL    HW2 2067   4.400   4.360   1.781
  390SOL     OW 2068   3.353   1.963   0.272
  390SOL    HW1 2069   3.336   1.893   0.341
  390SOL    HW2 2070   3.451   1.981   0.266
  391SOL     OW 2071   2.374   3.799   5.360
  391SOL    HW1 2072   2.290   3.830   5.316
  391SOL    HW2 2073   2.449   3.859   5.334
  392SOL     OW 2074   1.746   3.112   2.203
  392SOL    HW1 2075   1.820   3.156   2.255
  392SOL    HW2 2076   1.783   3.074   2.118
  393SOL     OW 2077   1.386   5.463   0.430
  393SOL    HW1 2078   1.398   5.562   0.416
  393SOL    HW2 2079   1.475   5.418   0.425
  394SOL     OW 2080   1.107   2.709   6.960
  394SOL    HW1 2081   1.124   2.641   6.888
  394SOL    HW2 2082   1.035   2.676   0.001
  395SOL     OW 2083   5.389   4.296   2.181
  395SOL    HW1 2084   5.418   4.201   2.195
  395SOL    HW2 2085   5.333   4.325   2.258
  396SOL     OW 2086   2.495   2.550   2.287
  396SOL    HW1 2087   2.588   2.588   2.280
  396SOL    HW2 2088   2.500   2.457   2.322
  397SOL     OW 2089   5.593   1.843   6.671
  397SOL    HW1 2090   5.507   1.853   6.620
  397SOL    HW2 2091   5.580   1.774   6.742
  398SOL     OW 2092   1.451   6.310   4.027
  398SOL    HW1 2093   1.404   6.223   4.011
  398SOL    HW2 2094   1.442   6.368   3.946
  399SOL     OW 2095   5.996   5.809   4.762
  399SOL    HW1 2096   5.930   5.736   4.747
  399SOL    HW2 2097   5.960   5.873   4.830
  400SOL     OW 2098   6.090   6.235   5.421
  400SOL    HW1 2099   6.182   6.267   5.442
  400SOL    HW2 2100   6.091   6.135   5.414
  401SOL     OW 2101   5.756   0.171   6.219
  401SOL    HW1 2102   5.840   0.216   6.250
  401SOL    HW2 2103   5.718   0.222   6.141
  402SOL     OW 2104   6.337   6.607   2.895
  402SOL    HW1 2105   6.417   6.663   2.874
  402SOL    HW2 2106   6.276   6.657   2.957
  403SOL     OW 2107   3.242   0.114   6.009
  403SOL    HW1 2108   3.308   0.139   5.939
  403SOL    HW2 2109   3.191   0.033   5.980
  404SOL     OW 2110   2.158   5.149   5.586
  404SOL    HW1 2111   2.177   5.226   5.647
  404SOL    HW2 2112   2.237   5.088   5.583
  405SOL     OW 2113   1.854   4.145   3.332
  405SOL    HW1 2114   1.788   4.171   3.404
  405SOL    HW2 2115   1.844   4.048   3.311
  406SOL     OW 2116   0.687   4.693   5.254
  406SOL    HW1 2117   0.701   4.672   5.157
  406SOL    HW2 2118   0.594   4.664   5.281
  407SOL     OW 2119   2.130   2.748   4.179
  407SOL    HW1 2120   2.073   2.821   4.216
  407SOL    HW2 2121   2.223   2.782   4.165
  408SOL     OW 2122   3.320   2.098   2.767
  408SOL    HW1 2123   3.245   2.164   2.766
  408SOL    HW2 2124   3.377   2.111   2.686
  409SOL     OW 2125   6.794   3.525   1.996
  409SOL    HW1 2126   6.847   3.441   1.987
  409SOL    HW2 2127   6.844   3.591   2.053
  410SOL     OW 2128   1.591   1.818   1.002
  410SOL    HW1 2129   1.652   1.745   1.034
  410SOL    HW2 2130   1.639   1.906   1.012
  411SOL     OW 2131   6.277   1.524   1.918
  411SOL    HW1 2132   6.217   1.504   1.841
  411SOL    HW2 2133   6.246   1.609   1.962
  412SOL     OW 2134   3.634   4.900   2.715
  412SOL    HW1 2135   3.539   4.908   2.745
  412SOL    HW2 2136   3.637   4.872   2.620
  413SOL     OW 2137   4.544   4.995   1.666
  413SOL    HW1 2138   4.545   4.934   1.586
  413SOL    HW2 2139   4.466   5.057   1.659
  414SOL     OW 2140   3.796   0.343   4.205
  414SOL    HW1 2141   3.714   0.386   4.244
  414SOL    HW2 2142   3.807   0.251   4.242
  415SOL     OW 2143   0.279   1.512   6.898
  415SOL    HW1 2144   0.297   1.574   6.821
  415SOL    HW2 2145   0.207   1.551   6.955
  416SOL     OW 2146   5.085   4.562   4.374
  416SOL    HW1 2147   5.167   4.601   4.332
  416SOL    HW2 2148   5.009   4.627   4.366
  417SOL     OW 2149   1.955   1.268   6.507
  417SOL    HW1 2150   1.897   1.281   6.427
  417SOL    HW2 2151   2.045   1.235   6.478
  418SOL     OW 2152   2.866   0.174   5.326
  418SOL    HW1 2153   2.846   0.250   5.264
  418SOL    HW2 2154   2.905   0.098   5.274
  419SOL     OW 2155   0.082   6.872   3.215
  419SOL    HW1 2156   0.064   6.806   3.142
  419SOL    HW2 2157   0.019   6.949   3.208
  420SOL     OW 2158   5.648   1.496   6.532
  420SOL    HW1 2159   5.693   1.443   6.460
  420SOL    HW2 2160   5.574   1.549   6.491
  421SOL     OW 2161   5.717   3.777   4.942
  421SOL    HW1 2162   5.779   3.848   4.975
  421SOL    HW2 2163   5.738   3.691   4.988
  422SOL     OW 2164   5.412   2.085   0.599
  422SOL    HW1 2165   5.418   2.052   0.694
  422SOL    HW2 2166   5.317   2.092   0.572
  423SOL     OW 2167   2.377   1.413   6.762
  423SOL    HW1 2168   2.417   1.323   6.778
  423SOL    HW2 2169   2.444   1.484   6.783
  424SOL     OW 2170   2.159   5.004   2.775
  424SOL    HW1 2171   2.172   5.097   2.810
  424SOL    HW2 2172   2.238   4.977   2.720
  425SOL     OW 2173   4.798   0.557   4.856
  425SOL    HW1 2174   4.762   0.650   4.865
  425SOL    HW2 2175   4.891   0.552   4.892
  426SOL     OW 2176   2.169   2.803   5.119
  426SOL    HW1 2177   2.244   2.857   5.082
  426SOL    HW2 2178   2.098   2.793   5.049
  427SOL     OW 2179   5.248   1.112   4.368
  427SOL    HW1 2180   5.263   1.014   4.379
  427SOL    HW2 2181   5.154   1.128   4.335
  428SOL     OW 2182   2.454   0.509   3.815
  428SOL    HW1 2183   2.445   0.464   3.904
  428SOL    HW2 2184   2.530   0.575   3.819
  429SOL     OW 2185   0.647   5.438   4.452
  429SOL    HW1 2186   0.594   5.365   4.496
  429SOL    HW2 2187   0.671   5.409   4.359
  430SOL     OW 2188   1.273   6.957   3.646
  430SOL    HW1 2189   1.260   6.922   3.554
  430SOL    HW2 2190   1.334   0.016   3.644
  431SOL     OW 2191   2.282   2.050   0.739
  431SOL    HW1 2192   2.282   2.147   0.716
  431SOL    HW2 2193   2.215   2.002   0.682
  432SOL     OW 2194   5.881   1.902   1.009
  432SOL    HW1 2195   5.838   1.935   1.093
  432SOL    HW2 2196   5.831   1.938   0.930
  433SOL     OW 2197   3.243   6.476   6.051
  433SOL    HW1 2198   3.326   6.481   6.106
  433SOL    HW2 2199   3.229   6.382   6.019
  434SOL     OW 2200   4.025   5.260   4.186
  434SOL    HW1 2201   4.120   5.247   4.158
  434SOL    HW2 2202   3.986   5.172   4.215
  435SOL     OW 2203   3.887   1.350   5.584
  435SOL    HW1 2204   3.840   1.373   5.499
  435SOL    HW2 2205   3.969   1.406   5.593
  436SOL     OW 2206   3.277   5.892   2.667
  436SOL    HW1 2207   3.300   5.893   2.765
  436SOL    HW2 2208   3.326   5.965   2.620
  437SOL     OW 2209   0.133   1.364   5.090
  437SOL    HW1 2210   0.052   1.418   5.066
  437SOL    HW2 2211   0.182   1.409   5.165
  438SOL     OW 2212   1.408   4.485   3.169
  438SOL    HW1 2213   1.376   4.402   3.215
  438SOL    HW2 2214   1.336   4.555   3.174
  439SOL     OW 2215   5.815   0.508   2.599
  439SOL    HW1 2216   5.837   0.419   2.640
  439SOL    HW2 2217   5.875   0.578   2.638
  440SOL     OW 2218   3.691   1.088   6.557
  440SOL    HW1 2219   3.714   1.060   6.463
  440SOL    HW2 2220   3.625   1.162   6.554
  441SOL     OW 2221   5.864   4.350   2.933
  441SOL    HW1 2222   5.808   4.387   3.008
  441SOL    HW2 2223   5.808   4.342   2.850
  442SOL     OW 2224   4.932   4.267   5.808
  442SOL    HW1 2225   4.897   4.359   5.826
  442SOL    HW2 2226   4.944   4.219   5.895
  443SOL     OW 2227   5.276   4.642   3.965
  443SOL    HW1 2228   5.212   4.719   3.966
  443SOL    HW2 2229   5.294   4.614   3.871
  444SOL     OW 2230   4.266   1.232   6.367
  444SOL    HW1 2231   4.243   1.254   6.462
  444SOL    HW2 2232   4.262   1.315   6.312
  445SOL     OW 2233   2.614   6.451   2.906
  445SOL    HW1 2234   2.636   6.531   2.850
  445SOL    HW2 2235   2.664   6.456   2.992
  446SOL     OW 2236   4.256   5.854   3.161
  446SOL    HW1 2237   4.264   5.754   3.163
  446SOL    HW2 2238   4.327   5.895   3.218
  447SOL     OW 2239   6.178   3.316   5.574
  447SOL    HW1 2240   6.200   3.409   5.544
  447SOL    HW2 2241   6.179   3.255   5.495
  448SOL     OW 2242   2.230   1.555   3.012
  448SOL    HW1 2243   2.284   1.504   2.944
  448SOL    HW2 2244   2.140   1.577   2.973
  449SOL     OW 2245   2.431   2.529   3.151
  449SOL    HW1 2246   2.507   2.498   3.208
  449SOL    HW2 2247   2.456   2.520   3.055
  450SOL     OW 2248   1.227   4.659   3.278
  450SOL    HW1 2249   1.295   4.658   3.351
  450SOL    HW2 2250   1.152   4.720   3.304
  451SOL     OW 2251   0.225   2.864   3.731
  451SOL    HW1 2252   0.243   2.825   3.641
  451SOL    HW2 2253   0.308   2.908   3.766
  452SOL     OW 2254   3.166   6.971   1.964
  452SOL    HW1 2255   3.265   6.977   1.976
  452SOL    HW2 2256   3.141   6.879   1.935
  453SOL     OW 2257   3.995   0.471   6.622
  453SOL    HW1 2258   3.958   0.542   6.682
  453SOL    HW2 2259   4.054   0.512   6.553
  454SOL     OW 2260   0.074   4.074   6.687
  454SOL    HW1 2261   0.006   4.127   6.737
  454SOL    HW2 2262   0.132   4.137   6.634
  455SOL     OW 2263   6.443   3.102   5.498
  455SOL    HW1 2264   6.530   3.102   5.448
  455SOL    HW2 2265   6.370   3.131   5.437
  456SOL     OW 2266   1.427   0.787   3.834
  456SOL    HW1 2267   1.487   0.746   3.766
  456SOL    HW2 2268   1.411   0.883   3.812
  457SOL     OW 2269   0.878   5.435   5.682
  457SOL    HW1 2270   0.961   5.459   5.632
  457SOL    HW2 2271   0.884   5.340   5.712
  458SOL     OW 2272   2.855   1.095   2.648
  458SOL    HW1 2273   2.951   1.073   2.665
  458SOL    HW2 2274   2.834   1.083   2.551
  459SOL     OW 2275   2.104   0.563   5.671
  459SOL    HW1 2276   2.087   0.573   5.573
  459SOL    HW2 2277   2.201   0.581   5.690
  460SOL     OW 2278   1.335   1.594   5.142
  460SOL    HW1 2279   1.407   1.594   5.211
  460SOL    HW2 2280   1.295   1.685   5.136
  461SOL     OW 2281   6.715   4.833   5.620
  461SOL    HW1 2282   6.674   4.918   5.654
  461SOL    HW2 2283   6.754   4.781   5.696
  462SOL     OW 2284   3.799   3.818   4.810
  462SOL    HW1 2285   3.756   3.754   4.746
  462SOL    HW2 2286   3.898   3.805   4.807
  463SOL     OW 2287   6.551   6.786   2.917
  463SOL    HW1 2288   6.605   6.827   2.843
  463SOL    HW2 2289   6.613   6.754   2.989
  464SOL     OW 2290   3.124   6.717   6.096
  464SOL    HW1 2291   3.191   6.732   6.023
  464SOL    HW2 2292   3.108   6.619   6.107
  465SOL     OW 2293   1.330   2.393   0.285
  465SOL    HW1 2294   1.325   2.423   0.190
  465SOL    HW2 2295   1.248   2.341   0.309
  466SOL     OW 2296   3.277   6.081   4.149
  466SOL    HW1 2297   3.316   6.170   4.123
  466SOL    HW2 2298   3.191   6.067   4.099
  467SOL     OW 2299   0.767   1.756   2.399
  467SOL    HW1 2300   0.853   1.782   2.442
  467SOL    HW2 2301   0.712   1.838   2.384
  468SOL     OW 2302   4.826   0.093   6.010
  468SOL    HW1 2303   4.832   0.074   6.108
  468SOL    HW2 2304   4.918   0.110   5.974
  469SOL     OW 2305   2.985   4.194   5.862
  469SOL    HW1 2306   2.918   4.213   5.791
  469SOL    HW2 2307   3.035   4.278   5.885
  470SOL     OW 2308   3.346   6.027   2.969
  470SOL    HW1 2309   3.332   6.112   2.918
  470SOL    HW2 2310   3.271   6.014   3.034
  471SOL     OW 2311   2.585   2.443   3.940
  471SOL    HW1 2312   2.531   2.525   3.921
  471SOL    HW2 2313   2.524   2.364   3.948
  472SOL     OW 2314   5.985   4.903   6.858
  472SOL    HW1 2315   6.078   4.921   6.824
  472SOL    HW2 2316   5.942   4.989   6.883
  473SOL     OW 2317   0.155   2.646   2.498
  473SOL    HW1 2318   0.187   2.575   2.561
  473SOL    HW2 2319   0.234   2.696   2.462
  474SOL     OW 2320   6.164   5.001   5.595
  474SOL    HW1 2321   6.243   4.939   5.590
  474SOL    HW2 2322   6.189   5.089   5.555
  475SOL     OW 2323   5.867   3.128   6.829
  475SOL    HW1 2324   5.960   3.099   6.808
  475SOL    HW2 2325   5.802   3.057   6.803
  476SOL     OW 2326   0.268   3.889   1.942
  476SOL    HW1 2327   0.187   3.834   1.965
  476SOL    HW2 2328   0.247   3.985   1.955
  477SOL     OW 2329   2.486   5.968   3.666
  477SOL    HW1 2330   2.496   6.013   3.754
  477SOL    HW2 2331   2.404   6.002   3.620
  478SOL     OW 2332   4.390   5.806   2.908
  478SOL    HW1 2333   4.361   5.858   2.828
  478SOL    HW2 2334   4.367   5.857   2.991
  479SOL     OW 2335   3.839   3.099   4.079
  479SOL    HW1 2336   3.818   3.197   4.068
  479SOL    HW2 2337   3.873   3.083   4.171
  480SOL     OW 2338   1.568   0.126   2.350
  480SOL    HW1 2339   1.519   0.154   2.433
  480SOL    HW2 2340   1.511   0.062   2.297
  481SOL     OW 2341   0.973   6.440   1.301
  481SOL    HW1 2342   0.943   6.344   1.294
  481SOL    HW2 2343   1.041   6.448   1.374
  482SOL     OW 2344   5.054   4.962   2.986
  482SOL    HW1 2345   5.131   5.019   3.015
  482SOL    HW2 2346   5.070   4.868   3.017
  483SOL     OW 2347   6.664   2.773   2.681
  483SOL    HW1 2348   6.712   2.685   2.677
  483SOL    HW2 2349   6.602   2.773   2.760
  484SOL     OW 2350   1.622   4.310   4.567
  484SOL    HW1 2351   1.692   4.342   4.630
  484SOL    HW2 2352   1.662   4.293   4.477
  485SOL     OW 2353   5.433   3.633   2.150
  485SOL    HW1 2354   5.520   3.626   2.102
  485SOL    HW2 2355   5.428   3.563   2.221
  486SOL     OW 2356   5.651   0.229   6.699
  486SOL    HW1 2357   5.685   0.178   6.620
  486SOL    HW2 2358   5.678   0.181   6.783
  487SOL     OW 2359   6.933   0.687   3.170
  487SOL    HW1 2360   0.007   0.690   3.136
  487SOL    HW2 2361   6.901   0.781   3.184
  488SOL     OW 2362   1.854   0.043   2.955
  488SOL    HW1 2363   1.918   6.987   2.962
  488SOL    HW2 2364   1.787   0.038   3.029
  489SOL     OW 2365   6.328   5.596   4.927
  489SOL    HW1 2366   6.339   5.695   4.912
  489SOL    HW2 2367   6.322   5.577   5.025
  490SOL     OW 2368   1.296   5.879   5.200
  490SOL    HW1 2369   1.380   5.909   5.155
  490SOL    HW2 2370   1.279   5.783   5.177
  491SOL     OW 2371   0.464   3.681   0.714
  491SOL    HW1 2372   0.466   3.769   0.666
  491SOL    HW2 2373   0.527   3.684   0.792
  492SOL     OW 2374   1.349   1.161   5.691
  492SOL    HW1 2375   1.411   1.095   5.733
  492SOL    HW2 2376   1.353   1.153   5.592
  493SOL     OW 2377   2.617   0.080   5.410
  493SOL    HW1 2378   2.682   0.100   5.337
  493SOL    HW2 2379   2.665   0.043   5.489
  494SOL     OW 2380   2.424   1.412   5.704
  494SOL    HW1 2381   2.385   1.417   5.612
  494SOL    HW2 2382   2.455   1.318   5.722
  495SOL     OW 2383   4.554   5.920   5.695
  495SOL    HW1 2384   4.554   5.898   5.598
  495SOL    HW2 2385   4.500   6.003   5.711
  496SOL     OW 2386   6.467   1.705   2.651
  496SOL    HW1 2387   6.522   1.770   2.599
  496SOL    HW2 2388   6.487   1.612   2.620
  497SOL     OW 2389   3.473   1.229   5.814
  497SOL    HW1 2390   3.418   1.299   5.769
  497SOL    HW2 2391   3.506   1.164   5.746
  498SOL     OW 2392   6.981   5.165   1.739
  498SOL    HW1 2393   7.011   5.121   1.655
  498SOL    HW2 2394   6.882   5.150   1.751
  499SOL     OW 2395   2.653   5.285   5.802
  499SOL    HW1 2396   2.697   5.296   5.713
  499SOL    HW2 2397   2.722   5.287   5.874
  500SOL     OW 2398   5.215   2.906   6.287
  500SOL    HW1 2399   5.284   2.834   6.295
  500SOL    HW2 2400   5.228   2.973   6.361
  501SOL     OW 2401   1.775   6.951   2.519
  501SOL    HW1 2402   1.846   7.004   2.565
  501SOL    HW2 2403   1.707   7.013   2.481
  502SOL     OW 2404   1.677   4.823   6.121
  502SOL    HW1 2405   1.730   4.754   6.170
  502SOL    HW2 2406   1.591   4.782   6.088
  503SOL     OW 2407   2.853   4.893   6.304
  503SOL    HW1 2408   2.837   4.991   6.294
  503SOL    HW2 2409   2.832   4.865   6.397
  504SOL     OW 2410   6.640   5.638   2.580
  504SOL    HW1 2411   6.637   5.566   2.649
  504SOL    HW2 2412   6.569   5.706   2.599
  505SOL     OW 2413   4.150   6.997   5.188
  505SOL    HW1 2414   4.236   6.980   5.236
  505SOL    HW2 2415   4.074   6.996   5.254
  506SOL     OW 2416   2.892   5.200   2.759
  506SOL    HW1 2417   2.912   5.232   2.666
  506SOL    HW2 2418   2.978   5.187   2.809
  507SOL     OW 2419   4.453   1.427   1.982
  507SOL    HW1 2420   4.363   1.470   1.980
  507SOL    HW2 2421   4.464   1.369   1.902
  508SOL     OW 2422   6.622   2.644   3.693
  508SOL    HW1 2423   6.534   2.664   3.736
  508SOL    HW2 2424   6.669   2.729   3.671
  509SOL     OW 2425   4.818   0.609   0.284
  509SOL    HW1 2426   4.813   0.674   0.360
  509SOL    HW2 2427   4.844   0.658   0.201
  510SOL     OW 2428   0.053   4.951   5.647
  510SOL    HW1 2429   0.017   4.879   5.705
  510SOL    HW2 2430   7.004   5.023   5.636
  511SOL     OW 2431   1.263   2.031   6.199
  511SOL    HW1 2432   1.271   1.938   6.162
  511SOL    HW2 2433   1.274   2.029   6.298
  512SOL     OW 2434   5.700   2.255   6.971
  512SOL    HW1 2435   5.639   2.246   0.029
  512SOL    HW2 2436   5.667   2.196   6.896
  513SOL     OW 2437   6.043   6.640   2.498
  513SOL    HW1 2438   6.133   6.607   2.527
  513SOL    HW2 2439   6.024   6.608   2.406
  514SOL     OW 2440   0.269   6.712   3.558
  514SOL    HW1 2441   0.177   6.675   3.568
  514SOL    HW2 2442   0.269   6.810   3.580
  515SOL     OW 2443   2.757   0.577   6.128
  515SOL    HW1 2444   2.798   0.662   6.161
  515SOL    HW2 2445   2.663   0.570   6.161
  516SOL     OW 2446   2.480   4.457   1.721
  516SOL    HW1 2447   2.478   4.536   1.782
  516SOL    HW2 2448   2.574   4.422   1.715
  517SOL     OW 2449   3.962   4.841   2.543
  517SOL    HW1 2450   4.017   4.924   2.529
  517SOL    HW2 2451   3.865   4.863   2.528
  518SOL     OW 2452   2.203   2.983   3.795
  518SOL    HW1 2453   2.116   2.987   3.746
  518SOL    HW2 2454   2.265   2.922   3.746
  519SOL     OW 2455   6.802   6.753   4.035
  519SOL    HW1 2456   6.824   6.672   4.089
  519SOL    HW2 2457   6.832   6.741   3.941
  520SOL     OW 2458   1.000   3.716   0.328
  520SOL    HW1 2459   1.027   3.764   0.245
  520SOL    HW2 2460   1.020   3.618   0.318
  521SOL     OW 2461   4.697   5.948   4.493
  521SOL    HW1 2462   4.704   5.997   4.580
  521SOL    HW2 2463   4.742   5.859   4.501
  522SOL     OW 2464   4.339   3.831   1.404
  522SOL    HW1 2465   4.385   3.809   1.490
  522SOL    HW2 2466   4.320   3.929   1.400
  523SOL     OW 2467   6.995   6.424   1.855
  523SOL    HW1 2468   0.054   6.476   1.887
  523SOL    HW2 2469   6.932   6.411   1.932
  524SOL     OW 2470   0.938   2.971   2.185
  524SOL    HW1 2471   0.978   3.021   2.261
  524SOL    HW2 2472   1.004   2.906   2.148
  525SOL     OW 2473   1.392   3.268   6.769
  525SOL    HW1 2474   1.360   3.195   6.830
  525SOL    HW2 2475   1.457   3.326   6.818
  526SOL     OW 2476   2.685   6.809   4.078
  526SOL    HW1 2477   2.616   6.737   4.073
  526SOL    HW2 2478   2.776   6.769   4.065
  527SOL     OW 2479   0.915   2.329   0.161
  527SOL    HW1 2480   0.885   2.326   0.066
  527SOL    HW2 2481   0.959   2.243   0.185
  528SOL     OW 2482   0.860   3.419   3.934
  528SOL    HW1 2483   0.841   3.387   3.841
  528SOL    HW2 2484   0.814   3.506   3.950
  529SOL     OW 2485   2.375   0.543   5.570
  529SOL    HW1 2486   2.439   0.569   5.643
  529SOL    HW2 2487   2.383   0.445   5.552
  530SOL     OW 2488   3.794   2.891   2.354
  530SOL    HW1 2489   3.698   2.911   2.374
  530SOL    HW2 2490   3.821   2.940   2.271
  531SOL     OW 2491   2.258   0.837   2.645
  531SOL    HW1 2492   2.316   0.778   2.590
  531SOL    HW2 2493   2.192   0.782   2.695
  532SOL     OW 2494   1.633   3.752   0.861
  532SOL    HW1 2495   1.732   3.743   0.869
  532SOL    HW2 2496   1.604   3.726   0.769
  533SOL     OW 2497   5.497   0.009   3.534
  533SOL    HW1 2498   5.399   0.027   3.529
  533SOL    HW2 2499   5.547   0.095   3.521
  534SOL     OW 2500   0.407   6.022   1.888
  534SOL    HW1 2501   0.495   5.977   1.874
  534SOL    HW2 2502   0.416   6.120   1.868
  535SOL     OW 2503   6.636   4.450   3.308
  535SOL    HW1 2504   6.539   4.442   3.332
  535SOL    HW2 2505   6.687   4.482   3.387
  536SOL     OW 2506   6.356   5.825   2.891
  536SOL    HW1 2507   6.443   5.820   2.842
  536SOL    HW2 2508   6.282   5.801   2.829
  537SOL     OW 2509   3.564   6.546   4.372
  537SOL    HW1 2510   3.582   6.464   4.427
  537SOL    HW2 2511   3.471   6.578   4.390
  538SOL     OW 2512   1.169   5.397   5.313
  538SOL    HW1 2513   1.134   5.435   5.399
  538SOL    HW2 2514   1.163   5.297   5.316
  539SOL     OW 2515   1.559   5.731   2.014
  539SOL    HW1 2516   1.608   5.660   1.965
  539SOL    HW2 2517   1.619   5.811   2.026
  540SOL     OW 2518   1.933   1.186   4.297
  540SOL    HW1 2519   1.983   1.237   4.228
  540SOL    HW2 2520   1.836   1.204   4.289
  541SOL     OW 2521   4.541   6.203   3.549
  541SOL    HW1 2522   4.559   6.273   3.617
  541SOL    HW2 2523   4.550   6.112   3.591
  542SOL     OW 2524   3.165   6.623   6.634
  542SOL    HW1 2525   3.263   6.609   6.640
  542SOL    HW2 2526   3.140   6.648   6.540
  543SOL     OW 2527   5.502   3.681   3.670
  543SOL    HW1 2528   5.581   3.622   3.685
  543SOL    HW2 2529   5.470   3.670   3.576
  544SOL     OW 2530   0.592   5.204   0.359
  544SOL    HW1 2531   0.584   5.270   0.284
  544SOL    HW2 2532   0.577   5.111   0.324
  545SOL     OW 2533   4.207   1.186   1.274
  545SOL    HW1 2534   4.136   1.223   1.214
  545SOL    HW2 2535   4.277   1.256   1.291
  546SOL     OW 2536   0.884   3.890   1.522
  546SOL    HW1 2537   0.830   3.972   1.504
  546SOL    HW2 2538   0.973   3.916   1.559
  547SOL     OW 2539   3.356   2.633   0.932
  547SOL    HW1 2540   3.415   2.630   1.013
  547SOL    HW2 2541   3.272   2.583   0.951
  548SOL     OW 2542   3.416   3.619   0.699
  548SOL    HW1 2543   3.514   3.638   0.697
  548SOL    HW2 2544   3.390   3.564   0.620
  549SOL     OW 2545   5.728   2.421   1.455
  549SOL    HW1 2546   5.632   2.392   1.457
  549SOL    HW2 2547   5.787   2.343   1.476
  550SOL     OW 2548   0.344   5.229   3.671
  550SOL    HW1 2549   0.292   5.195   3.592
  550SOL    HW2 2550   0.298   5.308   3.710
  551SOL     OW 2551   0.085   0.483   1.224
  551SOL    HW1 2552   0.159   0.420   1.245
  551SOL    HW2 2553   0.100   0.522   1.133
  552SOL     OW 2554   5.100   5.038   5.147
  552SOL    HW1 2555   5.094   5.038   5.247
  552SOL    HW2 2556   5.090   4.945   5.113
  553SOL     OW 2557   3.201   0.128   3.992
  553SOL    HW1 2558   3.270   0.194   4.020
  553SOL    HW2 2559   3.231   0.080   3.910
  554SOL     OW 2560   5.619   5.742   0.007
  554SOL    HW1 2561   5.637   5.666   0.071
  554SOL    HW2 2562   5.656   5.826   0.046
  555SOL     OW 2563   3.349   5.060   5.196
  555SOL    HW1 2564   3.325   4.963   5.208
  555SOL    HW2 2565   3.327   5.088   5.103
  556SOL     OW 2566   5.463   1.649   4.365
  556SOL    HW1 2567   5.555   1.609   4.368
  556SOL    HW2 2568   5.447   1.689   4.275
  557SOL     OW 2569   0.237   5.103   6.336
  557SOL    HW1 2570   0.201   5.165   6.266
  557SOL    HW2 2571   0.177   5.104   6.416
  558SOL     OW 2572   3.862   3.038   3.797
  558SOL    HW1 2573   3.893   3.022   3.891
  558SOL    HW2 2574   3.780   3.095   3.798
  559SOL     OW 2575   6.648   6.087   5.856
  559SOL    HW1 2576   6.565   6.065   5.908
  559SOL    HW2 2577   6.660   6.186   5.853
  560SOL     OW 2578   6.265   3.680   3.426
  560SOL    HW1 2579   6.248   3.711   3.332
  560SOL    HW2 2580   6.265   3.580   3.429
  561SOL     OW 2581   6.773   2.725   6.945
  561SOL    HW1 2582   6.714   2.653   6.908
  561SOL    HW2 2583   6.856   2.684   6.982
  562SOL     OW 2584   4.495   0.597   5.918
  562SOL    HW1 2585   4.489   0.568   6.014
  562SOL    HW2 2586   4.455   0.527   5.860
  563SOL     OW 2587   2.439   1.238   3.237
  563SOL    HW1 2588   2.388   1.263   3.319
  563SOL    HW2 2589   2.475   1.321   3.194
  564SOL     OW 2590   0.119   2.278   6.572
  564SOL    HW1 2591   0.203   2.229   6.594
  564SOL    HW2 2592   0.141   2.365   6.527
  565SOL     OW 2593   3.087   3.983   3.285
  565SOL    HW1 2594   3.001   4.006   3.331
  565SOL    HW2 2595   3.091   3.884   3.272
  566SOL     OW 2596   1.904   3.847   3.155
  566SOL    HW1 2597   1.881   3.750   3.166
  566SOL    HW2 2598   1.996   3.863   3.189
  567SOL     OW 2599   3.238   3.005   0.678
  567SOL    HW1 2600   3.267   2.948   0.754
  567SOL    HW2 2601   3.142   3.032   0.691
  568SOL     OW 2602   5.918   6.695   0.270
  568SOL    HW1 2603   5.861   6.663   0.194
  568SOL    HW2 2604   6.012   6.666   0.256
  569SOL     OW 2605   1.290   2.716   1.120
  569SOL    HW1 2606   1.299   2.814   1.101
  569SOL    HW2 2607   1.236   2.674   1.047
  570SOL     OW 2608   3.365   0.345   6.690
  570SOL    HW1 2609   3.455   0.302   6.683
  570SOL    HW2 2610   3.371   0.441   6.660
  571SOL     OW 2611   2.822   4.797   3.880
  571SOL    HW1 2612   2.760   4.746   3.820
  571SOL    HW2 2613   2.820   4.756   3.971
  572SOL     OW 2614   1.991   5.053   5.241
  572SOL    HW1 2615   1.898   5.016   5.237
  572SOL    HW2 2616   2.054   4.982   5.274
  573SOL     OW 2617   6.249   1.186   5.796
  573SOL    HW1 2618   6.224   1.093   5.821
  573SOL    HW2 2619   6.167   1.236   5.766
  574SOL     OW 2620   3.659   0.304   5.098
  574SOL    HW1 2621   3.638   0.388   5.147
  574SOL    HW2 2622   3.718   0.325   5.019
  575SOL     OW 2623   4.232   2.533   1.319
  575SOL    HW1 2624   4.167   2.482   1.375
  575SOL    HW2 2625   4.183   2.605   1.269
  576SOL     OW 2626   1.315   3.223   2.793
  576SOL    HW1 2627   1.260   3.201   2.873
  576SOL    HW2 2628   1.291   3.314   2.760
  577SOL     OW 2629   1.412   0.772   2.115
  577SOL    HW1 2630   1.414   0.831   2.195
  577SOL    HW2 2631   1.346   0.698   2.130
  578SOL     OW 2632   1.117   5.542   5.548
  578SOL    HW1 2633   1.077   5.634   5.558
  578SOL    HW2 2634   1.180   5.525   5.624
  579SOL     OW 2635   1.565   4.836   2.975
  579SOL    HW1 2636   1.482   4.867   2.927
  579SOL    HW2 2637   1.539   4.799   3.064
  580SOL     OW 2638   3.932   4.725   5.904
  580SOL    HW1 2639   3.918   4.821   5.930
  580SOL    HW2 2640   4.028   4.711   5.879
  581SOL     OW 2641   1.459   3.014   3.410
  581SOL    HW1 2642   1.531   3.080   3.394
  581SOL    HW2 2643   1.434   3.014   3.507
  582SOL     OW 2644   4.647   5.909   3.101
  582SOL    HW1 2645   4.569   5.963   3.131
  582SOL    HW2 2646   4.622   5.812   3.099
  583SOL     OW 2647   2.643   5.892   5.378
  583SOL    HW1 2648   2.715   5.954   5.349
  583SOL    HW2 2649   2.642   5.812   5.318
  584SOL     OW 2650   3.376   0.154   0.015
  584SOL    HW1 2651   3.462   0.110   7.010
  584SOL    HW2 2652   3.308   0.137   6.965
  585SOL     OW 2653   4.592   1.126   0.623
  585SOL    HW1 2654   4.673   1.067   0.625
  585SOL    HW2 2655   4.617   1.219   0.650
  586SOL     OW 2656   3.516   0.336   0.899
  586SOL    HW1 2657   3.586   0.312   0.966
  586SOL    HW2 2658   3.458   0.409   0.936
  587SOL     OW 2659   4.936   2.510   2.831
  587SOL    HW1 2660   5.004   2.438   2.838
  587SOL    HW2 2661   4.976   2.589   2.785
  588SOL     OW 2662   2.065   4.918   0.917
  588SOL    HW1 2663   2.088   4.842   0.978
  588SOL    HW2 2664   2.007   4.984   0.965
  589SOL     OW 2665   3.879   5.635   1.313
  589SOL    HW1 2666   3.968   5.654   1.354
  589SOL    HW2 2667   3.881   5.546   1.269
  590SOL     OW 2668   5.635   1.288   0.997
  590SOL    HW1 2669   5.622   1.203   1.046
  590SOL    HW2 2670   5.550   1.314   0.951
  591SOL     OW 2671   4.207   6.610   4.160
  591SOL    HW1 2672   4.295   6.654   4.143
  591SOL    HW2 2673   4.207   6.569   4.251
  592SOL     OW 2674   4.606   0.449   2.641
  592SOL    HW1 2675   4.681   0.412   2.696
  592SOL    HW2 2676   4.568   0.377   2.583
  593SOL     OW 2677   4.540   1.945   4.505
  593SOL    HW1 2678   4.468   1.972   4.441
  593SOL    HW2 2679   4.522   1.986   4.595
  594SOL     OW 2680   6.542   1.180   0.764
  594SOL    HW1 2681   6.566   1.096   0.715
  594SOL    HW2 2682   6.588   1.258   0.721
  595SOL     OW 2683   6.087   6.809   3.706
  595SOL    HW1 2684   6.030   6.736   3.745
  595SOL    HW2 2685   6.159   6.768   3.650
  596SOL     OW 2686   0.358   5.173   3.374
  596SOL    HW1 2687   0.421   5.100   3.399
  596SOL    HW2 2688   0.273   5.133   3.339
  597SOL     OW 2689   2.598   6.434   6.258
  597SOL    HW1 2690   2.646   6.347   6.268
  597SOL    HW2 2691   2.501   6.421   6.278
  598SOL     OW 2692   3.430   4.078   4.661
  598SOL    HW1 2693   3.468   4.125   4.582
  598SOL    HW2 2694   3.485   4.100   4.742
  599SOL     OW 2695   2.190   6.041   3.026
  599SOL    HW1 2696   2.270   6.061   2.970
  599SOL    HW2 2697   2.146   5.957   2.995
  600SOL     OW 2698   6.630   3.022   5.955
  600SOL    HW1 2699   6.664   3.105   5.910
  600SOL    HW2 2700   6.661   3.021   6.050
  601SOL     OW 2701   1.361   1.690   4.509
  601SOL    HW1 2702   1.416   1.622   4.558
  601SOL    HW2 2703   1.264   1.672   4.526
  602SOL     OW 2704   2.638   0.824   5.890
  602SOL    HW1 2705   2.552   0.873   5.896
  602SOL    HW2 2706   2.711   0.877   5.933
  603SOL     OW 2707   2.356   2.122   5.228
  603SOL    HW1 2708   2.307   2.170   5.156
  603SOL    HW2 2709   2.447   2.161   5.238
  604SOL     OW 2710   1.323   2.149   1.533
  604SOL    HW1 2711   1.325   2.064   1.586
  604SOL    HW2 2712   1.380   2.217   1.578
  605SOL     OW 2713   6.777   4.633   1.741
  605SOL    HW1 2714   6.761   4.536   1.723
  605SOL    HW2 2715   6.799   4.646   1.838
  606SOL     OW 2716   4.629   6.331   5.440
  606SOL    HW1 2717   4.622   6.422   5.399
  606SOL    HW2 2718   4.679   6.336   5.526
  607SOL     OW 2719   6.863   4.951   5.393
  607SOL    HW1 2720   6.803   4.885   5.440
  607SOL    HW2 2721   6.957   4.917   5.393
  608SOL     OW 2722   3.698   6.676   6.694
  608SOL    HW1 2723   3.764   6.750   6.682
  608SOL    HW2 2724   3.702   6.643   6.788
  609SOL     OW 2725   3.861   2.959   1.868
  609SOL    HW1 2726   3.765   2.976   1.846
  609SOL    HW2 2727   3.906   2.913   1.791
  610SOL     OW 2728   5.527   2.486   0.079
  610SOL    HW1 2729   5.480   2.468   7.013
  610SOL    HW2 2730   5.459   2.507   0.150
  611SOL     OW 2731   4.034   6.909   2.042
  611SOL    HW1 2732   4.009   6.926   1.947
  611SOL    HW2 2733   3.996   6.980   2.101
  612SOL     OW 2734   2.993   5.925   4.930
  612SOL    HW1 2735   2.980   5.827   4.945
  612SOL    HW2 2736   2.922   5.976   4.979
  613SOL     OW 2737   5.092   4.042   5.174
  613SOL    HW1 2738   5.131   4.129   5.206
  613SOL    HW2 2739   5.162   3.992   5.123
  614SOL     OW 2740   5.295   5.466   5.174
  614SOL    HW1 2741   5.309   5.369   5.157
  614SOL    HW2 2742   5.348   5.520   5.108
  615SOL     OW 2743   0.109   2.642   1.106
  615SOL    HW1 2744   0.065   2.732   1.108
  615SOL    HW2 2745   0.207   2.652   1.122
  616SOL     OW 2746   6.326   2.447   2.555
  616SOL    HW1 2747   6.238   2.404   2.535
  616SOL    HW2 2748   6.325   2.483   2.648
  617SOL     OW 2749   1.080   4.833   5.831
  617SOL    HW1 2750   1.176   4.814   5.851
  617SOL    HW2 2751   1.023   4.758   5.865
  618SOL     OW 2752   1.732   2.529   0.911
  618SOL    HW1 2753   1.637   2.560   0.897
  618SOL    HW2 2754   1.736   2.471   0.992
  619SOL     OW 2755   2.488   2.105   0.928
  619SOL    HW1 2756   2.561   2.042   0.954
  619SOL    HW2 2757   2.405   2.053   0.909
  620SOL     OW 2758   4.584   2.167   0.172
  620SOL    HW1 2759   4.624   2.217   0.094
  620SOL    HW2 2760   4.646   2.174   0.250
  621SOL     OW 2761   3.792   4.952   6.802
  621SOL    HW1 2762   3.835   5.015   6.737
  621SOL    HW2 2763   3.693   4.962   6.798
  622SOL     OW 2764   0.717   1.366   6.318
  622SOL    HW1 2765   0.706   1.425   6.239
  622SOL    HW2 2766   0.631   1.363   6.370
  623SOL     OW 2767   0.594   6.390   6.150
  623SOL    HW1 2768   0.571   6.401   6.053
  623SOL    HW2 2769   0.521   6.339   6.196
  624SOL     OW 2770   0.901   2.608   1.507
  624SOL    HW1 2771   0.833   2.573   1.443
  624SOL    HW2 2772   0.968   2.663   1.458
  625SOL     OW 2773   2.539   2.460   1.162
  625SOL    HW1 2774   2.472   2.410   1.107
  625SOL    HW2 2775   2.630   2.422   1.147
  626SOL     OW 2776   2.755   5.666   3.523
  626SOL    HW1 2777   2.850   5.683   3.548
  626SOL    HW2 2778   2.695   5.692   3.598
  627SOL     OW 2779   5.360   0.495   0.887
  627SOL    HW1 2780   5.354   0.403   0.926
  627SOL    HW2 2781   5.401   0.557   0.954
  628SOL     OW 2782   5.385   4.705   5.213
  628SOL    HW1 2783   5.420   4.640   5.280
  628SOL    HW2 2784   5.323   4.657   5.150
  629SOL     OW 2785   6.992   6.692   1.154
  629SOL    HW1 2786   6.918   6.742   1.109
  629SOL    HW2 2787   7.018   6.739   1.238
  630SOL     OW 2788   5.705   2.149   2.761
  630SOL    HW1 2789   5.715   2.238   2.716
  630SOL    HW2 2790   5.789   2.096   2.750
  631SOL     OW 2791   3.742   6.823   5.329
  631SOL    HW1 2792   3.727   6.839   5.231
  631SOL    HW2 2793   3.664   6.773   5.368
  632SOL     OW 2794   2.959   1.987   0.062
  632SOL    HW1 2795   3.053   2.017   0.051
  632SOL    HW2 2796   2.909   2.002   6.996
  633SOL     OW 2797   3.791   5.203   6.996
  633SOL    HW1 2798   3.799   5.282   0.037
  633SOL    HW2 2799   3.882   5.170   6.973
  634SOL     OW 2800   4.542   4.599   1.900
  634SOL    HW1 2801   4.540   4.526   1.968
  634SOL    HW2 2802   4.563   4.561   1.810
  635SOL     OW 2803   4.857   6.341   2.473
  635SOL    HW1 2804   4.876   6.243   2.462
  635SOL    HW2 2805   4.930   6.394   2.430
  636SOL     OW 2806   5.044   6.181   6.356
  636SOL    HW1 2807   4.992   6.263   6.376
  636SOL    HW2 2808   4.989   6.100   6.378
  637SOL     OW 2809   5.316   4.151   1.568
  637SOL    HW1 2810   5.410   4.186   1.571
  637SOL    HW2 2811   5.273   4.177   1.481
  638SOL     OW 2812   5.263   1.105   2.202
  638SOL    HW1 2813   5.314   1.136   2.122
  638SOL    HW2 2814   5.300   1.150   2.284
  639SOL     OW 2815   5.131   4.100   2.402
  639SOL    HW1 2816   5.173   4.026   2.350
  639SOL    HW2 2817   5.156   4.092   2.498
  640SOL     OW 2818   2.144   4.534   4.958
  640SOL    HW1 2819   2.136   4.469   5.033
  640SOL    HW2 2820   2.209   4.606   4.982
  641SOL     OW 2821   0.344   5.480   4.946
  641SOL    HW1 2822   0.399   5.401   4.918
  641SOL    HW2 2823   0.354   5.553   4.878
  642SOL     OW 2824   0.093   4.113   3.960
  642SOL    HW1 2825   0.182   4.077   3.931
  642SOL    HW2 2826   0.021   4.074   3.904
  643SOL     OW 2827   5.951   4.707   5.129
  643SOL    HW1 2828   6.030   4.752   5.171
  643SOL    HW2 2829   5.973   4.612   5.109
  644SOL     OW 2830   1.115   5.383   2.876
  644SOL    HW1 2831   1.017   5.403   2.865
  644SOL    HW2 2832   1.126   5.300   2.931
  645SOL     OW 2833   5.322   2.603   4.308
  645SOL    HW1 2834   5.297   2.511   4.339
  645SOL    HW2 2835   5.286   2.618   4.216
  646SOL     OW 2836   2.667   1.956   3.387
  646SOL    HW1 2837   2.751   1.903   3.402
  646SOL    HW2 2838   2.689   2.039   3.335
  647SOL     OW 2839   5.753   2.689   5.726
  647SOL    HW1 2840   5.817   2.720   5.796
  647SOL    HW2 2841   5.793   2.614   5.675
  648SOL     OW 2842   6.762   3.474   2.786
  648SOL    HW1 2843   6.803   3.471   2.877
  648SOL    HW2 2844   6.684   3.412   2.783
  649SOL     OW 2845   4.489   4.061   6.992
  649SOL    HW1 2846   4.516   4.156   7.006
  649SOL    HW2 2847   4.440   4.028   0.053
  650SOL     OW 2848   5.444   3.847   0.614
  650SOL    HW1 2849   5.475   3.872   0.523
  650SOL    HW2 2850   5.478   3.756   0.638
  651SOL     OW 2851   0.471   6.772   6.833
  651SOL    HW1 2852   0.387   6.783   6.780
  651SOL    HW2 2853   0.450   6.779   6.930
  652SOL     OW 2854   4.941   6.020   3.822
  652SOL    HW1 2855   4.945   5.943   3.759
  652SOL    HW2 2856   4.955   6.105   3.771
  653SOL     OW 2857   3.416   5.419   5.632
  653SOL    HW1 2858   3.424   5.474   5.715
  653SOL    HW2 2859   3.386   5.327   5.656
  654SOL     OW 2860   6.962   4.692   6.035
  654SOL    HW1 2861   0.037   4.667   6.021
  654SOL    HW2 2862   6.957   4.785   6.071
  655SOL     OW 2863   0.487   6.754   2.410
  655SOL    HW1 2864   0.413   6.805   2.366
  655SOL    HW2 2865   0.462   6.658   2.418
  656SOL     OW 2866   2.072   5.811   1.079
  656SOL    HW1 2867   2.167   5.838   1.092
  656SOL    HW2 2868   2.039   5.765   1.162
  657SOL     OW 2869   2.460   2.024   1.594
  657SOL    HW1 2870   2.430   1.991   1.505
  657SOL    HW2 2871   2.423   1.965   1.666
  658SOL     OW 2872   3.030   2.942   5.876
  658SOL    HW1 2873   3.038   2.842   5.880
  658SOL    HW2 2874   3.104   2.979   5.820
  659SOL     OW 2875   3.104   6.639   6.383
  659SOL    HW1 2876   3.033   6.646   6.314
  659SOL    HW2 2877   3.194   6.644   6.339
  660SOL     OW 2878   4.952   4.235   1.774
  660SOL    HW1 2879   5.031   4.174   1.782
  660SOL    HW2 2880   4.872   4.182   1.747
  661SOL     OW 2881   4.871   6.322   3.699
  661SOL    HW1 2882   4.853   6.405   3.751
  661SOL    HW2 2883   4.875   6.344   3.601
  662SOL     OW 2884   3.886   0.509   5.359
  662SOL    HW1 2885   3.806   0.473   5.408
  662SOL    HW2 2886   3.943   0.433   5.328
  663SOL     OW 2887   2.389   3.719   5.951
  663SOL    HW1 2888   2.341   3.758   5.872
  663SOL    HW2 2889   2.475   3.677   5.920
  664SOL     OW 2890   0.162   6.285   6.599
  664SOL    HW1 2891   0.127   6.232   6.676
  664SOL    HW2 2892   0.089   6.344   6.563
  665SOL     OW 2893   4.334   5.397   1.911
  665SOL    HW1 2894   4.308   5.361   2.001
  665SOL    HW2 2895   4.321   5.326   1.842
  666SOL     OW 2896   5.047   0.936   1.984
  666SOL    HW1 2897   5.134   0.895   2.009
  666SOL    HW2 2898   5.032   1.019   2.038
  667SOL     OW 2899   1.106   4.892   2.738
  667SOL    HW1 2900   1.071   4.810   2.782
  667SOL    HW2 2901   1.044   4.969   2.755
  668SOL     OW 2902   4.979   6.587   6.113
  668SOL    HW1 2903   4.942   6.566   6.022
  668SOL    HW2 2904   4.924   6.660   6.154
  669SOL     OW 2905   5.404   0.551   3.603
  669SOL    HW1 2906   5.380   0.454   3.605
  669SOL    HW2 2907   5.451   0.575   3.688
  670SOL     OW 2908   3.025   2.010   1.869
  670SOL    HW1 2909   3.076   2.085   1.827
  670SOL    HW2 2910   2.928   2.034   1.871
  671SOL     OW 2911   3.061   6.192   0.998
  671SOL    HW1 2912   3.026   6.230   0.913
  671SOL    HW2 2913   3.134   6.126   0.977
  672SOL     OW 2914   6.320   5.518   2.264
  672SOL    HW1 2915   6.256   5.459   2.214
  672SOL    HW2 2916   6.407   5.469   2.275
  673SOL     OW 2917   6.274   6.657   0.810
  673SOL    HW1 2918   6.185   6.650   0.766
  673SOL    HW2 2919   6.283   6.748   0.852
  674SOL     OW 2920   0.427   1.423   4.546
  674SOL    HW1 2921   0.514   1.471   4.535
  674SOL    HW2 2922   0.366   1.478   4.604
  675SOL     OW 2923   5.670   2.408   2.663
  675SOL    HW1 2924   5.580   2.393   2.622
  675SOL    HW2 2925   5.738   2.423   2.591
  676SOL     OW 2926   3.100   5.496   3.959
  676SOL    HW1 2927   3.073   5.405   3.992
  676SOL    HW2 2928   3.174   5.486   3.892
  677SOL     OW 2929   5.029   0.949   0.627
  677SOL    HW1 2930   4.986   1.039   0.627
  677SOL    HW2 2931   5.023   0.908   0.718
  678SOL     OW 2932   2.792   6.087   5.003
  678SOL    HW1 2933   2.784   6.082   4.904
  678SOL    HW2 2934   2.817   6.180   5.031
  679SOL     OW 2935   5.038   1.790   3.950
  679SOL    HW1 2936   5.126   1.751   3.925
  679SOL    HW2 2937   5.042   1.890   3.942
  680SOL     OW 2938   4.686   5.802   4.796
  680SOL    HW1 2939   4.617   5.874   4.800
  680SOL    HW2 2940   4.770   5.834   4.841
  681SOL     OW 2941   4.761   5.816   1.689
  681SOL    HW1 2942   4.845   5.845   1.643
  681SOL    HW2 2943   4.784   5.777   1.779
  682SOL     OW 2944   5.945   1.118   1.571
  682SOL    HW1 2945   6.023   1.140   1.511
  682SOL    HW2 2946   5.948   1.178   1.651
  683SOL     OW 2947   4.547   2.524   0.276
  683SOL    HW1 2948   4.606   2.451   0.310
  683SOL    HW2 2949   4.469   2.535   0.338
  684SOL     OW 2950   6.549   0.995   0.493
  684SOL    HW1 2951   6.640   1.018   0.529
  684SOL    HW2 2952   6.507   1.078   0.456
  685SOL     OW 2953   3.332   2.043   3.931
  685SOL    HW1 2954   3.336   2.097   3.847
  685SOL    HW2 2955   3.346   1.946   3.910
  686SOL     OW 2956   4.864   2.330   4.514
  686SOL    HW1 2957   4.797   2.258   4.535
  686SOL    HW2 2958   4.933   2.334   4.587
  687SOL     OW 2959   0.878   2.017   3.897
  687SOL    HW1 2960   0.929   1.973   3.823
  687SOL    HW2 2961   0.925   2.101   3.924
  688SOL     OW 2962   0.209   1.632   6.413
  688SOL    HW1 2963   0.128   1.662   6.464
  688SOL    HW2 2964   0.223   1.534   6.427
  689SOL     OW 2965   1.440   4.690   6.071
  689SOL    HW1 2966   1.354   4.640   6.071
  689SOL    HW2 2967   1.437   4.763   6.002
  690SOL     OW 2968   6.872   3.752   3.381
  690SOL    HW1 2969   6.910   3.813   3.311
  690SOL    HW2 2970   6.935   3.748   3.459
  691SOL     OW 2971   3.485   1.443   6.887
  691SOL    HW1 2972   3.453   1.372   6.949
  691SOL    HW2 2973   3.562   1.491   6.928
  692SOL     OW 2974   4.194   2.243   4.622
  692SOL    HW1 2975   4.253   2.319   4.651
  692SOL    HW2 2976   4.235   2.198   4.542
  693SOL     OW 2977   4.787   6.515   3.927
  693SOL    HW1 2978   4.799   6.575   4.005
  693SOL    HW2 2979   4.702   6.463   3.938
  694SOL     OW 2980   4.328   6.675   5.079
  694SOL    HW1 2981   4.247   6.671   5.020
  694SOL    HW2 2982   4.410   6.674   5.023
  695SOL     OW 2983   3.978   6.734   4.051
  695SOL    HW1 2984   3.898   6.729   4.111
  695SOL    HW2 2985   4.061   6.735   4.107
  696SOL     OW 2986   5.010   4.585   3.481
  696SOL    HW1 2987   4.966   4.660   3.530
  696SOL    HW2 2988   5.053   4.621   3.398
  697SOL     OW 2989   1.698   4.037   2.631
  697SOL    HW1 2990   1.727   4.129   2.656
  697SOL    HW2 2991   1.610   4.042   2.583
  698SOL     OW 2992   5.710   6.249   0.966
  698SOL    HW1 2993   5.806   6.278   0.956
  698SOL    HW2 2994   5.671   6.292   1.048
  699SOL     OW 2995   1.585   3.461   6.850
  699SOL    HW1 2996   1.645   3.521   6.798
  699SOL    HW2 2997   1.551   3.509   6.931
  700SOL     OW 2998   3.389   6.846   2.097
  700SOL    HW1 2999   3.475   6.895   2.081
  700SOL    HW2 3000   3.410   6.750   2.120
  701SOL     OW 3001   0.024   3.889   0.083
  701SOL    HW1 3002   0.122   3.910   0.083
  701SOL    HW2 3003   7.019   3.844   0.168
  702SOL     OW 3004   1.899   6.645   4.882
  702SOL    HW1 3005   1.994   6.670   4.866
  702SOL    HW2 3006   1.840   6.724   4.866
  703SOL     OW 3007   3.598   3.356   5.432
  703SOL    HW1 3008   3.676   3.294   5.440
  703SOL    HW2 3009   3.595   3.394   5.339
  704SOL     OW 3010   1.710   2.562   6.243
  704SOL    HW1 3011   1.773   2.561   6.165
  704SOL    HW2 3012   1.665   2.651   6.249
  705SOL     OW 3013   5.941   5.528   2.874
  705SOL    HW1 3014   5.952   5.467   2.953
  705SOL    HW2 3015   5.845   5.531   2.847
  706SOL     OW 3016   4.487   1.700   5.309
  706SOL    HW1 3017   4.465   1.655   5.395
  706SOL    HW2 3018   4.585   1.719   5.305
  707SOL     OW 3019   4.153   4.759   3.063
  707SOL    HW1 3020   4.216   4.682   3.065
  707SOL    HW2 3021   4.204   4.843   3.045
  708SOL     OW 3022   2.606   1.229   2.335
  708SOL    HW1 3023   2.704   1.241   2.317
  708SOL    HW2 3024   2.589   1.241   2.433
  709SOL     OW 3025   1.178   6.038   0.558
  709SOL    HW1 3026   1.196   6.082   0.470
  709SOL    HW2 3027   1.256   6.053   0.619
  710SOL     OW 3028   4.245   1.873   1.462
  710SOL    HW1 3029   4.152   1.899   1.490
  710SOL    HW2 3030   4.280   1.941   1.398
  711SOL     OW 3031   0.041   3.099   5.898
  711SOL    HW1 3032   0.051   3.083   5.996
  711SOL    HW2 3033   0.114   3.158   5.865
  712SOL     OW 3034   4.757   2.369   0.396
  712SOL    HW1 3035   4.759   2.436   0.471
  712SOL    HW2 3036   4.749   2.277   0.433
  713SOL     OW 3037   4.399   3.322   5.648
  713SOL    HW1 3038   4.348   3.319   5.562
  713SOL    HW2 3039   4.345   3.372   5.717
  714SOL     OW 3040   0.173   5.476   3.679
  714SOL    HW1 3041   0.087   5.448   3.722
  714SOL    HW2 3042   0.167   5.464   3.580
  715SOL     OW 3043   5.567   5.964   6.637
  715SOL    HW1 3044   5.604   5.875   6.662
  715SOL    HW2 3045   5.641   6.029   6.626
  716SOL     OW 3046   1.038   0.956   2.495
  716SOL    HW1 3047   1.047   1.055   2.487
  716SOL    HW2 3048   1.071   0.926   2.585
  717SOL     OW 3049   6.776   5.026   3.862
  717SOL    HW1 3050   6.706   5.096   3.876
  717SOL    HW2 3051   6.799   4.985   3.951
  718SOL     OW 3052   4.733   2.944   5.572
  718SOL    HW1 3053   4.809   2.905   5.521
  718SOL    HW2 3054   4.662   2.974   5.508
  719SOL     OW 3055   5.738   6.937   2.415
  719SOL    HW1 3056   5.708   6.882   2.336
  719SOL    HW2 3057   5.670   6.929   2.488
  720SOL     OW 3058   2.273   0.740   5.945
  720SOL    HW1 3059   2.332   0.670   5.984
  720SOL    HW2 3060   2.207   0.697   5.883
  721SOL     OW 3061   2.245   1.283   1.819
  721SOL    HW1 3062   2.331   1.249   1.857
  721SOL    HW2 3063   2.257   1.303   1.722
  722SOL     OW 3064   3.249   1.141   5.267
  722SOL    HW1 3065   3.282   1.228   5.306
  722SOL    HW2 3066   3.150   1.145   5.257
  723SOL     OW 3067   2.179   5.275   3.779
  723SOL    HW1 3068   2.085   5.263   3.748
  723SOL    HW2 3069   2.241   5.266   3.700
  724SOL     OW 3070   0.564   1.455   3.391
  724SOL    HW1 3071   0.481   1.427   3.343
  724SOL    HW2 3072   0.602   1.537   3.348
  725SOL     OW 3073   1.484   4.543   2.454
  725SOL    HW1 3074   1.396   4.583   2.478
  725SOL    HW2 3075   1.493   4.452   2.494
  726SOL     OW 3076   2.858   5.321   1.211
  726SOL    HW1 3077   2.870   5.420   1.207
  726SOL    HW2 3078   2.761   5.298   1.202
  727SOL     OW 3079   5.003   4.737   6.341
  727SOL    HW1 3080   5.015   4.649   6.296
  727SOL    HW2 3081   4.926   4.786   6.300
  728SOL     OW 3082   6.765   3.335   3.993
  728SOL    HW1 3083   6.828   3.383   3.933
  728SOL    HW2 3084   6.797   3.343   4.088
  729SOL     OW 3085   0.467   2.753   0.807
  729SOL    HW1 3086   0.541   2.785   0.865
  729SOL    HW2 3087   0.405   2.828   0.785
  730SOL     OW 3088   6.332   0.053   4.374
  730SOL    HW1 3089   6.342   0.141   4.327
  730SOL    HW2 3090   6.318   7.001   4.306
  731SOL     OW 3091   4.508   5.260   6.993
  731SOL    HW1 3092   4.501   5.282   6.896
  731SOL    HW2 3093   4.505   5.345   0.026
  732SOL     OW 3094   6.062   2.987   2.715
  732SOL    HW1 3095   5.995   3.059   2.730
  732SOL    HW2 3096   6.018   2.898   2.721
  733SOL     OW 3097   5.764   0.338   5.343
  733SOL    HW1 3098   5.732   0.358   5.251
  733SOL    HW2 3099   5.688   0.301   5.397
  734SOL     OW 3100   6.163   5.097   2.661
  734SOL    HW1 3101   6.193   5.191   2.682
  734SOL    HW2 3102   6.209   5.065   2.579
  735SOL     OW 3103   4.137   1.692   0.629
  735SOL    HW1 3104   4.146   1.593   0.622
  735SOL    HW2 3105   4.051   1.721   0.586
  736SOL     OW 3106   1.120   1.135   4.006
  736SOL    HW1 3107   1.035   1.095   3.970
  736SOL    HW2 3108   1.164   1.188   3.933
  737SOL     OW 3109   5.441   1.613   6.389
  737SOL    HW1 3110   5.429   1.603   6.290
  737SOL    HW2 3111   5.412   1.704   6.417
  738SOL     OW 3112   2.901   4.194   1.536
  738SOL    HW1 3113   2.826   4.130   1.523
  738SOL    HW2 3114   2.955   4.200   1.452
  739SOL     OW 3115   3.951   0.134   4.590
  739SOL    HW1 3116   4.027   0.166   4.646
  739SOL    HW2 3117   3.956   0.179   4.500
  740SOL     OW 3118   5.709   1.666   2.982
  740SOL    HW1 3119   5.668   1.711   2.903
  740SOL    HW2 3120   5.654   1.586   3.008
  741SOL     OW 3121   1.980   0.196   4.067
  741SOL    HW1 3122   1.990   0.292   4.042
  741SOL    HW2 3123   2.058   0.144   4.034
  742SOL     OW 3124   2.039   6.224   1.302
  742SOL    HW1 3125   2.022   6.294   1.372
  742SOL    HW2 3126   1.958   6.214   1.245
  743SOL     OW 3127   6.893   5.513   3.131
  743SOL    HW1 3128   6.812   5.476   3.088
  743SOL    HW2 3129   6.975   5.475   3.088
  744SOL     OW 3130   6.091   0.623   0.423
  744SOL    HW1 3131   6.148   0.632   0.505
  744SOL    HW2 3132   6.067   0.714   0.389
  745SOL     OW 3133   2.090   5.306   5.230
  745SOL    HW1 3134   2.065   5.211   5.246
  745SOL    HW2 3135   2.155   5.312   5.154
  746SOL     OW 3136   5.854   4.173   5.912
  746SOL    HW1 3137   5.756   4.170   5.931
  746SOL    HW2 3138   5.904   4.195   5.996
  747SOL     OW 3139   4.227   6.066   4.846
  747SOL    HW1 3140   4.180   6.085   4.933
  747SOL    HW2 3141   4.163   6.027   4.781
  748SOL     OW 3142   4.724   5.470   2.044
  748SOL    HW1 3143   4.680   5.385   2.070
  748SOL    HW2 3144   4.758   5.516   2.126
  749SOL     OW 3145   5.802   3.597   4.464
  749SOL    HW1 3146   5.881   3.588   4.403
  749SOL    HW2 3147   5.824   3.662   4.536
  750SOL     OW 3148   2.372   1.355   1.133
  750SOL    HW1 3149   2.333   1.418   1.066
  750SOL    HW2 3150   2.469   1.378   1.147
  751SOL     OW 3151   4.054   1.065   0.318
  751SOL    HW1 3152   4.054   1.119   0.402
  751SOL    HW2 3153   3.987   0.991   0.327
  752SOL     OW 3154   3.016   3.043   0.168
  752SOL    HW1 3155   3.073   3.070   0.246
  752SOL    HW2 3156   3.008   2.943   0.166
  753SOL     OW 3157   1.449   3.452   5.805
  753SOL    HW1 3158   1.476   3.453   5.902
  753SOL    HW2 3159   1.516   3.399   5.753
  754SOL     OW 3160   4.766   1.554   6.576
  754SOL    HW1 3161   4.684   1.504   6.549
  754SOL    HW2 3162   4.787   1.536   6.672
  755SOL     OW 3163   2.917   4.673   5.721
  755SOL    HW1 3164   2.860   4.753   5.698
  755SOL    HW2 3165   2.961   4.689   5.809
  756SOL     OW 3166   2.677   5.120   0.010
  756SOL    HW1 3167   2.762   5.148   0.055
  756SOL    HW2 3168   2.667   5.020   0.017
  757SOL     OW 3169   2.008   6.258   3.142
  757SOL    HW1 3170   1.967   6.290   3.057
  757SOL    HW2 3171   2.073   6.184   3.122
  758SOL     OW 3172   4.088   0.888   3.598
  758SOL    HW1 3173   4.114   0.845   3.511
  758SOL    HW2 3174   4.169   0.926   3.642
  759SOL     OW 3175   0.164   3.049   2.604
  759SOL    HW1 3176   0.193   3.035   2.510
  759SOL    HW2 3177   0.117   3.137   2.612
  760SOL     OW 3178   6.322   6.796   4.180
  760SOL    HW1 3179   6.258   6.815   4.106
  760SOL    HW2 3180   6.416   6.805   4.146
  761SOL     OW 3181   5.668   4.222   6.498
  761SOL    HW1 3182   5.739   4.209   6.566
  761SOL    HW2 3183   5.595   4.279   6.536
  762SOL     OW 3184   3.094   0.236   5.479
  762SOL    HW1 3185   3.132   0.289   5.404
  762SOL    HW2 3186   3.001   0.207   5.456
  763SOL     OW 3187   4.292   6.536   6.350
  763SOL    HW1 3188   4.216   6.504   6.406
  763SOL    HW2 3189   4.377   6.526   6.402
  764SOL     OW 3190   5.418   0.698   5.861
  764SOL    HW1 3191   5.383   0.627   5.922
  764SOL    HW2 3192   5.448   0.777   5.915
  765SOL     OW 3193   1.636   6.249   0.602
  765SOL    HW1 3194   1.705   6.279   0.537
  765SOL    HW2 3195   1.625   6.317   0.674
  766SOL     OW 3196   2.965   1.985   5.432
  766SOL    HW1 3197   2.955   1.963   5.529
  766SOL    HW2 3198   3.022   2.066   5.422
  767SOL     OW 3199   6.359   6.670   3.826
  767SOL    HW1 3200   6.410   6.611   3.888
  767SOL    HW2 3201   6.310   6.740   3.879
  768SOL     OW 3202   2.077   5.552   3.495
  768SOL    HW1 3203   2.125   5.570   3.582
  768SOL    HW2 3204   2.112   5.466   3.456
  769SOL     OW 3205   2.772   1.040   5.076
  769SOL    HW1 3206   2.704   1.002   5.139
  769SOL    HW2 3207   2.731   1.117   5.026
  770SOL     OW 3208   1.405   5.539   3.822
  770SOL    HW1 3209   1.372   5.460   3.770
  770SOL    HW2 3210   1.433   5.510   3.913
  771SOL     OW 3211   1.299   4.574   2.869
  771SOL    HW1 3212   1.341   4.588   2.959
  771SOL    HW2 3213   1.206   4.609   2.870
  772SOL     OW 3214   6.107   4.939   6.518
  772SOL    HW1 3215   6.084   4.844   6.539
  772SOL    HW2 3216   6.129   4.987   6.603
  773SOL     OW 3217   0.530   3.840   3.033
  773SOL    HW1 3218   0.572   3.798   2.954
  773SOL    HW2 3219   0.548   3.939   3.033
  774SOL     OW 3220   1.651   1.354   2.748
  774SOL    HW1 3221   1.645   1.302   2.834
  774SOL    HW2 3222   1.747   1.367   2.725
  775SOL     OW 3223   2.123   1.923   4.423
  775SOL    HW1 3224   2.174   2.005   4.449
  775SOL    HW2 3225   2.160   1.886   4.338
  776SOL     OW 3226   6.818   0.533   6.121
  776SOL    HW1 3227   6.750   0.483   6.068
  776SOL    HW2 3228   6.799   0.523   6.219
  777SOL     OW 3229   1.976   4.103   1.235
  777SOL    HW1 3230   1.912   4.180   1.231
  777SOL    HW2 3231   1.994   4.079   1.330
  778SOL     OW 3232   2.228   0.196   1.581
  778SOL    HW1 3233   2.274   0.112   1.551
  778SOL    HW2 3234   2.297   0.265   1.604
  779SOL     OW 3235   6.838   1.828   2.053
  779SOL    HW1 3236   6.742   1.808   2.038
  779SOL    HW2 3237   6.847   1.898   2.125
  780SOL     OW 3238   0.950   2.555   4.029
  780SOL    HW1 3239   0.931   2.507   4.115
  780SOL    HW2 3240   0.865   2.595   3.994
  781SOL     OW 3241   5.663   5.235   0.526
  781SOL    HW1 3242   5.715   5.223   0.441
  781SOL    HW2 3243   5.585   5.294   0.508
  782SOL     OW 3244   1.937   3.893   5.714
  782SOL    HW1 3245   1.928   3.929   5.622
  782SOL    HW2 3246   1.927   3.967   5.781
  783SOL     OW 3247   5.568   4.237   1.542
  783SOL    HW1 3248   5.604   4.171   1.475
  783SOL    HW2 3249   5.621   4.231   1.626
  784SOL     OW 3250   4.195   5.035   1.601
  784SOL    HW1 3251   4.233   5.044   1.693
  784SOL    HW2 3252   4.115   4.975   1.604
  785SOL     OW 3253   0.356   1.202   3.535
  785SOL    HW1 3254   0.260   1.223   3.551
  785SOL    HW2 3255   0.412   1.280   3.563
  786SOL     OW 3256   6.873   1.037   2.540
  786SOL    HW1 3257   6.947   1.093   2.504
  786SOL    HW2 3258   6.900   0.998   2.628
  787SOL     OW 3259   1.804   6.699   6.810
  787SOL    HW1 3260   1.862   6.683   6.730
  787SOL    HW2 3261   1.860   6.700   6.892
  788SOL     OW 3262   4.338   2.334   1.011
  788SOL    HW1 3263   4.358   2.292   1.100
  788SOL    HW2 3264   4.252   2.383   1.016
  789SOL     OW 3265   4.612   5.242   2.112
  789SOL    HW1 3266   4.532   5.183   2.100
  789SOL    HW2 3267   4.695   5.185   2.115
  790SOL     OW 3268   2.071   1.009   2.018
  790SOL    HW1 3269   2.068   1.108   2.033
  790SOL    HW2 3270   2.160   0.973   2.046
  791SOL     OW 3271   2.370   5.875   5.465
  791SOL    HW1 3272   2.459   5.865   5.421
  791SOL    HW2 3273   2.298   5.841   5.404
  792SOL     OW 3274   0.625   0.826   2.283
  792SOL    HW1 3275   0.597   0.913   2.243
  792SOL    HW2 3276   0.623   0.755   2.212
  793SOL     OW 3277   5.073   5.774   5.332
  793SOL    HW1 3278   5.148   5.712   5.351
  793SOL    HW2 3279   4.996   5.723   5.294
  794SOL     OW 3280   3.025   3.536   5.741
  794SOL    HW1 3281   3.106   3.590   5.718
  794SOL    HW2 3282   3.048   3.439   5.741
  795SOL     OW 3283   3.984   0.419   5.669
  795SOL    HW1 3284   4.027   0.379   5.750
  795SOL    HW2 3285   4.055   0.448   5.604
  796SOL     OW 3286   1.758   2.861   0.423
  796SOL    HW1 3287   1.846   2.872   0.378
  796SOL    HW2 3288   1.724   2.951   0.451
  797SOL     OW 3289   4.321   0.414   0.971
  797SOL    HW1 3290   4.395   0.479   0.985
  797SOL    HW2 3291   4.259   0.417   1.050
  798SOL     OW 3292   3.757   6.078   1.244
  798SOL    HW1 3293   3.718   6.158   1.288
  798SOL    HW2 3294   3.693   6.042   1.176
  799SOL     OW 3295   0.385   1.212   6.219
  799SOL    HW1 3296   0.463   1.229   6.159
  799SOL    HW2 3297   0.405   1.248   6.310
  800SOL     OW 3298   6.672   1.253   2.357
  800SOL    HW1 3299   6.736   1.178   2.379
  800SOL    HW2 3300   6.724   1.338   2.348
  801SOL     OW 3301   2.158   4.028   5.288
  801SOL    HW1 3302   2.126   4.122   5.277
  801SOL    HW2 3303   2.237   4.012   5.229
  802SOL     OW 3304   3.670   1.987   0.021
  802SOL    HW1 3305   3.647   1.927   6.964
  802SOL    HW2 3306   3.747   2.046   7.016
  803SOL     OW 3307   1.583   6.628   6.039
  803SOL    HW1 3308   1.626   6.572   5.968
  803SOL    HW2 3309   1.487   6.644   6.016
  804SOL     OW 3310   6.598   0.040   1.624
  804SOL    HW1 3311   6.667   6.991   1.642
  804SOL    HW2 3312   6.640   0.131   1.629
  805SOL     OW 3313   1.563   0.424   3.884
  805SOL    HW1 3314   1.601   0.331   3.875
  805SOL    HW2 3315   1.467   0.423   3.858
  806SOL     OW 3316   6.414   0.265   6.468
  806SOL    HW1 3317   6.379   0.355   6.490
  806SOL    HW2 3318   6.338   0.201   6.458
  807SOL     OW 3319   0.697   6.755   3.718
  807SOL    HW1 3320   0.613   6.719   3.759
  807SOL    HW2 3321   0.725   6.838   3.767
  808SOL     OW 3322   5.151   2.987   6.698
  808SOL    HW1 3323   5.216   3.004   6.771
  808SOL    HW2 3324   5.196   2.996   6.609
  809SOL     OW 3325   0.825   4.959   0.732
  809SOL    HW1 3326   0.790   4.985   0.642
  809SOL    HW2 3327   0.862   5.040   0.778
  810SOL     OW 3328   3.243   3.705   0.190
  810SOL    HW1 3329   3.150   3.717   0.225
  810SOL    HW2 3330   3.286   3.794   0.178
  811SOL     OW 3331   5.114   4.950   3.955
  811SOL    HW1 3332   5.082   5.028   3.902
  811SOL    HW2 3333   5.162   4.983   4.037
  812SOL     OW 3334   0.331   1.787   1.924
  812SOL    HW1 3335   0.306   1.778   1.828
  812SOL    HW2 3336   0.331   1.884   1.949
  813SOL     OW 3337   2.857   0.232   4.511
  813SOL    HW1 3338   2.794   0.268   4.442
  813SOL    HW2 3339   2.819   0.246   4.602
  814SOL     OW 3340   6.502   6.102   2.624
  814SOL    HW1 3341   6.572   6.049   2.576
  814SOL    HW2 3342   6.530   6.198   2.628
  815SOL     OW 3343   5.578   2.901   3.321
  815SOL    HW1 3344   5.626   2.842   3.255
  815SOL    HW2 3345   5.485   2.866   3.335
  816SOL     OW 3346   4.959   5.070   0.327
  816SOL    HW1 3347   4.974   5.024   0.240
  816SOL    HW2 3348   4.988   5.165   0.320
  817SOL     OW 3349   1.129   5.471   1.810
  817SOL    HW1 3350   1.206   5.421   1.771
  817SOL    HW2 3351   1.110   5.552   1.754
  818SOL     OW 3352   5.869   2.935   3.597
  818SOL    HW1 3353   5.826   2.942   3.687
  818SOL    HW2 3354   5.809   2.977   3.529
  819SOL     OW 3355   6.231   2.616   1.806
  819SOL    HW1 3356   6.225   2.716   1.807
  819SOL    HW2 3357   6.301   2.587   1.742
  820SOL     OW 3358   3.227   2.150   4.688
  820SOL    HW1 3359   3.252   2.237   4.729
  820SOL    HW2 3360   3.292   2.128   4.615
  821SOL     OW 3361   6.224   5.103   6.121
  821SOL    HW1 3362   6.148   5.060   6.170
  821SOL    HW2 3363   6.252   5.045   6.044
  822SOL     OW 3364   0.285   3.727   3.252
  822SOL    HW1 3365   0.360   3.791   3.235
  822SOL    HW2 3366   0.309   3.667   3.329
  823SOL     OW 3367   6.521   4.454   6.611
  823SOL    HW1 3368   6.434   4.433   6.567
  823SOL    HW2 3369   6.592   4.394   6.575
  824SOL     OW 3370   4.777   1.007   5.529
  824SOL    HW1 3371   4.848   1.048   5.472
  824SOL    HW2 3372   4.818   0.935   5.585
  825SOL     OW 3373   6.630   5.893   1.280
  825SOL    HW1 3374   6.689   5.970   1.257
  825SOL    HW2 3375   6.534   5.917   1.262
  826SOL     OW 3376   3.438   2.596   5.792
  826SOL    HW1 3377   3.521   2.636   5.830
  826SOL    HW2 3378   3.404   2.653   5.718
  827SOL     OW 3379   2.926   4.097   5.188
  827SOL    HW1 3380   3.010   4.145   5.214
  827SOL    HW2 3381   2.948   4.024   5.123
  828SOL     OW 3382   5.876   5.880   6.233
  828SOL    HW1 3383   5.976   5.882   6.228
  828SOL    HW2 3384   5.844   5.933   6.311
  829SOL     OW 3385   3.537   3.401   1.951
  829SOL    HW1 3386   3.562   3.327   2.014
  829SOL    HW2 3387   3.440   3.395   1.929
  830SOL     OW 3388   5.401   5.567   0.006
  830SOL    HW1 3389   5.434   5.503   6.957
  830SOL    HW2 3390   5.421   5.661   6.999
  831SOL     OW 3391   6.379   0.124   1.434
  831SOL    HW1 3392   6.444   0.064   1.480
  831SOL    HW2 3393   6.295   0.074   1.414
  832SOL     OW 3394   4.548   1.716   4.315
  832SOL    HW1 3395   4.600   1.735   4.232
  832SOL    HW2 3396   4.561   1.790   4.380
  833SOL     OW 3397   2.211   3.655   6.331
  833SOL    HW1 3398   2.179   3.667   6.237
  833SOL    HW2 3399   2.181   3.733   6.386
  834SOL     OW 3400   5.271   2.903   0.306
  834SOL    HW1 3401   5.254   3.002   0.303
  834SOL    HW2 3402   5.198   2.858   0.358
  835SOL     OW 3403   2.086   0.726   4.652
  835SOL    HW1 3404   2.135   0.775   4.580
  835SOL    HW2 3405   2.081   0.628   4.629
  836SOL     OW 3406   3.052   1.002   4.931
  836SOL    HW1 3407   3.101   0.948   5.000
  836SOL    HW2 3408   2.957   1.015   4.960
  837SOL     OW 3409   0.337   0.079   0.806
  837SOL    HW1 3410   0.428   0.110   0.777
  837SOL    HW2 3411   0.308   0.004   0.747
  838SOL     OW 3412   2.397   6.059   4.317
  838SOL    HW1 3413   2.486   6.030   4.283
  838SOL    HW2 3414   2.406   6.146   4.365
  839SOL     OW 3415   2.239   1.629   1.596
  839SOL    HW1 3416   2.183   1.695   1.546
  839SOL    HW2 3417   2.326   1.616   1.547
  840SOL     OW 3418   6.047   5.372   0.574
  840SOL    HW1 3419   6.122   5.352   0.636
  840SOL    HW2 3420   5.962   5.382   0.626
  841SOL     OW 3421   3.196   5.700   6.206
  841SOL    HW1 3422   3.208   5.713   6.108
  841SOL    HW2 3423   3.149   5.614   6.224
  842SOL     OW 3424   3.621   6.966   6.830
  842SOL    HW1 3425   3.684   0.023   6.843
  842SOL    HW2 3426   3.673   6.885   6.803
  843SOL     OW 3427   1.907   1.865   1.987
  843SOL    HW1 3428   1.987   1.913   1.951
  843SOL    HW2 3429   1.906   1.772   1.952
  844SOL     OW 3430   0.150   6.683   1.388
  844SOL    HW1 3431   0.227   6.657   1.448
  844SOL    HW2 3432   0.065   6.680   1.440
  845SOL     OW 3433   5.506   3.308   3.349
  845SOL    HW1 3434   5.423   3.360   3.368
  845SOL    HW2 3435   5.513   3.292   3.250
  846SOL     OW 3436   2.884   0.596   5.815
  846SOL    HW1 3437   2.851   0.615   5.908
  846SOL    HW2 3438   2.916   0.680   5.773
  847SOL     OW 3439   1.991   3.268   1.935
  847SOL    HW1 3440   2.087   3.245   1.916
  847SOL    HW2 3441   1.988   3.339   2.006
  848SOL     OW 3442   6.625   6.791   5.654
  848SOL    HW1 3443   6.547   6.729   5.643
  848SOL    HW2 3444   6.604   6.860   5.723
  849SOL     OW 3445   6.229   4.503   6.051
  849SOL    HW1 3446   6.327   4.523   6.053
  849SOL    HW2 3447   6.194   4.515   5.958
  850SOL     OW 3448   6.524   0.042   5.470
  850SOL    HW1 3449   6.476   6.989   5.517
  850SOL    HW2 3450   6.476   0.128   5.484
  851SOL     OW 3451   0.080   2.918   6.641
  851SOL    HW1 3452   0.065   2.890   6.736
  851SOL    HW2 3453   0.176   2.943   6.629
  852SOL     OW 3454   0.764   4.790   0.952
  852SOL    HW1 3455   0.796   4.854   0.883
  852SOL    HW2 3456   0.666   4.775   0.942
  853SOL     OW 3457   1.297   4.611   6.734
  853SOL    HW1 3458   1.285   4.703   6.698
  853SOL    HW2 3459   1.382   4.607   6.787
  854SOL     OW 3460   4.801   6.409   0.431
  854SOL    HW1 3461   4.825   6.362   0.345
  854SOL    HW2 3462   4.739   6.485   0.411
  855SOL     OW 3463   6.433   0.175   0.481
  855SOL    HW1 3464   6.466   0.141   0.569
  855SOL    HW2 3465   6.505   0.168   0.413
  856SOL     OW 3466   1.328   1.046   6.290
  856SOL    HW1 3467   1.310   0.995   6.206
  856SOL    HW2 3468   1.244   1.050   6.346
  857SOL     OW 3469   6.714   5.779   2.093
  857SOL    HW1 3470   6.780   5.768   2.018
  857SOL    HW2 3471   6.624   5.747   2.063
  858SOL     OW 3472   3.602   4.331   0.857
  858SOL    HW1 3473   3.634   4.247   0.812
  858SOL    HW2 3474   3.630   4.410   0.804
  859SOL     OW 3475   5.731   5.983   5.468
  859SOL    HW1 3476   5.658   5.946   5.526
  859SOL    HW2 3477   5.750   5.919   5.394
  860SOL     OW 3478   6.098   2.880   6.411
  860SOL    HW1 3479   6.107   2.948   6.484
  860SOL    HW2 3480   6.176   2.888   6.350
  861SOL     OW 3481   2.636   5.355   2.957
  861SOL    HW1 3482   2.620   5.263   2.921
  861SOL    HW2 3483   2.607   5.423   2.890
  862SOL     OW 3484   2.123   4.511   3.374
  862SOL    HW1 3485   2.069   4.466   3.303
  862SOL    HW2 3486   2.214   4.469   3.378
  863SOL     OW 3487   5.984   1.310   6.049
  863SOL    HW1 3488   5.908   1.297   6.112
  863SOL    HW2 3489   6.064   1.342   6.100
  864SOL     OW 3490   3.894   6.232   5.045
  864SOL    HW1 3491   3.888   6.298   5.120
  864SOL    HW2 3492   3.802   6.212   5.012
  865SOL     OW 3493   2.216   0.157   5.617
  865SOL    HW1 3494   2.284   0.117   5.678
  865SOL    HW2 3495   2.151   0.210   5.670
  866SOL     OW 3496   3.346   0.137   0.804
  866SOL    HW1 3497   3.390   0.226   0.812
  866SOL    HW2 3498   3.336   0.113   0.707
  867SOL     OW 3499   4.923   3.696   1.051
  867SOL    HW1 3500   4.938   3.640   1.133
  867SOL    HW2 3501   4.845   3.659   1.000
  868SOL     OW 3502   0.269   1.397   1.991
  868SOL    HW1 3503   0.335   1.468   2.016
  868SOL    HW2 3504   0.294   1.311   2.034
  869SOL     OW 3505   6.786   4.569   3.523
  869SOL    HW1 3506   6.797   4.667   3.538
  869SOL    HW2 3507   6.814   4.519   3.606
  870SOL     OW 3508   4.529   4.678   1.185
  870SOL    HW1 3509   4.617   4.656   1.143
  870SOL    HW2 3510   4.461   4.693   1.114
  871SOL     OW 3511   5.726   2.562   3.933
  871SOL    HW1 3512   5.682   2.620   4.001
  871SOL    HW2 3513   5.714   2.602   3.842
  872SOL     OW 3514   6.670   2.388   4.404
  872SOL    HW1 3515   6.766   2.413   4.391
  872SOL    HW2 3516   6.611   2.456   4.360
  873SOL     OW 3517   4.839   5.654   5.199
  873SOL    HW1 3518   4.799   5.570   5.237
  873SOL    HW2 3519   4.854   5.642   5.101
  874SOL     OW 3520   6.524   3.809   0.268
  874SOL    HW1 3521   6.545   3.888   0.211
  874SOL    HW2 3522   6.547   3.725   0.219
  875SOL     OW 3523   4.750   4.837   0.961
  875SOL    HW1 3524   4.651   4.828   0.953
  875SOL    HW2 3525   4.791   4.746   0.973
  876SOL     OW 3526   0.530   5.707   2.088
  876SOL    HW1 3527   0.490   5.766   2.158
  876SOL    HW2 3528   0.572   5.762   2.017
  877SOL     OW 3529   3.151   4.418   5.907
  877SOL    HW1 3530   3.240   4.377   5.930
  877SOL    HW2 3531   3.166   4.501   5.853
  878SOL     OW 3532   4.845   6.932   4.154
  878SOL    HW1 3533   4.876   6.837   4.151
  878SOL    HW2 3534   4.826   6.964   4.061
  879SOL     OW 3535   3.948   0.218   1.836
  879SOL    HW1 3536   4.002   0.301   1.822
  879SOL    HW2 3537   3.863   0.241   1.883
  880SOL     OW 3538   3.548   3.671   3.530
  880SOL    HW1 3539   3.508   3.645   3.442
  880SOL    HW2 3540   3.646   3.689   3.518
  881SOL     OW 3541   5.234   3.602   5.294
  881SOL    HW1 3542   5.182   3.680   5.330
  881SOL    HW2 3543   5.190   3.517   5.323
  882SOL     OW 3544   1.106   2.777   4.068
  882SOL    HW1 3545   1.176   2.766   3.998
  882SOL    HW2 3546   1.046   2.697   4.069
  883SOL     OW 3547   3.156   1.056   1.012
  883SOL    HW1 3548   3.112   1.097   0.933
  883SOL    HW2 3549   3.224   1.120   1.049
  884SOL     OW 3550   5.857   4.156   5.657
  884SOL    HW1 3551   5.850   4.151   5.757
  884SOL    HW2 3552   5.947   4.124   5.628
  885SOL     OW 3553   3.460   1.193   4.783
  885SOL    HW1 3554   3.470   1.283   4.827
  885SOL    HW2 3555   3.459   1.122   4.853
  886SOL     OW 3556   3.360   0.547   0.221
  886SOL    HW1 3557   3.395   0.564   0.129
  886SOL    HW2 3558   3.395   0.616   0.284
  887SOL     OW 3559   3.867   6.747   3.801
  887SOL    HW1 3560   3.899   6.725   3.893
  887SOL    HW2 3561   3.800   6.678   3.771
  888SOL     OW 3562   6.926   6.045   3.227
  888SOL    HW1 3563   6.963   6.063   3.136
  888SOL    HW2 3564   6.959   5.957   3.260
  889SOL     OW 3565   6.816   2.263   0.425
  889SOL    HW1 3566   6.845   2.184   0.370
  889SOL    HW2 3567   6.894   2.322   0.443
  890SOL     OW 3568   1.845   4.826   2.937
  890SOL    HW1 3569   1.899   4.787   3.012
  890SOL    HW2 3570   1.747   4.820   2.960
  891SOL     OW 3571   5.853   4.185   1.414
  891SOL    HW1 3572   5.856   4.133   1.499
  891SOL    HW2 3573   5.775   4.154   1.359
  892SOL     OW 3574   2.893   3.816   4.993
  892SOL    HW1 3575   2.842   3.813   4.907
  892SOL    HW2 3576   2.832   3.842   5.067
  893SOL     OW 3577   2.052   6.123   3.400
  893SOL    HW1 3578   2.023   6.180   3.322
  893SOL    HW2 3579   2.146   6.144   3.423
  894SOL     OW 3580   0.859   2.839   1.770
  894SOL    HW1 3581   0.864   2.742   1.794
  894SOL    HW2 3582   0.811   2.889   1.842
  895SOL     OW 3583   1.238   4.644   4.019
  895SOL    HW1 3584   1.150   4.636   4.066
  895SOL    HW2 3585   1.257   4.559   3.969
  896SOL     OW 3586   5.364   4.786   1.145
  896SOL    HW1 3587   5.371   4.794   1.045
  896SOL    HW2 3588   5.322   4.698   1.168
  897SOL     OW 3589   4.122   1.273   6.659
  897SOL    HW1 3590   4.124   1.365   6.698
  897SOL    HW2 3591   4.177   1.212   6.716
  898SOL     OW 3592   3.504   6.279   2.844
  898SOL    HW1 3593   3.405   6.284   2.848
  898SOL    HW2 3594   3.532   6.191   2.805
  899SOL     OW 3595   0.355   6.452   0.519
  899SOL    HW1 3596   0.257   6.474   0.519
  899SOL    HW2 3597   0.402   6.508   0.588
  900SOL     OW 3598   5.907   0.439   0.336
  900SOL    HW1 3599   5.981   0.491   0.378
  900SOL    HW2 3600   5.878   0.485   0.252
  901SOL     OW 3601   1.860   0.230   3.689
  901SOL    HW1 3602   1.943   0.285   3.703
  901SOL    HW2 3603   1.827   0.197   3.777
  902SOL     OW 3604   1.676   2.069   1.145
  902SOL    HW1 3605   1.726   2.095   1.063
  902SOL    HW2 3606   1.601   2.134   1.160
  903SOL     OW 3607   0.638   2.966   6.969
  903SOL    HW1 3608   0.545   2.996   6.949
  903SOL    HW2 3609   0.687   2.951   6.883
  904SOL     OW 3610   2.055   1.472   2.426
  904SOL    HW1 3611   2.054   1.393   2.366
  904SOL    HW2 3612   1.998   1.544   2.387
  905SOL     OW 3613   5.390   2.709   6.290
  905SOL    HW1 3614   5.391   2.701   6.190
  905SOL    HW2 3615   5.471   2.663   6.327
  906SOL     OW 3616   6.949   2.241   6.247
  906SOL    HW1 3617   6.892   2.181   6.191
  906SOL    HW2 3618   6.920   2.234   6.343
  907SOL     OW 3619   5.544   3.004   0.293
  907SOL    HW1 3620   5.446   2.986   0.282
  907SOL    HW2 3621   5.596   2.921   0.273
  908SOL     OW 3622   2.803   4.714   3.103
  908SOL    HW1 3623   2.903   4.716   3.106
  908SOL    HW2 3624   2.767   4.724   3.196
  909SOL     OW 3625   3.974   6.556   1.448
  909SOL    HW1 3626   3.982   6.588   1.542
  909SOL    HW2 3627   4.036   6.479   1.433
  910SOL     OW 3628   3.252   1.674   0.923
  910SOL    HW1 3629   3.236   1.770   0.945
  910SOL    HW2 3630   3.295   1.628   1.001
  911SOL     OW 3631   1.525   6.571   6.385
  911SOL    HW1 3632   1.521   6.471   6.379
  911SOL    HW2 3633   1.621   6.600   6.384
  912SOL     OW 3634   5.836   2.062   3.155
  912SOL    HW1 3635   5.888   2.108   3.083
  912SOL    HW2 3636   5.852   2.107   3.243
  913SOL     OW 3637   3.503   0.651   3.157
  913SOL    HW1 3638   3.510   0.628   3.060
  913SOL    HW2 3639   3.557   0.733   3.176
  914SOL     OW 3640   2.233   0.360   6.034
  914SOL    HW1 3641   2.285   0.278   6.057
  914SOL    HW2 3642   2.294   0.427   5.992
  915SOL     OW 3643   6.356   3.818   6.884
  915SOL    HW1 3644   6.280   3.786   6.827
  915SOL    HW2 3645   6.382   3.910   6.855
  916SOL     OW 3646   1.499   3.216   2.181
  916SOL    HW1 3647   1.587   3.171   2.198
  916SOL    HW2 3648   1.469   3.197   2.087
  917SOL     OW 3649   0.652   6.966   1.708
  917SOL    HW1 3650   0.627   0.042   1.706
  917SOL    HW2 3651   0.663   6.932   1.614
  918SOL     OW 3652   3.826   0.666   1.031
  918SOL    HW1 3653   3.815   0.701   1.124
  918SOL    HW2 3654   3.917   0.690   0.997
  919SOL     OW 3655   6.170   0.756   2.380
  919SOL    HW1 3656   6.166   0.796   2.288
  919SOL    HW2 3657   6.219   0.669   2.376
  920SOL     OW 3658   2.178   4.267   2.342
  920SOL    HW1 3659   2.180   4.195   2.411
  920SOL    HW2 3660   2.137   4.350   2.381
  921SOL     OW 3661   3.706   5.554   4.298
  921SOL    HW1 3662   3.687   5.475   4.240
  921SOL    HW2 3663   3.802   5.582   4.286
  922SOL     OW 3664   3.442   3.470   4.670
  922SOL    HW1 3665   3.401   3.537   4.732
  922SOL    HW2 3666   3.377   3.448   4.597
  923SOL     OW 3667   2.333   3.587   6.562
  923SOL    HW1 3668   2.417   3.540   6.535
  923SOL    HW2 3669   2.282   3.614   6.481
  924SOL     OW 3670   6.642   3.579   1.772
  924SOL    HW1 3671   6.559   3.530   1.744
  924SOL    HW2 3672   6.671   3.547   1.862
  925SOL     OW 3673   0.091   1.923   0.089
  925SOL    HW1 3674   0.096   1.824   0.080
  925SOL    HW2 3675   0.128   1.950   0.178
  926SOL     OW 3676   6.543   1.275   1.283
  926SOL    HW1 3677   6.503   1.227   1.361
  926SOL    HW2 3678   6.472   1.325   1.234
  927SOL     OW 3679   5.520   3.570   3.117
  927SOL    HW1 3680   5.541   3.608   3.207
  927SOL    HW2 3681   5.473   3.482   3.128
  928SOL     OW 3682   2.397   6.305   0.451
  928SOL    HW1 3683   2.465   6.238   0.422
  928SOL    HW2 3684   2.430   6.398   0.432
  929SOL     OW 3685   0.457   0.805   6.644
  929SOL    HW1 3686   0.496   0.764   6.561
  929SOL    HW2 3687   0.404   0.886   6.619
  930SOL     OW 3688   5.450   6.863   6.614
  930SOL    HW1 3689   5.545   6.881   6.640
  930SOL    HW2 3690   5.448   6.800   6.536
  931SOL     OW 3691   6.633   0.970   4.587
  931SOL    HW1 3692   6.699   0.977   4.662
  931SOL    HW2 3693   6.611   0.874   4.570
  932SOL     OW 3694   2.835   1.193   3.118
  932SOL    HW1 3695   2.900   1.164   3.048
  932SOL    HW2 3696   2.756   1.132   3.118
  933SOL     OW 3697   1.483   4.840   3.263
  933SOL    HW1 3698   1.455   4.772   3.331
  933SOL    HW2 3699   1.544   4.907   3.307
  934SOL     OW 3700   2.645   5.922   0.100
  934SOL    HW1 3701   2.647   5.831   0.142
  934SOL    HW2 3702   2.593   5.918   0.015
  935SOL     OW 3703   5.162   4.068   4.397
  935SOL    HW1 3704   5.150   4.152   4.448
  935SOL    HW2 3705   5.259   4.055   4.375
  936SOL     OW 3706   0.291   0.362   5.683
  936SOL    HW1 3707   0.232   0.442   5.685
  936SOL    HW2 3708   0.377   0.382   5.731
  937SOL     OW 3709   5.860   1.302   6.483
  937SOL    HW1 3710   5.936   1.336   6.538
  937SOL    HW2 3711   5.863   1.202   6.482
  938SOL     OW 3712   6.005   4.818   5.697
  938SOL    HW1 3713   6.069   4.890   5.674
  938SOL    HW2 3714   5.954   4.791   5.615
  939SOL     OW 3715   0.227   6.992   3.629
  939SOL    HW1 3716   0.128   7.000   3.617
  939SOL    HW2 3717   0.251   7.020   3.722
  940SOL     OW 3718   0.496   3.907   0.562
  940SOL    HW1 3719   0.571   3.954   0.515
  940SOL    HW2 3720   0.423   3.972   0.582
  941SOL     OW 3721   5.749   1.245   0.089
  941SOL    HW1 3722   5.811   1.266   0.164
  941SOL    HW2 3723   5.687   1.322   0.075
  942SOL     OW 3724   5.718   0.111   2.205
  942SOL    HW1 3725   5.814   0.111   2.177
  942SOL    HW2 3726   5.694   0.022   2.244
  943SOL     OW 3727   1.276   4.302   2.525
  943SOL    HW1 3728   1.247   4.397   2.516
  943SOL    HW2 3729   1.216   4.254   2.589
  944SOL     OW 3730   0.080   6.000   5.337
  944SOL    HW1 3731   0.132   5.940   5.276
  944SOL    HW2 3732   0.002   6.039   5.287
  945SOL     OW 3733   0.535   4.797   6.416
  945SOL    HW1 3734   0.515   4.728   6.346
  945SOL    HW2 3735   0.545   4.752   6.505
  946SOL     OW 3736   4.788   3.881   5.726
  946SOL    HW1 3737   4.856   3.940   5.683
  946SOL    HW2 3738   4.724   3.848   5.658
  947SOL     OW 3739   3.473   3.121   3.345
  947SOL    HW1 3740   3.399   3.189   3.347
  947SOL    HW2 3741   3.434   3.029   3.348
  948SOL     OW 3742   4.835   1.331   2.971
  948SOL    HW1 3743   4.760   1.394   2.992
  948SOL    HW2 3744   4.851   1.329   2.873
  949SOL     OW 3745   2.972   5.743   0.050
  949SOL    HW1 3746   2.905   5.687   0.002
  949SOL    HW2 3747   3.042   5.685   0.091
  950SOL     OW 3748   6.004   5.308   2.351
  950SOL    HW1 3749   6.022   5.346   2.442
  950SOL    HW2 3750   6.089   5.271   2.313
  951SOL     OW 3751   1.017   0.046   3.951
  951SOL    HW1 3752   1.058   0.137   3.942
  951SOL    HW2 3753   1.083   6.997   3.923
  952SOL     OW 3754   4.537   2.562   3.149
  952SOL    HW1 3755   4.513   2.562   3.052
  952SOL    HW2 3756   4.578   2.474   3.173
  953SOL     OW 3757   5.892   5.376   4.812
  953SOL    HW1 3758   5.947   5.450   4.849
  953SOL    HW2 3759   5.798   5.407   4.799
  954SOL     OW 3760   3.593   5.877   2.651
  954SOL    HW1 3761   3.517   5.861   2.588
  954SOL    HW2 3762   3.672   5.823   2.624
  955SOL     OW 3763   1.407   4.601   0.941
  955SOL    HW1 3764   1.331   4.639   0.994
  955SOL    HW2 3765   1.384   4.604   0.844
  956SOL     OW 3766   6.331   0.541   1.697
  956SOL    HW1 3767   6.365   0.524   1.790
  956SOL    HW2 3768   6.274   0.464   1.669
  957SOL     OW 3769   5.517   2.647   2.301
  957SOL    HW1 3770   5.418   2.663   2.298
  957SOL    HW2 3771   5.558   2.673   2.214
  958SOL     OW 3772   3.908   0.310   1.257
  958SOL    HW1 3773   3.887   0.392   1.309
  958SOL    HW2 3774   3.991   0.267   1.294
  959SOL     OW 3775   3.540   6.459   4.673
  959SOL    HW1 3776   3.636   6.454   4.648
  959SOL    HW2 3777   3.497   6.369   4.660
  960SOL     OW 3778   0.972   0.321   1.142
  960SOL    HW1 3779   0.928   0.232   1.126
  960SOL    HW2 3780   1.064   0.307   1.176
  961SOL     OW 3781   4.159   6.653   2.966
  961SOL    HW1 3782   4.145   6.687   2.873
  961SOL    HW2 3783   4.233   6.705   3.010
  962SOL     OW 3784   6.743   0.726   4.950
  962SOL    HW1 3785   6.770   0.663   4.877
  962SOL    HW2 3786   6.728   0.817   4.911
  963SOL     OW 3787   4.985   0.703   0.022
  963SOL    HW1 3788   4.961   0.657   6.957
  963SOL    HW2 3789   5.084   0.696   0.037
  964SOL     OW 3790   5.016   5.072   5.948
  964SOL    HW1 3791   5.077   4.998   5.974
  964SOL    HW2 3792   4.948   5.086   6.021
  965SOL     OW 3793   6.456   1.436   2.572
  965SOL    HW1 3794   6.374   1.386   2.601
  965SOL    HW2 3795   6.537   1.380   2.590
  966SOL     OW 3796   5.784   2.610   2.855
  966SOL    HW1 3797   5.767   2.567   2.766
  966SOL    HW2 3798   5.717   2.684   2.869
  967SOL     OW 3799   3.302   4.421   0.599
  967SOL    HW1 3800   3.286   4.322   0.598
  967SOL    HW2 3801   3.377   4.443   0.536
  968SOL     OW 3802   4.220   0.148   1.827
  968SOL    HW1 3803   4.120   0.150   1.836
  968SOL    HW2 3804   4.255   0.067   1.874
  969SOL     OW 3805   2.572   4.860   5.851
  969SOL    HW1 3806   2.601   4.904   5.936
  969SOL    HW2 3807   2.622   4.901   5.774
  970SOL     OW 3808   5.282   0.709   6.382
  970SOL    HW1 3809   5.364   0.763   6.403
  970SOL    HW2 3810   5.300   0.612   6.400
  971SOL     OW 3811   6.891   3.702   2.723
  971SOL    HW1 3812   6.895   3.777   2.789
  971SOL    HW2 3813   6.840   3.626   2.763
  972SOL     OW 3814   6.117   1.810   1.690
  972SOL    HW1 3815   6.161   1.881   1.634
  972SOL    HW2 3816   6.175   1.789   1.769
  973SOL     OW 3817   0.629   5.390   6.547
  973SOL    HW1 3818   0.654   5.294   6.560
  973SOL    HW2 3819   0.701   5.449   6.585
  974SOL     OW 3820   7.016   5.977   1.932
  974SOL    HW1 3821   6.965   5.901   1.893
  974SOL    HW2 3822   0.076   5.942   1.980
  975SOL     OW 3823   2.490   0.532   6.983
  975SOL    HW1 3824   2.394   0.547   6.962
  975SOL    HW2 3825   2.498   0.460   0.032
  976SOL     OW 3826   0.020   3.369   1.227
  976SOL    HW1 3827   0.042   3.331   1.317
  976SOL    HW2 3828   0.100   3.418   1.191
  977SOL     OW 3829   0.502   0.727   2.504
  977SOL    HW1 3830   0.543   0.747   2.415
  977SOL    HW2 3831   0.572   0.732   2.575
  978SOL     OW 3832   5.553   1.752   1.004
  978SOL    HW1 3833   5.532   1.788   1.095
  978SOL    HW2 3834   5.638   1.794   0.971
  979SOL     OW 3835   1.054   3.138   0.142
  979SOL    HW1 3836   0.966   3.090   0.137
  979SOL    HW2 3837   1.116   3.088   0.201
  980SOL     OW 3838   4.688   1.907   4.114
  980SOL    HW1 3839   4.726   1.963   4.189
  980SOL    HW2 3840   4.723   1.941   4.027
  981SOL     OW 3841   0.227   0.945   4.937
  981SOL    HW1 3842   0.223   0.993   5.024
  981SOL    HW2 3843   0.134   0.922   4.908
  982SOL     OW 3844   0.863   1.444   4.945
  982SOL    HW1 3845   0.920   1.433   4.864
  982SOL    HW2 3846   0.921   1.459   5.025
  983SOL     OW 3847   6.944   3.233   2.938
  983SOL    HW1 3848   6.868   3.170   2.924
  983SOL    HW2 3849   0.010   3.183   2.928
  984SOL     OW 3850   2.086   2.694   3.408
  984SOL    HW1 3851   2.033   2.656   3.332
  984SOL    HW2 3852   2.175   2.648   3.412
  985SOL     OW 3853   6.789   4.091   4.877
  985SOL    HW1 3854   6.812   4.124   4.785
  985SOL    HW2 3855   6.848   4.138   4.944
  986SOL     OW 3856   4.691   4.546   1.665
  986SOL    HW1 3857   4.775   4.494   1.678
  986SOL    HW2 3858   4.663   4.541   1.569
  987SOL     OW 3859   4.609   6.773   2.251
  987SOL    HW1 3860   4.555   6.739   2.328
  987SOL    HW2 3861   4.654   6.858   2.277
  988SOL     OW 3862   3.541   4.034   1.362
  988SOL    HW1 3863   3.610   4.072   1.301
  988SOL    HW2 3864   3.515   4.104   1.429
  989SOL     OW 3865   6.589   1.644   6.968
  989SOL    HW1 3866   6.594   1.730   7.019
  989SOL    HW2 3867   6.575   1.568   0.012
  990SOL     OW 3868   3.007   0.778   2.192
  990SOL    HW1 3869   2.908   0.773   2.207
  990SOL    HW2 3870   3.053   0.799   2.278
  991SOL     OW 3871   0.304   3.724   3.901
  991SOL    HW1 3872   0.342   3.724   3.993
  991SOL    HW2 3873   0.232   3.654   3.895
  992SOL     OW 3874   0.102   3.248   1.459
  992SOL    HW1 3875   0.074   3.290   1.546
  992SOL    HW2 3876   0.158   3.167   1.478
  993SOL     OW 3877   0.201   3.779   0.487
  993SOL    HW1 3878   0.235   3.768   0.581
  993SOL    HW2 3879   0.259   3.728   0.424
  994SOL     OW 3880   4.256   5.081   1.863
  994SOL    HW1 3881   4.325   5.060   1.932
  994SOL    HW2 3882   4.165   5.060   1.899
  995SOL     OW 3883   3.962   2.928   6.200
  995SOL    HW1 3884   3.968   2.921   6.300
  995SOL    HW2 3885   3.990   2.841   6.159
  996SOL     OW 3886   3.699   5.008   4.602
  996SOL    HW1 3887   3.743   5.082   4.552
  996SOL    HW2 3888   3.700   5.029   4.700
  997SOL     OW 3889   0.852   6.640   3.129
  997SOL    HW1 3890   0.915   6.595   3.192
  997SOL    HW2 3891   0.758   6.629   3.161
  998SOL     OW 3892   6.306   0.318   6.066
  998SOL    HW1 3893   6.296   0.224   6.096
  998SOL    HW2 3894   6.387   0.359   6.109
  999SOL     OW 3895   4.902   3.556   2.144
  999SOL    HW1 3896   5.001   3.563   2.152
  999SOL    HW2 3897   4.869   3.484   2.206
 1000SOL     OW 3898   4.091   1.586   1.572
 1000SOL    HW1 3899   4.099   1.684   1.591
 1000SOL    HW2 3900   4.041   1.542   1.647
 1001SOL     OW 3901   4.130   6.193   2.031
 1001SOL    HW1 3902   4.162   6.280   2.068
 1001SOL    HW2 3903   4.053   6.211   1.969
 1002SOL     OW 3904   5.426   2.330   1.481
 1002SOL    HW1 3905   5.369   2.378   1.548
 1002SOL    HW2 3906   5.427   2.232   1.501
 1003SOL     OW 3907   2.345   5.752   3.390
 1003SOL    HW1 3908   2.278   5.796   3.449
 1003SOL    HW2 3909   2.371   5.664   3.429
 1004SOL     OW 3910   0.151   0.924   2.246
 1004SOL    HW1 3911   0.212   0.934   2.325
 1004SOL    HW2 3912   0.058   0.910   2.278
 1005SOL     OW 3913   1.675   3.444   3.687
 1005SOL    HW1 3914   1.599   3.380   3.680
 1005SOL    HW2 3915   1.690   3.489   3.599
 1006SOL     OW 3916   1.539   4.018   0.227
 1006SOL    HW1 3917   1.637   3.999   0.218
 1006SOL    HW2 3918   1.489   3.971   0.155
 1007SOL     OW 3919   4.881   0.812   5.688
 1007SOL    HW1 3920   4.924   0.797   5.777
 1007SOL    HW2 3921   4.853   0.724   5.650
 1008SOL     OW 3922   0.079   2.289   5.347
 1008SOL    HW1 3923   0.099   2.341   5.430
 1008SOL    HW2 3924   0.014   2.339   5.291
 1009SOL     OW 3925   6.796   5.007   5.910
 1009SOL    HW1 3926   6.706   4.984   5.947
 1009SOL    HW2 3927   6.866   4.993   5.981
 1010SOL     OW 3928   2.858   3.115   1.490
 1010SOL    HW1 3929   2.831   3.115   1.587
 1010SOL    HW2 3930   2.777   3.120   1.433
 1011SOL     OW 3931   1.188   5.408   3.659
 1011SOL    HW1 3932   1.261   5.444   3.600
 1011SOL    HW2 3933   1.119   5.479   3.673
 1012SOL     OW 3934   0.185   6.450   2.170
 1012SOL    HW1 3935   0.236   6.367   2.148
 1012SOL    HW2 3936   0.210   6.522   2.104
 1013SOL     OW 3937   0.193   0.690   6.436
 1013SOL    HW1 3938   0.236   0.599   6.434
 1013SOL    HW2 3939   0.199   0.732   6.346
 1014SOL     OW 3940   0.438   3.962   4.937
 1014SOL    HW1 3941   0.363   3.956   5.003
 1014SOL    HW2 3942   0.416   4.030   4.868
 1015SOL     OW 3943   2.440   0.520   5.985
 1015SOL    HW1 3944   2.495   0.560   5.912
 1015SOL    HW2 3945   2.485   0.535   6.073
 1016SOL     OW 3946   4.456   4.868   0.949
 1016SOL    HW1 3947   4.437   4.894   0.855
 1016SOL    HW2 3948   4.383   4.807   0.982
 1017SOL     OW 3949   3.855   2.081   0.839
 1017SOL    HW1 3950   3.794   2.002   0.829
 1017SOL    HW2 3951   3.804   2.159   0.874
 1018SOL     OW 3952   0.790   4.748   3.876
 1018SOL    HW1 3953   0.800   4.652   3.905
 1018SOL    HW2 3954   0.822   4.808   3.948
 1019SOL     OW 3955   0.011   5.833   1.326
 1019SOL    HW1 3956   6.970   5.805   1.400
 1019SOL    HW2 3957   0.090   5.881   1.364
 1020SOL     OW 3958   6.249   1.476   1.447
 1020SOL    HW1 3959   6.189   1.481   1.368
 1020SOL    HW2 3960   6.285   1.567   1.467
 1021SOL     OW 3961   5.607   6.811   1.912
 1021SOL    HW1 3962   5.659   6.895   1.895
 1021SOL    HW2 3963   5.602   6.757   1.827
 1022SOL     OW 3964   2.930   4.977   5.504
 1022SOL    HW1 3965   2.909   4.899   5.445
 1022SOL    HW2 3966   2.998   5.035   5.458
 1023SOL     OW 3967   6.973   0.647   2.868
 1023SOL    HW1 3968   6.877   0.647   2.894
 1023SOL    HW2 3969   7.013   0.557   2.886
 1024SOL     OW 3970   0.377   1.839   3.873
 1024SOL    HW1 3971   0.461   1.880   3.908
 1024SOL    HW2 3972   0.333   1.902   3.809
 1025SOL     OW 3973   3.565   3.718   0.183
 1025SOL    HW1 3974   3.625   3.794   0.156
 1025SOL    HW2 3975   3.487   3.755   0.235
 1026SOL     OW 3976   2.614   3.321   1.745
 1026SOL    HW1 3977   2.660   3.404   1.713
 1026SOL    HW2 3978   2.533   3.346   1.797
 1027SOL     OW 3979   2.030   0.178   2.065
 1027SOL    HW1 3980   2.098   0.237   2.109
 1027SOL    HW2 3981   1.970   0.138   2.134
 1028SOL     OW 3982   1.210   0.180   2.900
 1028SOL    HW1 3983   1.144   0.237   2.851
 1028SOL    HW2 3984   1.299   0.225   2.901
 1029SOL     OW 3985   1.027   2.128   5.635
 1029SOL    HW1 3986   1.012   2.074   5.552
 1029SOL    HW2 3987   1.009   2.071   5.715
 1030SOL     OW 3988   3.269   3.552   1.497
 1030SOL    HW1 3989   3.267   3.466   1.446
 1030SOL    HW2 3990   3.341   3.548   1.566
 1031SOL     OW 3991   4.843   3.391   1.717
 1031SOL    HW1 3992   4.748   3.365   1.698
 1031SOL    HW2 3993   4.845   3.480   1.763
 1032SOL     OW 3994   1.968   1.152   4.995
 1032SOL    HW1 3995   1.969   1.054   5.015
 1032SOL    HW2 3996   1.919   1.200   5.068
 1033SOL     OW 3997   1.735   5.507   1.819
 1033SOL    HW1 3998   1.666   5.434   1.814
 1033SOL    HW2 3999   1.820   5.470   1.855
 1034SOL     OW 4000   1.608   5.763   4.649
 1034SOL    HW1 4001   1.609   5.705   4.567
 1034SOL    HW2 4002   1.521   5.813   4.653
 1035SOL     OW 4003   0.185   2.121   6.946
 1035SOL    HW1 4004   0.126   2.059   6.997
 1035SOL    HW2 4005   0.240   2.175   7.010
 1036SOL     OW 4006   3.807   0.866   2.060
 1036SOL    HW1 4007   3.859   0.919   2.127
 1036SOL    HW2 4008   3.870   0.833   1.989
 1037SOL     OW 4009   1.733   1.486   3.132
 1037SOL    HW1 4010   1.712   1.540   3.050
 1037SOL    HW2 4011   1.824   1.445   3.122
 1038SOL     OW 4012   1.714   1.519   5.084
 1038SOL    HW1 4013   1.784   1.456   5.050
 1038SOL    HW2 4014   1.636   1.520   5.021
 1039SOL     OW 4015   3.319   3.833   4.509
 1039SOL    HW1 4016   3.225   3.832   4.543
 1039SOL    HW2 4017   3.372   3.902   4.558
 1040SOL     OW 4018   4.862   1.106   2.224
 1040SOL    HW1 4019   4.796   1.167   2.179
 1040SOL    HW2 4020   4.820   1.016   2.238
 1041SOL     OW 4021   6.846   6.234   3.701
 1041SOL    HW1 4022   6.916   6.163   3.691
 1041SOL    HW2 4023   6.885   6.323   3.678
 1042SOL     OW 4024   4.336   5.543   2.826
 1042SOL    HW1 4025   4.279   5.535   2.744
 1042SOL    HW2 4026   4.342   5.639   2.852
 1043SOL     OW 4027   3.816   2.151   3.421
 1043SOL    HW1 4028   3.854   2.142   3.512
 1043SOL    HW2 4029   3.790   2.247   3.405
 1044SOL     OW 4030   5.885   5.009   2.066
 1044SOL    HW1 4031   5.973   5.051   2.088
 1044SOL    HW2 4032   5.871   5.010   1.967
 1045SOL     OW 4033   4.195   0.743   2.909
 1045SOL    HW1 4034   4.144   0.801   2.972
 1045SOL    HW2 4035   4.230   0.662   2.957
 1046SOL     OW 4036   1.853   1.779   6.834
 1046SOL    HW1 4037   1.765   1.795   6.790
 1046SOL    HW2 4038   1.867   1.681   6.845
 1047SOL     OW 4039   2.492   0.688   4.206
 1047SOL    HW1 4040   2.414   0.686   4.268
 1047SOL    HW2 4041   2.561   0.752   4.241
 1048SOL     OW 4042   3.129   5.907   1.819
 1048SOL    HW1 4043   3.187   5.908   1.900
 1048SOL    HW2 4044   3.119   6.000   1.783
 1049SOL     OW 4045   5.636   6.896   3.901
 1049SOL    HW1 4046   5.617   6.872   3.996
 1049SOL    HW2 4047   5.591   6.982   3.879
 1050SOL     OW 4048   3.744   5.655   2.196
 1050SOL    HW1 4049   3.672   5.637   2.264
 1050SOL    HW2 4050   3.782   5.568   2.164
 1051SOL     OW 4051   0.354   5.747   0.701
 1051SOL    HW1 4052   0.259   5.718   0.689
 1051SOL    HW2 4053   0.366   5.839   0.666
 1052SOL     OW 4054   4.567   0.532   5.412
 1052SOL    HW1 4055   4.658   0.525   5.370
 1052SOL    HW2 4056   4.497   0.529   5.340
 1053SOL     OW 4057   5.597   3.837   2.281
 1053SOL    HW1 4058   5.683   3.796   2.250
 1053SOL    HW2 4059   5.561   3.786   2.359
 1054SOL     OW 4060   2.706   3.609   0.751
 1054SOL    HW1 4061   2.675   3.558   0.831
 1054SOL    HW2 4062   2.762   3.550   0.693
 1055SOL     OW 4063   4.386   6.176   5.731
 1055SOL    HW1 4064   4.292   6.154   5.756
 1055SOL    HW2 4065   4.387   6.222   5.642
 1056SOL     OW 4066   1.501   3.604   0.309
 1056SOL    HW1 4067   1.493   3.696   0.347
 1056SOL    HW2 4068   1.548   3.545   0.375
 1057SOL     OW 4069   3.849   2.940   1.390
 1057SOL    HW1 4070   3.758   2.979   1.381
 1057SOL    HW2 4071   3.893   2.976   1.472
 1058SOL     OW 4072   5.252   2.598   4.057
 1058SOL    HW1 4073   5.310   2.615   3.977
 1058SOL    HW2 4074   5.156   2.613   4.032
 1059SOL     OW 4075   2.050   6.751   1.893
 1059SOL    HW1 4076   2.051   6.849   1.873
 1059SOL    HW2 4077   1.980   6.706   1.837
 1060SOL     OW 4078   0.327   4.640   4.363
 1060SOL    HW1 4079   0.304   4.673   4.272
 1060SOL    HW2 4080   0.368   4.715   4.416
 1061SOL     OW 4081   6.431   3.489   5.800
 1061SOL    HW1 4082   6.345   3.455   5.840
 1061SOL    HW2 4083   6.409   3.553   5.726
 1062SOL     OW 4084   4.373   5.651   6.260
 1062SOL    HW1 4085   4.320   5.607   6.189
 1062SOL    HW2 4086   4.455   5.597   6.280
 1063SOL     OW 4087   0.066   6.513   0.373
 1063SOL    HW1 4088   0.072   6.536   0.275
 1063SOL    HW2 4089   7.003   6.555   0.411
 1064SOL     OW 4090   1.588   4.378   1.792
 1064SOL    HW1 4091   1.610   4.288   1.829
 1064SOL    HW2 4092   1.501   4.409   1.831
 1065SOL     OW 4093   4.565   0.756   2.717
 1065SOL    HW1 4094   4.480   0.750   2.666
 1065SOL    HW2 4095   4.586   0.666   2.756
 1066SOL     OW 4096   4.547   6.684   2.562
 1066SOL    HW1 4097   4.597   6.677   2.649
 1066SOL    HW2 4098   4.471   6.748   2.572
 1067SOL     OW 4099   1.866   1.937   0.022
 1067SOL    HW1 4100   1.799   1.919   0.094
 1067SOL    HW2 4101   1.848   1.878   6.964
 1068SOL     OW 4102   6.514   4.152   1.316
 1068SOL    HW1 4103   6.517   4.138   1.415
 1068SOL    HW2 4104   6.420   4.139   1.283
 1069SOL     OW 4105   4.861   5.950   0.543
 1069SOL    HW1 4106   4.943   6.005   0.554
 1069SOL    HW2 4107   4.793   6.001   0.491
 1070SOL     OW 4108   1.506   0.143   2.007
 1070SOL    HW1 4109   1.575   0.177   1.943
 1070SOL    HW2 4110   1.517   0.187   2.096
 1071SOL     OW 4111   2.506   2.180   3.985
 1071SOL    HW1 4112   2.584   2.118   3.979
 1071SOL    HW2 4113   2.490   2.205   4.081
 1072SOL     OW 4114   2.684   0.962   1.069
 1072SOL    HW1 4115   2.767   0.914   1.098
 1072SOL    HW2 4116   2.615   0.954   1.140
 1073SOL     OW 4117   5.078   0.970   3.492
 1073SOL    HW1 4118   5.114   0.910   3.564
 1073SOL    HW2 4119   5.079   1.064   3.524
 1074SOL     OW 4120   2.697   5.227   1.778
 1074SOL    HW1 4121   2.750   5.307   1.750
 1074SOL    HW2 4122   2.693   5.162   1.702
 1075SOL     OW 4123   5.975   0.762   3.321
 1075SOL    HW1 4124   5.886   0.805   3.304
 1075SOL    HW2 4125   5.977   0.724   3.413
 1076SOL     OW 4126   0.729   2.435   5.935
 1076SOL    HW1 4127   0.764   2.516   5.888
 1076SOL    HW2 4128   0.779   2.354   5.904
 1077SOL     OW 4129   6.445   6.471   0.765
 1077SOL    HW1 4130   6.382   6.544   0.792
 1077SOL    HW2 4131   6.395   6.385   0.756
 1078SOL     OW 4132   6.713   0.699   2.947
 1078SOL    HW1 4133   6.678   0.672   3.037
 1078SOL    HW2 4134   6.676   0.789   2.923
 1079SOL     OW 4135   1.249   5.383   2.055
 1079SOL    HW1 4136   1.296   5.463   2.092
 1079SOL    HW2 4137   1.192   5.411   1.977
 1080SOL     OW 4138   2.460   5.543   3.520
 1080SOL    HW1 4139   2.510   5.605   3.581
 1080SOL    HW2 4140   2.461   5.451   3.558
 1081SOL     OW 4141   6.716   5.167   6.196
 1081SOL    HW1 4142   6.695   5.070   6.184
 1081SOL    HW2 4143   6.652   5.222   6.143
 1082SOL     OW 4144   5.966   1.803   5.862
 1082SOL    HW1 4145   5.985   1.890   5.816
 1082SOL    HW2 4146   5.898   1.817   5.933
 1083SOL     OW 4147   4.774   3.353   0.366
 1083SOL    HW1 4148   4.849   3.296   0.399
 1083SOL    HW2 4149   4.704   3.296   0.324
 1084SOL     OW 4150   6.539   6.960   5.876
 1084SOL    HW1 4151   6.567   6.985   5.968
 1084SOL    HW2 4152   6.450   7.000   5.855
 1085SOL     OW 4153   2.118   3.698   4.525
 1085SOL    HW1 4154   2.073   3.694   4.614
 1085SOL    HW2 4155   2.116   3.792   4.491
 1086SOL     OW 4156   6.689   4.517   0.422
 1086SOL    HW1 4157   6.724   4.609   0.434
 1086SOL    HW2 4158   6.689   4.469   0.510
 1087SOL     OW 4159   0.320   1.880   4.601
 1087SOL    HW1 4160   0.234   1.841   4.570
 1087SOL    HW2 4161   0.329   1.974   4.566
 1088SOL     OW 4162   0.406   4.671   3.244
 1088SOL    HW1 4163   0.483   4.715   3.198
 1088SOL    HW2 4164   0.334   4.651   3.177
 1089SOL     OW 4165   0.068   5.537   4.765
 1089SOL    HW1 4166   0.158   5.524   4.806
 1089SOL    HW2 4167   0.037   5.631   4.783
 1090SOL     OW 4168   3.851   2.044   2.526
 1090SOL    HW1 4169   3.942   2.077   2.502
 1090SOL    HW2 4170   3.791   2.050   2.447
 1091SOL     OW 4171   2.153   3.146   4.019
 1091SOL    HW1 4172   2.186   3.061   3.977
 1091SOL    HW2 4173   2.126   3.210   3.948
 1092SOL     OW 4174   1.177   5.100   0.641
 1092SOL    HW1 4175   1.204   5.031   0.573
 1092SOL    HW2 4176   1.202   5.068   0.732
 1093SOL     OW 4177   2.828   6.811   1.925
 1093SOL    HW1 4178   2.889   6.748   1.878
 1093SOL    HW2 4179   2.745   6.763   1.955
 1094SOL     OW 4180   0.603   6.346   2.440
 1094SOL    HW1 4181   0.525   6.408   2.440
 1094SOL    HW2 4182   0.671   6.378   2.508
 1095SOL     OW 4183   0.203   3.114   6.151
 1095SOL    HW1 4184   0.181   3.021   6.179
 1095SOL    HW2 4185   0.301   3.122   6.134
 1096SOL     OW 4186   3.502   4.558   1.459
 1096SOL    HW1 4187   3.445   4.564   1.376
 1096SOL    HW2 4188   3.443   4.552   1.539
 1097SOL     OW 4189   1.724   4.397   3.451
 1097SOL    HW1 4190   1.782   4.478   3.463
 1097SOL    HW2 4191   1.685   4.397   3.359
 1098SOL     OW 4192   5.654   3.575   6.331
 1098SOL    HW1 4193   5.732   3.596   6.272
 1098SOL    HW2 4194   5.683   3.513   6.404
 1099SOL     OW 4195   4.213   0.747   6.065
 1099SOL    HW1 4196   4.129   0.773   6.113
 1099SOL    HW2 4197   4.195   0.669   6.006
 1100SOL     OW 4198   4.165   1.112   4.424
 1100SOL    HW1 4199   4.088   1.172   4.447
 1100SOL    HW2 4200   4.236   1.164   4.378
 1101SOL     OW 4201   5.368   3.698   5.694
 1101SOL    HW1 4202   5.290   3.725   5.751
 1101SOL    HW2 4203   5.357   3.603   5.665
 1102SOL     OW 4204   1.800   0.850   4.679
 1102SOL    HW1 4205   1.815   0.801   4.765
 1102SOL    HW2 4206   1.703   0.849   4.656
 1103SOL     OW 4207   3.057   1.894   0.817
 1103SOL    HW1 4208   3.046   1.799   0.786
 1103SOL    HW2 4209   3.124   1.941   0.759
 1104SOL     OW 4210   1.640   3.973   3.746
 1104SOL    HW1 4211   1.608   4.052   3.798
 1104SOL    HW2 4212   1.740   3.979   3.735
 1105SOL     OW 4213   5.431   3.085   4.465
 1105SOL    HW1 4214   5.369   3.017   4.504
 1105SOL    HW2 4215   5.398   3.111   4.374
 1106SOL     OW 4216   0.881   2.057   1.681
 1106SOL    HW1 4217   0.960   2.116   1.664
 1106SOL    HW2 4218   0.912   1.964   1.699
 1107SOL     OW 4219   1.152   0.252   6.870
 1107SOL    HW1 4220   1.089   0.178   6.847
 1107SOL    HW2 4221   1.145   0.272   6.968
 1108SOL     OW 4222   3.267   6.611   4.925
 1108SOL    HW1 4223   3.212   6.605   5.008
 1108SOL    HW2 4224   3.293   6.706   4.909
 1109SOL     OW 4225   5.572   0.984   4.673
 1109SOL    HW1 4226   5.507   0.909   4.692
 1109SOL    HW2 4227   5.567   1.009   4.577
 1110SOL     OW 4228   4.208   1.904   3.103
 1110SOL    HW1 4229   4.113   1.886   3.077
 1110SOL    HW2 4230   4.235   1.841   3.176
 1111SOL     OW 4231   5.893   5.433   6.652
 1111SOL    HW1 4232   5.958   5.360   6.670
 1111SOL    HW2 4233   5.942   5.518   6.635
 1112SOL     OW 4234   5.830   1.119   2.909
 1112SOL    HW1 4235   5.855   1.073   2.994
 1112SOL    HW2 4236   5.875   1.074   2.832
 1113SOL     OW 4237   5.617   4.053   1.323
 1113SOL    HW1 4238   5.536   4.078   1.271
 1113SOL    HW2 4239   5.613   3.956   1.346
 1114SOL     OW 4240   3.001   1.830   6.063
 1114SOL    HW1 4241   3.091   1.871   6.047
 1114SOL    HW2 4242   2.992   1.747   6.008
 1115SOL     OW 4243   3.606   3.507   5.179
 1115SOL    HW1 4244   3.629   3.603   5.166
 1115SOL    HW2 4245   3.540   3.479   5.109
 1116SOL     OW 4246   5.415   0.083   6.741
 1116SOL    HW1 4247   5.508   0.117   6.752
 1116SOL    HW2 4248   5.414   0.012   6.670
 1117SOL     OW 4249   1.384   2.012   1.914
 1117SOL    HW1 4250   1.456   1.956   1.955
 1117SOL    HW2 4251   1.325   1.953   1.858
 1118SOL     OW 4252   2.284   5.230   0.257
 1118SOL    HW1 4253   2.203   5.282   0.229
 1118SOL    HW2 4254   2.259   5.134   0.270
 1119SOL     OW 4255   4.393   4.382   1.505
 1119SOL    HW1 4256   4.478   4.426   1.477
 1119SOL    HW2 4257   4.384   4.389   1.605
 1120SOL     OW 4258   6.348   5.862   1.275
 1120SOL    HW1 4259   6.337   5.763   1.280
 1120SOL    HW2 4260   6.345   5.891   1.179
 1121SOL     OW 4261   0.329   4.151   4.432
 1121SOL    HW1 4262   0.233   4.123   4.434
 1121SOL    HW2 4263   0.355   4.176   4.339
 1122SOL     OW 4264   6.001   2.763   2.308
 1122SOL    HW1 4265   5.975   2.754   2.404
 1122SOL    HW2 4266   6.087   2.815   2.302
 1123SOL     OW 4267   5.034   2.442   3.852
 1123SOL    HW1 4268   4.996   2.401   3.935
 1123SOL    HW2 4269   5.013   2.382   3.774
 1124SOL     OW 4270   0.088   4.553   5.552
 1124SOL    HW1 4271   0.097   4.466   5.504
 1124SOL    HW2 4272   0.176   4.599   5.556
 1125SOL     OW 4273   1.671   2.302   3.667
 1125SOL    HW1 4274   1.721   2.388   3.675
 1125SOL    HW2 4275   1.603   2.296   3.740
 1126SOL     OW 4276   6.259   5.790   5.993
 1126SOL    HW1 4277   6.237   5.709   6.046
 1126SOL    HW2 4278   6.289   5.764   5.901
 1127SOL     OW 4279   5.641   6.377   4.579
 1127SOL    HW1 4280   5.635   6.318   4.659
 1127SOL    HW2 4281   5.721   6.436   4.587
 1128SOL     OW 4282   6.057   1.302   4.601
 1128SOL    HW1 4283   5.961   1.273   4.598
 1128SOL    HW2 4284   6.066   1.382   4.660
 1129SOL     OW 4285   2.144   6.492   0.595
 1129SOL    HW1 4286   2.093   6.477   0.680
 1129SOL    HW2 4287   2.142   6.408   0.540
 1130SOL     OW 4288   2.176   4.728   1.095
 1130SOL    HW1 4289   2.255   4.779   1.130
 1130SOL    HW2 4290   2.185   4.632   1.119
 1131SOL     OW 4291   1.725   6.777   5.349
 1131SOL    HW1 4292   1.796   6.824   5.403
 1131SOL    HW2 4293   1.705   6.830   5.267
 1132SOL     OW 4294   4.332   0.351   3.329
 1132SOL    HW1 4295   4.363   0.320   3.239
 1132SOL    HW2 4296   4.241   0.392   3.320
 1133SOL     OW 4297   1.204   0.854   6.970
 1133SOL    HW1 4298   1.217   0.937   0.005
 1133SOL    HW2 4299   1.255   0.862   6.885
 1134SOL     OW 4300   5.072   0.041   3.278
 1134SOL    HW1 4301   5.026   7.009   3.205
 1134SOL    HW2 4302   5.148   0.093   3.239
 1135SOL     OW 4303   2.273   6.386   3.430
 1135SOL    HW1 4304   2.188   6.435   3.447
 1135SOL    HW2 4305   2.351   6.447   3.445
 1136SOL     OW 4306   4.085   4.849   2.794
 1136SOL    HW1 4307   4.050   4.800   2.714
 1136SOL    HW2 4308   4.113   4.941   2.767
 1137SOL     OW 4309   1.268   6.621   0.142
 1137SOL    HW1 4310   1.277   6.720   0.149
 1137SOL    HW2 4311   1.293   6.591   0.050
 1138SOL     OW 4312   0.243   1.529   5.286
 1138SOL    HW1 4313   0.248   1.621   5.248
 1138SOL    HW2 4314   0.256   1.533   5.385
 1139SOL     OW 4315   2.526   4.951   3.354
 1139SOL    HW1 4316   2.533   4.912   3.262
 1139SOL    HW2 4317   2.553   5.047   3.352
 1140SOL     OW 4318   2.822   0.328   2.172
 1140SOL    HW1 4319   2.743   0.389   2.173
 1140SOL    HW2 4320   2.832   0.287   2.082
 1141SOL     OW 4321   6.785   6.225   0.249
 1141SOL    HW1 4322   6.822   6.315   0.225
 1141SOL    HW2 4323   6.697   6.237   0.294
 1142SOL     OW 4324   3.425   0.705   4.214
 1142SOL    HW1 4325   3.518   0.730   4.189
 1142SOL    HW2 4326   3.367   0.786   4.213
 1143SOL     OW 4327   1.914   3.162   2.909
 1143SOL    HW1 4328   1.887   3.258   2.915
 1143SOL    HW2 4329   1.971   3.138   2.988
 1144SOL     OW 4330   5.708   4.551   3.877
 1144SOL    HW1 4331   5.796   4.558   3.828
 1144SOL    HW2 4332   5.723   4.513   3.968
 1145SOL     OW 4333   1.022   2.946   0.532
 1145SOL    HW1 4334   0.927   2.915   0.538
 1145SOL    HW2 4335   1.079   2.892   0.594
 1146SOL     OW 4336   0.840   1.675   2.156
 1146SOL    HW1 4337   0.818   1.578   2.164
 1146SOL    HW2 4338   0.794   1.726   2.229
 1147SOL     OW 4339   3.179   5.940   1.154
 1147SOL    HW1 4340   3.151   5.954   1.059
 1147SOL    HW2 4341   3.276   5.912   1.157
 1148SOL     OW 4342   4.383   6.057   1.114
 1148SOL    HW1 4343   4.453   6.129   1.118
 1148SOL    HW2 4344   4.328   6.069   1.032
 1149SOL     OW 4345   5.227   2.556   2.226
 1149SOL    HW1 4346   5.145   2.546   2.282
 1149SOL    HW2 4347   5.257   2.652   2.228
 1150SOL     OW 4348   0.757   3.863   0.369
 1150SOL    HW1 4349   0.708   3.814   0.441
 1150SOL    HW2 4350   0.851   3.829   0.364
 1151SOL     OW 4351   5.628   4.822   4.722
 1151SOL    HW1 4352   5.616   4.788   4.816
 1151SOL    HW2 4353   5.634   4.745   4.659
 1152SOL     OW 4354   4.991   6.734   6.558
 1152SOL    HW1 4355   5.047   6.689   6.628
 1152SOL    HW2 4356   4.898   6.697   6.561
 1153SOL     OW 4357   6.781   0.066   1.861
 1153SOL    HW1 4358   6.760   0.155   1.901
 1153SOL    HW2 4359   6.800   0.001   1.934
 1154SOL     OW 4360   0.567   4.513   0.423
 1154SOL    HW1 4361   0.496   4.514   0.493
 1154SOL    HW2 4362   0.541   4.451   0.349
 1155SOL     OW 4363   3.385   4.565   5.539
 1155SOL    HW1 4364   3.423   4.614   5.618
 1155SOL    HW2 4365   3.289   4.591   5.527
 1156SOL     OW 4366   4.616   2.340   5.012
 1156SOL    HW1 4367   4.602   2.406   5.087
 1156SOL    HW2 4368   4.709   2.349   4.978
 1157SOL     OW 4369   5.150   1.342   5.821
 1157SOL    HW1 4370   5.137   1.403   5.899
 1157SOL    HW2 4371   5.083   1.267   5.827
 1158SOL     OW 4372   6.647   5.241   5.050
 1158SOL    HW1 4373   6.739   5.276   5.033
 1158SOL    HW2 4374   6.588   5.316   5.080
 1159SOL     OW 4375   6.142   6.777   3.004
 1159SOL    HW1 4376   6.056   6.822   2.979
 1159SOL    HW2 4377   6.193   6.834   3.068
 1160SOL     OW 4378   4.493   5.260   1.507
 1160SOL    HW1 4379   4.519   5.308   1.590
 1160SOL    HW2 4380   4.403   5.292   1.476
 1161SOL     OW 4381   0.404   6.175   6.221
 1161SOL    HW1 4382   0.487   6.120   6.221
 1161SOL    HW2 4383   0.366   6.177   6.128
 1162SOL     OW 4384   2.326   2.369   5.987
 1162SOL    HW1 4385   2.375   2.398   6.069
 1162SOL    HW2 4386   2.341   2.436   5.914
 1163SOL     OW 4387   5.972   4.250   1.894
 1163SOL    HW1 4388   5.879   4.244   1.928
 1163SOL    HW2 4389   5.973   4.297   1.806
 1164SOL     OW 4390   4.525   2.132   4.876
 1164SOL    HW1 4391   4.559   2.218   4.915
 1164SOL    HW2 4392   4.598   2.063   4.880
 1165SOL     OW 4393   4.383   5.859   3.436
 1165SOL    HW1 4394   4.379   5.954   3.467
 1165SOL    HW2 4395   4.292   5.818   3.442
 1166SOL     OW 4396   2.519   6.218   6.991
 1166SOL    HW1 4397   2.512   6.125   0.007
 1166SOL    HW2 4398   2.428   6.257   6.978
 1167SOL     OW 4399   4.793   5.238   0.682
 1167SOL    HW1 4400   4.806   5.159   0.622
 1167SOL    HW2 4401   4.777   5.206   0.776
 1168SOL     OW 4402   5.945   2.508   1.732
 1168SOL    HW1 4403   6.040   2.525   1.758
 1168SOL    HW2 4404   5.899   2.595   1.712
 1169SOL     OW 4405   4.321   1.807   5.886
 1169SOL    HW1 4406   4.411   1.843   5.860
 1169SOL    HW2 4407   4.281   1.758   5.808
 1170SOL     OW 4408   5.587   0.273   3.578
 1170SOL    HW1 4409   5.494   0.288   3.609
 1170SOL    HW2 4410   5.611   0.341   3.508
 1171SOL     OW 4411   3.064   6.840   6.986
 1171SOL    HW1 4412   3.050   6.929   0.009
 1171SOL    HW2 4413   2.995   6.827   6.914
 1172SOL     OW 4414   5.442   4.184   0.920
 1172SOL    HW1 4415   5.528   4.213   0.879
 1172SOL    HW2 4416   5.423   4.089   0.894
 1173SOL     OW 4417   2.997   1.653   0.699
 1173SOL    HW1 4418   3.067   1.595   0.741
 1173SOL    HW2 4419   2.992   1.633   0.601
 1174SOL     OW 4420   3.787   3.758   2.013
 1174SOL    HW1 4421   3.771   3.792   2.106
 1174SOL    HW2 4422   3.842   3.825   1.962
 1175SOL     OW 4423   4.793   3.557   6.399
 1175SOL    HW1 4424   4.788   3.457   6.396
 1175SOL    HW2 4425   4.702   3.594   6.413
 1176SOL     OW 4426   5.213   3.571   0.384
 1176SOL    HW1 4427   5.210   3.668   0.409
 1176SOL    HW2 4428   5.298   3.552   0.336
 1177SOL     OW 4429   6.308   3.569   4.817
 1177SOL    HW1 4430   6.293   3.499   4.887
 1177SOL    HW2 4431   6.250   3.648   4.837
 1178SOL     OW 4432   2.880   4.306   0.335
 1178SOL    HW1 4433   2.845   4.267   0.250
 1178SOL    HW2 4434   2.806   4.348   0.386
 1179SOL     OW 4435   2.077   5.690   0.829
 1179SOL    HW1 4436   2.097   5.726   0.920
 1179SOL    HW2 4437   2.075   5.766   0.764
 1180SOL     OW 4438   2.582   6.515   4.006
 1180SOL    HW1 4439   2.499   6.515   3.950
 1180SOL    HW2 4440   2.661   6.492   3.950
 1181SOL     OW 4441   0.393   5.661   5.194
 1181SOL    HW1 4442   0.343   5.743   5.220
 1181SOL    HW2 4443   0.371   5.638   5.099
 1182SOL     OW 4444   4.642   5.374   3.510
 1182SOL    HW1 4445   4.602   5.307   3.448
 1182SOL    HW2 4446   4.576   5.447   3.528
 1183SOL     OW 4447   2.183   4.107   6.872
 1183SOL    HW1 4448   2.112   4.091   6.941
 1183SOL    HW2 4449   2.209   4.020   6.831
 1184SOL     OW 4450   0.119   1.182   4.658
 1184SOL    HW1 4451   0.087   1.132   4.578
 1184SOL    HW2 4452   0.208   1.144   4.687
 1185SOL     OW 4453   0.947   0.549   0.982
 1185SOL    HW1 4454   0.980   0.454   0.987
 1185SOL    HW2 4455   0.878   0.563   1.053
 1186SOL     OW 4456   5.504   6.466   6.145
 1186SOL    HW1 4457   5.414   6.452   6.188
 1186SOL    HW2 4458   5.493   6.524   6.064
 1187SOL     OW 4459   5.178   0.315   6.215
 1187SOL    HW1 4460   5.277   0.325   6.226
 1187SOL    HW2 4461   5.136   0.296   6.304
 1188SOL     OW 4462   3.581   5.878   6.021
 1188SOL    HW1 4463   3.642   5.943   6.066
 1188SOL    HW2 4464   3.590   5.788   6.063
 1189SOL     OW 4465   6.392   2.509   1.621
 1189SOL    HW1 4466   6.452   2.432   1.647
 1189SOL    HW2 4467   6.416   2.541   1.530
 1190SOL     OW 4468   2.984   5.522   3.353
 1190SOL    HW1 4469   2.890   5.519   3.318
 1190SOL    HW2 4470   3.040   5.457   3.303
 1191SOL     OW 4471   4.411   5.582   4.186
 1191SOL    HW1 4472   4.399   5.546   4.278
 1191SOL    HW2 4473   4.494   5.638   4.183
 1192SOL     OW 4474   5.087   4.905   1.954
 1192SOL    HW1 4475   5.165   4.843   1.940
 1192SOL    HW2 4476   5.045   4.885   2.043
 1193SOL     OW 4477   6.615   2.406   4.913
 1193SOL    HW1 4478   6.663   2.428   4.828
 1193SOL    HW2 4479   6.661   2.331   4.959
 1194SOL     OW 4480   5.995   6.924   1.887
 1194SOL    HW1 4481   5.984   6.996   1.956
 1194SOL    HW2 4482   5.996   6.965   1.796
 1195SOL     OW 4483   0.091   4.156   0.922
 1195SOL    HW1 4484   0.032   4.187   0.996
 1195SOL    HW2 4485   0.187   4.160   0.951
 1196SOL     OW 4486   6.863   5.639   3.367
 1196SOL    HW1 4487   6.866   5.587   3.282
 1196SOL    HW2 4488   6.942   5.700   3.372
 1197SOL     OW 4489   4.441   6.984   4.887
 1197SOL    HW1 4490   4.537   6.991   4.916
 1197SOL    HW2 4491   4.434   6.920   4.811
 1198SOL     OW 4492   0.971   3.158   2.885
 1198SOL    HW1 4493   1.059   3.115   2.905
 1198SOL    HW2 4494   0.919   3.099   2.822
 1199SOL     OW 4495   3.521   4.030   1.035
 1199SOL    HW1 4496   3.556   4.039   0.942
 1199SOL    HW2 4497   3.597   4.033   1.100
 1200SOL     OW 4498   3.058   3.886   4.125
 1200SOL    HW1 4499   3.140   3.855   4.076
 1200SOL    HW2 4500   3.078   3.971   4.172
 1201SOL     OW 4501   1.190   0.867   4.225
 1201SOL    HW1 4502   1.187   0.767   4.213
 1201SOL    HW2 4503   1.164   0.911   4.139
 1202SOL     OW 4504   0.486   5.710   5.863
 1202SOL    HW1 4505   0.495   5.775   5.938
 1202SOL    HW2 4506   0.570   5.656   5.856
 1203SOL     OW 4507   6.652   6.504   6.556
 1203SOL    HW1 4508   6.717   6.503   6.480
 1203SOL    HW2 4509   6.613   6.596   6.566
 1204SOL     OW 4510   4.308   0.503   1.738
 1204SOL    HW1 4511   4.234   0.463   1.683
 1204SOL    HW2 4512   4.384   0.439   1.742
 1205SOL     OW 4513   4.408   3.534   0.555
 1205SOL    HW1 4514   4.364   3.604   0.612
 1205SOL    HW2 4515   4.472   3.482   0.611
 1206SOL     OW 4516   2.610   2.365   5.493
 1206SOL    HW1 4517   2.544   2.304   5.538
 1206SOL    HW2 4518   2.561   2.421   5.426
 1207SOL     OW 4519   2.001   6.401   0.815
 1207SOL    HW1 4520   1.935   6.473   0.833
 1207SOL    HW2 4521   2.001   6.335   0.890
 1208SOL     OW 4522   3.145   3.407   1.097
 1208SOL    HW1 4523   3.146   3.497   1.141
 1208SOL    HW2 4524   3.130   3.418   0.999
 1209SOL     OW 4525   4.022   0.905   4.034
 1209SOL    HW1 4526   3.990   0.894   4.128
 1209SOL    HW2 4527   4.097   0.971   4.032
 1210SOL     OW 4528   2.725   0.433   3.662
 1210SOL    HW1 4529   2.629   0.447   3.682
 1210SOL    HW2 4530   2.770   0.522   3.647
 1211SOL     OW 4531   0.885   3.377   2.169
 1211SOL    HW1 4532   0.870   3.476   2.168
 1211SOL    HW2 4533   0.803   3.331   2.136
 1212SOL     OW 4534   6.257   0.384   0.537
 1212SOL    HW1 4535   6.237   0.441   0.458
 1212SOL    HW2 4536   6.324   0.314   0.512
 1213SOL     OW 4537   6.656   2.541   1.162
 1213SOL    HW1 4538   6.569   2.505   1.196
 1213SOL    HW2 4539   6.641   2.584   1.073
 1214SOL     OW 4540   1.237   2.943   6.799
 1214SOL    HW1 4541   1.305   2.887   6.752
 1214SOL    HW2 4542   1.189   2.888   6.867
 1215SOL     OW 4543   0.841   4.995   3.139
 1215SOL    HW1 4544   0.859   4.978   3.236
 1215SOL    HW2 4545   0.744   5.013   3.126
 1216SOL     OW 4546   5.316   0.423   1.203
 1216SOL    HW1 4547   5.401   0.452   1.160
 1216SOL    HW2 4548   5.272   0.501   1.248
 1217SOL     OW 4549   2.377   4.762   0.571
 1217SOL    HW1 4550   2.408   4.776   0.665
 1217SOL    HW2 4551   2.442   4.806   0.508
 1218SOL     OW 4552   1.790   4.376   4.761
 1218SOL    HW1 4553   1.846   4.455   4.785
 1218SOL    HW2 4554   1.844   4.293   4.772
 1219SOL     OW 4555   4.959   6.362   1.799
 1219SOL    HW1 4556   4.886   6.305   1.761
 1219SOL    HW2 4557   5.003   6.413   1.726
 1220SOL     OW 4558   0.693   4.495   3.053
 1220SOL    HW1 4559   0.622   4.559   3.023
 1220SOL    HW2 4560   0.686   4.411   2.997
 1221SOL     OW 4561   5.470   4.163   6.297
 1221SOL    HW1 4562   5.542   4.189   6.361
 1221SOL    HW2 4563   5.381   4.184   6.337
 1222SOL     OW 4564   6.724   0.846   6.625
 1222SOL    HW1 4565   6.739   0.832   6.723
 1222SOL    HW2 4566   6.812   0.846   6.577
 1223SOL     OW 4567   4.086   1.491   0.208
 1223SOL    HW1 4568   4.061   1.575   0.255
 1223SOL    HW2 4569   4.012   1.424   0.217
 1224SOL     OW 4570   3.787   5.399   0.475
 1224SOL    HW1 4571   3.804   5.334   0.549
 1224SOL    HW2 4572   3.693   5.432   0.480
 1225SOL     OW 4573   3.071   3.403   6.179
 1225SOL    HW1 4574   3.034   3.312   6.161
 1225SOL    HW2 4575   3.008   3.454   6.237
 1226SOL     OW 4576   2.974   5.248   1.594
 1226SOL    HW1 4577   2.970   5.152   1.623
 1226SOL    HW2 4578   2.881   5.282   1.582
 1227SOL     OW 4579   6.782   3.941   6.258
 1227SOL    HW1 4580   6.847   3.896   6.196
 1227SOL    HW2 4581   6.696   3.890   6.259
 1228SOL     OW 4582   3.383   2.021   6.500
 1228SOL    HW1 4583   3.357   2.116   6.481
 1228SOL    HW2 4584   3.449   2.020   6.575
 1229SOL     OW 4585   3.583   4.895   5.605
 1229SOL    HW1 4586   3.549   4.861   5.517
 1229SOL    HW2 4587   3.524   4.970   5.636
 1230SOL     OW 4588   4.739   0.291   2.816
 1230SOL    HW1 4589   4.712   0.268   2.910
 1230SOL    HW2 4590   4.827   0.248   2.796
 1231SOL     OW 4591   1.868   3.339   4.735
 1231SOL    HW1 4592   1.795   3.407   4.728
 1231SOL    HW2 4593   1.859   3.291   4.823
 1232SOL     OW 4594   0.626   1.991   4.713
 1232SOL    HW1 4595   0.597   1.927   4.642
 1232SOL    HW2 4596   0.628   1.944   4.801
 1233SOL     OW 4597   0.952   3.957   4.750
 1233SOL    HW1 4598   0.863   3.994   4.726
 1233SOL    HW2 4599   0.950   3.925   4.845
 1234SOL     OW 4600   6.463   3.701   5.131
 1234SOL    HW1 4601   6.364   3.715   5.124
 1234SOL    HW2 4602   6.482   3.603   5.134
 1235SOL     OW 4603   6.939   5.849   2.632
 1235SOL    HW1 4604   6.926   5.797   2.717
 1235SOL    HW2 4605   6.945   5.786   2.555
 1236SOL     OW 4606   4.898   1.210   0.638
 1236SOL    HW1 4607   4.952   1.198   0.722
 1236SOL    HW2 4608   4.819   1.268   0.658
 1237SOL     OW 4609   1.829   4.909   5.431
 1237SOL    HW1 4610   1.776   4.827   5.409
 1237SOL    HW2 4611   1.776   4.990   5.408
 1238SOL     OW 4612   2.568   0.786   0.363
 1238SOL    HW1 4613   2.563   0.754   0.268
 1238SOL    HW2 4614   2.617   0.873   0.366
 1239SOL     OW 4615   0.246   0.143   5.982
 1239SOL    HW1 4616   0.247   0.134   5.883
 1239SOL    HW2 4617   0.159   0.184   6.011
 1240SOL     OW 4618   5.147   6.202   1.946
 1240SOL    HW1 4619   5.084   6.263   1.899
 1240SOL    HW2 4620   5.195   6.252   2.018
 1241SOL     OW 4621   6.257   4.167   3.892
 1241SOL    HW1 4622   6.265   4.186   3.990
 1241SOL    HW2 4623   6.221   4.075   3.879
 1242SOL     OW 4624   6.844   3.327   1.656
 1242SOL    HW1 4625   6.788   3.324   1.573
 1242SOL    HW2 4626   6.895   3.413   1.657
 1243SOL     OW 4627   6.530   6.575   4.968
 1243SOL    HW1 4628   6.457   6.557   5.034
 1243SOL    HW2 4629   6.570   6.664   4.986
 1244SOL     OW 4630   6.442   0.068   4.664
 1244SOL    HW1 4631   6.453   0.057   4.565
 1244SOL    HW2 4632   6.442   0.165   4.687
 1245SOL     OW 4633   4.613   4.709   6.533
 1245SOL    HW1 4634   4.682   4.767   6.577
 1245SOL    HW2 4635   4.560   4.662   6.604
 1246SOL     OW 4636   2.367   6.214   1.430
 1246SOL    HW1 4637   2.299   6.271   1.478
 1246SOL    HW2 4638   2.322   6.134   1.391
 1247SOL     OW 4639   2.385   0.785   6.354
 1247SOL    HW1 4640   2.301   0.823   6.316
 1247SOL    HW2 4641   2.410   0.836   6.437
 1248SOL     OW 4642   1.747   6.872   4.772
 1248SOL    HW1 4643   1.661   6.822   4.758
 1248SOL    HW2 4644   1.772   6.919   4.687
 1249SOL     OW 4645   5.765   2.356   2.232
 1249SOL    HW1 4646   5.794   2.382   2.140
 1249SOL    HW2 4647   5.674   2.314   2.227
 1250SOL     OW 4648   6.397   5.150   4.585
 1250SOL    HW1 4649   6.404   5.060   4.543
 1250SOL    HW2 4650   6.413   5.142   4.683
 1251SOL     OW 4651   3.439   6.916   4.334
 1251SOL    HW1 4652   3.504   6.936   4.261
 1251SOL    HW2 4653   3.401   7.001   4.370
 1252SOL     OW 4654   4.040   3.106   5.289
 1252SOL    HW1 4655   4.011   3.188   5.340
 1252SOL    HW2 4656   3.995   3.105   5.200
 1253SOL     OW 4657   3.658   5.133   2.095
 1253SOL    HW1 4658   3.675   5.035   2.107
 1253SOL    HW2 4659   3.609   5.169   2.174
 1254SOL     OW 4660   0.316   2.511   2.118
 1254SOL    HW1 4661   0.268   2.454   2.184
 1254SOL    HW2 4662   0.356   2.453   2.047
 1255SOL     OW 4663   6.282   1.851   4.753
 1255SOL    HW1 4664   6.357   1.785   4.755
 1255SOL    HW2 4665   6.308   1.931   4.807
 1256SOL     OW 4666   6.557   6.444   3.681
 1256SOL    HW1 4667   6.490   6.443   3.754
 1256SOL    HW2 4668   6.648   6.423   3.717
 1257SOL     OW 4669   0.186   6.857   4.498
 1257SOL    HW1 4670   0.278   6.856   4.539
 1257SOL    HW2 4671   0.120   6.823   4.565
 1258SOL     OW 4672   1.803   5.743   3.831
 1258SOL    HW1 4673   1.757   5.812   3.887
 1258SOL    HW2 4674   1.871   5.787   3.772
 1259SOL     OW 4675   3.788   1.347   3.859
 1259SOL    HW1 4676   3.815   1.262   3.903
 1259SOL    HW2 4677   3.737   1.404   3.923
 1260SOL     OW 4678   1.571   1.350   6.638
 1260SOL    HW1 4679   1.495   1.408   6.669
 1260SOL    HW2 4680   1.602   1.293   6.714
 1261SOL     OW 4681   0.363   5.527   6.788
 1261SOL    HW1 4682   0.306   5.480   6.721
 1261SOL    HW2 4683   0.456   5.489   6.786
 1262SOL     OW 4684   4.774   4.576   1.064
 1262SOL    HW1 4685   4.843   4.540   1.000
 1262SOL    HW2 4686   4.767   4.514   1.142
 1263SOL     OW 4687   0.605   1.521   2.449
 1263SOL    HW1 4688   0.673   1.595   2.444
 1263SOL    HW2 4689   0.611   1.478   2.539
 1264SOL     OW 4690   0.228   4.449   6.802
 1264SOL    HW1 4691   0.184   4.426   6.889
 1264SOL    HW2 4692   0.323   4.473   6.818
 1265SOL     OW 4693   5.850   5.335   5.094
 1265SOL    HW1 4694   5.882   5.245   5.124
 1265SOL    HW2 4695   5.886   5.355   5.002
 1266SOL     OW 4696   0.479   0.896   4.574
 1266SOL    HW1 4697   0.573   0.888   4.541
 1266SOL    HW2 4698   0.471   0.853   4.664
 1267SOL     OW 4699   5.504   1.477   1.144
 1267SOL    HW1 4700   5.442   1.399   1.154
 1267SOL    HW2 4701   5.478   1.531   1.064
 1268SOL     OW 4702   2.703   3.100   0.142
 1268SOL    HW1 4703   2.801   3.090   0.158
 1268SOL    HW2 4704   2.668   3.018   0.097
 1269SOL     OW 4705   5.998   3.145   4.102
 1269SOL    HW1 4706   6.072   3.151   4.035
 1269SOL    HW2 4707   5.947   3.231   4.104
 1270SOL     OW 4708   2.448   4.637   2.671
 1270SOL    HW1 4709   2.350   4.658   2.679
 1270SOL    HW2 4710   2.499   4.690   2.738
 1271SOL     OW 4711   3.232   1.553   2.215
 1271SOL    HW1 4712   3.136   1.554   2.187
 1271SOL    HW2 4713   3.289   1.589   2.141
 1272SOL     OW 4714   5.566   5.132   0.073
 1272SOL    HW1 4715   5.470   5.135   0.100
 1272SOL    HW2 4716   5.588   5.040   0.040
 1273SOL     OW 4717   1.080   4.441   5.714
 1273SOL    HW1 4718   1.030   4.444   5.627
 1273SOL    HW2 4719   1.016   4.426   5.789
 1274SOL     OW 4720   0.365   4.560   0.593
 1274SOL    HW1 4721   0.291   4.493   0.587
 1274SOL    HW2 4722   0.337   4.645   0.550
 1275SOL     OW 4723   3.744   1.488   3.541
 1275SOL    HW1 4724   3.757   1.390   3.552
 1275SOL    HW2 4725   3.733   1.509   3.443
 1276SOL     OW 4726   5.491   5.243   4.884
 1276SOL    HW1 4727   5.404   5.221   4.928
 1276SOL    HW2 4728   5.566   5.198   4.933
 1277SOL     OW 4729   1.677   5.340   6.440
 1277SOL    HW1 4730   1.760   5.394   6.455
 1277SOL    HW2 4731   1.617   5.389   6.377
 1278SOL     OW 4732   1.728   0.311   5.069
 1278SOL    HW1 4733   1.640   0.359   5.069
 1278SOL    HW2 4734   1.718   0.222   5.026
 1279SOL     OW 4735   2.263   4.629   6.469
 1279SOL    HW1 4736   2.188   4.604   6.407
 1279SOL    HW2 4737   2.349   4.594   6.433
 1280SOL     OW 4738   4.320   6.852   3.381
 1280SOL    HW1 4739   4.291   6.773   3.436
 1280SOL    HW2 4740   4.418   6.845   3.361
 1281SOL     OW 4741   2.366   6.132   3.449
 1281SOL    HW1 4742   2.398   6.131   3.355
 1281SOL    HW2 4743   2.334   6.224   3.473
 1282SOL     OW 4744   0.016   2.423   6.815
 1282SOL    HW1 4745   0.075   2.347   6.787
 1282SOL    HW2 4746   6.951   2.420   6.764
 1283SOL     OW 4747   6.668   2.854   5.525
 1283SOL    HW1 4748   6.718   2.794   5.463
 1283SOL    HW2 4749   6.665   2.813   5.616
 1284SOL     OW 4750   4.010   0.853   1.850
 1284SOL    HW1 4751   4.037   0.943   1.883
 1284SOL    HW2 4752   4.080   0.817   1.788
 1285SOL     OW 4753   4.659   1.477   5.463
 1285SOL    HW1 4754   4.638   1.390   5.506
 1285SOL    HW2 4755   4.605   1.550   5.506
 1286SOL     OW 4756   4.223   2.856   0.956
 1286SOL    HW1 4757   4.156   2.792   0.994
 1286SOL    HW2 4758   4.187   2.896   0.872
 1287SOL     OW 4759   5.341   4.118   5.435
 1287SOL    HW1 4760   5.361   4.134   5.532
 1287SOL    HW2 4761   5.304   4.026   5.424
 1288SOL     OW 4762   3.644   4.679   5.781
 1288SOL    HW1 4763   3.621   4.750   5.714
 1288SOL    HW2 4764   3.739   4.689   5.809
 1289SOL     OW 4765   0.529   0.205   1.750
 1289SOL    HW1 4766   0.619   0.225   1.788
 1289SOL    HW2 4767   0.507   0.271   1.678
 1290SOL     OW 4768   1.321   0.098   0.458
 1290SOL    HW1 4769   1.221   0.088   0.458
 1290SOL    HW2 4770   1.347   0.172   0.521
 1291SOL     OW 4771   0.188   4.402   3.931
 1291SOL    HW1 4772   0.236   4.469   3.875
 1291SOL    HW2 4773   0.255   4.346   3.981
 1292SOL     OW 4774   0.368   5.820   2.276
 1292SOL    HW1 4775   0.382   5.902   2.332
 1292SOL    HW2 4776   0.310   5.841   2.198
 1293SOL     OW 4777   2.242   2.512   6.548
 1293SOL    HW1 4778   2.166   2.565   6.513
 1293SOL    HW2 4779   2.252   2.428   6.495
 1294SOL     OW 4780   0.443   3.977   5.834
 1294SOL    HW1 4781   0.363   3.931   5.797
 1294SOL    HW2 4782   0.429   3.996   5.932
 1295SOL     OW 4783   0.303   2.958   0.823
 1295SOL    HW1 4784   0.322   3.049   0.785
 1295SOL    HW2 4785   0.208   2.933   0.804
 1296SOL     OW 4786   4.598   6.528   5.237
 1296SOL    HW1 4787   4.524   6.594   5.250
 1296SOL    HW2 4788   4.562   6.447   5.190
 1297SOL     OW 4789   1.009   6.734   1.273
 1297SOL    HW1 4790   0.989   6.643   1.311
 1297SOL    HW2 4791   1.105   6.756   1.289
 1298SOL     OW 4792   5.191   6.446   3.599
 1298SOL    HW1 4793   5.158   6.418   3.509
 1298SOL    HW2 4794   5.279   6.493   3.588
 1299SOL     OW 4795   2.435   2.661   3.884
 1299SOL    HW1 4796   2.421   2.710   3.970
 1299SOL    HW2 4797   2.395   2.713   3.809
 1300SOL     OW 4798   2.199   3.456   1.294
 1300SOL    HW1 4799   2.217   3.543   1.340
 1300SOL    HW2 4800   2.101   3.448   1.275
 1301SOL     OW 4801   0.528   6.944   2.125
 1301SOL    HW1 4802   0.593   6.868   2.115
 1301SOL    HW2 4803   0.568   7.015   2.183
 1302SOL     OW 4804   5.481   0.216   5.443
 1302SOL    HW1 4805   5.427   0.293   5.409
 1302SOL    HW2 4806   5.424   0.134   5.448
 1303SOL     OW 4807   3.921   0.512   1.526
 1303SOL    HW1 4808   3.926   0.604   1.488
 1303SOL    HW2 4809   4.011   0.469   1.521
 1304SOL     OW 4810   1.805   0.361   0.943
 1304SOL    HW1 4811   1.858   0.276   0.946
 1304SOL    HW2 4812   1.708   0.339   0.936
 1305SOL     OW 4813   5.813   4.606   0.169
 1305SOL    HW1 4814   5.714   4.599   0.178
 1305SOL    HW2 4815   5.857   4.534   0.222
 1306SOL     OW 4816   1.495   6.045   4.307
 1306SOL    HW1 4817   1.433   6.117   4.338
 1306SOL    HW2 4818   1.463   6.010   4.218
 1307SOL     OW 4819   2.047   3.937   4.387
 1307SOL    HW1 4820   2.025   3.967   4.294
 1307SOL    HW2 4821   2.095   4.011   4.435
 1308SOL     OW 4822   0.193   0.123   5.713
 1308SOL    HW1 4823   0.155   0.086   5.629
 1308SOL    HW2 4824   0.216   0.219   5.701
 1309SOL     OW 4825   5.790   4.482   5.369
 1309SOL    HW1 4826   5.722   4.409   5.372
 1309SOL    HW2 4827   5.744   4.571   5.372
 1310SOL     OW 4828   0.107   3.711   3.054
 1310SOL    HW1 4829   0.153   3.729   3.141
 1310SOL    HW2 4830   0.059   3.623   3.060
 1311SOL     OW 4831   6.784   6.402   6.298
 1311SOL    HW1 4832   6.738   6.488   6.275
 1311SOL    HW2 4833   6.718   6.327   6.296
 1312SOL     OW 4834   1.635   6.877   6.925
 1312SOL    HW1 4835   1.685   6.822   6.858
 1312SOL    HW2 4836   1.627   6.826   7.011
 1313SOL     OW 4837   6.886   5.141   2.422
 1313SOL    HW1 4838   6.887   5.047   2.386
 1313SOL    HW2 4839   6.966   5.155   2.480
 1314SOL     OW 4840   3.502   1.715   4.636
 1314SOL    HW1 4841   3.528   1.811   4.646
 1314SOL    HW2 4842   3.508   1.669   4.724
 1315SOL     OW 4843   6.937   1.254   3.072
 1315SOL    HW1 4844   6.979   1.261   2.982
 1315SOL    HW2 4845   6.837   1.260   3.063
 1316SOL     OW 4846   3.254   6.868   5.428
 1316SOL    HW1 4847   3.237   6.937   5.498
 1316SOL    HW2 4848   3.290   6.912   5.346
 1317SOL     OW 4849   1.486   4.187   5.417
 1317SOL    HW1 4850   1.407   4.218   5.469
 1317SOL    HW2 4851   1.458   4.113   5.356
 1318SOL     OW 4852   1.443   2.895   0.450
 1318SOL    HW1 4853   1.358   2.898   0.398
 1318SOL    HW2 4854   1.485   2.986   0.448
 1319SOL     OW 4855   0.190   5.068   0.562
 1319SOL    HW1 4856   0.095   5.078   0.532
 1319SOL    HW2 4857   0.246   5.138   0.518
 1320SOL     OW 4858   3.419   3.559   7.010
 1320SOL    HW1 4859   3.491   3.500   6.975
 1320SOL    HW2 4860   3.456   3.617   0.063
 1321SOL     OW 4861   5.225   2.553   6.472
 1321SOL    HW1 4862   5.266   2.575   6.383
 1321SOL    HW2 4863   5.202   2.638   6.519
 1322SOL     OW 4864   3.889   1.714   4.825
 1322SOL    HW1 4865   3.807   1.660   4.806
 1322SOL    HW2 4866   3.914   1.767   4.744
 1323SOL     OW 4867   2.913   0.242   6.836
 1323SOL    HW1 4868   2.823   0.243   6.880
 1323SOL    HW2 4869   2.907   0.194   6.749
 1324SOL     OW 4870   0.251   3.320   7.003
 1324SOL    HW1 4871   0.219   3.321   0.078
 1324SOL    HW2 4872   0.178   3.348   6.942
 1325SOL     OW 4873   3.900   5.965   5.380
 1325SOL    HW1 4874   3.912   5.931   5.287
 1325SOL    HW2 4875   3.969   6.034   5.400
 1326SOL     OW 4876   4.877   3.518   5.337
 1326SOL    HW1 4877   4.866   3.418   5.339
 1326SOL    HW2 4878   4.844   3.553   5.250
 1327SOL     OW 4879   1.095   6.425   0.548
 1327SOL    HW1 4880   1.034   6.495   0.585
 1327SOL    HW2 4881   1.115   6.357   0.618
 1328SOL     OW 4882   2.440   3.456   0.243
 1328SOL    HW1 4883   2.496   3.373   0.252
 1328SOL    HW2 4884   2.465   3.504   0.159
 1329SOL     OW 4885   0.717   2.233   2.376
 1329SOL    HW1 4886   0.770   2.257   2.295
 1329SOL    HW2 4887   0.719   2.308   2.441
 1330SOL     OW 4888   1.412   1.857   1.194
 1330SOL    HW1 4889   1.489   1.815   1.241
 1330SOL    HW2 4890   1.431   1.861   1.096
 1331SOL     OW 4891   4.674   2.548   3.615
 1331SOL    HW1 4892   4.661   2.602   3.698
 1331SOL    HW2 4893   4.696   2.609   3.538
 1332SOL     OW 4894   2.925   6.853   0.752
 1332SOL    HW1 4895   2.869   6.934   0.738
 1332SOL    HW2 4896   3.018   6.881   0.776
 1333SOL     OW 4897   2.985   3.410   3.214
 1333SOL    HW1 4898   2.938   3.466   3.145
 1333SOL    HW2 4899   3.001   3.319   3.176
 1334SOL     OW 4900   6.840   0.857   4.031
 1334SOL    HW1 4901   6.869   0.762   4.021
 1334SOL    HW2 4902   6.742   0.864   4.011
 1335SOL     OW 4903   1.892   1.665   2.338
 1335SOL    HW1 4904   1.908   1.764   2.335
 1335SOL    HW2 4905   1.795   1.647   2.356
 1336SOL     OW 4906   3.322   1.719   4.975
 1336SOL    HW1 4907   3.233   1.717   5.020
 1336SOL    HW2 4908   3.391   1.752   5.040
 1337SOL     OW 4909   1.018   1.223   2.525
 1337SOL    HW1 4910   0.986   1.195   2.616
 1337SOL    HW2 4911   1.116   1.206   2.518
 1338SOL     OW 4912   0.130   3.202   4.466
 1338SOL    HW1 4913   0.182   3.135   4.412
 1338SOL    HW2 4914   0.052   3.157   4.509
 1339SOL     OW 4915   6.045   1.787   0.326
 1339SOL    HW1 4916   5.946   1.792   0.340
 1339SOL    HW2 4917   6.082   1.880   0.322
 1340SOL     OW 4918   5.483   1.213   2.768
 1340SOL    HW1 4919   5.419   1.250   2.836
 1340SOL    HW2 4920   5.573   1.257   2.779
 1341SOL     OW 4921   4.609   0.007   6.686
 1341SOL    HW1 4922   4.656   6.941   6.666
 1341SOL    HW2 4923   4.591   0.014   6.784
 1342SOL     OW 4924   2.806   5.470   6.357
 1342SOL    HW1 4925   2.756   5.497   6.440
 1342SOL    HW2 4926   2.791   5.538   6.286
 1343SOL     OW 4927   5.554   5.627   2.471
 1343SOL    HW1 4928   5.601   5.605   2.386
 1343SOL    HW2 4929   5.613   5.684   2.528
 1344SOL     OW 4930   0.688   6.246   4.106
 1344SOL    HW1 4931   0.713   6.250   4.202
 1344SOL    HW2 4932   0.666   6.151   4.081
 1345SOL     OW 4933   0.617   5.227   2.246
 1345SOL    HW1 4934   0.529   5.206   2.287
 1345SOL    HW2 4935   0.658   5.305   2.292
 1346SOL     OW 4936   1.940   5.372   5.687
 1346SOL    HW1 4937   1.947   5.306   5.762
 1346SOL    HW2 4938   1.948   5.324   5.599
 1347SOL     OW 4939   0.334   6.358   6.397
 1347SOL    HW1 4940   0.319   6.311   6.484
 1347SOL    HW2 4941   0.352   6.289   6.326
 1348SOL     OW 4942   6.680   6.285   4.806
 1348SOL    HW1 4943   6.778   6.264   4.807
 1348SOL    HW2 4944   6.629   6.206   4.839
 1349SOL     OW 4945   5.604   2.821   4.606
 1349SOL    HW1 4946   5.617   2.822   4.705
 1349SOL    HW2 4947   5.676   2.876   4.563
 1350SOL     OW 4948   5.440   4.919   5.072
 1350SOL    HW1 4949   5.536   4.923   5.044
 1350SOL    HW2 4950   5.421   4.829   5.113
 1351SOL     OW 4951   5.385   2.678   3.805
 1351SOL    HW1 4952   5.481   2.687   3.780
 1351SOL    HW2 4953   5.328   2.722   3.736
 1352SOL     OW 4954   6.255   5.834   4.801
 1352SOL    HW1 4955   6.256   5.929   4.833
 1352SOL    HW2 4956   6.161   5.807   4.780
 1353SOL     OW 4957   0.851   2.645   0.665
 1353SOL    HW1 4958   0.771   2.588   0.687
 1353SOL    HW2 4959   0.905   2.600   0.594
 1354SOL     OW 4960   6.993   4.798   1.679
 1354SOL    HW1 4961   6.971   4.876   1.620
 1354SOL    HW2 4962   6.910   4.748   1.700
 1355SOL     OW 4963   6.596   4.108   4.633
 1355SOL    HW1 4964   6.632   4.154   4.552
 1355SOL    HW2 4965   6.661   4.118   4.708
 1356SOL     OW 4966   3.596   3.161   2.074
 1356SOL    HW1 4967   3.532   3.103   2.124
 1356SOL    HW2 4968   3.690   3.134   2.097
 1357SOL     OW 4969   0.162   4.328   6.547
 1357SOL    HW1 4970   0.209   4.372   6.471
 1357SOL    HW2 4971   0.191   4.370   6.633
 1358SOL     OW 4972   6.203   6.486   6.562
 1358SOL    HW1 4973   6.208   6.565   6.624
 1358SOL    HW2 4974   6.112   6.483   6.520
 1359SOL     OW 4975   5.992   4.506   2.503
 1359SOL    HW1 4976   6.035   4.486   2.591
 1359SOL    HW2 4977   6.005   4.602   2.480
 1360SOL     OW 4978   2.494   3.777   0.675
 1360SOL    HW1 4979   2.583   3.733   0.687
 1360SOL    HW2 4980   2.446   3.735   0.598
 1361SOL     OW 4981   6.515   4.968   5.312
 1361SOL    HW1 4982   6.433   4.998   5.263
 1361SOL    HW2 4983   6.558   4.893   5.262
 1362SOL     OW 4984   4.134   3.357   3.391
 1362SOL    HW1 4985   4.187   3.414   3.327
 1362SOL    HW2 4986   4.143   3.395   3.483
 1363SOL     OW 4987   0.436   5.305   4.606
 1363SOL    HW1 4988   0.525   5.277   4.642
 1363SOL    HW2 4989   0.367   5.237   4.631
 1364SOL     OW 4990   5.517   3.908   0.354
 1364SOL    HW1 4991   5.583   3.852   0.305
 1364SOL    HW2 4992   5.481   3.979   0.294
 1365SOL     OW 4993   0.572   4.274   6.451
 1365SOL    HW1 4994   0.507   4.239   6.518
 1365SOL    HW2 4995   0.543   4.248   6.359
 1366SOL     OW 4996   1.418   6.132   5.995
 1366SOL    HW1 4997   1.381   6.172   5.911
 1366SOL    HW2 4998   1.350   6.071   6.035
 1367SOL     OW 4999   2.303   7.006   2.411
 1367SOL    HW1 5000   2.372   6.934   2.399
 1367SOL    HW2 5001   2.338   0.054   2.475
 1368SOL     OW 5002   5.112   0.105   4.361
 1368SOL    HW1 5003   5.210   0.119   4.342
 1368SOL    HW2 5004   5.102   0.038   4.435
 1369SOL     OW 5005   1.738   6.588   3.031
 1369SOL    HW1 5006   1.700   6.517   2.971
 1369SOL    HW2 5007   1.834   6.604   3.006
 1370SOL     OW 5008   3.278   0.905   1.976
 1370SOL    HW1 5009   3.223   0.930   1.897
 1370SOL    HW2 5010   3.365   0.954   1.972
 1371SOL     OW 5011   4.921   1.619   4.146
 1371SOL    HW1 5012   4.940   1.661   4.235
 1371SOL    HW2 5013   4.930   1.688   4.075
 1372SOL     OW 5014   2.023   2.949   0.754
 1372SOL    HW1 5015   2.101   2.924   0.697
 1372SOL    HW2 5016   1.942   2.899   0.724
 1373SOL     OW 5017   6.258   4.363   0.144
 1373SOL    HW1 5018   6.342   4.389   0.190
 1373SOL    HW2 5019   6.251   4.411   0.057
 1374SOL     OW 5020   3.781   2.398   0.763
 1374SOL    HW1 5021   3.773   2.365   0.857
 1374SOL    HW2 5022   3.876   2.423   0.744
 1375SOL     OW 5023   6.976   4.879   6.390
 1375SOL    HW1 5024   6.884   4.902   6.358
 1375SOL    HW2 5025   6.993   4.924   6.477
 1376SOL     OW 5026   5.189   3.213   3.366
 1376SOL    HW1 5027   5.104   3.265   3.354
 1376SOL    HW2 5028   5.242   3.253   3.441
 1377SOL     OW 5029   6.852   3.886   5.803
 1377SOL    HW1 5030   6.782   3.823   5.770
 1377SOL    HW2 5031   6.844   3.973   5.754
 1378SOL     OW 5032   6.401   2.080   4.898
 1378SOL    HW1 5033   6.458   2.105   4.820
 1378SOL    HW2 5034   6.372   2.162   4.947
 1379SOL     OW 5035   3.376   6.449   2.380
 1379SOL    HW1 5036   3.373   6.351   2.361
 1379SOL    HW2 5037   3.389   6.499   2.294
 1380SOL     OW 5038   6.959   6.920   2.532
 1380SOL    HW1 5039   7.011   6.993   2.488
 1380SOL    HW2 5040   6.976   6.922   2.631
 1381SOL     OW 5041   5.624   2.747   0.273
 1381SOL    HW1 5042   5.541   2.703   0.308
 1381SOL    HW2 5043   5.698   2.681   0.270
 1382SOL     OW 5044   5.968   5.407   6.981
 1382SOL    HW1 5045   6.027   5.390   0.039
 1382SOL    HW2 5046   5.874   5.383   7.005
 1383SOL     OW 5047   1.162   0.971   0.294
 1383SOL    HW1 5048   1.126   0.884   0.259
 1383SOL    HW2 5049   1.202   0.957   0.384
 1384SOL     OW 5050   3.678   1.518   3.266
 1384SOL    HW1 5051   3.642   1.426   3.251
 1384SOL    HW2 5052   3.654   1.576   3.188
 1385SOL     OW 5053   0.127   2.837   2.840
 1385SOL    HW1 5054   0.056   2.827   2.771
 1385SOL    HW2 5055   0.217   2.839   2.795
 1386SOL     OW 5056   2.195   2.582   4.537
 1386SOL    HW1 5057   2.103   2.594   4.500
 1386SOL    HW2 5058   2.209   2.646   4.612
 1387SOL     OW 5059   3.548   0.977   3.740
 1387SOL    HW1 5060   3.487   0.945   3.813
 1387SOL    HW2 5061   3.639   0.995   3.778
 1388SOL     OW 5062   6.543   6.550   4.236
 1388SOL    HW1 5063   6.558   6.625   4.299
 1388SOL    HW2 5064   6.544   6.463   4.286
 1389SOL     OW 5065   0.369   0.871   3.641
 1389SOL    HW1 5066   0.327   0.851   3.729
 1389SOL    HW2 5067   0.299   0.906   3.578
 1390SOL     OW 5068   4.217   1.339   0.003
 1390SOL    HW1 5069   4.190   1.388   0.085
 1390SOL    HW2 5070   4.143   1.342   6.956
 1391SOL     OW 5071   5.942   1.572   5.708
 1391SOL    HW1 5072   5.865   1.590   5.648
 1391SOL    HW2 5073   5.948   1.645   5.777
 1392SOL     OW 5074   4.552   5.934   6.117
 1392SOL    HW1 5075   4.459   5.963   6.092
 1392SOL    HW2 5076   4.571   5.959   6.212
 1393SOL     OW 5077   6.449   2.206   6.481
 1393SOL    HW1 5078   6.465   2.229   6.577
 1393SOL    HW2 5079   6.373   2.141   6.474
 1394SOL     OW 5080   4.524   6.564   4.033
 1394SOL    HW1 5081   4.538   6.661   4.013
 1394SOL    HW2 5082   4.522   6.551   4.132
 1395SOL     OW 5083   0.185   3.663   2.388
 1395SOL    HW1 5084   0.233   3.667   2.300
 1395SOL    HW2 5085   0.241   3.611   2.453
 1396SOL     OW 5086   1.650   0.521   4.180
 1396SOL    HW1 5087   1.616   0.462   4.106
 1396SOL    HW2 5088   1.736   0.485   4.214
 1397SOL     OW 5089   0.397   5.991   5.297
 1397SOL    HW1 5090   0.318   5.970   5.238
 1397SOL    HW2 5091   0.479   5.999   5.241
 1398SOL     OW 5092   1.815   1.070   0.605
 1398SOL    HW1 5093   1.824   1.155   0.554
 1398SOL    HW2 5094   1.897   1.056   0.661
 1399SOL     OW 5095   4.245   0.207   0.774
 1399SOL    HW1 5096   4.264   0.269   0.850
 1399SOL    HW2 5097   4.186   0.252   0.708
 1400SOL     OW 5098   6.625   0.609   4.324
 1400SOL    HW1 5099   6.597   0.602   4.420
 1400SOL    HW2 5100   6.720   0.577   4.315
 1401SOL     OW 5101   5.692   0.002   4.243
 1401SOL    HW1 5102   5.665   0.078   4.183
 1401SOL    HW2 5103   5.665   6.936   4.202
 1402SOL     OW 5104   5.881   4.028   0.575
 1402SOL    HW1 5105   5.855   3.933   0.557
 1402SOL    HW2 5106   5.970   4.047   0.533
 1403SOL     OW 5107   3.425   3.235   0.614
 1403SOL    HW1 5108   3.359   3.304   0.585
 1403SOL    HW2 5109   3.377   3.161   0.660
 1404SOL     OW 5110   4.776   0.175   1.359
 1404SOL    HW1 5111   4.725   0.193   1.275
 1404SOL    HW2 5112   4.874   0.181   1.340
 1405SOL     OW 5113   1.815   3.555   1.011
 1405SOL    HW1 5114   1.790   3.545   1.107
 1405SOL    HW2 5115   1.764   3.488   0.957
 1406SOL     OW 5116   2.302   3.668   1.425
 1406SOL    HW1 5117   2.352   3.642   1.507
 1406SOL    HW2 5118   2.279   3.765   1.430
 1407SOL     OW 5119   0.516   3.329   1.853
 1407SOL    HW1 5120   0.474   3.415   1.824
 1407SOL    HW2 5121   0.539   3.274   1.772
 1408SOL     OW 5122   6.214   5.916   6.775
 1408SOL    HW1 5123   6.158   5.943   6.853
 1408SOL    HW2 5124   6.248   5.823   6.787
 1409SOL     OW 5125   6.796   1.982   5.630
 1409SOL    HW1 5126   6.826   1.984   5.725
 1409SOL    HW2 5127   6.763   1.890   5.608
 1410SOL     OW 5128   2.294   3.263   6.089
 1410SOL    HW1 5129   2.301   3.164   6.101
 1410SOL    HW2 5130   2.244   3.282   6.004
 1411SOL     OW 5131   3.198   6.371   0.025
 1411SOL    HW1 5132   3.216   6.382   0.123
 1411SOL    HW2 5133   3.229   6.451   6.996
 1412SOL     OW 5134   0.720   3.245   0.788
 1412SOL    HW1 5135   0.789   3.193   0.837
 1412SOL    HW2 5136   0.717   3.215   0.693
 1413SOL     OW 5137   1.992   2.010   4.885
 1413SOL    HW1 5138   1.984   1.930   4.945
 1413SOL    HW2 5139   1.901   2.043   4.861
 1414SOL     OW 5140   1.089   3.174   1.793
 1414SOL    HW1 5141   1.107   3.079   1.767
 1414SOL    HW2 5142   1.155   3.234   1.747
 1415SOL     OW 5143   2.565   2.107   4.541
 1415SOL    HW1 5144   2.485   2.139   4.592
 1415SOL    HW2 5145   2.634   2.074   4.605
 1416SOL     OW 5146   3.941   0.147   5.102
 1416SOL    HW1 5147   3.997   0.066   5.087
 1416SOL    HW2 5148   3.844   0.121   5.103
 1417SOL     OW 5149   2.755   3.379   6.075
 1417SOL    HW1 5150   2.776   3.283   6.056
 1417SOL    HW2 5151   2.823   3.437   6.031
 1418SOL     OW 5152   3.367   3.940   0.164
 1418SOL    HW1 5153   3.421   4.007   0.216
 1418SOL    HW2 5154   3.401   3.934   0.071
 1419SOL     OW 5155   1.586   5.036   4.285
 1419SOL    HW1 5156   1.679   5.046   4.320
 1419SOL    HW2 5157   1.529   5.112   4.319
 1420SOL     OW 5158   3.852   5.148   2.466
 1420SOL    HW1 5159   3.939   5.154   2.516
 1420SOL    HW2 5160   3.776   5.145   2.531
 1421SOL     OW 5161   0.903   4.583   4.598
 1421SOL    HW1 5162   0.840   4.519   4.554
 1421SOL    HW2 5163   0.939   4.543   4.682
 1422SOL     OW 5164   2.639   4.116   5.572
 1422SOL    HW1 5165   2.634   4.125   5.472
 1422SOL    HW2 5166   2.555   4.152   5.612
 1423SOL     OW 5167   4.400   1.613   4.544
 1423SOL    HW1 5168   4.351   1.700   4.547
 1423SOL    HW2 5169   4.467   1.614   4.470
 1424SOL     OW 5170   6.063   3.221   6.161
 1424SOL    HW1 5171   5.989   3.252   6.102
 1424SOL    HW2 5172   6.088   3.127   6.137
 1425SOL     OW 5173   3.621   6.191   5.000
 1425SOL    HW1 5174   3.590   6.212   4.907
 1425SOL    HW2 5175   3.568   6.113   5.035
 1426SOL     OW 5176   1.926   1.519   6.776
 1426SOL    HW1 5177   2.022   1.524   6.747
 1426SOL    HW2 5178   1.866   1.541   6.699
 1427SOL     OW 5179   1.122   0.346   3.269
 1427SOL    HW1 5180   1.210   0.388   3.248
 1427SOL    HW2 5181   1.136   0.273   3.336
 1428SOL     OW 5182   0.744   2.346   1.981
 1428SOL    HW1 5183   0.815   2.335   2.051
 1428SOL    HW2 5184   0.710   2.439   1.983
 1429SOL     OW 5185   6.247   1.470   6.935
 1429SOL    HW1 5186   6.260   1.544   6.868
 1429SOL    HW2 5187   6.241   1.510   0.006
 1430SOL     OW 5188   2.790   4.726   4.186
 1430SOL    HW1 5189   2.745   4.754   4.270
 1430SOL    HW2 5190   2.766   4.631   4.165
 1431SOL     OW 5191   2.970   1.587   5.907
 1431SOL    HW1 5192   3.046   1.536   5.948
 1431SOL    HW2 5193   2.937   1.537   5.826
 1432SOL     OW 5194   2.484   1.289   0.751
 1432SOL    HW1 5195   2.502   1.377   0.795
 1432SOL    HW2 5196   2.465   1.219   0.820
 1433SOL     OW 5197   2.977   0.824   3.240
 1433SOL    HW1 5198   3.064   0.785   3.268
 1433SOL    HW2 5199   2.902   0.781   3.291
 1434SOL     OW 5200   0.384   2.694   6.703
 1434SOL    HW1 5201   0.459   2.632   6.725
 1434SOL    HW2 5202   0.304   2.641   6.674
 1435SOL     OW 5203   0.976   6.826   3.399
 1435SOL    HW1 5204   0.990   6.840   3.301
 1435SOL    HW2 5205   0.909   6.754   3.414
 1436SOL     OW 5206   5.558   3.277   0.348
 1436SOL    HW1 5207   5.644   3.318   0.317
 1436SOL    HW2 5208   5.565   3.178   0.339
 1437SOL     OW 5209   4.615   1.392   6.151
 1437SOL    HW1 5210   4.643   1.318   6.090
 1437SOL    HW2 5211   4.695   1.449   6.173
 1438SOL     OW 5212   2.512   0.947   1.285
 1438SOL    HW1 5213   2.523   0.931   1.383
 1438SOL    HW2 5214   2.464   1.034   1.271
 1439SOL     OW 5215   0.315   5.968   0.481
 1439SOL    HW1 5216   0.413   5.950   0.475
 1439SOL    HW2 5217   0.294   6.053   0.434
 1440SOL     OW 5218   3.146   3.378   3.992
 1440SOL    HW1 5219   3.046   3.370   3.984
 1440SOL    HW2 5220   3.182   3.418   3.908
 1441SOL     OW 5221   6.468   3.617   3.664
 1441SOL    HW1 5222   6.441   3.687   3.731
 1441SOL    HW2 5223   6.441   3.647   3.573
 1442SOL     OW 5224   5.720   4.383   0.581
 1442SOL    HW1 5225   5.698   4.464   0.526
 1442SOL    HW2 5226   5.700   4.300   0.528
 1443SOL     OW 5227   0.911   0.363   3.603
 1443SOL    HW1 5228   0.891   0.360   3.701
 1443SOL    HW2 5229   0.862   0.288   3.557
 1444SOL     OW 5230   4.400   6.744   3.064
 1444SOL    HW1 5231   4.439   6.663   3.021
 1444SOL    HW2 5232   4.465   6.781   3.131
 1445SOL     OW 5233   0.531   2.612   1.319
 1445SOL    HW1 5234   0.622   2.583   1.291
 1445SOL    HW2 5235   0.507   2.569   1.406
 1446SOL     OW 5236   4.142   2.326   0.498
 1446SOL    HW1 5237   4.179   2.238   0.526
 1446SOL    HW2 5238   4.160   2.340   0.400
 1447SOL     OW 5239   6.617   0.971   5.111
 1447SOL    HW1 5240   6.581   0.980   5.019
 1447SOL    HW2 5241   6.543   0.953   5.175
 1448SOL     OW 5242   6.189   1.660   0.534
 1448SOL    HW1 5243   6.119   1.599   0.570
 1448SOL    HW2 5244   6.178   1.668   0.435
 1449SOL     OW 5245   5.863   6.386   0.618
 1449SOL    HW1 5246   5.831   6.458   0.680
 1449SOL    HW2 5247   5.890   6.306   0.671
 1450SOL     OW 5248   6.242   3.059   2.914
 1450SOL    HW1 5249   6.229   3.006   2.999
 1450SOL    HW2 5250   6.180   3.025   2.844
 1451SOL     OW 5251   2.479   6.805   2.974
 1451SOL    HW1 5252   2.444   6.870   2.908
 1451SOL    HW2 5253   2.573   6.779   2.950
 1452SOL     OW 5254   5.265   0.629   4.827
 1452SOL    HW1 5255   5.230   0.621   4.920
 1452SOL    HW2 5256   5.195   0.599   4.762
 1453SOL     OW 5257   5.477   3.661   4.874
 1453SOL    HW1 5258   5.399   3.667   4.937
 1453SOL    HW2 5259   5.556   3.707   4.915
 1454SOL     OW 5260   5.306   2.896   1.903
 1454SOL    HW1 5261   5.231   2.868   1.844
 1454SOL    HW2 5262   5.288   2.865   1.997
 1455SOL     OW 5263   0.938   0.604   1.718
 1455SOL    HW1 5264   0.923   0.674   1.788
 1455SOL    HW2 5265   1.004   0.638   1.651
 1456SOL     OW 5266   6.908   6.986   4.921
 1456SOL    HW1 5267   7.007   6.998   4.913
 1456SOL    HW2 5268   6.888   6.905   4.976
 1457SOL     OW 5269   1.344   6.957   3.358
 1457SOL    HW1 5270   1.334   6.982   3.262
 1457SOL    HW2 5271   1.427   6.902   3.369
 1458SOL     OW 5272   4.908   0.093   5.289
 1458SOL    HW1 5273   4.995   0.120   5.330
 1458SOL    HW2 5274   4.833   0.139   5.336
 1459SOL     OW 5275   2.624   6.100   6.508
 1459SOL    HW1 5276   2.677   6.022   6.541
 1459SOL    HW2 5277   2.581   6.146   6.586
 1460SOL     OW 5278   0.273   6.405   0.036
 1460SOL    HW1 5279   0.242   6.486   7.007
 1460SOL    HW2 5280   0.194   6.347   0.059
 1461SOL     OW 5281   6.380   4.406   3.378
 1461SOL    HW1 5282   6.386   4.503   3.402
 1461SOL    HW2 5283   6.286   4.383   3.355
 1462SOL     OW 5284   6.634   1.424   0.574
 1462SOL    HW1 5285   6.663   1.394   0.483
 1462SOL    HW2 5286   6.675   1.513   0.594
 1463SOL     OW 5287   0.620   0.349   5.328
 1463SOL    HW1 5288   0.636   0.252   5.347
 1463SOL    HW2 5289   0.532   0.360   5.281
 1464SOL     OW 5290   0.199   6.939   0.180
 1464SOL    HW1 5291   0.244   6.851   0.161
 1464SOL    HW2 5292   0.103   6.923   0.203
 1465SOL     OW 5293   0.675   1.121   3.197
 1465SOL    HW1 5294   0.765   1.149   3.229
 1465SOL    HW2 5295   0.638   1.192   3.137
 1466SOL     OW 5296   6.884   6.328   2.531
 1466SOL    HW1 5297   6.927   6.386   2.461
 1466SOL    HW2 5298   6.920   6.235   2.523
 1467SOL     OW 5299   1.732   0.614   3.085
 1467SOL    HW1 5300   1.768   0.702   3.116
 1467SOL    HW2 5301   1.807   0.556   3.054
 1468SOL     OW 5302   5.526   5.667   3.320
 1468SOL    HW1 5303   5.567   5.704   3.237
 1468SOL    HW2 5304   5.586   5.597   3.359
 1469SOL     OW 5305   0.010   0.429   2.712
 1469SOL    HW1 5306   7.000   0.406   2.620
 1469SOL    HW2 5307   7.019   0.527   2.728
 1470SOL     OW 5308   1.426   1.020   2.764
 1470SOL    HW1 5309   1.403   0.932   2.805
 1470SOL    HW2 5310   1.475   1.005   2.678
 1471SOL     OW 5311   6.481   0.710   6.638
 1471SOL    HW1 5312   6.432   0.745   6.717
 1471SOL    HW2 5313   6.574   0.746   6.638
 1472SOL     OW 5314   4.884   6.146   4.667
 1472SOL    HW1 5315   4.955   6.103   4.722
 1472SOL    HW2 5316   4.925   6.195   4.591
 1473SOL     OW 5317   5.716   5.731   3.130
 1473SOL    HW1 5318   5.798   5.694   3.087
 1473SOL    HW2 5319   5.699   5.824   3.096
 1474SOL     OW 5320   5.956   5.573   4.276
 1474SOL    HW1 5321   5.951   5.532   4.185
 1474SOL    HW2 5322   5.993   5.666   4.269
 1475SOL     OW 5323   0.310   0.366   1.850
 1475SOL    HW1 5324   0.373   0.289   1.863
 1475SOL    HW2 5325   0.216   0.337   1.868
 1476SOL     OW 5326   1.083   0.979   1.789
 1476SOL    HW1 5327   1.151   0.995   1.861
 1476SOL    HW2 5328   0.997   1.023   1.814
 1477SOL     OW 5329   3.361   0.616   5.985
 1477SOL    HW1 5330   3.268   0.581   5.989
 1477SOL    HW2 5331   3.362   0.702   5.933
 1478SOL     OW 5332   6.056   4.650   1.071
 1478SOL    HW1 5333   5.962   4.656   1.036
 1478SOL    HW2 5334   6.116   4.616   0.998
 1479SOL     OW 5335   1.307   4.862   0.476
 1479SOL    HW1 5336   1.404   4.854   0.495
 1479SOL    HW2 5337   1.267   4.771   0.465
 1480SOL     OW 5338   2.250   1.182   6.541
 1480SOL    HW1 5339   2.212   1.186   6.634
 1480SOL    HW2 5340   2.253   1.274   6.502
 1481SOL     OW 5341   5.662   1.814   5.321
 1481SOL    HW1 5342   5.613   1.740   5.277
 1481SOL    HW2 5343   5.650   1.899   5.269
 1482SOL     OW 5344   5.742   1.547   1.237
 1482SOL    HW1 5345   5.718   1.543   1.334
 1482SOL    HW2 5346   5.661   1.526   1.182
 1483SOL     OW 5347   6.819   3.016   6.979
 1483SOL    HW1 5348   6.810   3.111   7.010
 1483SOL    HW2 5349   6.729   2.981   6.953
 1484SOL     OW 5350   6.576   4.403   2.870
 1484SOL    HW1 5351   6.561   4.357   2.958
 1484SOL    HW2 5352   6.488   4.412   2.822
 1485SOL     OW 5353   5.349   2.640   2.540
 1485SOL    HW1 5354   5.342   2.739   2.535
 1485SOL    HW2 5355   5.261   2.599   2.519
 1486SOL     OW 5356   4.494   2.323   3.509
 1486SOL    HW1 5357   4.457   2.329   3.416
 1486SOL    HW2 5358   4.575   2.380   3.517
 1487SOL     OW 5359   6.759   1.714   6.751
 1487SOL    HW1 5360   6.779   1.640   6.687
 1487SOL    HW2 5361   6.704   1.679   6.827
 1488SOL     OW 5362   4.895   1.685   3.100
 1488SOL    HW1 5363   4.863   1.738   3.021
 1488SOL    HW2 5364   4.823   1.622   3.129
 1489SOL     OW 5365   3.786   5.231   4.489
 1489SOL    HW1 5366   3.712   5.298   4.502
 1489SOL    HW2 5367   3.873   5.271   4.516
 1490SOL     OW 5368   0.999   1.893   0.494
 1490SOL    HW1 5369   1.065   1.820   0.479
 1490SOL    HW2 5370   0.911   1.854   0.520
 1491SOL     OW 5371   6.376   4.092   3.469
 1491SOL    HW1 5372   6.382   4.158   3.545
 1491SOL    HW2 5373   6.460   4.038   3.466
 1492SOL     OW 5374   5.177   1.957   1.666
 1492SOL    HW1 5375   5.144   2.045   1.632
 1492SOL    HW2 5376   5.173   1.889   1.593
 1493SOL     OW 5377   4.708   6.923   4.905
 1493SOL    HW1 5378   4.729   6.979   4.825
 1493SOL    HW2 5379   4.774   6.848   4.913
 1494SOL     OW 5380   3.417   2.641   5.294
 1494SOL    HW1 5381   3.420   2.541   5.294
 1494SOL    HW2 5382   3.510   2.677   5.288
 1495SOL     OW 5383   0.330   3.476   3.115
 1495SOL    HW1 5384   0.270   3.412   3.164
 1495SOL    HW2 5385   0.293   3.568   3.125
 1496SOL     OW 5386   0.449   0.501   1.668
 1496SOL    HW1 5387   0.379   0.471   1.733
 1496SOL    HW2 5388   0.471   0.597   1.686
 1497SOL     OW 5389   0.115   4.975   4.297
 1497SOL    HW1 5390   0.098   4.957   4.394
 1497SOL    HW2 5391   0.117   5.074   4.281
 1498SOL     OW 5392   2.389   4.776   6.147
 1498SOL    HW1 5393   2.434   4.713   6.210
 1498SOL    HW2 5394   2.398   4.742   6.054
 1499SOL     OW 5395   1.007   4.209   4.723
 1499SOL    HW1 5396   1.092   4.244   4.684
 1499SOL    HW2 5397   1.012   4.109   4.729
 1500SOL     OW 5398   5.821   6.912   1.087
 1500SOL    HW1 5399   5.796   6.938   1.180
 1500SOL    HW2 5400   5.919   6.931   1.073
 1501SOL     OW 5401   3.934   0.605   6.871
 1501SOL    HW1 5402   3.871   0.575   6.943
 1501SOL    HW2 5403   3.988   0.683   6.904
 1502SOL     OW 5404   6.550   6.613   0.047
 1502SOL    HW1 5405   6.458   6.645   0.070
 1502SOL    HW2 5406   6.544   6.547   6.993
 1503SOL     OW 5407   2.037   2.703   1.056
 1503SOL    HW1 5408   1.953   2.702   1.002
 1503SOL    HW2 5409   2.015   2.686   1.152
 1504SOL     OW 5410   2.478   6.899   4.698
 1504SOL    HW1 5411   2.481   6.973   4.764
 1504SOL    HW2 5412   2.452   6.935   4.608
 1505SOL     OW 5413   5.249   0.501   5.966
 1505SOL    HW1 5414   5.253   0.429   6.035
 1505SOL    HW2 5415   5.237   0.459   5.876
 1506SOL     OW 5416   1.169   4.752   3.650
 1506SOL    HW1 5417   1.069   4.753   3.642
 1506SOL    HW2 5418   1.195   4.766   3.745
 1507SOL     OW 5419   1.532   1.475   4.607
 1507SOL    HW1 5420   1.590   1.480   4.525
 1507SOL    HW2 5421   1.545   1.386   4.651
 1508SOL     OW 5422   4.786   0.031   0.804
 1508SOL    HW1 5423   4.772   0.104   0.737
 1508SOL    HW2 5424   4.831   6.974   0.761
 1509SOL     OW 5425   4.466   2.634   6.553
 1509SOL    HW1 5426   4.430   2.551   6.595
 1509SOL    HW2 5427   4.497   2.614   6.460
 1510SOL     OW 5428   6.560   2.583   4.271
 1510SOL    HW1 5429   6.645   2.634   4.255
 1510SOL    HW2 5430   6.497   2.640   4.324
 1511SOL     OW 5431   2.147   1.536   6.641
 1511SOL    HW1 5432   2.217   1.514   6.708
 1511SOL    HW2 5433   2.172   1.498   6.552
 1512SOL     OW 5434   6.637   6.879   2.389
 1512SOL    HW1 5435   6.576   6.838   2.321
 1512SOL    HW2 5436   6.721   6.826   2.394
 1513SOL     OW 5437   3.504   0.712   3.620
 1513SOL    HW1 5438   3.573   0.649   3.656
 1513SOL    HW2 5439   3.528   0.805   3.646
 1514SOL     OW 5440   5.152   1.595   5.120
 1514SOL    HW1 5441   5.202   1.555   5.197
 1514SOL    HW2 5442   5.155   1.532   5.043
 1515SOL     OW 5443   6.772   3.612   5.542
 1515SOL    HW1 5444   6.853   3.667   5.526
 1515SOL    HW2 5445   6.761   3.546   5.468
 1516SOL     OW 5446   0.997   1.062   1.175
 1516SOL    HW1 5447   0.992   0.963   1.160
 1516SOL    HW2 5448   0.913   1.105   1.141
 1517SOL     OW 5449   4.396   5.411   3.963
 1517SOL    HW1 5450   4.483   5.394   3.916
 1517SOL    HW2 5451   4.410   5.480   4.034
 1518SOL     OW 5452   6.931   4.196   6.851
 1518SOL    HW1 5453   6.868   4.141   6.906
 1518SOL    HW2 5454   6.976   4.263   6.910
 1519SOL     OW 5455   6.986   4.158   1.172
 1519SOL    HW1 5456   7.010   4.130   1.265
 1519SOL    HW2 5457   6.891   4.191   1.170
 1520SOL     OW 5458   2.100   3.577   2.441
 1520SOL    HW1 5459   2.197   3.602   2.438
 1520SOL    HW2 5460   2.077   3.526   2.358
 1521SOL     OW 5461   1.861   3.142   0.085
 1521SOL    HW1 5462   1.808   3.225   0.102
 1521SOL    HW2 5463   1.888   3.101   0.172
 1522SOL     OW 5464   6.802   1.936   6.366
 1522SOL    HW1 5465   6.705   1.960   6.370
 1522SOL    HW2 5466   6.848   1.967   6.449
 1523SOL     OW 5467   5.181   3.433   6.492
 1523SOL    HW1 5468   5.195   3.516   6.547
 1523SOL    HW2 5469   5.141   3.362   6.549
 1524SOL     OW 5470   1.120   1.688   1.592
 1524SOL    HW1 5471   1.040   1.734   1.630
 1524SOL    HW2 5472   1.093   1.636   1.511
 1525SOL     OW 5473   4.537   1.581   5.835
 1525SOL    HW1 5474   4.637   1.589   5.839
 1525SOL    HW2 5475   4.500   1.583   5.928
 1526SOL     OW 5476   0.406   1.176   0.971
 1526SOL    HW1 5477   0.411   1.234   0.890
 1526SOL    HW2 5478   0.426   1.081   0.946
 1527SOL     OW 5479   3.074   1.643   5.058
 1527SOL    HW1 5480   3.061   1.595   4.971
 1527SOL    HW2 5481   3.090   1.576   5.131
 1528SOL     OW 5482   5.003   6.104   2.536
 1528SOL    HW1 5483   5.058   6.062   2.464
 1528SOL    HW2 5484   4.951   6.033   2.583
 1529SOL     OW 5485   4.996   1.070   6.128
 1529SOL    HW1 5486   5.074   1.014   6.100
 1529SOL    HW2 5487   4.934   1.017   6.184
 1530SOL     OW 5488   3.042   6.519   1.423
 1530SOL    HW1 5489   3.112   6.549   1.358
 1530SOL    HW2 5490   2.951   6.534   1.384
 1531SOL     OW 5491   5.657   1.143   5.295
 1531SOL    HW1 5492   5.558   1.139   5.309
 1531SOL    HW2 5493   5.686   1.239   5.290
 1532SOL     OW 5494   3.058   2.041   4.901
 1532SOL    HW1 5495   3.113   2.057   4.819
 1532SOL    HW2 5496   3.059   2.124   4.957
 1533SOL     OW 5497   6.784   3.048   6.185
 1533SOL    HW1 5498   6.834   3.121   6.232
 1533SOL    HW2 5499   6.782   2.967   6.243
 1534SOL     OW 5500   2.061   5.438   0.214
 1534SOL    HW1 5501   2.013   5.433   0.301
 1534SOL    HW2 5502   1.995   5.453   0.140
 1535SOL     OW 5503   5.248   5.071   4.507
 1535SOL    HW1 5504   5.207   4.981   4.497
 1535SOL    HW2 5505   5.327   5.065   4.568
 1536SOL     OW 5506   3.019   5.244   4.010
 1536SOL    HW1 5507   3.068   5.182   4.071
 1536SOL    HW2 5508   2.924   5.253   4.041
 1537SOL     OW 5509   3.250   5.189   3.629
 1537SOL    HW1 5510   3.302   5.227   3.553
 1537SOL    HW2 5511   3.285   5.098   3.652
 1538SOL     OW 5512   3.206   4.592   6.545
 1538SOL    HW1 5513   3.278   4.522   6.547
 1538SOL    HW2 5514   3.233   4.666   6.484
 1539SOL     OW 5515   3.499   4.269   1.612
 1539SOL    HW1 5516   3.400   4.273   1.626
 1539SOL    HW2 5517   3.546   4.304   1.692
 1540SOL     OW 5518   1.291   0.177   4.445
 1540SOL    HW1 5519   1.258   0.083   4.449
 1540SOL    HW2 5520   1.358   0.184   4.371
 1541SOL     OW 5521   4.005   2.712   1.025
 1541SOL    HW1 5522   4.035   2.616   1.021
 1541SOL    HW2 5523   3.923   2.723   0.969
 1542SOL     OW 5524   0.233   5.826   2.042
 1542SOL    HW1 5525   0.291   5.863   1.969
 1542SOL    HW2 5526   0.181   5.748   2.008
 1543SOL     OW 5527   3.431   3.541   3.297
 1543SOL    HW1 5528   3.426   3.587   3.208
 1543SOL    HW2 5529   3.380   3.455   3.292
 1544SOL     OW 5530   3.054   3.724   2.045
 1544SOL    HW1 5531   3.055   3.652   2.114
 1544SOL    HW2 5532   3.047   3.813   2.090
 1545SOL     OW 5533   5.347   0.650   5.175
 1545SOL    HW1 5534   5.267   0.668   5.231
 1545SOL    HW2 5535   5.430   0.676   5.225
 1546SOL     OW 5536   5.956   0.335   6.366
 1546SOL    HW1 5537   5.892   0.395   6.415
 1546SOL    HW2 5538   6.034   0.389   6.333
 1547SOL     OW 5539   2.315   4.404   2.730
 1547SOL    HW1 5540   2.257   4.377   2.654
 1547SOL    HW2 5541   2.382   4.472   2.699
 1548SOL     OW 5542   4.011   4.214   5.915
 1548SOL    HW1 5543   3.917   4.190   5.892
 1548SOL    HW2 5544   4.024   4.313   5.905
 1549SOL     OW 5545   6.458   1.478   1.715
 1549SOL    HW1 5546   6.388   1.466   1.785
 1549SOL    HW2 5547   6.533   1.534   1.752
 1550SOL     OW 5548   2.618   6.729   5.456
 1550SOL    HW1 5549   2.710   6.749   5.424
 1550SOL    HW2 5550   2.551   6.763   5.390
 1551SOL     OW 5551   2.164   3.158   1.409
 1551SOL    HW1 5552   2.199   3.217   1.336
 1551SOL    HW2 5553   2.239   3.104   1.446
 1552SOL     OW 5554   1.077   6.969   0.825
 1552SOL    HW1 5555   1.000   0.007   0.854
 1552SOL    HW2 5556   1.042   6.879   0.799
 1553SOL     OW 5557   5.782   1.512   6.978
 1553SOL    HW1 5558   5.826   1.601   6.996
 1553SOL    HW2 5559   5.853   1.444   6.958
 1554SOL     OW 5560   4.256   2.296   2.848
 1554SOL    HW1 5561   4.190   2.221   2.841
 1554SOL    HW2 5562   4.285   2.323   2.756
 1555SOL     OW 5563   4.861   2.506   5.171
 1555SOL    HW1 5564   4.766   2.479   5.152
 1555SOL    HW2 5565   4.885   2.478   5.264
 1556SOL     OW 5566   3.554   0.030   0.945
 1556SOL    HW1 5567   3.481   0.073   0.892
 1556SOL    HW2 5568   3.535   0.039   1.042
 1557SOL     OW 5569   2.547   2.649   0.956
 1557SOL    HW1 5570   2.539   2.590   1.037
 1557SOL    HW2 5571   2.612   2.722   0.975
 1558SOL     OW 5572   5.924   2.252   5.463
 1558SOL    HW1 5573   5.843   2.224   5.410
 1558SOL    HW2 5574   5.987   2.175   5.472
 1559SOL     OW 5575   0.346   3.689   2.173
 1559SOL    HW1 5576   0.359   3.767   2.112
 1559SOL    HW2 5577   0.348   3.605   2.120
 1560SOL     OW 5578   3.691   1.396   0.505
 1560SOL    HW1 5579   3.672   1.303   0.535
 1560SOL    HW2 5580   3.698   1.456   0.584
 1561SOL     OW 5581   5.383   6.289   2.337
 1561SOL    HW1 5582   5.407   6.339   2.421
 1561SOL    HW2 5583   5.466   6.259   2.291
 1562SOL     OW 5584   2.686   6.469   2.545
 1562SOL    HW1 5585   2.618   6.525   2.591
 1562SOL    HW2 5586   2.663   6.372   2.556
 1563SOL     OW 5587   2.856   2.329   5.166
 1563SOL    HW1 5588   2.927   2.297   5.103
 1563SOL    HW2 5589   2.897   2.351   5.254
 1564SOL     OW 5590   1.247   1.251   2.217
 1564SOL    HW1 5591   1.331   1.209   2.253
 1564SOL    HW2 5592   1.259   1.350   2.213
 1565SOL     OW 5593   4.042   5.382   4.462
 1565SOL    HW1 5594   4.064   5.325   4.383
 1565SOL    HW2 5595   4.088   5.470   4.453
 1566SOL     OW 5596   5.438   4.578   3.737
 1566SOL    HW1 5597   5.537   4.587   3.743
 1566SOL    HW2 5598   5.407   4.601   3.645
 1567SOL     OW 5599   6.008   5.359   6.250
 1567SOL    HW1 5600   6.052   5.339   6.338
 1567SOL    HW2 5601   5.991   5.457   6.243
 1568SOL     OW 5602   2.521   6.153   3.872
 1568SOL    HW1 5603   2.492   6.227   3.811
 1568SOL    HW2 5604   2.452   6.140   3.943
 1569SOL     OW 5605   3.418   0.542   2.909
 1569SOL    HW1 5606   3.417   0.568   2.812
 1569SOL    HW2 5607   3.339   0.582   2.955
 1570SOL     OW 5608   2.831   6.768   6.528
 1570SOL    HW1 5609   2.909   6.726   6.482
 1570SOL    HW2 5610   2.759   6.786   6.462
 1571SOL     OW 5611   1.290   2.346   3.209
 1571SOL    HW1 5612   1.347   2.422   3.178
 1571SOL    HW2 5613   1.271   2.286   3.131
 1572SOL     OW 5614   1.728   5.545   1.543
 1572SOL    HW1 5615   1.731   5.641   1.515
 1572SOL    HW2 5616   1.735   5.538   1.642
 1573SOL     OW 5617   5.204   5.665   1.577
 1573SOL    HW1 5618   5.215   5.595   1.506
 1573SOL    HW2 5619   5.212   5.756   1.535
 1574SOL     OW 5620   5.960   3.244   1.962
 1574SOL    HW1 5621   5.898   3.234   2.040
 1574SOL    HW2 5622   6.053   3.219   1.989
 1575SOL     OW 5623   1.705   0.752   1.237
 1575SOL    HW1 5624   1.607   0.770   1.232
 1575SOL    HW2 5625   1.743   0.797   1.319
 1576SOL     OW 5626   0.655   6.072   2.537
 1576SOL    HW1 5627   0.669   6.155   2.591
 1576SOL    HW2 5628   0.588   6.089   2.466
 1577SOL     OW 5629   2.983   0.588   6.559
 1577SOL    HW1 5630   2.919   0.592   6.482
 1577SOL    HW2 5631   3.032   0.500   6.558
 1578SOL     OW 5632   4.925   0.980   6.972
 1578SOL    HW1 5633   4.945   0.889   7.007
 1578SOL    HW2 5634   4.844   0.977   6.914
 1579SOL     OW 5635   0.883   2.942   1.505
 1579SOL    HW1 5636   0.801   2.907   1.460
 1579SOL    HW2 5637   0.896   2.895   1.592
 1580SOL     OW 5638   3.413   4.111   3.377
 1580SOL    HW1 5639   3.357   4.175   3.323
 1580SOL    HW2 5640   3.433   4.030   3.323
 1581SOL     OW 5641   0.096   4.839   5.388
 1581SOL    HW1 5642   0.099   4.864   5.485
 1581SOL    HW2 5643   0.168   4.889   5.339
 1582SOL     OW 5644   3.954   5.643   4.938
 1582SOL    HW1 5645   3.869   5.592   4.926
 1582SOL    HW2 5646   3.968   5.703   4.860
 1583SOL     OW 5647   0.732   6.417   4.910
 1583SOL    HW1 5648   0.715   6.391   4.815
 1583SOL    HW2 5649   0.797   6.353   4.951
 1584SOL     OW 5650   1.471   4.641   6.998
 1584SOL    HW1 5651   1.516   4.553   7.013
 1584SOL    HW2 5652   1.509   4.686   6.917
 1585SOL     OW 5653   4.249   1.686   3.268
 1585SOL    HW1 5654   4.185   1.693   3.344
 1585SOL    HW2 5655   4.328   1.631   3.296
 1586SOL     OW 5656   3.388   4.902   3.162
 1586SOL    HW1 5657   3.387   4.850   3.247
 1586SOL    HW2 5658   3.305   4.957   3.155
 1587SOL     OW 5659   1.925   5.923   5.359
 1587SOL    HW1 5660   1.893   5.828   5.360
 1587SOL    HW2 5661   1.952   5.947   5.266
 1588SOL     OW 5662   4.574   0.082   2.694
 1588SOL    HW1 5663   4.476   0.095   2.710
 1588SOL    HW2 5664   4.624   0.163   2.724
 1589SOL     OW 5665   6.462   3.724   2.891
 1589SOL    HW1 5666   6.513   3.667   2.956
 1589SOL    HW2 5667   6.410   3.665   2.829
 1590SOL     OW 5668   5.596   2.140   3.377
 1590SOL    HW1 5669   5.591   2.225   3.324
 1590SOL    HW2 5670   5.691   2.122   3.401
 1591SOL     OW 5671   6.667   5.245   1.518
 1591SOL    HW1 5672   6.627   5.337   1.512
 1591SOL    HW2 5673   6.672   5.205   1.426
 1592SOL     OW 5674   1.557   4.441   0.145
 1592SOL    HW1 5675   1.482   4.375   0.152
 1592SOL    HW2 5676   1.551   4.506   0.220
 1593SOL     OW 5677   0.761   6.849   6.176
 1593SOL    HW1 5678   0.678   6.797   6.157
 1593SOL    HW2 5679   0.835   6.820   6.116
 1594SOL     OW 5680   6.545   6.768   1.514
 1594SOL    HW1 5681   6.621   6.814   1.560
 1594SOL    HW2 5682   6.580   6.693   1.458
 1595SOL     OW 5683   1.556   4.047   0.517
 1595SOL    HW1 5684   1.562   4.065   0.419
 1595SOL    HW2 5685   1.620   4.106   0.567
 1596SOL     OW 5686   5.869   3.660   3.105
 1596SOL    HW1 5687   5.933   3.587   3.128
 1596SOL    HW2 5688   5.797   3.624   3.047
 1597SOL     OW 5689   3.120   5.919   0.875
 1597SOL    HW1 5690   3.056   5.913   0.798
 1597SOL    HW2 5691   3.210   5.884   0.846
 1598SOL     OW 5692   1.139   5.443   6.624
 1598SOL    HW1 5693   1.105   5.432   6.531
 1598SOL    HW2 5694   1.063   5.435   6.689
 1599SOL     OW 5695   4.170   4.812   4.848
 1599SOL    HW1 5696   4.078   4.849   4.837
 1599SOL    HW2 5697   4.190   4.800   4.945
 1600SOL     OW 5698   2.716   0.051   2.180
 1600SOL    HW1 5699   2.735   0.147   2.203
 1600SOL    HW2 5700   2.692   0.001   2.264
 1601SOL     OW 5701   0.082   6.398   3.984
 1601SOL    HW1 5702   0.034   6.315   3.954
 1601SOL    HW2 5703   0.171   6.372   4.022
 1602SOL     OW 5704   4.954   5.339   3.924
 1602SOL    HW1 5705   4.940   5.322   4.022
 1602SOL    HW2 5706   5.017   5.417   3.913
 1603SOL     OW 5707   2.689   5.491   4.261
 1603SOL    HW1 5708   2.623   5.487   4.186
 1603SOL    HW2 5709   2.668   5.420   4.328
 1604SOL     OW 5710   4.067   4.639   1.459
 1604SOL    HW1 5711   4.127   4.573   1.505
 1604SOL    HW2 5712   4.038   4.709   1.525
 1605SOL     OW 5713   6.150   5.571   1.137
 1605SOL    HW1 5714   6.221   5.579   1.207
 1605SOL    HW2 5715   6.063   5.547   1.181
 1606SOL     OW 5716   3.830   5.292   5.370
 1606SOL    HW1 5717   3.789   5.222   5.312
 1606SOL    HW2 5718   3.926   5.304   5.345
 1607SOL     OW 5719   4.267   6.883   1.909
 1607SOL    HW1 5720   4.339   6.840   1.964
 1607SOL    HW2 5721   4.180   6.878   1.958
 1608SOL     OW 5722   6.432   0.327   3.460
 1608SOL    HW1 5723   6.483   0.380   3.527
 1608SOL    HW2 5724   6.378   0.256   3.506
 1609SOL     OW 5725   2.801   6.611   0.780
 1609SOL    HW1 5726   2.852   6.695   0.758
 1609SOL    HW2 5727   2.853   6.558   0.847
 1610SOL     OW 5728   4.624   6.357   0.912
 1610SOL    HW1 5729   4.625   6.257   0.920
 1610SOL    HW2 5730   4.702   6.386   0.857
 1611SOL     OW 5731   1.936   3.883   0.836
 1611SOL    HW1 5732   2.019   3.925   0.797
 1611SOL    HW2 5733   1.937   3.893   0.935
 1612SOL     OW 5734   3.020   6.146   1.438
 1612SOL    HW1 5735   3.018   6.046   1.436
 1612SOL    HW2 5736   3.112   6.179   1.416
 1613SOL     OW 5737   0.414   6.073   2.384
 1613SOL    HW1 5738   0.387   6.135   2.458
 1613SOL    HW2 5739   0.409   6.121   2.297
 1614SOL     OW 5740   5.605   2.160   6.292
 1614SOL    HW1 5741   5.675   2.225   6.261
 1614SOL    HW2 5742   5.649   2.087   6.344
 1615SOL     OW 5743   0.148   5.250   6.152
 1615SOL    HW1 5744   0.214   5.294   6.091
 1615SOL    HW2 5745   0.063   5.303   6.154
 1616SOL     OW 5746   3.771   0.640   4.589
 1616SOL    HW1 5747   3.769   0.689   4.502
 1616SOL    HW2 5748   3.857   0.589   4.596
 1617SOL     OW 5749   4.891   0.124   3.476
 1617SOL    HW1 5750   4.931   0.096   3.563
 1617SOL    HW2 5751   4.953   0.099   3.401
 1618SOL     OW 5752   1.416   5.740   2.530
 1618SOL    HW1 5753   1.400   5.692   2.616
 1618SOL    HW2 5754   1.455   5.677   2.463
 1619SOL     OW 5755   0.888   5.071   6.893
 1619SOL    HW1 5756   0.913   5.148   6.835
 1619SOL    HW2 5757   0.943   4.991   6.867
 1620SOL     OW 5758   3.192   5.282   1.369
 1620SOL    HW1 5759   3.284   5.323   1.363
 1620SOL    HW2 5760   3.184   5.230   1.454
 1621SOL     OW 5761   6.517   0.371   1.439
 1621SOL    HW1 5762   6.473   0.288   1.404
 1621SOL    HW2 5763   6.458   0.414   1.507
 1622SOL     OW 5764   0.340   3.931   6.089
 1622SOL    HW1 5765   0.390   4.011   6.122
 1622SOL    HW2 5766   0.242   3.945   6.102
 1623SOL     OW 5767   0.274   2.149   4.454
 1623SOL    HW1 5768   0.344   2.210   4.417
 1623SOL    HW2 5769   0.211   2.124   4.380
 1624SOL     OW 5770   4.432   1.365   6.815
 1624SOL    HW1 5771   4.362   1.354   6.885
 1624SOL    HW2 5772   4.507   1.421   6.850
 1625SOL     OW 5773   1.426   5.093   6.683
 1625SOL    HW1 5774   1.471   5.045   6.759
 1625SOL    HW2 5775   1.404   5.187   6.711
 1626SOL     OW 5776   2.784   1.324   1.887
 1626SOL    HW1 5777   2.738   1.413   1.899
 1626SOL    HW2 5778   2.728   1.265   1.830
 1627SOL     OW 5779   5.575   3.008   4.063
 1627SOL    HW1 5780   5.482   3.023   4.030
 1627SOL    HW2 5781   5.609   3.090   4.109
 1628SOL     OW 5782   4.638   5.996   6.746
 1628SOL    HW1 5783   4.616   6.028   6.838
 1628SOL    HW2 5784   4.737   5.995   6.733
 1629SOL     OW 5785   2.613   1.702   2.975
 1629SOL    HW1 5786   2.632   1.731   2.882
 1629SOL    HW2 5787   2.678   1.745   3.038
 1630SOL     OW 5788   6.484   4.304   5.746
 1630SOL    HW1 5789   6.515   4.250   5.824
 1630SOL    HW2 5790   6.501   4.253   5.661
 1631SOL     OW 5791   6.678   3.037   0.735
 1631SOL    HW1 5792   6.633   3.075   0.654
 1631SOL    HW2 5793   6.772   3.071   0.739
 1632SOL     OW 5794   4.780   4.856   2.665
 1632SOL    HW1 5795   4.764   4.768   2.620
 1632SOL    HW2 5796   4.692   4.901   2.681
 1633SOL     OW 5797   4.760   4.161   4.465
 1633SOL    HW1 5798   4.789   4.242   4.515
 1633SOL    HW2 5799   4.748   4.085   4.529
 1634SOL     OW 5800   4.148   0.855   4.517
 1634SOL    HW1 5801   4.222   0.805   4.472
 1634SOL    HW2 5802   4.140   0.946   4.478
 1635SOL     OW 5803   2.416   5.428   6.306
 1635SOL    HW1 5804   2.392   5.415   6.402
 1635SOL    HW2 5805   2.377   5.354   6.252
 1636SOL     OW 5806   3.891   5.319   0.847
 1636SOL    HW1 5807   3.877   5.408   0.892
 1636SOL    HW2 5808   3.985   5.313   0.814
 1637SOL     OW 5809   6.506   6.515   3.973
 1637SOL    HW1 5810   6.594   6.476   3.947
 1637SOL    HW2 5811   6.510   6.547   4.068
 1638SOL     OW 5812   0.353   3.042   1.387
 1638SOL    HW1 5813   0.400   3.130   1.391
 1638SOL    HW2 5814   0.318   3.027   1.294
 1639SOL     OW 5815   6.930   4.254   2.162
 1639SOL    HW1 5816   6.994   4.305   2.220
 1639SOL    HW2 5817   6.947   4.156   2.172
 1640SOL     OW 5818   6.679   0.327   0.687
 1640SOL    HW1 5819   6.666   0.228   0.693
 1640SOL    HW2 5820   6.695   0.352   0.591
 1641SOL     OW 5821   6.844   2.635   3.443
 1641SOL    HW1 5822   6.759   2.596   3.406
 1641SOL    HW2 5823   6.854   2.606   3.538
 1642SOL     OW 5824   0.331   2.634   6.260
 1642SOL    HW1 5825   0.240   2.652   6.298
 1642SOL    HW2 5826   0.400   2.668   6.323
 1643SOL     OW 5827   3.381   4.905   2.849
 1643SOL    HW1 5828   3.292   4.876   2.814
 1643SOL    HW2 5829   3.410   4.844   2.923
 1644SOL     OW 5830   5.737   3.303   6.604
 1644SOL    HW1 5831   5.803   3.233   6.629
 1644SOL    HW2 5832   5.665   3.307   6.674
 1645SOL     OW 5833   2.679   6.850   6.239
 1645SOL    HW1 5834   2.702   6.928   6.181
 1645SOL    HW2 5835   2.587   6.818   6.216
 1646SOL     OW 5836   1.920   6.293   0.427
 1646SOL    HW1 5837   1.925   6.246   0.515
 1646SOL    HW2 5838   2.012   6.301   0.388
 1647SOL     OW 5839   5.570   2.728   4.078
 1647SOL    HW1 5840   5.494   2.711   4.140
 1647SOL    HW2 5841   5.576   2.826   4.058
 1648SOL     OW 5842   5.391   6.374   0.166
 1648SOL    HW1 5843   5.385   6.294   0.225
 1648SOL    HW2 5844   5.372   6.456   0.219
 1649SOL     OW 5845   3.715   1.236   3.624
 1649SOL    HW1 5846   3.783   1.166   3.605
 1649SOL    HW2 5847   3.731   1.275   3.715
 1650SOL     OW 5848   1.280   5.531   5.854
 1650SOL    HW1 5849   1.240   5.621   5.837
 1650SOL    HW2 5850   1.210   5.468   5.888
 1651SOL     OW 5851   0.616   2.382   2.729
 1651SOL    HW1 5852   0.615   2.450   2.802
 1651SOL    HW2 5853   0.525   2.341   2.721
 1652SOL     OW 5854   1.205   3.400   2.197
 1652SOL    HW1 5855   1.243   3.327   2.253
 1652SOL    HW2 5856   1.107   3.385   2.184
 1653SOL     OW 5857   0.073   5.574   1.917
 1653SOL    HW1 5858   0.089   5.522   1.833
 1653SOL    HW2 5859   0.025   5.516   1.983
 1654SOL     OW 5860   0.407   3.049   1.114
 1654SOL    HW1 5861   0.381   2.991   1.036
 1654SOL    HW2 5862   0.432   3.140   1.080
 1655SOL     OW 5863   6.645   1.302   4.626
 1655SOL    HW1 5864   6.683   1.213   4.647
 1655SOL    HW2 5865   6.718   1.363   4.593
 1656SOL     OW 5866   2.867   5.542   3.817
 1656SOL    HW1 5867   2.958   5.531   3.856
 1656SOL    HW2 5868   2.862   5.494   3.730
 1657SOL     OW 5869   6.351   0.804   5.321
 1657SOL    HW1 5870   6.252   0.797   5.329
 1657SOL    HW2 5871   6.379   0.787   5.227
 1658SOL     OW 5872   7.011   0.419   0.955
 1658SOL    HW1 5873   0.020   0.324   0.940
 1658SOL    HW2 5874   6.916   0.429   0.925
 1659SOL     OW 5875   3.659   0.309   0.052
 1659SOL    HW1 5876   3.700   0.351   0.133
 1659SOL    HW2 5877   3.580   0.364   0.022
 1660SOL     OW 5878   1.274   0.359   2.515
 1660SOL    HW1 5879   1.262   0.268   2.475
 1660SOL    HW2 5880   1.337   0.413   2.458
 1661SOL     OW 5881   3.106   5.444   2.100
 1661SOL    HW1 5882   3.066   5.517   2.155
 1661SOL    HW2 5883   3.134   5.480   2.011
 1662SOL     OW 5884   6.381   0.467   5.203
 1662SOL    HW1 5885   6.331   0.459   5.289
 1662SOL    HW2 5886   6.451   0.538   5.211
 1663SOL     OW 5887   5.333   5.580   2.169
 1663SOL    HW1 5888   5.283   5.500   2.200
 1663SOL    HW2 5889   5.421   5.584   2.217
 1664SOL     OW 5890   1.921   6.917   5.474
 1664SOL    HW1 5891   1.997   6.872   5.522
 1664SOL    HW2 5892   1.955   6.999   5.428
 1665SOL     OW 5893   0.077   3.680   1.954
 1665SOL    HW1 5894   0.045   3.654   1.863
 1665SOL    HW2 5895   0.000   3.681   2.018
 1666SOL     OW 5896   5.964   0.004   0.042
 1666SOL    HW1 5897   5.925   0.074   0.101
 1666SOL    HW2 5898   6.039   6.978   0.089
 1667SOL     OW 5899   6.395   6.402   1.304
 1667SOL    HW1 5900   6.404   6.497   1.272
 1667SOL    HW2 5901   6.301   6.386   1.334
 1668SOL     OW 5902   4.855   4.715   3.136
 1668SOL    HW1 5903   4.880   4.619   3.140
 1668SOL    HW2 5904   4.935   4.772   3.157
 1669SOL     OW 5905   6.899   4.403   5.666
 1669SOL    HW1 5906   6.997   4.413   5.654
 1669SOL    HW2 5907   6.851   4.470   5.610
 1670SOL     OW 5908   0.763   4.507   5.699
 1670SOL    HW1 5909   0.667   4.481   5.688
 1670SOL    HW2 5910   0.792   4.560   5.619
 1671SOL     OW 5911   5.808   1.718   3.272
 1671SOL    HW1 5912   5.793   1.684   3.179
 1671SOL    HW2 5913   5.776   1.812   3.278
 1672SOL     OW 5914   1.642   4.486   6.116
 1672SOL    HW1 5915   1.565   4.537   6.077
 1672SOL    HW2 5916   1.727   4.537   6.102
 1673SOL     OW 5917   1.802   1.489   4.743
 1673SOL    HW1 5918   1.810   1.389   4.743
 1673SOL    HW2 5919   1.714   1.516   4.704
 1674SOL     OW 5920   6.442   2.721   2.245
 1674SOL    HW1 5921   6.472   2.679   2.331
 1674SOL    HW2 5922   6.521   2.753   2.194
 1675SOL     OW 5923   5.242   0.216   0.790
 1675SOL    HW1 5924   5.234   0.249   0.696
 1675SOL    HW2 5925   5.153   0.185   0.822
 1676SOL     OW 5926   2.421   2.280   2.114
 1676SOL    HW1 5927   2.393   2.373   2.091
 1676SOL    HW2 5928   2.365   2.245   2.188
 1677SOL     OW 5929   3.815   3.591   3.525
 1677SOL    HW1 5930   3.895   3.579   3.583
 1677SOL    HW2 5931   3.794   3.505   3.478
 1678SOL     OW 5932   0.242   5.816   1.548
 1678SOL    HW1 5933   0.171   5.745   1.549
 1678SOL    HW2 5934   0.199   5.906   1.548
 1679SOL     OW 5935   1.544   1.160   4.689
 1679SOL    HW1 5936   1.479   1.208   4.748
 1679SOL    HW2 5937   1.635   1.199   4.701
 1680SOL     OW 5938   5.415   3.424   5.524
 1680SOL    HW1 5939   5.399   3.351   5.458
 1680SOL    HW2 5940   5.335   3.436   5.582
 1681SOL     OW 5941   2.198   5.558   4.892
 1681SOL    HW1 5942   2.122   5.622   4.879
 1681SOL    HW2 5943   2.279   5.593   4.843
 1682SOL     OW 5944   2.293   1.112   5.758
 1682SOL    HW1 5945   2.305   1.026   5.808
 1682SOL    HW2 5946   2.206   1.109   5.709
 1683SOL     OW 5947   5.732   6.197   3.129
 1683SOL    HW1 5948   5.816   6.204   3.075
 1683SOL    HW2 5949   5.751   6.221   3.225
 1684SOL     OW 5950   0.782   5.179   1.974
 1684SOL    HW1 5951   0.783   5.249   2.045
 1684SOL    HW2 5952   0.789   5.089   2.016
 1685SOL     OW 5953   1.815   1.965   5.496
 1685SOL    HW1 5954   1.780   1.988   5.588
 1685SOL    HW2 5955   1.893   1.903   5.505
 1686SOL     OW 5956   3.583   5.814   4.088
 1686SOL    HW1 5957   3.499   5.779   4.129
 1686SOL    HW2 5958   3.621   5.887   4.146
 1687SOL     OW 5959   0.535   3.805   1.884
 1687SOL    HW1 5960   0.438   3.825   1.898
 1687SOL    HW2 5961   0.559   3.820   1.788
 1688SOL     OW 5962   1.798   2.570   3.750
 1688SOL    HW1 5963   1.866   2.519   3.698
 1688SOL    HW2 5964   1.843   2.648   3.794
 1689SOL     OW 5965   6.181   1.153   3.091
 1689SOL    HW1 5966   6.201   1.105   3.177
 1689SOL    HW2 5967   6.168   1.086   3.018
 1690SOL     OW 5968   0.772   3.273   4.349
 1690SOL    HW1 5969   0.769   3.326   4.433
 1690SOL    HW2 5970   0.824   3.188   4.365
 1691SOL     OW 5971   5.168   3.241   3.992
 1691SOL    HW1 5972   5.101   3.294   4.043
 1691SOL    HW2 5973   5.240   3.302   3.958
 1692SOL     OW 5974   5.388   5.266   1.252
 1692SOL    HW1 5975   5.343   5.188   1.209
 1692SOL    HW2 5976   5.462   5.298   1.192
 1693SOL     OW 5977   6.660   1.692   4.520
 1693SOL    HW1 5978   6.728   1.623   4.544
 1693SOL    HW2 5979   6.707   1.779   4.502
 1694SOL     OW 5980   6.302   0.409   4.556
 1694SOL    HW1 5981   6.229   0.341   4.566
 1694SOL    HW2 5982   6.275   0.476   4.487
 1695SOL     OW 5983   3.517   0.765   6.949
 1695SOL    HW1 5984   3.497   0.840   7.013
 1695SOL    HW2 5985   3.528   0.802   6.857
 1696SOL     OW 5986   3.860   5.966   0.851
 1696SOL    HW1 5987   3.885   5.921   0.936
 1696SOL    HW2 5988   3.814   6.053   0.871
 1697SOL     OW 5989   5.875   2.697   0.876
 1697SOL    HW1 5990   5.794   2.745   0.909
 1697SOL    HW2 5991   5.850   2.603   0.850
 1698SOL     OW 5992   3.495   1.043   1.664
 1698SOL    HW1 5993   3.520   1.130   1.706
 1698SOL    HW2 5994   3.558   0.971   1.695
 1699SOL     OW 5995   2.601   1.787   5.638
 1699SOL    HW1 5996   2.630   1.867   5.585
 1699SOL    HW2 5997   2.677   1.723   5.647
 1700SOL     OW 5998   5.799   3.237   3.664
 1700SOL    HW1 5999   5.763   3.168   3.601
 1700SOL    HW2 6000   5.754   3.325   3.647
 1701SOL     OW 6001   5.937   4.972   5.390
 1701SOL    HW1 6002   6.032   4.995   5.410
 1701SOL    HW2 6003   5.877   5.035   5.440
 1702SOL     OW 6004   1.077   1.352   6.588
 1702SOL    HW1 6005   1.013   1.325   6.659
 1702SOL    HW2 6006   1.110   1.445   6.607
 1703SOL     OW 6007   4.403   1.540   6.110
 1703SOL    HW1 6008   4.485   1.492   6.140
 1703SOL    HW2 6009   4.332   1.474   6.086
 1704SOL     OW 6010   1.064   1.855   6.825
 1704SOL    HW1 6011   1.018   1.794   6.890
 1704SOL    HW2 6012   1.163   1.847   6.837
 1705SOL     OW 6013   3.773   1.808   1.707
 1705SOL    HW1 6014   3.694   1.856   1.743
 1705SOL    HW2 6015   3.847   1.811   1.775
 1706SOL     OW 6016   4.507   1.584   1.233
 1706SOL    HW1 6017   4.409   1.601   1.227
 1706SOL    HW2 6018   4.548   1.648   1.298
 1707SOL     OW 6019   4.798   2.188   2.445
 1707SOL    HW1 6020   4.716   2.174   2.389
 1707SOL    HW2 6021   4.774   2.186   2.541
 1708SOL     OW 6022   4.209   5.297   1.462
 1708SOL    HW1 6023   4.139   5.355   1.505
 1708SOL    HW2 6024   4.197   5.203   1.491
 1709SOL     OW 6025   3.885   6.353   0.571
 1709SOL    HW1 6026   3.925   6.444   0.558
 1709SOL    HW2 6027   3.957   6.284   0.567
 1710SOL     OW 6028   3.955   4.873   3.210
 1710SOL    HW1 6029   4.013   4.829   3.142
 1710SOL    HW2 6030   3.861   4.880   3.174
 1711SOL     OW 6031   2.305   4.927   5.179
 1711SOL    HW1 6032   2.369   4.922   5.256
 1711SOL    HW2 6033   2.352   4.964   5.099
 1712SOL     OW 6034   6.752   2.287   4.656
 1712SOL    HW1 6035   6.755   2.321   4.562
 1712SOL    HW2 6036   6.833   2.317   4.705
 1713SOL     OW 6037   3.900   1.213   3.041
 1713SOL    HW1 6038   3.829   1.275   3.005
 1713SOL    HW2 6039   3.856   1.135   3.085
 1714SOL     OW 6040   3.687   1.902   0.278
 1714SOL    HW1 6041   3.698   1.935   0.184
 1714SOL    HW2 6042   3.703   1.803   0.281
 1715SOL     OW 6043   2.267   5.925   2.673
 1715SOL    HW1 6044   2.175   5.912   2.711
 1715SOL    HW2 6045   2.261   5.928   2.573
 1716SOL     OW 6046   4.487   0.192   3.922
 1716SOL    HW1 6047   4.449   0.269   3.870
 1716SOL    HW2 6048   4.568   0.222   3.972
 1717SOL     OW 6049   3.688   5.087   5.251
 1717SOL    HW1 6050   3.626   5.078   5.173
 1717SOL    HW2 6051   3.652   5.035   5.328
 1718SOL     OW 6052   2.531   1.819   2.392
 1718SOL    HW1 6053   2.486   1.878   2.325
 1718SOL    HW2 6054   2.627   1.846   2.401
 1719SOL     OW 6055   1.964   4.371   0.890
 1719SOL    HW1 6056   1.904   4.292   0.883
 1719SOL    HW2 6057   1.939   4.425   0.971
 1720SOL     OW 6058   0.113   2.635   5.746
 1720SOL    HW1 6059   0.101   2.603   5.840
 1720SOL    HW2 6060   0.135   2.733   5.747
 1721SOL     OW 6061   1.257   0.381   1.901
 1721SOL    HW1 6062   1.206   0.305   1.862
 1721SOL    HW2 6063   1.333   0.406   1.841
 1722SOL     OW 6064   3.938   1.851   3.096
 1722SOL    HW1 6065   3.884   1.932   3.121
 1722SOL    HW2 6066   3.936   1.840   2.997
 1723SOL     OW 6067   4.403   2.149   6.590
 1723SOL    HW1 6068   4.377   2.242   6.563
 1723SOL    HW2 6069   4.326   2.088   6.577
 1724SOL     OW 6070   6.651   2.212   1.856
 1724SOL    HW1 6071   6.617   2.304   1.874
 1724SOL    HW2 6072   6.743   2.217   1.816
 1725SOL     OW 6073   2.019   5.260   6.792
 1725SOL    HW1 6074   2.088   5.218   6.734
 1725SOL    HW2 6075   1.979   5.338   6.745
 1726SOL     OW 6076   5.490   3.862   3.866
 1726SOL    HW1 6077   5.405   3.848   3.916
 1726SOL    HW2 6078   5.499   3.791   3.796
 1727SOL     OW 6079   3.683   3.659   2.865
 1727SOL    HW1 6080   3.752   3.695   2.803
 1727SOL    HW2 6081   3.728   3.607   2.938
 1728SOL     OW 6082   4.888   4.013   5.493
 1728SOL    HW1 6083   4.916   4.109   5.490
 1728SOL    HW2 6084   4.901   3.971   5.403
 1729SOL     OW 6085   1.071   3.969   3.109
 1729SOL    HW1 6086   1.022   4.053   3.085
 1729SOL    HW2 6087   1.121   3.935   3.029
 1730SOL     OW 6088   3.043   6.353   5.145
 1730SOL    HW1 6089   2.950   6.389   5.136
 1730SOL    HW2 6090   3.108   6.429   5.149
 1731SOL     OW 6091   5.557   4.829   3.942
 1731SOL    HW1 6092   5.553   4.734   3.911
 1731SOL    HW2 6093   5.569   4.831   4.041
 1732SOL     OW 6094   1.649   4.417   6.402
 1732SOL    HW1 6095   1.644   4.456   6.311
 1732SOL    HW2 6096   1.742   4.385   6.420
 1733SOL     OW 6097   2.512   4.211   1.536
 1733SOL    HW1 6098   2.546   4.272   1.608
 1733SOL    HW2 6099   2.412   4.204   1.542
 1734SOL     OW 6100   5.822   3.178   0.997
 1734SOL    HW1 6101   5.852   3.126   0.918
 1734SOL    HW2 6102   5.902   3.206   1.051
 1735SOL     OW 6103   4.176   5.573   6.062
 1735SOL    HW1 6104   4.121   5.508   6.010
 1735SOL    HW2 6105   4.136   5.665   6.054
 1736SOL     OW 6106   4.177   4.041   0.763
 1736SOL    HW1 6107   4.193   4.104   0.839
 1736SOL    HW2 6108   4.096   3.985   0.782
 1737SOL     OW 6109   5.229   0.302   4.665
 1737SOL    HW1 6110   5.268   0.241   4.596
 1737SOL    HW2 6111   5.278   0.389   4.663
 1738SOL     OW 6112   1.583   3.860   4.496
 1738SOL    HW1 6113   1.527   3.781   4.520
 1738SOL    HW2 6114   1.577   3.929   4.568
 1739SOL     OW 6115   6.052   0.276   4.452
 1739SOL    HW1 6116   6.024   0.230   4.537
 1739SOL    HW2 6117   6.017   0.224   4.374
 1740SOL     OW 6118   6.823   1.799   4.836
 1740SOL    HW1 6119   6.760   1.876   4.841
 1740SOL    HW2 6120   6.773   1.714   4.849
 1741SOL     OW 6121   2.293   1.687   3.599
 1741SOL    HW1 6122   2.367   1.723   3.542
 1741SOL    HW2 6123   2.331   1.652   3.685
 1742SOL     OW 6124   5.730   1.271   6.238
 1742SOL    HW1 6125   5.634   1.252   6.256
 1742SOL    HW2 6126   5.775   1.300   6.323
 1743SOL     OW 6127   1.368   1.246   2.910
 1743SOL    HW1 6128   1.383   1.171   2.845
 1743SOL    HW2 6129   1.405   1.330   2.872
 1744SOL     OW 6130   4.919   2.658   3.064
 1744SOL    HW1 6131   4.928   2.592   2.989
 1744SOL    HW2 6132   5.002   2.659   3.119
 1745SOL     OW 6133   6.499   6.383   2.133
 1745SOL    HW1 6134   6.435   6.354   2.204
 1745SOL    HW2 6135   6.450   6.429   2.060
 1746SOL     OW 6136   2.033   3.781   4.024
 1746SOL    HW1 6137   2.081   3.727   4.093
 1746SOL    HW2 6138   1.992   3.721   3.956
 1747SOL     OW 6139   4.008   1.410   2.135
 1747SOL    HW1 6140   4.028   1.401   2.232
 1747SOL    HW2 6141   3.913   1.439   2.122
 1748SOL     OW 6142   6.308   1.321   4.320
 1748SOL    HW1 6143   6.326   1.257   4.395
 1748SOL    HW2 6144   6.395   1.355   4.284
 1749SOL     OW 6145   3.407   6.524   0.349
 1749SOL    HW1 6146   3.440   6.490   0.437
 1749SOL    HW2 6147   3.332   6.466   0.317
 1750SOL     OW 6148   4.116   0.287   4.801
 1750SOL    HW1 6149   4.109   0.237   4.887
 1750SOL    HW2 6150   4.183   0.361   4.810
 1751SOL     OW 6151   6.194   2.543   4.938
 1751SOL    HW1 6152   6.167   2.496   4.854
 1751SOL    HW2 6153   6.221   2.637   4.916
 1752SOL     OW 6154   6.298   1.131   1.154
 1752SOL    HW1 6155   6.311   1.226   1.125
 1752SOL    HW2 6156   6.281   1.074   1.073
 1753SOL     OW 6157   6.699   1.640   1.809
 1753SOL    HW1 6158   6.751   1.644   1.724
 1753SOL    HW2 6159   6.728   1.560   1.862
 1754SOL     OW 6160   2.294   6.043   5.876
 1754SOL    HW1 6161   2.380   5.990   5.878
 1754SOL    HW2 6162   2.224   5.994   5.928
 1755SOL     OW 6163   6.670   5.979   5.594
 1755SOL    HW1 6164   6.715   6.061   5.557
 1755SOL    HW2 6165   6.675   5.981   5.694
 1756SOL     OW 6166   4.216   6.877   6.260
 1756SOL    HW1 6167   4.282   6.936   6.306
 1756SOL    HW2 6168   4.258   6.788   6.242
 1757SOL     OW 6169   3.267   5.195   4.443
 1757SOL    HW1 6170   3.304   5.109   4.478
 1757SOL    HW2 6171   3.326   5.229   4.370
 1758SOL     OW 6172   1.472   0.034   4.720
 1758SOL    HW1 6173   1.481   7.015   4.628
 1758SOL    HW2 6174   1.396   0.099   4.720
 1759SOL     OW 6175   1.345   6.701   5.928
 1759SOL    HW1 6176   1.370   6.729   5.835
 1759SOL    HW2 6177   1.321   6.782   5.982
 1760SOL     OW 6178   6.221   1.069   5.057
 1760SOL    HW1 6179   6.285   0.993   5.054
 1760SOL    HW2 6180   6.240   1.127   5.136
 1761SOL     OW 6181   0.365   0.916   0.883
 1761SOL    HW1 6182   0.289   0.881   0.939
 1761SOL    HW2 6183   0.420   0.839   0.851
 1762SOL     OW 6184   0.347   1.310   4.927
 1762SOL    HW1 6185   0.271   1.322   4.990
 1762SOL    HW2 6186   0.411   1.387   4.937
 1763SOL     OW 6187   0.754   4.195   5.212
 1763SOL    HW1 6188   0.690   4.267   5.239
 1763SOL    HW2 6189   0.774   4.204   5.114
 1764SOL     OW 6190   0.827   3.670   2.224
 1764SOL    HW1 6191   0.837   3.728   2.305
 1764SOL    HW2 6192   0.812   3.727   2.144
 1765SOL     OW 6193   4.455   2.498   1.586
 1765SOL    HW1 6194   4.473   2.596   1.589
 1765SOL    HW2 6195   4.487   2.461   1.499
 1766SOL     OW 6196   4.997   4.346   4.195
 1766SOL    HW1 6197   5.021   4.417   4.261
 1766SOL    HW2 6198   5.064   4.271   4.200
 1767SOL     OW 6199   0.694   4.722   2.713
 1767SOL    HW1 6200   0.693   4.749   2.617
 1767SOL    HW2 6201   0.726   4.799   2.769
 1768SOL     OW 6202   4.718   0.427   0.856
 1768SOL    HW1 6203   4.794   0.451   0.916
 1768SOL    HW2 6204   4.751   0.374   0.778
 1769SOL     OW 6205   5.688   0.974   0.049
 1769SOL    HW1 6206   5.736   0.946   6.987
 1769SOL    HW2 6207   5.705   1.071   0.066
 1770SOL     OW 6208   0.555   4.235   5.790
 1770SOL    HW1 6209   0.649   4.246   5.822
 1770SOL    HW2 6210   0.535   4.138   5.775
 1771SOL     OW 6211   1.289   5.195   0.081
 1771SOL    HW1 6212   1.355   5.229   0.015
 1771SOL    HW2 6213   1.266   5.100   0.060
 1772SOL     OW 6214   3.780   5.319   4.085
 1772SOL    HW1 6215   3.879   5.309   4.091
 1772SOL    HW2 6216   3.738   5.231   4.062
 1773SOL     OW 6217   1.261   1.425   4.962
 1773SOL    HW1 6218   1.283   1.500   5.024
 1773SOL    HW2 6219   1.256   1.460   4.868
 1774SOL     OW 6220   5.645   6.784   2.209
 1774SOL    HW1 6221   5.639   6.808   2.113
 1774SOL    HW2 6222   5.651   6.684   2.218
 1775SOL     OW 6223   2.059   5.488   5.889
 1775SOL    HW1 6224   2.022   5.580   5.900
 1775SOL    HW2 6225   2.033   5.453   5.799
 1776SOL     OW 6226   4.703   0.548   5.651
 1776SOL    HW1 6227   4.629   0.558   5.585
 1776SOL    HW2 6228   4.696   0.459   5.696
 1777SOL     OW 6229   3.771   6.841   6.377
 1777SOL    HW1 6230   3.673   6.823   6.388
 1777SOL    HW2 6231   3.790   6.865   6.281
 1778SOL     OW 6232   5.089   1.375   4.340
 1778SOL    HW1 6233   5.179   1.362   4.381
 1778SOL    HW2 6234   5.091   1.349   4.244
 1779SOL     OW 6235   5.117   6.898   5.538
 1779SOL    HW1 6236   5.141   6.961   5.465
 1779SOL    HW2 6237   5.017   6.897   5.551
 1780SOL     OW 6238   1.490   4.947   4.564
 1780SOL    HW1 6239   1.566   4.914   4.621
 1780SOL    HW2 6240   1.519   4.950   4.469
 1781SOL     OW 6241   5.223   6.947   4.572
 1781SOL    HW1 6242   5.165   6.940   4.653
 1781SOL    HW2 6243   5.319   6.951   4.600
 1782SOL     OW 6244   2.005   1.586   2.867
 1782SOL    HW1 6245   1.927   1.648   2.863
 1782SOL    HW2 6246   2.066   1.605   2.790
 1783SOL     OW 6247   2.522   3.392   6.210
 1783SOL    HW1 6248   2.444   3.351   6.162
 1783SOL    HW2 6249   2.605   3.379   6.155
 1784SOL     OW 6250   2.370   0.705   1.252
 1784SOL    HW1 6251   2.423   0.790   1.244
 1784SOL    HW2 6252   2.431   0.627   1.241
 1785SOL     OW 6253   0.338   6.321   4.091
 1785SOL    HW1 6254   0.380   6.245   4.140
 1785SOL    HW2 6255   0.372   6.323   3.997
 1786SOL     OW 6256   1.600   5.460   0.766
 1786SOL    HW1 6257   1.580   5.410   0.850
 1786SOL    HW2 6258   1.655   5.540   0.787
 1787SOL     OW 6259   1.216   2.435   5.252
 1787SOL    HW1 6260   1.208   2.493   5.333
 1787SOL    HW2 6261   1.175   2.481   5.173
 1788SOL     OW 6262   4.962   3.875   0.238
 1788SOL    HW1 6263   5.029   3.847   0.307
 1788SOL    HW2 6264   4.890   3.806   0.231
 1789SOL     OW 6265   6.370   3.356   2.106
 1789SOL    HW1 6266   6.287   3.374   2.053
 1789SOL    HW2 6267   6.391   3.258   2.102
 1790SOL     OW 6268   2.891   1.424   4.539
 1790SOL    HW1 6269   2.820   1.488   4.509
 1790SOL    HW2 6270   2.973   1.476   4.566
 1791SOL     OW 6271   5.659   0.880   3.948
 1791SOL    HW1 6272   5.569   0.919   3.933
 1791SOL    HW2 6273   5.676   0.871   4.046
 1792SOL     OW 6274   6.855   1.550   5.228
 1792SOL    HW1 6275   6.860   1.649   5.215
 1792SOL    HW2 6276   6.871   1.503   5.141
 1793SOL     OW 6277   6.835   1.100   5.058
 1793SOL    HW1 6278   6.758   1.041   5.086
 1793SOL    HW2 6279   6.799   1.185   5.020
 1794SOL     OW 6280   6.292   0.502   6.624
 1794SOL    HW1 6281   6.306   0.475   6.720
 1794SOL    HW2 6282   6.339   0.589   6.607
 1795SOL     OW 6283   5.952   4.829   0.274
 1795SOL    HW1 6284   5.885   4.760   0.250
 1795SOL    HW2 6285   5.905   4.915   0.294
 1796SOL     OW 6286   1.486   0.988   5.427
 1796SOL    HW1 6287   1.546   0.975   5.506
 1796SOL    HW2 6288   1.405   0.929   5.437
 1797SOL     OW 6289   1.664   6.792   5.073
 1797SOL    HW1 6290   1.678   6.833   4.983
 1797SOL    HW2 6291   1.624   6.701   5.062
 1798SOL     OW 6292   3.705   3.224   4.434
 1798SOL    HW1 6293   3.656   3.256   4.352
 1798SOL    HW2 6294   3.803   3.227   4.416
 1799SOL     OW 6295   3.955   1.006   6.608
 1799SOL    HW1 6296   3.861   1.026   6.579
 1799SOL    HW2 6297   4.002   1.091   6.632
 1800SOL     OW 6298   5.056   4.429   3.904
 1800SOL    HW1 6299   5.018   4.405   3.994
 1800SOL    HW2 6300   5.037   4.526   3.885
 1801SOL     OW 6301   1.269   1.583   1.872
 1801SOL    HW1 6302   1.281   1.619   1.780
 1801SOL    HW2 6303   1.240   1.487   1.867
 1802SOL     OW 6304   6.370   5.363   3.469
 1802SOL    HW1 6305   6.357   5.452   3.426
 1802SOL    HW2 6306   6.372   5.292   3.398
 1803SOL     OW 6307   0.244   6.308   2.552
 1803SOL    HW1 6308   0.196   6.378   2.605
 1803SOL    HW2 6309   0.211   6.217   2.579
 1804SOL     OW 6310   3.222   3.624   6.041
 1804SOL    HW1 6311   3.187   3.689   5.973
 1804SOL    HW2 6312   3.151   3.559   6.064
 1805SOL     OW 6313   0.992   6.390   5.949
 1805SOL    HW1 6314   1.090   6.400   5.966
 1805SOL    HW2 6315   0.942   6.458   6.004
 1806SOL     OW 6316   6.592   2.019   2.495
 1806SOL    HW1 6317   6.686   2.044   2.477
 1806SOL    HW2 6318   6.562   2.058   2.582
 1807SOL     OW 6319   6.328   3.643   0.625
 1807SOL    HW1 6320   6.306   3.547   0.605
 1807SOL    HW2 6321   6.366   3.650   0.717
 1808SOL     OW 6322   5.383   2.695   5.071
 1808SOL    HW1 6323   5.477   2.722   5.092
 1808SOL    HW2 6324   5.320   2.750   5.127
 1809SOL     OW 6325   3.283   1.995   5.332
 1809SOL    HW1 6326   3.262   2.054   5.410
 1809SOL    HW2 6327   3.219   2.015   5.257
 1810SOL     OW 6328   0.643   0.488   4.055
 1810SOL    HW1 6329   0.630   0.518   3.960
 1810SOL    HW2 6330   0.555   0.487   4.102
 1811SOL     OW 6331   4.550   4.872   1.905
 1811SOL    HW1 6332   4.547   4.914   1.814
 1811SOL    HW2 6333   4.535   4.773   1.896
 1812SOL     OW 6334   4.390   0.137   5.856
 1812SOL    HW1 6335   4.323   0.085   5.910
 1812SOL    HW2 6336   4.380   0.114   5.759
 1813SOL     OW 6337   4.775   4.628   2.514
 1813SOL    HW1 6338   4.680   4.595   2.512
 1813SOL    HW2 6339   4.823   4.596   2.433
 1814SOL     OW 6340   6.871   7.014   1.018
 1814SOL    HW1 6341   6.854   0.007   0.920
 1814SOL    HW2 6342   6.919   0.074   1.054
 1815SOL     OW 6343   5.437   5.871   2.398
 1815SOL    HW1 6344   5.459   5.775   2.413
 1815SOL    HW2 6345   5.476   5.901   2.311
 1816SOL     OW 6346   4.072   6.156   5.457
 1816SOL    HW1 6347   4.160   6.194   5.431
 1816SOL    HW2 6348   4.023   6.221   5.515
 1817SOL     OW 6349   3.331   1.619   2.900
 1817SOL    HW1 6350   3.263   1.582   2.963
 1817SOL    HW2 6351   3.355   1.712   2.927
 1818SOL     OW 6352   1.901   6.681   0.102
 1818SOL    HW1 6353   1.883   6.646   0.194
 1818SOL    HW2 6354   1.921   6.779   0.108
 1819SOL     OW 6355   0.841   4.504   2.760
 1819SOL    HW1 6356   0.784   4.585   2.748
 1819SOL    HW2 6357   0.784   4.427   2.789
 1820SOL     OW 6358   3.665   0.138   2.930
 1820SOL    HW1 6359   3.685   0.045   2.900
 1820SOL    HW2 6360   3.601   0.134   3.007
 1821SOL     OW 6361   3.137   0.674   1.964
 1821SOL    HW1 6362   3.222   0.725   1.975
 1821SOL    HW2 6363   3.079   0.687   2.044
 1822SOL     OW 6364   1.511   3.502   2.062
 1822SOL    HW1 6365   1.485   3.440   2.137
 1822SOL    HW2 6366   1.501   3.597   2.093
 1823SOL     OW 6367   3.406   6.106   2.585
 1823SOL    HW1 6368   3.500   6.135   2.606
 1823SOL    HW2 6369   3.392   6.110   2.486
 1824SOL     OW 6370   4.424   3.727   0.787
 1824SOL    HW1 6371   4.483   3.658   0.830
 1824SOL    HW2 6372   4.384   3.785   0.858
 1825SOL     OW 6373   1.033   2.708   4.832
 1825SOL    HW1 6374   0.981   2.782   4.789
 1825SOL    HW2 6375   1.124   2.703   4.791
 1826SOL     OW 6376   3.718   1.409   1.590
 1826SOL    HW1 6377   3.629   1.416   1.635
 1826SOL    HW2 6378   3.732   1.487   1.529
 1827SOL     OW 6379   4.963   4.954   0.821
 1827SOL    HW1 6380   4.999   4.934   0.730
 1827SOL    HW2 6381   4.881   4.900   0.838
 1828SOL     OW 6382   1.097   3.764   6.149
 1828SOL    HW1 6383   1.063   3.854   6.174
 1828SOL    HW2 6384   1.066   3.696   6.216
 1829SOL     OW 6385   3.723   0.981   3.397
 1829SOL    HW1 6386   3.624   0.990   3.410
 1829SOL    HW2 6387   3.757   0.902   3.448
 1830SOL     OW 6388   5.921   6.638   5.288
 1830SOL    HW1 6389   5.947   6.642   5.191
 1830SOL    HW2 6390   5.821   6.628   5.295
 1831SOL     OW 6391   5.138   5.803   2.617
 1831SOL    HW1 6392   5.224   5.854   2.621
 1831SOL    HW2 6393   5.124   5.756   2.704
 1832SOL     OW 6394   2.579   4.110   0.299
 1832SOL    HW1 6395   2.578   4.190   0.239
 1832SOL    HW2 6396   2.571   4.027   0.244
 1833SOL     OW 6397   4.624   6.793   1.626
 1833SOL    HW1 6398   4.603   6.856   1.551
 1833SOL    HW2 6399   4.540   6.745   1.653
 1834SOL     OW 6400   2.793   2.664   0.719
 1834SOL    HW1 6401   2.878   2.658   0.666
 1834SOL    HW2 6402   2.724   2.715   0.667
 1835SOL     OW 6403   1.031   5.360   1.349
 1835SOL    HW1 6404   0.982   5.376   1.263
 1835SOL    HW2 6405   0.985   5.289   1.401
 1836SOL     OW 6406   5.090   1.434   2.380
 1836SOL    HW1 6407   5.079   1.453   2.282
 1836SOL    HW2 6408   5.122   1.340   2.392
 1837SOL     OW 6409   2.053   1.071   5.629
 1837SOL    HW1 6410   1.976   1.042   5.685
 1837SOL    HW2 6411   2.027   1.065   5.532
 1838SOL     OW 6412   6.823   0.711   0.215
 1838SOL    HW1 6413   6.869   0.688   0.301
 1838SOL    HW2 6414   6.888   0.755   0.153
 1839SOL     OW 6415   6.372   1.644   6.774
 1839SOL    HW1 6416   6.440   1.625   6.845
 1839SOL    HW2 6417   6.404   1.720   6.717
 1840SOL     OW 6418   3.511   0.183   3.208
 1840SOL    HW1 6419   3.463   0.260   3.164
 1840SOL    HW2 6420   3.451   0.141   3.275
 1841SOL     OW 6421   1.730   0.232   1.863
 1841SOL    HW1 6422   1.779   0.203   1.781
 1841SOL    HW2 6423   1.788   0.216   1.943
 1842SOL     OW 6424   1.570   4.844   0.481
 1842SOL    HW1 6425   1.552   4.894   0.566
 1842SOL    HW2 6426   1.669   4.841   0.464
 1843SOL     OW 6427   3.696   1.484   4.841
 1843SOL    HW1 6428   3.762   1.456   4.911
 1843SOL    HW2 6429   3.603   1.467   4.875
 1844SOL     OW 6430   4.808   1.593   5.833
 1844SOL    HW1 6431   4.873   1.613   5.905
 1844SOL    HW2 6432   4.838   1.512   5.782
 1845SOL     OW 6433   2.577   0.757   3.108
 1845SOL    HW1 6434   2.529   0.714   3.184
 1845SOL    HW2 6435   2.600   0.852   3.132
 1846SOL     OW 6436   4.773   1.026   3.024
 1846SOL    HW1 6437   4.768   1.120   2.991
 1846SOL    HW2 6438   4.712   0.968   2.971
 1847SOL     OW 6439   1.905   0.616   4.402
 1847SOL    HW1 6440   2.001   0.624   4.379
 1847SOL    HW2 6441   1.871   0.704   4.437
 1848SOL     OW 6442   2.164   5.930   4.314
 1848SOL    HW1 6443   2.249   5.982   4.320
 1848SOL    HW2 6444   2.088   5.987   4.346
 1849SOL     OW 6445   4.917   2.872   2.533
 1849SOL    HW1 6446   4.987   2.931   2.494
 1849SOL    HW2 6447   4.959   2.808   2.597
 1850SOL     OW 6448   4.833   1.911   2.161
 1850SOL    HW1 6449   4.869   1.994   2.120
 1850SOL    HW2 6450   4.867   1.903   2.255
 1851SOL     OW 6451   0.348   2.982   6.586
 1851SOL    HW1 6452   0.418   3.053   6.590
 1851SOL    HW2 6453   0.392   2.892   6.591
 1852SOL     OW 6454   1.132   3.903   1.639
 1852SOL    HW1 6455   1.230   3.886   1.632
 1852SOL    HW2 6456   1.117   3.992   1.684
 1853SOL     OW 6457   0.126   3.232   5.070
 1853SOL    HW1 6458   0.066   3.305   5.036
 1853SOL    HW2 6459   0.220   3.249   5.040
 1854SOL     OW 6460   0.879   5.803   3.338
 1854SOL    HW1 6461   0.936   5.872   3.381
 1854SOL    HW2 6462   0.916   5.779   3.248
 1855SOL     OW 6463   4.968   3.712   4.227
 1855SOL    HW1 6464   4.929   3.779   4.290
 1855SOL    HW2 6465   5.064   3.697   4.251
 1856SOL     OW 6466   3.875   3.005   6.778
 1856SOL    HW1 6467   3.896   3.086   6.722
 1856SOL    HW2 6468   3.821   2.940   6.724
 1857SOL     OW 6469   5.838   0.847   0.569
 1857SOL    HW1 6470   5.748   0.859   0.609
 1857SOL    HW2 6471   5.880   0.764   0.605
 1858SOL     OW 6472   4.852   2.091   4.288
 1858SOL    HW1 6473   4.940   2.137   4.274
 1858SOL    HW2 6474   4.849   2.052   4.380
 1859SOL     OW 6475   5.419   1.786   5.017
 1859SOL    HW1 6476   5.334   1.772   4.968
 1859SOL    HW2 6477   5.482   1.841   4.962
 1860SOL     OW 6478   0.694   1.542   4.564
 1860SOL    HW1 6479   0.757   1.562   4.489
 1860SOL    HW2 6480   0.650   1.626   4.594
 1861SOL     OW 6481   5.658   0.733   3.073
 1861SOL    HW1 6482   5.582   0.752   3.011
 1861SOL    HW2 6483   5.744   0.755   3.028
 1862SOL     OW 6484   1.988   6.414   6.753
 1862SOL    HW1 6485   1.909   6.352   6.755
 1862SOL    HW2 6486   1.982   6.473   6.672
 1863SOL     OW 6487   0.742   2.866   0.877
 1863SOL    HW1 6488   0.709   2.905   0.963
 1863SOL    HW2 6489   0.805   2.930   0.833
 1864SOL     OW 6490   2.967   6.040   4.508
 1864SOL    HW1 6491   3.022   6.102   4.453
 1864SOL    HW2 6492   3.027   5.985   4.566
 1865SOL     OW 6493   4.512   1.581   0.960
 1865SOL    HW1 6494   4.521   1.586   1.060
 1865SOL    HW2 6495   4.419   1.607   0.933
 1866SOL     OW 6496   6.856   4.003   4.442
 1866SOL    HW1 6497   6.840   3.907   4.463
 1866SOL    HW2 6498   6.779   4.038   4.387
 1867SOL     OW 6499   2.728   2.729   1.453
 1867SOL    HW1 6500   2.821   2.714   1.419
 1867SOL    HW2 6501   2.670   2.651   1.429
 1868SOL     OW 6502   4.813   3.928   4.576
 1868SOL    HW1 6503   4.871   3.875   4.514
 1868SOL    HW2 6504   4.845   3.914   4.670
 1869SOL     OW 6505   4.849   2.303   4.009
 1869SOL    HW1 6506   4.880   2.209   4.022
 1869SOL    HW2 6507   4.754   2.304   3.978
 1870SOL     OW 6508   0.911   3.727   4.180
 1870SOL    HW1 6509   0.953   3.732   4.089
 1870SOL    HW2 6510   0.928   3.636   4.219
 1871SOL     OW 6511   0.420   6.528   0.267
 1871SOL    HW1 6512   0.402   6.470   0.188
 1871SOL    HW2 6513   0.369   6.493   0.346
 1872SOL     OW 6514   3.170   2.522   0.356
 1872SOL    HW1 6515   3.175   2.573   0.270
 1872SOL    HW2 6516   3.192   2.584   0.432
 1873SOL     OW 6517   6.461   1.156   0.193
 1873SOL    HW1 6518   6.478   1.224   0.264
 1873SOL    HW2 6519   6.548   1.123   0.157
 1874SOL     OW 6520   1.069   0.250   6.061
 1874SOL    HW1 6521   1.038   0.164   6.021
 1874SOL    HW2 6522   1.004   0.279   6.132
 1875SOL     OW 6523   6.234   6.401   6.891
 1875SOL    HW1 6524   6.212   6.399   6.989
 1875SOL    HW2 6525   6.316   6.347   6.874
 1876SOL     OW 6526   5.362   6.683   6.018
 1876SOL    HW1 6527   5.361   6.721   5.925
 1876SOL    HW2 6528   5.293   6.611   6.025
 1877SOL     OW 6529   0.262   0.851   2.024
 1877SOL    HW1 6530   0.310   0.766   2.043
 1877SOL    HW2 6531   0.222   0.887   2.108
 1878SOL     OW 6532   0.501   4.241   3.077
 1878SOL    HW1 6533   0.532   4.246   2.982
 1878SOL    HW2 6534   0.562   4.181   3.129
 1879SOL     OW 6535   2.554   5.325   4.725
 1879SOL    HW1 6536   2.612   5.371   4.791
 1879SOL    HW2 6537   2.460   5.321   4.760
 1880SOL     OW 6538   0.065   2.360   3.047
 1880SOL    HW1 6539   0.109   2.273   3.069
 1880SOL    HW2 6540   0.029   2.402   3.130
 1881SOL     OW 6541   1.480   2.079   3.246
 1881SOL    HW1 6542   1.515   2.065   3.338
 1881SOL    HW2 6543   1.387   2.117   3.252
 1882SOL     OW 6544   1.127   5.774   0.418
 1882SOL    HW1 6545   1.219   5.756   0.383
 1882SOL    HW2 6546   1.129   5.857   0.475
 1883SOL     OW 6547   1.700   3.778   2.506
 1883SOL    HW1 6548   1.615   3.762   2.457
 1883SOL    HW2 6549   1.692   3.861   2.562
 1884SOL     OW 6550   3.879   0.906   0.537
 1884SOL    HW1 6551   3.884   0.811   0.569
 1884SOL    HW2 6552   3.944   0.962   0.588
 1885SOL     OW 6553   6.999   2.527   0.892
 1885SOL    HW1 6554   0.021   2.548   0.980
 1885SOL    HW2 6555   6.928   2.459   0.904
 1886SOL     OW 6556   2.046   1.858   6.443
 1886SOL    HW1 6557   2.086   1.776   6.401
 1886SOL    HW2 6558   1.955   1.836   6.478
 1887SOL     OW 6559   0.208   4.763   5.890
 1887SOL    HW1 6560   0.261   4.833   5.936
 1887SOL    HW2 6561   0.269   4.693   5.853
 1888SOL     OW 6562   1.934   1.851   5.122
 1888SOL    HW1 6563   2.033   1.835   5.124
 1888SOL    HW2 6564   1.888   1.789   5.185
 1889SOL     OW 6565   4.358   3.362   0.344
 1889SOL    HW1 6566   4.343   3.417   0.261
 1889SOL    HW2 6567   4.374   3.423   0.422
 1890SOL     OW 6568   0.897   6.128   5.878
 1890SOL    HW1 6569   0.888   6.073   5.962
 1890SOL    HW2 6570   0.915   6.223   5.903
 1891SOL     OW 6571   5.953   3.366   5.752
 1891SOL    HW1 6572   6.040   3.334   5.715
 1891SOL    HW2 6573   5.893   3.392   5.677
 1892SOL     OW 6574   4.012   6.122   1.128
 1892SOL    HW1 6575   4.080   6.076   1.186
 1892SOL    HW2 6576   3.921   6.094   1.157
 1893SOL     OW 6577   3.376   1.947   4.815
 1893SOL    HW1 6578   3.312   2.012   4.775
 1893SOL    HW2 6579   3.325   1.870   4.854
 1894SOL     OW 6580   4.455   3.997   1.655
 1894SOL    HW1 6581   4.547   3.959   1.650
 1894SOL    HW2 6582   4.451   4.066   1.727
 1895SOL     OW 6583   6.241   1.243   2.567
 1895SOL    HW1 6584   6.266   1.162   2.514
 1895SOL    HW2 6585   6.152   1.277   2.537
 1896SOL     OW 6586   5.995   1.431   4.271
 1896SOL    HW1 6587   6.074   1.390   4.316
 1896SOL    HW2 6588   6.026   1.485   4.193
 1897SOL     OW 6589   5.937   5.419   4.044
 1897SOL    HW1 6590   5.859   5.402   3.983
 1897SOL    HW2 6591   6.022   5.402   3.995
 1898SOL     OW 6592   5.246   6.029   1.326
 1898SOL    HW1 6593   5.178   5.956   1.327
 1898SOL    HW2 6594   5.327   6.001   1.377
 1899SOL     OW 6595   0.316   3.434   2.840
 1899SOL    HW1 6596   0.340   3.337   2.840
 1899SOL    HW2 6597   0.314   3.467   2.935
 1900SOL     OW 6598   1.729   6.797   6.448
 1900SOL    HW1 6599   1.652   6.822   6.506
 1900SOL    HW2 6600   1.815   6.824   6.492
 1901SOL     OW 6601   2.290   1.107   6.857
 1901SOL    HW1 6602   2.197   1.131   6.829
 1901SOL    HW2 6603   2.318   1.164   6.934
 1902SOL     OW 6604   1.354   2.423   4.445
 1902SOL    HW1 6605   1.345   2.341   4.389
 1902SOL    HW2 6606   1.264   2.455   4.472
 1903SOL     OW 6607   6.310   4.987   3.822
 1903SOL    HW1 6608   6.265   4.913   3.872
 1903SOL    HW2 6609   6.252   5.017   3.746
 1904SOL     OW 6610   0.442   0.218   4.363
 1904SOL    HW1 6611   0.443   0.208   4.264
 1904SOL    HW2 6612   0.440   0.316   4.387
 1905SOL     OW 6613   6.989   1.975   3.658
 1905SOL    HW1 6614   6.951   1.967   3.750
 1905SOL    HW2 6615   6.962   2.062   3.618
 1906SOL     OW 6616   2.846   0.276   5.683
 1906SOL    HW1 6617   2.808   0.184   5.679
 1906SOL    HW2 6618   2.858   0.303   5.779
 1907SOL     OW 6619   2.859   0.127   3.371
 1907SOL    HW1 6620   2.888   0.180   3.451
 1907SOL    HW2 6621   2.933   0.066   3.344
 1908SOL     OW 6622   4.625   1.215   5.602
 1908SOL    HW1 6623   4.670   1.126   5.611
 1908SOL    HW2 6624   4.527   1.202   5.592
 1909SOL     OW 6625   2.431   4.488   4.710
 1909SOL    HW1 6626   2.525   4.497   4.743
 1909SOL    HW2 6627   2.386   4.577   4.713
 1910SOL     OW 6628   5.430   2.407   6.584
 1910SOL    HW1 6629   5.439   2.312   6.554
 1910SOL    HW2 6630   5.353   2.449   6.537
 1911SOL     OW 6631   6.574   1.989   5.112
 1911SOL    HW1 6632   6.497   2.015   5.054
 1911SOL    HW2 6633   6.540   1.942   5.194
 1912SOL     OW 6634   3.659   6.555   2.441
 1912SOL    HW1 6635   3.562   6.575   2.450
 1912SOL    HW2 6636   3.707   6.639   2.414
 1913SOL     OW 6637   1.964   6.402   5.287
 1913SOL    HW1 6638   2.005   6.427   5.198
 1913SOL    HW2 6639   2.031   6.350   5.340
 1914SOL     OW 6640   2.271   2.992   6.417
 1914SOL    HW1 6641   2.255   3.070   6.478
 1914SOL    HW2 6642   2.319   2.920   6.466
 1915SOL     OW 6643   3.865   0.694   6.132
 1915SOL    HW1 6644   3.835   0.607   6.172
 1915SOL    HW2 6645   3.889   0.680   6.036
 1916SOL     OW 6646   4.189   5.776   1.119
 1916SOL    HW1 6647   4.212   5.833   1.199
 1916SOL    HW2 6648   4.094   5.793   1.093
 1917SOL     OW 6649   3.806   4.137   4.475
 1917SOL    HW1 6650   3.782   4.131   4.572
 1917SOL    HW2 6651   3.846   4.227   4.456
 1918SOL     OW 6652   6.169   6.604   6.109
 1918SOL    HW1 6653   6.196   6.667   6.037
 1918SOL    HW2 6654   6.092   6.548   6.078
 1919SOL     OW 6655   1.089   6.196   2.278
 1919SOL    HW1 6656   1.063   6.125   2.213
 1919SOL    HW2 6657   1.090   6.157   2.370
 1920SOL     OW 6658   0.978   4.230   3.888
 1920SOL    HW1 6659   0.967   4.132   3.873
 1920SOL    HW2 6660   1.028   4.270   3.812
 1921SOL     OW 6661   0.688   5.590   7.017
 1921SOL    HW1 6662   0.764   5.635   0.044
 1921SOL    HW2 6663   0.615   5.656   7.000
 1922SOL     OW 6664   4.103   3.171   1.350
 1922SOL    HW1 6665   4.118   3.269   1.333
 1922SOL    HW2 6666   4.131   3.119   1.270
 1923SOL     OW 6667   2.856   1.554   0.445
 1923SOL    HW1 6668   2.835   1.546   0.347
 1923SOL    HW2 6669   2.781   1.514   0.498
 1924SOL     OW 6670   6.672   4.348   1.750
 1924SOL    HW1 6671   6.604   4.275   1.754
 1924SOL    HW2 6672   6.681   4.381   1.656
 1925SOL     OW 6673   2.922   3.850   1.840
 1925SOL    HW1 6674   3.000   3.910   1.827
 1925SOL    HW2 6675   2.948   3.774   1.900
 1926SOL     OW 6676   1.541   0.464   4.424
 1926SOL    HW1 6677   1.571   0.520   4.346
 1926SOL    HW2 6678   1.463   0.408   4.397
 1927SOL     OW 6679   3.491   3.938   6.951
 1927SOL    HW1 6680   3.573   3.993   6.969
 1927SOL    HW2 6681   3.514   3.861   6.892
 1928SOL     OW 6682   6.141   3.041   5.964
 1928SOL    HW1 6683   6.216   2.977   5.984
 1928SOL    HW2 6684   6.104   3.021   5.873
 1929SOL     OW 6685   1.321   5.854   2.063
 1929SOL    HW1 6686   1.306   5.884   1.969
 1929SOL    HW2 6687   1.415   5.824   2.074
 1930SOL     OW 6688   6.217   4.517   6.910
 1930SOL    HW1 6689   6.140   4.557   6.959
 1930SOL    HW2 6690   6.238   4.574   6.830
 1931SOL     OW 6691   0.006   3.502   3.244
 1931SOL    HW1 6692   0.005   3.522   3.342
 1931SOL    HW2 6693   0.068   3.426   3.227
 1932SOL     OW 6694   5.311   4.039   2.957
 1932SOL    HW1 6695   5.352   3.947   2.954
 1932SOL    HW2 6696   5.379   4.104   2.991
 1933SOL     OW 6697   2.818   5.165   0.922
 1933SOL    HW1 6698   2.817   5.092   0.853
 1933SOL    HW2 6699   2.900   5.221   0.911
 1934SOL     OW 6700   1.453   6.828   5.676
 1934SOL    HW1 6701   1.543   6.869   5.666
 1934SOL    HW2 6702   1.387   6.899   5.702
 1935SOL     OW 6703   2.735   0.121   4.996
 1935SOL    HW1 6704   2.767   0.036   5.038
 1935SOL    HW2 6705   2.770   0.199   5.049
 1936SOL     OW 6706   5.403   5.577   4.957
 1936SOL    HW1 6707   5.356   5.496   4.921
 1936SOL    HW2 6708   5.431   5.636   4.881
 1937SOL     OW 6709   3.822   6.661   1.840
 1937SOL    HW1 6710   3.764   6.645   1.761
 1937SOL    HW2 6711   3.918   6.655   1.813
 1938SOL     OW 6712   3.933   1.614   3.237
 1938SOL    HW1 6713   3.936   1.706   3.197
 1938SOL    HW2 6714   3.838   1.584   3.245
 1939SOL     OW 6715   0.986   0.537   3.420
 1939SOL    HW1 6716   1.066   0.513   3.364
 1939SOL    HW2 6717   0.964   0.461   3.481
 1940SOL     OW 6718   4.768   5.438   6.724
 1940SOL    HW1 6719   4.770   5.503   6.800
 1940SOL    HW2 6720   4.685   5.452   6.670
 1941SOL     OW 6721   6.770   4.650   3.201
 1941SOL    HW1 6722   6.720   4.581   3.254
 1941SOL    HW2 6723   6.760   4.739   3.246
 1942SOL     OW 6724   5.503   6.014   2.173
 1942SOL    HW1 6725   5.521   5.946   2.102
 1942SOL    HW2 6726   5.556   6.097   2.153
 1943SOL     OW 6727   3.275   5.655   1.928
 1943SOL    HW1 6728   3.338   5.690   1.858
 1943SOL    HW2 6729   3.247   5.729   1.988
 1944SOL     OW 6730   5.149   1.966   6.640
 1944SOL    HW1 6731   5.086   2.037   6.670
 1944SOL    HW2 6732   5.098   1.888   6.604
 1945SOL     OW 6733   4.882   5.666   3.051
 1945SOL    HW1 6734   4.896   5.666   3.150
 1945SOL    HW2 6735   4.784   5.660   3.032
 1946SOL     OW 6736   0.793   1.030   0.792
 1946SOL    HW1 6737   0.760   1.120   0.820
 1946SOL    HW2 6738   0.756   0.961   0.854
 1947SOL     OW 6739   5.392   6.372   4.458
 1947SOL    HW1 6740   5.472   6.362   4.517
 1947SOL    HW2 6741   5.377   6.470   4.439
 1948SOL     OW 6742   6.576   5.572   4.641
 1948SOL    HW1 6743   6.526   5.602   4.722
 1948SOL    HW2 6744   6.517   5.511   4.586
 1949SOL     OW 6745   4.177   4.024   5.828
 1949SOL    HW1 6746   4.118   3.960   5.779
 1949SOL    HW2 6747   4.120   4.089   5.879
 1950SOL     OW 6748   3.820   3.714   0.373
 1950SOL    HW1 6749   3.829   3.674   0.282
 1950SOL    HW2 6750   3.890   3.785   0.385
 1951SOL     OW 6751   6.743   2.847   0.425
 1951SOL    HW1 6752   6.718   2.892   0.511
 1951SOL    HW2 6753   6.834   2.808   0.433
 1952SOL     OW 6754   3.590   2.650   0.419
 1952SOL    HW1 6755   3.582   2.567   0.475
 1952SOL    HW2 6756   3.528   2.643   0.341
 1953SOL     OW 6757   6.616   2.114   6.995
 1953SOL    HW1 6758   6.579   2.089   0.065
 1953SOL    HW2 6759   6.678   2.192   7.005
 1954SOL     OW 6760   5.532   2.156   3.821
 1954SOL    HW1 6761   5.482   2.243   3.817
 1954SOL    HW2 6762   5.599   2.159   3.895
 1955SOL     OW 6763   1.411   6.900   1.839
 1955SOL    HW1 6764   1.359   6.950   1.770
 1955SOL    HW2 6765   1.501   6.943   1.851
 1956SOL     OW 6766   5.584   6.214   2.682
 1956SOL    HW1 6767   5.572   6.230   2.780
 1956SOL    HW2 6768   5.547   6.291   2.630
 1957SOL     OW 6769   6.359   5.628   5.442
 1957SOL    HW1 6770   6.425   5.703   5.435
 1957SOL    HW2 6771   6.266   5.665   5.435
 1958SOL     OW 6772   6.353   3.503   4.096
 1958SOL    HW1 6773   6.425   3.435   4.107
 1958SOL    HW2 6774   6.307   3.490   4.008
 1959SOL     OW 6775   0.838   2.646   5.804
 1959SOL    HW1 6776   0.804   2.721   5.861
 1959SOL    HW2 6777   0.938   2.640   5.812
 1960SOL     OW 6778   6.729   4.615   1.291
 1960SOL    HW1 6779   6.734   4.547   1.217
 1960SOL    HW2 6780   6.738   4.568   1.379
 1961SOL     OW 6781   5.757   4.440   4.547
 1961SOL    HW1 6782   5.783   4.501   4.473
 1961SOL    HW2 6783   5.834   4.428   4.609
 1962SOL     OW 6784   1.532   6.191   3.328
 1962SOL    HW1 6785   1.631   6.202   3.322
 1962SOL    HW2 6786   1.511   6.098   3.357
 1963SOL     OW 6787   0.833   0.723   1.966
 1963SOL    HW1 6788   0.758   0.662   1.991
 1963SOL    HW2 6789   0.796   0.801   1.914
 1964SOL     OW 6790   4.636   2.741   1.330
 1964SOL    HW1 6791   4.661   2.745   1.234
 1964SOL    HW2 6792   4.543   2.776   1.343
 1965SOL     OW 6793   0.769   2.987   2.831
 1965SOL    HW1 6794   0.694   3.049   2.809
 1965SOL    HW2 6795   0.773   2.974   2.930
 1966SOL     OW 6796   0.480   5.144   5.219
 1966SOL    HW1 6797   0.548   5.120   5.289
 1966SOL    HW2 6798   0.456   5.241   5.228
 1967SOL     OW 6799   4.744   1.943   6.167
 1967SOL    HW1 6800   4.649   1.916   6.184
 1967SOL    HW2 6801   4.747   2.003   6.087
 1968SOL     OW 6802   3.217   6.339   0.302
 1968SOL    HW1 6803   3.137   6.377   0.349
 1968SOL    HW2 6804   3.219   6.240   0.316
 1969SOL     OW 6805   6.967   1.315   1.807
 1969SOL    HW1 6806   6.943   1.232   1.857
 1969SOL    HW2 6807   6.901   1.387   1.826
 1970SOL     OW 6808   2.777   1.017   6.049
 1970SOL    HW1 6809   2.703   1.037   6.113
 1970SOL    HW2 6810   2.839   1.095   6.044
 1971SOL     OW 6811   6.801   0.210   6.295
 1971SOL    HW1 6812   6.725   0.170   6.347
 1971SOL    HW2 6813   6.847   0.279   6.352
 1972SOL     OW 6814   0.411   2.865   3.015
 1972SOL    HW1 6815   0.426   2.946   3.072
 1972SOL    HW2 6816   0.409   2.891   2.919
 1973SOL     OW 6817   3.459   3.526   1.667
 1973SOL    HW1 6818   3.535   3.564   1.720
 1973SOL    HW2 6819   3.425   3.444   1.713
 1974SOL     OW 6820   6.016   6.128   4.379
 1974SOL    HW1 6821   6.001   6.187   4.458
 1974SOL    HW2 6822   6.085   6.169   4.319
 1975SOL     OW 6823   2.587   1.047   3.085
 1975SOL    HW1 6824   2.548   1.136   3.109
 1975SOL    HW2 6825   2.519   0.993   3.036
 1976SOL     OW 6826   0.606   6.047   6.984
 1976SOL    HW1 6827   0.644   5.997   0.042
 1976SOL    HW2 6828   0.618   5.993   6.901
 1977SOL     OW 6829   0.963   2.692   3.591
 1977SOL    HW1 6830   1.042   2.747   3.620
 1977SOL    HW2 6831   0.988   2.595   3.592
 1978SOL     OW 6832   1.452   0.681   4.100
 1978SOL    HW1 6833   1.464   0.740   4.020
 1978SOL    HW2 6834   1.539   0.636   4.122
 1979SOL     OW 6835   6.917   4.234   5.063
 1979SOL    HW1 6836   6.897   4.233   5.161
 1979SOL    HW2 6837   7.000   4.286   5.046
 1980SOL     OW 6838   2.845   0.383   0.340
 1980SOL    HW1 6839   2.850   0.293   0.383
 1980SOL    HW2 6840   2.937   0.412   0.313
 1981SOL     OW 6841   5.231   2.031   2.431
 1981SOL    HW1 6842   5.186   1.946   2.403
 1981SOL    HW2 6843   5.325   2.031   2.398
 1982SOL     OW 6844   6.223   4.242   5.450
 1982SOL    HW1 6845   6.211   4.282   5.541
 1982SOL    HW2 6846   6.312   4.198   5.444
 1983SOL     OW 6847   0.964   2.709   2.559
 1983SOL    HW1 6848   1.045   2.741   2.609
 1983SOL    HW2 6849   0.922   2.786   2.512
 1984SOL     OW 6850   5.169   1.201   5.533
 1984SOL    HW1 6851   5.102   1.202   5.607
 1984SOL    HW2 6852   5.145   1.270   5.465
 1985SOL     OW 6853   1.281   0.975   2.296
 1985SOL    HW1 6854   1.206   0.949   2.357
 1985SOL    HW2 6855   1.363   0.994   2.351
 1986SOL     OW 6856   1.425   1.295   6.975
 1986SOL    HW1 6857   1.508   1.248   6.946
 1986SOL    HW2 6858   1.381   1.337   6.896
 1987SOL     OW 6859   2.666   3.450   1.391
 1987SOL    HW1 6860   2.707   3.475   1.479
 1987SOL    HW2 6861   2.589   3.511   1.371
 1988SOL     OW 6862   5.018   4.187   0.963
 1988SOL    HW1 6863   4.965   4.272   0.956
 1988SOL    HW2 6864   5.033   4.149   0.872
 1989SOL     OW 6865   2.115   0.719   5.251
 1989SOL    HW1 6866   2.076   0.727   5.159
 1989SOL    HW2 6867   2.171   0.799   5.271
 1990SOL     OW 6868   3.278   7.001   1.498
 1990SOL    HW1 6869   3.250   0.073   1.473
 1990SOL    HW2 6870   3.219   6.967   1.572
 1991SOL     OW 6871   3.690   5.252   6.089
 1991SOL    HW1 6872   3.713   5.259   5.992
 1991SOL    HW2 6873   3.673   5.343   6.126
 1992SOL     OW 6874   2.463   6.670   6.462
 1992SOL    HW1 6875   2.377   6.619   6.457
 1992SOL    HW2 6876   2.534   6.612   6.501
 1993SOL     OW 6877   4.289   3.314   5.290
 1993SOL    HW1 6878   4.381   3.349   5.304
 1993SOL    HW2 6879   4.293   3.217   5.264
 1994SOL     OW 6880   1.645   2.273   1.487
 1994SOL    HW1 6881   1.651   2.331   1.407
 1994SOL    HW2 6882   1.587   2.317   1.556
 1995SOL     OW 6883   6.085   2.564   2.025
 1995SOL    HW1 6884   6.151   2.560   1.950
 1995SOL    HW2 6885   6.134   2.571   2.112
 1996SOL     OW 6886   2.846   3.817   0.880
 1996SOL    HW1 6887   2.880   3.758   0.953
 1996SOL    HW2 6888   2.796   3.761   0.813
 1997SOL     OW 6889   4.639   0.302   5.759
 1997SOL    HW1 6890   4.551   0.281   5.802
 1997SOL    HW2 6891   4.665   0.226   5.699
 1998SOL     OW 6892   3.090   3.823   5.907
 1998SOL    HW1 6893   3.169   3.883   5.915
 1998SOL    HW2 6894   3.037   3.848   5.826
 1999SOL     OW 6895   2.789   0.166   1.930
 1999SOL    HW1 6896   2.755   0.098   1.995
 1999SOL    HW2 6897   2.853   0.123   1.866
 2000SOL     OW 6898   4.197   1.740   5.638
 2000SOL    HW1 6899   4.252   1.823   5.637
 2000SOL    HW2 6900   4.102   1.763   5.614
 2001SOL     OW 6901   3.422   2.270   1.750
 2001SOL    HW1 6902   3.513   2.287   1.789
 2001SOL    HW2 6903   3.367   2.353   1.757
 2002SOL     OW 6904   1.202   5.798   6.260
 2002SOL    HW1 6905   1.206   5.842   6.350
 2002SOL    HW2 6906   1.295   5.775   6.230
 2003SOL     OW 6907   4.628   0.115   3.393
 2003SOL    HW1 6908   4.725   0.128   3.415
 2003SOL    HW2 6909   4.578   0.200   3.409
 2004SOL     OW 6910   4.753   0.814   4.923
 2004SOL    HW1 6911   4.682   0.874   4.887
 2004SOL    HW2 6912   4.736   0.798   5.020
 2005SOL     OW 6913   1.436   5.652   0.093
 2005SOL    HW1 6914   1.472   5.559   0.084
 2005SOL    HW2 6915   1.510   5.718   0.078
 2006SOL     OW 6916   5.276   4.092   3.299
 2006SOL    HW1 6917   5.282   3.993   3.305
 2006SOL    HW2 6918   5.208   4.117   3.230
 2007SOL     OW 6919   4.457   6.106   0.268
 2007SOL    HW1 6920   4.377   6.076   0.216
 2007SOL    HW2 6921   4.431   6.184   0.325
 2008SOL     OW 6922   0.961   5.326   3.443
 2008SOL    HW1 6923   0.945   5.415   3.487
 2008SOL    HW2 6924   1.010   5.266   3.506
 2009SOL     OW 6925   6.804   0.249   1.332
 2009SOL    HW1 6926   6.805   0.318   1.261
 2009SOL    HW2 6927   6.724   0.261   1.390
 2010SOL     OW 6928   1.634   1.031   0.868
 2010SOL    HW1 6929   1.568   1.085   0.920
 2010SOL    HW2 6930   1.651   1.075   0.780
 2011SOL     OW 6931   6.060   1.809   4.948
 2011SOL    HW1 6932   6.076   1.785   5.044
 2011SOL    HW2 6933   6.144   1.794   4.895
 2012SOL     OW 6934   0.985   3.517   1.227
 2012SOL    HW1 6935   0.899   3.558   1.258
 2012SOL    HW2 6936   1.017   3.452   1.295
 2013SOL     OW 6937   5.289   1.103   3.151
 2013SOL    HW1 6938   5.191   1.102   3.132
 2013SOL    HW2 6939   5.333   1.027   3.103
 2014SOL     OW 6940   1.537   5.231   3.058
 2014SOL    HW1 6941   1.567   5.322   3.086
 2014SOL    HW2 6942   1.601   5.162   3.091
 2015SOL     OW 6943   2.599   1.258   6.644
 2015SOL    HW1 6944   2.644   1.342   6.614
 2015SOL    HW2 6945   2.554   1.215   6.566
 2016SOL     OW 6946   0.667   6.061   5.138
 2016SOL    HW1 6947   0.746   6.103   5.094
 2016SOL    HW2 6948   0.660   6.094   5.233
 2017SOL     OW 6949   3.966   6.286   3.432
 2017SOL    HW1 6950   3.889   6.349   3.444
 2017SOL    HW2 6951   3.950   6.203   3.485
 2018SOL     OW 6952   6.559   5.772   6.033
 2018SOL    HW1 6953   6.468   5.804   6.007
 2018SOL    HW2 6954   6.609   5.847   6.077
 2019SOL     OW 6955   4.992   2.913   2.025
 2019SOL    HW1 6956   4.903   2.955   2.008
 2019SOL    HW2 6957   5.015   2.851   1.950
 2020SOL     OW 6958   1.111   4.746   4.836
 2020SOL    HW1 6959   1.192   4.799   4.862
 2020SOL    HW2 6960   1.138   4.655   4.806
 2021SOL     OW 6961   2.097   0.157   2.993
 2021SOL    HW1 6962   2.000   0.133   2.996
 2021SOL    HW2 6963   2.126   0.169   2.898
 2022SOL     OW 6964   1.992   3.876   2.325
 2022SOL    HW1 6965   1.905   3.856   2.370
 2022SOL    HW2 6966   1.989   3.841   2.231
 2023SOL     OW 6967   0.170   1.784   0.530
 2023SOL    HW1 6968   0.129   1.858   0.584
 2023SOL    HW2 6969   0.098   1.727   0.491
 2024SOL     OW 6970   6.903   0.897   2.771
 2024SOL    HW1 6971   6.960   0.828   2.816
 2024SOL    HW2 6972   6.840   0.936   2.838
 2025SOL     OW 6973   1.622   2.647   2.012
 2025SOL    HW1 6974   1.620   2.620   1.916
 2025SOL    HW2 6975   1.539   2.614   2.057
 2026SOL     OW 6976   1.528   2.155   5.850
 2026SOL    HW1 6977   1.521   2.149   5.949
 2026SOL    HW2 6978   1.436   2.168   5.811
 2027SOL     OW 6979   1.321   1.435   1.328
 2027SOL    HW1 6980   1.285   1.362   1.271
 2027SOL    HW2 6981   1.265   1.443   1.411
 2028SOL     OW 6982   3.500   1.287   6.644
 2028SOL    HW1 6983   3.499   1.338   6.730
 2028SOL    HW2 6984   3.415   1.306   6.594
 2029SOL     OW 6985   0.426   0.414   6.821
 2029SOL    HW1 6986   0.436   0.415   6.722
 2029SOL    HW2 6987   0.381   0.498   6.851
 2030SOL     OW 6988   2.078   1.366   4.123
 2030SOL    HW1 6989   2.010   1.385   4.052
 2030SOL    HW2 6990   2.157   1.319   4.082
 2031SOL     OW 6991   4.956   6.280   2.180
 2031SOL    HW1 6992   5.043   6.328   2.170
 2031SOL    HW2 6993   4.882   6.340   2.149
 2032SOL     OW 6994   5.588   5.870   1.150
 2032SOL    HW1 6995   5.571   5.909   1.240
 2032SOL    HW2 6996   5.541   5.925   1.081
 2033SOL     OW 6997   3.413   4.375   6.750
 2033SOL    HW1 6998   3.349   4.339   6.682
 2033SOL    HW2 6999   3.417   4.474   6.744
 2034SOL     OW 7000   2.358   6.834   4.382
 2034SOL    HW1 7001   2.411   6.876   4.308
 2034SOL    HW2 7002   2.420   6.781   4.440
 2035SOL     OW 7003   0.326   0.967   2.438
 2035SOL    HW1 7004   0.263   0.978   2.514
 2035SOL    HW2 7005   0.381   0.885   2.452
 2036SOL     OW 7006   0.551   5.741   2.901
 2036SOL    HW1 7007   0.565   5.828   2.854
 2036SOL    HW2 7008   0.489   5.684   2.847
 2037SOL     OW 7009   6.427   1.905   5.786
 2037SOL    HW1 7010   6.355   1.869   5.845
 2037SOL    HW2 7011   6.430   1.852   5.701
 2038SOL     OW 7012   0.981   1.628   6.626
 2038SOL    HW1 7013   1.016   1.713   6.667
 2038SOL    HW2 7014   0.949   1.647   6.533
 2039SOL     OW 7015   0.804   5.285   3.214
 2039SOL    HW1 7016   0.828   5.313   3.307
 2039SOL    HW2 7017   0.828   5.189   3.201
 2040SOL     OW 7018   3.401   2.880   5.117
 2040SOL    HW1 7019   3.403   2.793   5.166
 2040SOL    HW2 7020   3.420   2.864   5.021
 2041SOL     OW 7021   6.749   6.279   6.680
 2041SOL    HW1 7022   6.742   6.362   6.625
 2041SOL    HW2 7023   6.747   6.199   6.620
 2042SOL     OW 7024   6.133   5.737   0.120
 2042SOL    HW1 7025   6.200   5.680   0.071
 2042SOL    HW2 7026   6.056   5.679   0.150
 2043SOL     OW 7027   6.899   4.524   2.336
 2043SOL    HW1 7028   6.826   4.481   2.387
 2043SOL    HW2 7029   6.870   4.615   2.306
 2044SOL     OW 7030   4.899   0.544   2.217
 2044SOL    HW1 7031   4.848   0.475   2.165
 2044SOL    HW2 7032   4.977   0.500   2.263
 2045SOL     OW 7033   2.432   4.314   5.297
 2045SOL    HW1 7034   2.473   4.364   5.220
 2045SOL    HW2 7035   2.480   4.228   5.310
 2046SOL     OW 7036   0.101   0.412   4.375
 2046SOL    HW1 7037   0.102   0.312   4.374
 2046SOL    HW2 7038   0.153   0.445   4.453
 2047SOL     OW 7039   4.452   2.333   6.899
 2047SOL    HW1 7040   4.377   2.397   6.921
 2047SOL    HW2 7041   4.486   2.353   6.806
 2048SOL     OW 7042   3.738   6.261   0.019
 2048SOL    HW1 7043   3.693   6.201   0.086
 2048SOL    HW2 7044   3.771   6.206   6.963
 2049SOL     OW 7045   4.262   2.139   6.266
 2049SOL    HW1 7046   4.169   2.130   6.302
 2049SOL    HW2 7047   4.291   2.235   6.272
 2050SOL     OW 7048   6.172   2.860   3.873
 2050SOL    HW1 7049   6.091   2.845   3.930
 2050SOL    HW2 7050   6.203   2.955   3.883
 2051SOL     OW 7051   6.782   4.758   0.150
 2051SOL    HW1 7052   6.820   4.737   0.060
 2051SOL    HW2 7053   6.844   4.820   0.198
 2052SOL     OW 7054   0.658   3.873   0.078
 2052SOL    HW1 7055   0.717   3.861   0.158
 2052SOL    HW2 7056   0.595   3.795   0.072
 2053SOL     OW 7057   6.175   0.574   0.715
 2053SOL    HW1 7058   6.206   0.488   0.674
 2053SOL    HW2 7059   6.251   0.616   0.766
 2054SOL     OW 7060   5.081   2.772   1.810
 2054SOL    HW1 7061   5.067   2.782   1.711
 2054SOL    HW2 7062   5.054   2.680   1.838
 2055SOL     OW 7063   6.189   3.112   2.519
 2055SOL    HW1 7064   6.191   3.212   2.528
 2055SOL    HW2 7065   6.148   3.072   2.601
 2056SOL     OW 7066   2.328   1.378   2.831
 2056SOL    HW1 7067   2.295   1.355   2.740
 2056SOL    HW2 7068   2.417   1.424   2.824
 2057SOL     OW 7069   5.687   2.686   3.635
 2057SOL    HW1 7070   5.600   2.734   3.626
 2057SOL    HW2 7071   5.759   2.740   3.590
 2058SOL     OW 7072   1.358   1.676   3.567
 2058SOL    HW1 7073   1.407   1.617   3.631
 2058SOL    HW2 7074   1.261   1.678   3.591
 2059SOL     OW 7075   2.813   6.545   5.775
 2059SOL    HW1 7076   2.735   6.490   5.746
 2059SOL    HW2 7077   2.893   6.486   5.789
 2060SOL     OW 7078   6.693   4.039   0.840
 2060SOL    HW1 7079   6.597   4.012   0.846
 2060SOL    HW2 7080   6.750   3.969   0.883
 2061SOL     OW 7081   1.296   2.157   3.013
 2061SOL    HW1 7082   1.221   2.133   3.075
 2061SOL    HW2 7083   1.368   2.088   3.019
 2062SOL     OW 7084   5.720   0.098   2.944
 2062SOL    HW1 7085   5.792   0.163   2.969
 2062SOL    HW2 7086   5.655   0.142   2.882
 2063SOL     OW 7087   0.767   1.799   6.139
 2063SOL    HW1 7088   0.680   1.831   6.101
 2063SOL    HW2 7089   0.757   1.704   6.168
 2064SOL     OW 7090   0.691   1.583   5.457
 2064SOL    HW1 7091   0.782   1.565   5.418
 2064SOL    HW2 7092   0.664   1.505   5.514
 2065SOL     OW 7093   6.333   4.158   2.682
 2065SOL    HW1 7094   6.309   4.186   2.774
 2065SOL    HW2 7095   6.423   4.113   2.684
 2066SOL     OW 7096   0.392   5.666   4.181
 2066SOL    HW1 7097   0.312   5.611   4.206
 2066SOL    HW2 7098   0.372   5.716   4.096
 2067SOL     OW 7099   0.204   6.970   1.061
 2067SOL    HW1 7100   0.161   6.886   1.029
 2067SOL    HW2 7101   0.150   0.029   1.032
 2068SOL     OW 7102   0.958   1.566   5.378
 2068SOL    HW1 7103   1.028   1.630   5.409
 2068SOL    HW2 7104   0.990   1.520   5.295
 2069SOL     OW 7105   0.390   2.609   3.443
 2069SOL    HW1 7106   0.310   2.574   3.493
 2069SOL    HW2 7107   0.473   2.569   3.483
 2070SOL     OW 7108   1.709   6.799   2.202
 2070SOL    HW1 7109   1.676   6.763   2.289
 2070SOL    HW2 7110   1.760   6.728   2.154
 2071SOL     OW 7111   0.104   5.880   5.601
 2071SOL    HW1 7112   0.180   5.820   5.621
 2071SOL    HW2 7113   0.115   5.920   5.510
 2072SOL     OW 7114   4.318   6.407   1.713
 2072SOL    HW1 7115   4.345   6.398   1.617
 2072SOL    HW2 7116   4.399   6.395   1.772
 2073SOL     OW 7117   3.655   0.160   4.559
 2073SOL    HW1 7118   3.746   0.144   4.596
 2073SOL    HW2 7119   3.640   0.258   4.548
 2074SOL     OW 7120   0.816   3.013   0.142
 2074SOL    HW1 7121   0.755   3.010   0.063
 2074SOL    HW2 7122   0.816   2.924   0.187
 2075SOL     OW 7123   5.238   2.398   1.664
 2075SOL    HW1 7124   5.242   2.395   1.764
 2075SOL    HW2 7125   5.183   2.322   1.630
 2076SOL     OW 7126   5.332   6.583   0.320
 2076SOL    HW1 7127   5.392   6.662   0.308
 2076SOL    HW2 7128   5.238   6.613   0.336
 2077SOL     OW 7129   4.552   2.498   2.156
 2077SOL    HW1 7130   4.573   2.588   2.118
 2077SOL    HW2 7131   4.455   2.478   2.142
 2078SOL     OW 7132   1.973   6.642   6.605
 2078SOL    HW1 7133   1.958   6.609   6.512
 2078SOL    HW2 7134   2.052   6.704   6.607
 2079SOL     OW 7135   5.412   1.011   3.846
 2079SOL    HW1 7136   5.434   1.040   3.753
 2079SOL    HW2 7137   5.321   0.971   3.849
 2080SOL     OW 7138   1.602   0.616   4.655
 2080SOL    HW1 7139   1.564   0.708   4.647
 2080SOL    HW2 7140   1.580   0.563   4.573
 2081SOL     OW 7141   1.571   6.093   5.256
 2081SOL    HW1 7142   1.625   6.056   5.180
 2081SOL    HW2 7143   1.622   6.165   5.302
 2082SOL     OW 7144   6.628   0.446   2.826
 2082SOL    HW1 7145   6.620   0.433   2.728
 2082SOL    HW2 7146   6.671   0.535   2.844
 2083SOL     OW 7147   4.703   4.535   6.307
 2083SOL    HW1 7148   4.629   4.532   6.239
 2083SOL    HW2 7149   4.679   4.599   6.379
 2084SOL     OW 7150   6.887   4.459   3.756
 2084SOL    HW1 7151   6.986   4.452   3.751
 2084SOL    HW2 7152   6.845   4.377   3.716
 2085SOL     OW 7153   5.261   1.164   0.203
 2085SOL    HW1 7154   5.175   1.118   0.223
 2085SOL    HW2 7155   5.243   1.257   0.170
 2086SOL     OW 7156   3.101   6.230   5.368
 2086SOL    HW1 7157   3.078   6.280   5.284
 2086SOL    HW2 7158   3.194   6.194   5.361
 2087SOL     OW 7159   4.657   0.400   2.324
 2087SOL    HW1 7160   4.719   0.425   2.398
 2087SOL    HW2 7161   4.582   0.465   2.319
 2088SOL     OW 7162   2.603   5.836   0.709
 2088SOL    HW1 7163   2.646   5.915   0.751
 2088SOL    HW2 7164   2.665   5.757   0.712
 2089SOL     OW 7165   4.551   1.766   0.001
 2089SOL    HW1 7166   4.622   1.837   0.001
 2089SOL    HW2 7167   4.475   1.796   6.965
 2090SOL     OW 7168   3.838   3.582   5.353
 2090SOL    HW1 7169   3.847   3.672   5.395
 2090SOL    HW2 7170   3.782   3.589   5.271
 2091SOL     OW 7171   6.927   5.764   0.081
 2091SOL    HW1 7172   6.897   5.858   0.065
 2091SOL    HW2 7173   6.858   5.717   0.137
 2092SOL     OW 7174   4.762   6.040   0.105
 2092SOL    HW1 7175   4.689   6.073   0.044
 2092SOL    HW2 7176   4.766   5.940   0.101
 2093SOL     OW 7177   1.861   2.619   1.658
 2093SOL    HW1 7178   1.891   2.528   1.686
 2093SOL    HW2 7179   1.886   2.686   1.729
 2094SOL     OW 7180   5.397   1.756   1.691
 2094SOL    HW1 7181   5.317   1.722   1.643
 2094SOL    HW2 7182   5.369   1.824   1.759
 2095SOL     OW 7183   5.502   0.056   4.896
 2095SOL    HW1 7184   5.438   0.102   4.957
 2095SOL    HW2 7185   5.475   6.980   4.885
 2096SOL     OW 7186   4.663   4.343   2.756
 2096SOL    HW1 7187   4.701   4.253   2.735
 2096SOL    HW2 7188   4.734   4.412   2.745
 2097SOL     OW 7189   1.507   2.962   6.942
 2097SOL    HW1 7190   1.438   2.944   6.872
 2097SOL    HW2 7191   1.485   3.048   6.988
 2098SOL     OW 7192   4.193   5.327   3.350
 2098SOL    HW1 7193   4.183   5.236   3.309
 2098SOL    HW2 7194   4.239   5.319   3.438
 2099SOL     OW 7195   2.425   2.528   5.385
 2099SOL    HW1 7196   2.352   2.523   5.452
 2099SOL    HW2 7197   2.413   2.611   5.329
 2100SOL     OW 7198   3.872   3.457   5.594
 2100SOL    HW1 7199   3.826   3.513   5.525
 2100SOL    HW2 7200   3.958   3.423   5.557
 2101SOL     OW 7201   1.447   6.736   2.892
 2101SOL    HW1 7202   1.369   6.714   2.951
 2101SOL    HW2 7203   1.473   6.656   2.838
 2102SOL     OW 7204   6.551   5.357   2.260
 2102SOL    HW1 7205   6.645   5.380   2.286
 2102SOL    HW2 7206   6.552   5.280   2.196
 2103SOL     OW 7207   2.749   3.197   6.362
 2103SOL    HW1 7208   2.661   3.211   6.409
 2103SOL    HW2 7209   2.733   3.191   6.263
 2104SOL     OW 7210   1.361   3.625   6.429
 2104SOL    HW1 7211   1.351   3.532   6.464
 2104SOL    HW2 7212   1.348   3.691   6.504
 2105SOL     OW 7213   4.890   5.715   4.512
 2105SOL    HW1 7214   4.843   5.629   4.531
 2105SOL    HW2 7215   4.933   5.748   4.596
 2106SOL     OW 7216   5.120   4.108   0.444
 2106SOL    HW1 7217   5.023   4.127   0.453
 2106SOL    HW2 7218   5.145   4.102   0.347
 2107SOL     OW 7219   4.611   2.708   5.642
 2107SOL    HW1 7220   4.641   2.797   5.674
 2107SOL    HW2 7221   4.611   2.643   5.718
 2108SOL     OW 7222   6.940   6.444   5.459
 2108SOL    HW1 7223   6.996   6.489   5.389
 2108SOL    HW2 7224   6.996   6.377   5.508
 2109SOL     OW 7225   4.591   6.543   3.032
 2109SOL    HW1 7226   4.525   6.479   3.071
 2109SOL    HW2 7227   4.675   6.542   3.086
 2110SOL     OW 7228   2.443   2.530   5.805
 2110SOL    HW1 7229   2.517   2.463   5.799
 2110SOL    HW2 7230   2.481   2.618   5.834
 2111SOL     OW 7231   1.077   2.222   6.654
 2111SOL    HW1 7232   1.023   2.141   6.676
 2111SOL    HW2 7233   1.022   2.285   6.599
 2112SOL     OW 7234   4.780   2.099   0.948
 2112SOL    HW1 7235   4.693   2.053   0.933
 2112SOL    HW2 7236   4.805   2.151   0.866
 2113SOL     OW 7237   1.461   0.403   5.087
 2113SOL    HW1 7238   1.405   0.472   5.133
 2113SOL    HW2 7239   1.448   0.410   4.988
 2114SOL     OW 7240   1.655   2.868   0.840
 2114SOL    HW1 7241   1.628   2.800   0.908
 2114SOL    HW2 7242   1.752   2.856   0.817
 2115SOL     OW 7243   2.237   3.986   2.925
 2115SOL    HW1 7244   2.250   4.082   2.951
 2115SOL    HW2 7245   2.201   3.982   2.832
 2116SOL     OW 7246   0.094   5.089   3.348
 2116SOL    HW1 7247   0.130   5.058   3.436
 2116SOL    HW2 7248   0.010   5.141   3.363
 2117SOL     OW 7249   6.752   4.473   1.053
 2117SOL    HW1 7250   6.729   4.448   0.959
 2117SOL    HW2 7251   6.743   4.392   1.112
 2118SOL     OW 7252   6.574   3.546   2.155
 2118SOL    HW1 7253   6.648   3.538   2.088
 2118SOL    HW2 7254   6.502   3.480   2.132
 2119SOL     OW 7255   2.332   5.808   1.187
 2119SOL    HW1 7256   2.391   5.739   1.228
 2119SOL    HW2 7257   2.389   5.881   1.148
 2120SOL     OW 7258   0.658   5.039   4.492
 2120SOL    HW1 7259   0.698   5.111   4.549
 2120SOL    HW2 7260   0.726   4.968   4.473
 2121SOL     OW 7261   0.883   4.664   5.925
 2121SOL    HW1 7262   0.917   4.615   6.006
 2121SOL    HW2 7263   0.863   4.599   5.852
 2122SOL     OW 7264   5.924   4.432   5.715
 2122SOL    HW1 7265   5.920   4.341   5.675
 2122SOL    HW2 7266   5.837   4.478   5.701
 2123SOL     OW 7267   6.452   4.695   1.907
 2123SOL    HW1 7268   6.515   4.770   1.884
 2123SOL    HW2 7269   6.417   4.708   2.000
 2124SOL     OW 7270   2.828   1.846   2.097
 2124SOL    HW1 7271   2.816   1.944   2.077
 2124SOL    HW2 7272   2.856   1.835   2.192
 2125SOL     OW 7273   1.936   0.501   0.533
 2125SOL    HW1 7274   1.882   0.436   0.478
 2125SOL    HW2 7275   1.879   0.538   0.606
 2126SOL     OW 7276   3.515   0.976   0.808
 2126SOL    HW1 7277   3.470   1.015   0.728
 2126SOL    HW2 7278   3.560   1.050   0.859
 2127SOL     OW 7279   6.893   3.405   4.233
 2127SOL    HW1 7280   6.984   3.379   4.201
 2127SOL    HW2 7281   6.871   3.353   4.315
 2128SOL     OW 7282   6.594   3.905   4.083
 2128SOL    HW1 7283   6.502   3.864   4.078
 2128SOL    HW2 7284   6.661   3.832   4.097
 2129SOL     OW 7285   4.601   3.055   5.318
 2129SOL    HW1 7286   4.519   3.097   5.356
 2129SOL    HW2 7287   4.575   2.978   5.260
 2130SOL     OW 7288   3.621   0.283   2.674
 2130SOL    HW1 7289   3.601   0.228   2.755
 2130SOL    HW2 7290   3.545   0.346   2.658
 2131SOL     OW 7291   6.552   0.648   1.013
 2131SOL    HW1 7292   6.531   0.626   1.109
 2131SOL    HW2 7293   6.601   0.735   1.009
 2132SOL     OW 7294   3.994   1.929   1.535
 2132SOL    HW1 7295   3.991   2.013   1.480
 2132SOL    HW2 7296   3.964   1.950   1.628
 2133SOL     OW 7297   2.298   2.997   6.141
 2133SOL    HW1 7298   2.324   3.011   6.236
 2133SOL    HW2 7299   2.274   2.901   6.126
 2134SOL     OW 7300   0.465   2.512   0.383
 2134SOL    HW1 7301   0.537   2.474   0.325
 2134SOL    HW2 7302   0.507   2.545   0.469
 2135SOL     OW 7303   0.705   3.825   4.992
 2135SOL    HW1 7304   0.783   3.885   4.974
 2135SOL    HW2 7305   0.620   3.871   4.966
 2136SOL     OW 7306   2.035   4.334   2.856
 2136SOL    HW1 7307   2.120   4.321   2.907
 2136SOL    HW2 7308   2.050   4.314   2.759
 2137SOL     OW 7309   2.387   5.392   5.400
 2137SOL    HW1 7310   2.396   5.445   5.485
 2137SOL    HW2 7311   2.294   5.354   5.394
 2138SOL     OW 7312   6.455   6.486   3.172
 2138SOL    HW1 7313   6.479   6.582   3.161
 2138SOL    HW2 7314   6.435   6.466   3.268
 2139SOL     OW 7315   4.463   0.814   4.077
 2139SOL    HW1 7316   4.535   0.788   4.141
 2139SOL    HW2 7317   4.384   0.755   4.089
 2140SOL     OW 7318   2.708   6.913   4.324
 2140SOL    HW1 7319   2.685   6.838   4.387
 2140SOL    HW2 7320   2.693   6.883   4.230
 2141SOL     OW 7321   6.597   3.004   2.496
 2141SOL    HW1 7322   6.696   3.012   2.488
 2141SOL    HW2 7323   6.575   2.951   2.578
 2142SOL     OW 7324   1.451   1.534   3.181
 2142SOL    HW1 7325   1.543   1.506   3.152
 2142SOL    HW2 7326   1.458   1.614   3.240
 2143SOL     OW 7327   3.159   4.952   1.218
 2143SOL    HW1 7328   3.108   4.866   1.209
 2143SOL    HW2 7329   3.238   4.938   1.277
 2144SOL     OW 7330   0.307   5.690   4.788
 2144SOL    HW1 7331   0.263   5.775   4.816
 2144SOL    HW2 7332   0.334   5.696   4.692
 2145SOL     OW 7333   3.934   6.362   4.424
 2145SOL    HW1 7334   3.958   6.271   4.460
 2145SOL    HW2 7335   3.898   6.418   4.498
 2146SOL     OW 7336   2.470   3.045   1.172
 2146SOL    HW1 7337   2.396   2.979   1.187
 2146SOL    HW2 7338   2.438   3.117   1.111
 2147SOL     OW 7339   5.732   1.178   6.820
 2147SOL    HW1 7340   5.774   1.207   6.906
 2147SOL    HW2 7341   5.779   1.222   6.743
 2148SOL     OW 7342   5.898   3.580   6.186
 2148SOL    HW1 7343   5.910   3.516   6.110
 2148SOL    HW2 7344   5.961   3.657   6.175
 2149SOL     OW 7345   2.288   1.672   1.201
 2149SOL    HW1 7346   2.292   1.662   1.102
 2149SOL    HW2 7347   2.202   1.634   1.235
 2150SOL     OW 7348   2.287   2.726   2.312
 2150SOL    HW1 7349   2.365   2.664   2.300
 2150SOL    HW2 7350   2.218   2.681   2.368
 2151SOL     OW 7351   1.595   6.293   6.358
 2151SOL    HW1 7352   1.678   6.253   6.398
 2151SOL    HW2 7353   1.595   6.276   6.259
 2152SOL     OW 7354   4.508   4.509   2.442
 2152SOL    HW1 7355   4.492   4.522   2.344
 2152SOL    HW2 7356   4.468   4.422   2.471
 2153SOL     OW 7357   3.835   1.754   2.552
 2153SOL    HW1 7358   3.926   1.733   2.588
 2153SOL    HW2 7359   3.830   1.850   2.527
 2154SOL     OW 7360   3.616   6.910   4.103
 2154SOL    HW1 7361   3.675   6.832   4.127
 2154SOL    HW2 7362   3.668   6.975   4.047
 2155SOL     OW 7363   4.291   6.912   0.959
 2155SOL    HW1 7364   4.199   6.952   0.955
 2155SOL    HW2 7365   4.341   6.936   0.877
 2156SOL     OW 7366   0.110   0.495   4.751
 2156SOL    HW1 7367   0.155   0.539   4.674
 2156SOL    HW2 7368   0.114   0.395   4.740
 2157SOL     OW 7369   5.507   6.182   3.608
 2157SOL    HW1 7370   5.435   6.235   3.563
 2157SOL    HW2 7371   5.472   6.144   3.694
 2158SOL     OW 7372   3.586   6.126   0.198
 2158SOL    HW1 7373   3.510   6.136   0.134
 2158SOL    HW2 7374   3.551   6.110   0.290
 2159SOL     OW 7375   1.325   0.802   5.086
 2159SOL    HW1 7376   1.414   0.790   5.129
 2159SOL    HW2 7377   1.290   0.894   5.105
 2160SOL     OW 7378   4.866   4.334   6.913
 2160SOL    HW1 7379   4.872   4.428   6.880
 2160SOL    HW2 7380   4.820   4.278   6.844
 2161SOL     OW 7381   6.442   4.149   1.810
 2161SOL    HW1 7382   6.357   4.195   1.837
 2161SOL    HW2 7383   6.483   4.105   1.890
 2162SOL     OW 7384   3.016   0.276   2.383
 2162SOL    HW1 7385   2.964   0.299   2.301
 2162SOL    HW2 7386   2.953   0.242   2.454
 2163SOL     OW 7387   1.817   4.875   0.394
 2163SOL    HW1 7388   1.912   4.891   0.418
 2163SOL    HW2 7389   1.812   4.831   0.304
 2164SOL     OW 7390   1.646   2.114   6.333
 2164SOL    HW1 7391   1.627   2.191   6.394
 2164SOL    HW2 7392   1.744   2.109   6.315
 2165SOL     OW 7393   0.395   2.016   3.453
 2165SOL    HW1 7394   0.402   1.918   3.433
 2165SOL    HW2 7395   0.416   2.069   3.372
 2166SOL     OW 7396   0.731   3.739   4.388
 2166SOL    HW1 7397   0.800   3.732   4.316
 2166SOL    HW2 7398   0.772   3.715   4.476
 2167SOL     OW 7399   0.671   2.693   3.608
 2167SOL    HW1 7400   0.769   2.706   3.628
 2167SOL    HW2 7401   0.633   2.778   3.573
 2168SOL     OW 7402   1.405   1.878   2.907
 2168SOL    HW1 7403   1.345   1.916   2.837
 2168SOL    HW2 7404   1.365   1.795   2.945
 2169SOL     OW 7405   6.068   1.230   0.999
 2169SOL    HW1 7406   6.105   1.272   0.916
 2169SOL    HW2 7407   6.008   1.295   1.046
 2170SOL     OW 7408   6.843   3.961   5.357
 2170SOL    HW1 7409   6.835   3.953   5.258
 2170SOL    HW2 7410   6.756   3.937   5.400
 2171SOL     OW 7411   0.372   5.601   1.124
 2171SOL    HW1 7412   0.348   5.673   1.189
 2171SOL    HW2 7413   0.430   5.639   1.052
 2172SOL     OW 7414   2.015   2.098   6.310
 2172SOL    HW1 7415   2.045   2.014   6.356
 2172SOL    HW2 7416   2.003   2.079   6.212
 2173SOL     OW 7417   4.423   0.535   5.193
 2173SOL    HW1 7418   4.474   0.540   5.108
 2173SOL    HW2 7419   4.325   0.542   5.174
 2174SOL     OW 7420   6.624   5.824   4.934
 2174SOL    HW1 7421   6.684   5.746   4.920
 2174SOL    HW2 7422   6.653   5.875   5.015
 2175SOL     OW 7423   1.767   3.573   3.940
 2175SOL    HW1 7424   1.754   3.511   3.863
 2175SOL    HW2 7425   1.689   3.635   3.946
 2176SOL     OW 7426   5.479   1.872   1.248
 2176SOL    HW1 7427   5.521   1.835   1.330
 2176SOL    HW2 7428   5.395   1.821   1.228
 2177SOL     OW 7429   0.006   0.637   2.478
 2177SOL    HW1 7430   7.004   0.544   2.449
 2177SOL    HW2 7431   0.102   0.640   2.508
 2178SOL     OW 7432   1.622   1.547   1.950
 2178SOL    HW1 7433   1.597   1.482   1.878
 2178SOL    HW2 7434   1.639   1.497   2.036
 2179SOL     OW 7435   1.965   4.157   6.126
 2179SOL    HW1 7436   1.883   4.187   6.077
 2179SOL    HW2 7437   1.982   4.060   6.106
 2180SOL     OW 7438   1.221   3.676   2.239
 2180SOL    HW1 7439   1.204   3.581   2.212
 2180SOL    HW2 7440   1.136   3.715   2.276
 2181SOL     OW 7441   4.506   5.035   4.114
 2181SOL    HW1 7442   4.438   4.992   4.056
 2181SOL    HW2 7443   4.535   4.971   4.185
 2182SOL     OW 7444   1.648   4.771   3.574
 2182SOL    HW1 7445   1.667   4.849   3.634
 2182SOL    HW2 7446   1.731   4.748   3.523
 2183SOL     OW 7447   2.097   4.272   0.290
 2183SOL    HW1 7448   2.143   4.305   0.372
 2183SOL    HW2 7449   2.142   4.189   0.257
 2184SOL     OW 7450   4.081   0.379   6.124
 2184SOL    HW1 7451   4.137   0.332   6.192
 2184SOL    HW2 7452   3.996   0.410   6.166
 2185SOL     OW 7453   0.885   1.060   7.007
 2185SOL    HW1 7454   0.831   1.144   7.006
 2185SOL    HW2 7455   0.971   1.075   6.958
 2186SOL     OW 7456   6.513   5.283   0.405
 2186SOL    HW1 7457   6.595   5.227   0.405
 2186SOL    HW2 7458   6.535   5.375   0.435
 2187SOL     OW 7459   0.451   5.564   1.851
 2187SOL    HW1 7460   0.495   5.584   1.939
 2187SOL    HW2 7461   0.420   5.469   1.850
 2188SOL     OW 7462   1.253   5.609   5.167
 2188SOL    HW1 7463   1.352   5.598   5.164
 2188SOL    HW2 7464   1.214   5.548   5.235
 2189SOL     OW 7465   1.332   6.719   1.347
 2189SOL    HW1 7466   1.366   6.731   1.440
 2189SOL    HW2 7467   1.379   6.643   1.303
 2190SOL     OW 7468   6.748   2.942   1.666
 2190SOL    HW1 7469   6.700   2.857   1.688
 2190SOL    HW2 7470   6.783   2.984   1.749
 2191SOL     OW 7471   2.250   1.951   5.755
 2191SOL    HW1 7472   2.297   1.866   5.733
 2191SOL    HW2 7473   2.215   1.993   5.672
 2192SOL     OW 7474   5.515   0.922   2.518
 2192SOL    HW1 7475   5.482   0.958   2.605
 2192SOL    HW2 7476   5.487   0.827   2.508
 2193SOL     OW 7477   6.599   0.278   6.672
 2193SOL    HW1 7478   6.628   0.183   6.686
 2193SOL    HW2 7479   6.515   0.280   6.619
 2194SOL     OW 7480   1.807   4.090   6.726
 2194SOL    HW1 7481   1.893   4.141   6.730
 2194SOL    HW2 7482   1.766   4.101   6.635
 2195SOL     OW 7483   6.823   6.547   5.705
 2195SOL    HW1 7484   6.861   6.516   5.618
 2195SOL    HW2 7485   6.767   6.628   5.691
 2196SOL     OW 7486   3.110   6.879   4.576
 2196SOL    HW1 7487   3.152   6.944   4.639
 2196SOL    HW2 7488   3.056   6.929   4.508
 2197SOL     OW 7489   2.574   3.832   6.124
 2197SOL    HW1 7490   2.564   3.888   6.042
 2197SOL    HW2 7491   2.493   3.775   6.136
 2198SOL     OW 7492   5.962   0.099   2.081
 2198SOL    HW1 7493   6.004   0.141   2.001
 2198SOL    HW2 7494   5.997   0.143   2.164
 2199SOL     OW 7495   5.270   6.885   4.064
 2199SOL    HW1 7496   5.317   6.899   3.977
 2199SOL    HW2 7497   5.240   6.789   4.071
 2200SOL     OW 7498   1.847   2.070   4.515
 2200SOL    HW1 7499   1.923   2.015   4.482
 2200SOL    HW2 7500   1.848   2.159   4.468
 2201SOL     OW 7501   6.525   2.749   2.915
 2201SOL    HW1 7502   6.580   2.724   2.995
 2201SOL    HW2 7503   6.468   2.828   2.938
 2202SOL     OW 7504   3.932   5.878   1.862
 2202SOL    HW1 7505   3.959   5.848   1.770
 2202SOL    HW2 7506   3.877   5.961   1.855
 2203SOL     OW 7507   2.292   3.692   0.846
 2203SOL    HW1 7508   2.243   3.751   0.910
 2203SOL    HW2 7509   2.367   3.744   0.803
 2204SOL     OW 7510   4.858   2.369   1.017
 2204SOL    HW1 7511   4.810   2.438   0.963
 2204SOL    HW2 7512   4.832   2.278   0.985
 2205SOL     OW 7513   1.210   6.885   6.448
 2205SOL    HW1 7514   1.122   6.927   6.424
 2205SOL    HW2 7515   1.204   6.844   6.539
 2206SOL     OW 7516   3.411   4.286   5.611
 2206SOL    HW1 7517   3.404   4.382   5.584
 2206SOL    HW2 7518   3.319   4.246   5.615
 2207SOL     OW 7519   3.187   5.051   6.318
 2207SOL    HW1 7520   3.137   5.120   6.371
 2207SOL    HW2 7521   3.179   4.962   6.363
 2208SOL     OW 7522   1.561   5.059   3.417
 2208SOL    HW1 7523   1.494   5.121   3.377
 2208SOL    HW2 7524   1.653   5.099   3.408
 2209SOL     OW 7525   2.472   0.072   4.879
 2209SOL    HW1 7526   2.555   0.082   4.934
 2209SOL    HW2 7527   2.392   0.090   4.937
 2210SOL     OW 7528   0.473   4.326   3.903
 2210SOL    HW1 7529   0.573   4.327   3.908
 2210SOL    HW2 7530   0.437   4.249   3.956
 2211SOL     OW 7531   6.882   0.716   0.775
 2211SOL    HW1 7532   6.857   0.670   0.859
 2211SOL    HW2 7533   6.947   0.790   0.796
 2212SOL     OW 7534   2.118   5.876   0.436
 2212SOL    HW1 7535   2.093   5.897   0.342
 2212SOL    HW2 7536   2.214   5.849   0.441
 2213SOL     OW 7537   3.490   1.847   5.175
 2213SOL    HW1 7538   3.414   1.894   5.220
 2213SOL    HW2 7539   3.530   1.907   5.106
 2214SOL     OW 7540   2.884   3.500   4.797
 2214SOL    HW1 7541   2.882   3.400   4.796
 2214SOL    HW2 7542   2.884   3.532   4.892
 2215SOL     OW 7543   5.471   0.521   0.172
 2215SOL    HW1 7544   5.543   0.558   0.114
 2215SOL    HW2 7545   5.431   0.440   0.127
 2216SOL     OW 7546   1.212   0.956   6.686
 2216SOL    HW1 7547   1.281   0.907   6.632
 2216SOL    HW2 7548   1.139   0.892   6.712
 2217SOL     OW 7549   3.836   6.763   2.324
 2217SOL    HW1 7550   3.771   6.837   2.339
 2217SOL    HW2 7551   3.930   6.799   2.327
 2218SOL     OW 7552   0.167   5.085   0.241
 2218SOL    HW1 7553   0.152   5.175   0.201
 2218SOL    HW2 7554   0.250   5.087   0.297
 2219SOL     OW 7555   6.115   1.874   0.721
 2219SOL    HW1 7556   6.040   1.839   0.776
 2219SOL    HW2 7557   6.134   1.811   0.646
 2220SOL     OW 7558   2.290   5.939   5.051
 2220SOL    HW1 7559   2.260   5.895   5.136
 2220SOL    HW2 7560   2.362   6.005   5.071
 2221SOL     OW 7561   5.705   1.960   5.625
 2221SOL    HW1 7562   5.750   1.871   5.630
 2221SOL    HW2 7563   5.767   2.027   5.584
 2222SOL     OW 7564   5.837   0.467   1.392
 2222SOL    HW1 7565   5.786   0.546   1.425
 2222SOL    HW2 7566   5.849   0.401   1.466
 2223SOL     OW 7567   5.835   1.106   5.821
 2223SOL    HW1 7568   5.787   1.079   5.737
 2223SOL    HW2 7569   5.891   1.187   5.803
 2224SOL     OW 7570   6.323   3.854   0.460
 2224SOL    HW1 7571   6.349   3.783   0.526
 2224SOL    HW2 7572   6.381   3.847   0.379
 2225SOL     OW 7573   6.128   6.411   4.391
 2225SOL    HW1 7574   6.124   6.368   4.481
 2225SOL    HW2 7575   6.181   6.353   4.329
 2226SOL     OW 7576   4.115   5.032   0.798
 2226SOL    HW1 7577   4.117   5.121   0.752
 2226SOL    HW2 7578   4.109   5.046   0.897
 2227SOL     OW 7579   6.114   2.590   0.044
 2227SOL    HW1 7580   6.197   2.551   0.004
 2227SOL    HW2 7581   6.034   2.539   0.013
 2228SOL     OW 7582   4.462   5.239   1.004
 2228SOL    HW1 7583   4.395   5.287   1.061
 2228SOL    HW2 7584   4.434   5.244   0.908
 2229SOL     OW 7585   4.311   3.041   5.330
 2229SOL    HW1 7586   4.213   3.050   5.313
 2229SOL    HW2 7587   4.329   2.953   5.375
 2230SOL     OW 7588   6.588   6.043   0.621
 2230SOL    HW1 7589   6.669   6.069   0.568
 2230SOL    HW2 7590   6.536   5.974   0.571
 2231SOL     OW 7591   0.194   0.985   1.500
 2231SOL    HW1 7592   0.134   0.911   1.533
 2231SOL    HW2 7593   0.201   0.980   1.400
 2232SOL     OW 7594   0.920   1.412   4.163
 2232SOL    HW1 7595   0.927   1.483   4.094
 2232SOL    HW2 7596   1.012   1.383   4.190
 2233SOL     OW 7597   2.716   3.214   0.556
 2233SOL    HW1 7598   2.687   3.194   0.649
 2233SOL    HW2 7599   2.656   3.169   0.491
 2234SOL     OW 7600   3.934   1.493   1.355
 2234SOL    HW1 7601   3.988   1.430   1.299
 2234SOL    HW2 7602   3.985   1.516   1.438
 2235SOL     OW 7603   3.059   0.190   1.322
 2235SOL    HW1 7604   2.971   0.236   1.315
 2235SOL    HW2 7605   3.091   0.166   1.230
 2236SOL     OW 7606   1.984   3.888   6.050
 2236SOL    HW1 7607   2.024   3.800   6.025
 2236SOL    HW2 7608   1.899   3.873   6.100
 2237SOL     OW 7609   5.454   4.344   3.987
 2237SOL    HW1 7610   5.398   4.324   3.907
 2237SOL    HW2 7611   5.424   4.430   4.028
 2238SOL     OW 7612   4.922   5.558   1.602
 2238SOL    HW1 7613   5.000   5.618   1.582
 2238SOL    HW2 7614   4.841   5.592   1.554
 2239SOL     OW 7615   3.729   5.012   4.057
 2239SOL    HW1 7616   3.723   5.011   3.957
 2239SOL    HW2 7617   3.639   5.033   4.095
 2240SOL     OW 7618   3.364   5.267   3.235
 2240SOL    HW1 7619   3.418   5.290   3.154
 2240SOL    HW2 7620   3.267   5.282   3.215
 2241SOL     OW 7621   0.088   5.869   2.944
 2241SOL    HW1 7622   0.006   5.812   2.956
 2241SOL    HW2 7623   0.168   5.819   2.975
 2242SOL     OW 7624   5.085   2.734   2.728
 2242SOL    HW1 7625   5.169   2.770   2.688
 2242SOL    HW2 7626   5.061   2.786   2.810
 2243SOL     OW 7627   1.700   6.352   5.712
 2243SOL    HW1 7628   1.663   6.438   5.677
 2243SOL    HW2 7629   1.771   6.370   5.780
 2244SOL     OW 7630   2.285   6.721   0.895
 2244SOL    HW1 7631   2.191   6.724   0.863
 2244SOL    HW2 7632   2.316   6.813   0.919
 2245SOL     OW 7633   0.945   1.447   1.890
 2245SOL    HW1 7634   1.034   1.403   1.874
 2245SOL    HW2 7635   0.930   1.457   1.988
 2246SOL     OW 7636   1.706   1.068   4.024
 2246SOL    HW1 7637   1.703   1.167   4.039
 2246SOL    HW2 7638   1.622   1.027   4.059
 2247SOL     OW 7639   3.285   2.929   3.554
 2247SOL    HW1 7640   3.368   2.915   3.607
 2247SOL    HW2 7641   3.287   2.872   3.472
 2248SOL     OW 7642   6.438   4.214   4.907
 2248SOL    HW1 7643   6.499   4.285   4.942
 2248SOL    HW2 7644   6.453   4.201   4.809
 2249SOL     OW 7645   5.800   6.555   3.691
 2249SOL    HW1 7646   5.799   6.621   3.616
 2249SOL    HW2 7647   5.817   6.602   3.778
 2250SOL     OW 7648   3.549   3.822   4.977
 2250SOL    HW1 7649   3.633   3.839   4.925
 2250SOL    HW2 7650   3.567   3.831   5.075
 2251SOL     OW 7651   5.386   0.349   7.020
 2251SOL    HW1 7652   5.295   0.342   6.979
 2251SOL    HW2 7653   5.420   0.258   0.021
 2252SOL     OW 7654   4.738   2.050   2.697
 2252SOL    HW1 7655   4.647   2.046   2.656
 2252SOL    HW2 7656   4.734   2.106   2.780
 2253SOL     OW 7657   6.765   3.591   6.634
 2253SOL    HW1 7658   6.843   3.571   6.575
 2253SOL    HW2 7659   6.693   3.634   6.580
 2254SOL     OW 7660   3.547   3.215   4.660
 2254SOL    HW1 7661   3.530   3.313   4.664
 2254SOL    HW2 7662   3.590   3.192   4.572
 2255SOL     OW 7663   3.935   3.166   6.089
 2255SOL    HW1 7664   3.977   3.083   6.124
 2255SOL    HW2 7665   3.888   3.146   6.003
 2256SOL     OW 7666   4.826   6.470   2.017
 2256SOL    HW1 7667   4.859   6.460   1.923
 2256SOL    HW2 7668   4.836   6.565   2.046
 2257SOL     OW 7669   6.941   1.589   4.316
 2257SOL    HW1 7670   6.880   1.654   4.269
 2257SOL    HW2 7671   6.956   1.509   4.257
 2258SOL     OW 7672   1.514   5.420   4.620
 2258SOL    HW1 7673   1.485   5.331   4.656
 2258SOL    HW2 7674   1.453   5.491   4.655
 2259SOL     OW 7675   4.961   2.858   5.433
 2259SOL    HW1 7676   5.036   2.921   5.453
 2259SOL    HW2 7677   4.969   2.776   5.490
 2260SOL     OW 7678   0.320   4.460   1.364
 2260SOL    HW1 7679   0.376   4.443   1.283
 2260SOL    HW2 7680   0.355   4.541   1.412
 2261SOL     OW 7681   5.292   5.166   0.164
 2261SOL    HW1 7682   5.295   5.244   0.226
 2261SOL    HW2 7683   5.242   5.192   0.081
 2262SOL     OW 7684   5.925   0.460   3.828
 2262SOL    HW1 7685   5.886   0.389   3.771
 2262SOL    HW2 7686   6.001   0.423   3.881
 2263SOL     OW 7687   3.209   6.042   0.305
 2263SOL    HW1 7688   3.272   5.966   0.288
 2263SOL    HW2 7689   3.127   6.030   0.249
 2264SOL     OW 7690   3.051   5.434   6.741
 2264SOL    HW1 7691   2.983   5.474   6.803
 2264SOL    HW2 7692   3.019   5.343   6.713
 2265SOL     OW 7693   2.071   0.990   3.686
 2265SOL    HW1 7694   2.143   0.923   3.669
 2265SOL    HW2 7695   2.060   1.002   3.785
 2266SOL     OW 7696   5.244   1.324   0.592
 2266SOL    HW1 7697   5.227   1.229   0.567
 2266SOL    HW2 7698   5.211   1.384   0.519
 2267SOL     OW 7699   4.856   3.193   4.782
 2267SOL    HW1 7700   4.853   3.097   4.809
 2267SOL    HW2 7701   4.774   3.216   4.731
 2268SOL     OW 7702   6.000   3.957   6.518
 2268SOL    HW1 7703   5.925   3.909   6.473
 2268SOL    HW2 7704   6.073   3.974   6.452
 2269SOL     OW 7705   6.954   4.713   5.744
 2269SOL    HW1 7706   6.964   4.691   5.841
 2269SOL    HW2 7707   7.002   4.644   5.689
 2270SOL     OW 7708   3.296   2.353   5.822
 2270SOL    HW1 7709   3.235   2.403   5.883
 2270SOL    HW2 7710   3.377   2.408   5.803
 2271SOL     OW 7711   5.468   4.539   0.129
 2271SOL    HW1 7712   5.519   4.572   0.049
 2271SOL    HW2 7713   5.527   4.480   0.184
 2272SOL     OW 7714   6.277   2.008   6.441
 2272SOL    HW1 7715   6.287   1.940   6.369
 2272SOL    HW2 7716   6.212   1.976   6.510
 2273SOL     OW 7717   1.820   1.221   1.946
 2273SOL    HW1 7718   1.822   1.182   1.855
 2273SOL    HW2 7719   1.912   1.248   1.973
 2274SOL     OW 7720   1.062   1.973   5.855
 2274SOL    HW1 7721   1.158   1.996   5.838
 2274SOL    HW2 7722   1.042   1.985   5.952
 2275SOL     OW 7723   6.344   6.271   4.658
 2275SOL    HW1 7724   6.417   6.210   4.628
 2275SOL    HW2 7725   6.378   6.364   4.661
 2276SOL     OW 7726   2.568   5.670   2.066
 2276SOL    HW1 7727   2.481   5.632   2.098
 2276SOL    HW2 7728   2.570   5.667   1.966
 2277SOL     OW 7729   3.989   3.685   4.166
 2277SOL    HW1 7730   4.020   3.763   4.222
 2277SOL    HW2 7731   3.894   3.700   4.138
 2278SOL     OW 7732   6.183   4.285   4.646
 2278SOL    HW1 7733   6.248   4.329   4.585
 2278SOL    HW2 7734   6.139   4.208   4.599
 2279SOL     OW 7735   5.628   6.736   6.000
 2279SOL    HW1 7736   5.530   6.714   5.996
 2279SOL    HW2 7737   5.645   6.793   6.081
 2280SOL     OW 7738   6.823   0.204   4.801
 2280SOL    HW1 7739   6.739   0.247   4.834
 2280SOL    HW2 7740   6.839   0.119   4.852
 2281SOL     OW 7741   2.960   0.803   1.787
 2281SOL    HW1 7742   3.024   0.736   1.825
 2281SOL    HW2 7743   3.005   0.892   1.778
 2282SOL     OW 7744   5.702   0.038   5.485
 2282SOL    HW1 7745   5.745   0.078   5.566
 2282SOL    HW2 7746   5.645   0.107   5.441
 2283SOL     OW 7747   1.309   5.933   1.805
 2283SOL    HW1 7748   1.323   5.848   1.755
 2283SOL    HW2 7749   1.266   6.001   1.746
 2284SOL     OW 7750   1.632   2.628   0.284
 2284SOL    HW1 7751   1.611   2.547   0.338
 2284SOL    HW2 7752   1.679   2.695   0.342
 2285SOL     OW 7753   2.062   2.627   1.348
 2285SOL    HW1 7754   2.158   2.646   1.371
 2285SOL    HW2 7755   2.004   2.701   1.383
 2286SOL     OW 7756   5.895   6.997   3.724
 2286SOL    HW1 7757   5.983   6.956   3.700
 2286SOL    HW2 7758   5.823   6.928   3.723
 2287SOL     OW 7759   2.377   6.952   3.426
 2287SOL    HW1 7760   2.325   6.950   3.341
 2287SOL    HW2 7761   2.469   6.985   3.408
 2288SOL     OW 7762   5.959   4.712   4.082
 2288SOL    HW1 7763   5.990   4.743   3.992
 2288SOL    HW2 7764   5.916   4.623   4.073
 2289SOL     OW 7765   0.896   5.176   0.911
 2289SOL    HW1 7766   0.870   5.242   0.840
 2289SOL    HW2 7767   0.814   5.149   0.962
 2290SOL     OW 7768   0.575   3.665   0.971
 2290SOL    HW1 7769   0.647   3.725   1.007
 2290SOL    HW2 7770   0.486   3.700   0.997
 2291SOL     OW 7771   1.785   2.172   5.172
 2291SOL    HW1 7772   1.786   2.222   5.258
 2291SOL    HW2 7773   1.837   2.087   5.182
 2292SOL     OW 7774   0.849   1.980   4.233
 2292SOL    HW1 7775   0.844   2.046   4.307
 2292SOL    HW2 7776   0.940   1.983   4.191
 2293SOL     OW 7777   4.974   5.980   1.612
 2293SOL    HW1 7778   4.923   6.065   1.619
 2293SOL    HW2 7779   5.018   5.974   1.522
 2294SOL     OW 7780   3.475   0.484   6.978
 2294SOL    HW1 7781   3.501   0.580   6.968
 2294SOL    HW2 7782   3.408   0.460   6.909
 2295SOL     OW 7783   0.797   1.725   2.924
 2295SOL    HW1 7784   0.786   1.696   2.829
 2295SOL    HW2 7785   0.826   1.820   2.926
 2296SOL     OW 7786   4.517   5.054   0.565
 2296SOL    HW1 7787   4.469   4.971   0.594
 2296SOL    HW2 7788   4.604   5.028   0.522
 2297SOL     OW 7789   4.413   3.925   5.444
 2297SOL    HW1 7790   4.404   3.920   5.544
 2297SOL    HW2 7791   4.507   3.908   5.418
 2298SOL     OW 7792   3.993   3.077   1.582
 2298SOL    HW1 7793   4.027   3.116   1.496
 2298SOL    HW2 7794   4.068   3.030   1.629
 2299SOL     OW 7795   4.396   6.189   5.435
 2299SOL    HW1 7796   4.491   6.218   5.445
 2299SOL    HW2 7797   4.353   6.242   5.362
 2300SOL     OW 7798   2.038   5.506   2.447
 2300SOL    HW1 7799   2.081   5.521   2.536
 2300SOL    HW2 7800   2.104   5.465   2.384
 2301SOL     OW 7801   3.202   2.974   3.021
 2301SOL    HW1 7802   3.281   3.034   3.008
 2301SOL    HW2 7803   3.144   2.976   2.939
 2302SOL     OW 7804   3.733   0.187   0.676
 2302SOL    HW1 7805   3.671   0.245   0.624
 2302SOL    HW2 7806   3.726   0.210   0.773
 2303SOL     OW 7807   1.903   3.226   6.059
 2303SOL    HW1 7808   1.885   3.222   6.158
 2303SOL    HW2 7809   1.847   3.157   6.012
 2304SOL     OW 7810   4.322   6.853   3.779
 2304SOL    HW1 7811   4.347   6.935   3.727
 2304SOL    HW2 7812   4.387   6.842   3.855
 2305SOL     OW 7813   2.725   6.732   2.912
 2305SOL    HW1 7814   2.767   6.715   3.001
 2305SOL    HW2 7815   2.782   6.795   2.860
 2306SOL     OW 7816   2.629   5.063   1.970
 2306SOL    HW1 7817   2.679   5.072   2.056
 2306SOL    HW2 7818   2.662   5.133   1.906
 2307SOL     OW 7819   0.459   4.179   2.794
 2307SOL    HW1 7820   0.406   4.252   2.750
 2307SOL    HW2 7821   0.440   4.092   2.747
 2308SOL     OW 7822   1.543   6.408   0.245
 2308SOL    HW1 7823   1.457   6.412   0.296
 2308SOL    HW2 7824   1.569   6.312   0.231
 2309SOL     OW 7825   2.061   6.664   6.907
 2309SOL    HW1 7826   2.047   6.578   6.858
 2309SOL    HW2 7827   2.019   6.658   6.998
 2310SOL     OW 7828   5.566   6.381   1.203
 2310SOL    HW1 7829   5.539   6.478   1.207
 2310SOL    HW2 7830   5.485   6.324   1.209
 2311SOL     OW 7831   2.112   5.990   1.810
 2311SOL    HW1 7832   2.086   5.930   1.734
 2311SOL    HW2 7833   2.030   6.035   1.847
 2312SOL     OW 7834   3.728   6.454   4.055
 2312SOL    HW1 7835   3.700   6.422   3.964
 2312SOL    HW2 7836   3.734   6.554   4.055
 2313SOL     OW 7837   5.108   5.638   1.155
 2313SOL    HW1 7838   5.177   5.592   1.211
 2313SOL    HW2 7839   5.028   5.579   1.146
 2314SOL     OW 7840   5.363   0.362   5.250
 2314SOL    HW1 7841   5.349   0.458   5.227
 2314SOL    HW2 7842   5.424   0.319   5.183
 2315SOL     OW 7843   4.805   3.235   5.296
 2315SOL    HW1 7844   4.748   3.153   5.295
 2315SOL    HW2 7845   4.787   3.289   5.214
 2316SOL     OW 7846   2.939   0.516   4.312
 2316SOL    HW1 7847   2.895   0.440   4.265
 2316SOL    HW2 7848   2.989   0.572   4.246
 2317SOL     OW 7849   6.840   5.990   3.494
 2317SOL    HW1 7850   6.848   6.018   3.398
 2317SOL    HW2 7851   6.744   5.967   3.513
 2318SOL     OW 7852   2.299   2.911   4.405
 2318SOL    HW1 7853   2.364   2.836   4.414
 2318SOL    HW2 7854   2.345   2.998   4.425
 2319SOL     OW 7855   2.427   5.560   4.515
 2319SOL    HW1 7856   2.509   5.616   4.508
 2319SOL    HW2 7857   2.453   5.463   4.518
 2320SOL     OW 7858   0.818   3.097   4.847
 2320SOL    HW1 7859   0.888   3.154   4.803
 2320SOL    HW2 7860   0.861   3.031   4.908
 2321SOL     OW 7861   2.235   5.934   6.955
 2321SOL    HW1 7862   2.321   5.901   6.917
 2321SOL    HW2 7863   2.225   6.032   6.936
 2322SOL     OW 7864   1.660   3.862   3.289
 2322SOL    HW1 7865   1.723   3.868   3.212
 2322SOL    HW2 7866   1.568   3.841   3.255
 2323SOL     OW 7867   3.456   4.974   1.818
 2323SOL    HW1 7868   3.492   4.892   1.862
 2323SOL    HW2 7869   3.532   5.032   1.787
 2324SOL     OW 7870   6.694   5.756   0.790
 2324SOL    HW1 7871   6.736   5.673   0.754
 2324SOL    HW2 7872   6.691   5.752   0.890
 2325SOL     OW 7873   0.876   4.415   1.488
 2325SOL    HW1 7874   0.864   4.347   1.561
 2325SOL    HW2 7875   0.881   4.506   1.528
 2326SOL     OW 7876   3.647   5.526   6.573
 2326SOL    HW1 7877   3.738   5.499   6.604
 2326SOL    HW2 7878   3.616   5.607   6.623
 2327SOL     OW 7879   6.614   1.233   4.046
 2327SOL    HW1 7880   6.641   1.137   4.058
 2327SOL    HW2 7881   6.677   1.277   3.982
 2328SOL     OW 7882   1.865   1.939   2.878
 2328SOL    HW1 7883   1.964   1.927   2.866
 2328SOL    HW2 7884   1.848   2.020   2.934
 2329SOL     OW 7885   1.642   4.674   4.529
 2329SOL    HW1 7886   1.702   4.727   4.589
 2329SOL    HW2 7887   1.572   4.629   4.584
 2330SOL     OW 7888   0.794   3.794   1.099
 2330SOL    HW1 7889   0.776   3.745   1.184
 2330SOL    HW2 7890   0.822   3.888   1.120
 2331SOL     OW 7891   3.778   5.883   6.469
 2331SOL    HW1 7892   3.825   5.948   6.410
 2331SOL    HW2 7893   3.740   5.809   6.413
 2332SOL     OW 7894   5.149   1.376   5.317
 2332SOL    HW1 7895   5.078   1.421   5.371
 2332SOL    HW2 7896   5.111   1.297   5.269
 2333SOL     OW 7897   0.287   4.355   2.681
 2333SOL    HW1 7898   0.239   4.396   2.759
 2333SOL    HW2 7899   0.230   4.365   2.599
 2334SOL     OW 7900   2.172   0.822   7.012
 2334SOL    HW1 7901   2.219   0.832   6.925
 2334SOL    HW2 7902   2.172   0.726   0.019
 2335SOL     OW 7903   6.126   1.245   3.420
 2335SOL    HW1 7904   6.036   1.253   3.462
 2335SOL    HW2 7905   6.188   1.312   3.461
 2336SOL     OW 7906   4.420   2.473   4.881
 2336SOL    HW1 7907   4.331   2.439   4.913
 2336SOL    HW2 7908   4.493   2.423   4.927
 2337SOL     OW 7909   4.608   0.934   1.824
 2337SOL    HW1 7910   4.701   0.966   1.843
 2337SOL    HW2 7911   4.549   0.957   1.901
 2338SOL     OW 7912   1.186   3.038   5.706
 2338SOL    HW1 7913   1.186   2.948   5.749
 2338SOL    HW2 7914   1.197   3.109   5.776
 2339SOL     OW 7915   3.260   3.529   4.466
 2339SOL    HW1 7916   3.180   3.473   4.490
 2339SOL    HW2 7917   3.246   3.623   4.499
 2340SOL     OW 7918   5.900   4.342   0.292
 2340SOL    HW1 7919   5.971   4.331   0.361
 2340SOL    HW2 7920   5.920   4.285   0.213
 2341SOL     OW 7921   3.981   4.480   1.692
 2341SOL    HW1 7922   4.033   4.396   1.703
 2341SOL    HW2 7923   3.883   4.460   1.696
 2342SOL     OW 7924   0.547   0.185   4.889
 2342SOL    HW1 7925   0.610   0.111   4.864
 2342SOL    HW2 7926   0.599   0.269   4.903
 2343SOL     OW 7927   2.046   5.733   3.270
 2343SOL    HW1 7928   1.975   5.788   3.313
 2343SOL    HW2 7929   2.081   5.666   3.336
 2344SOL     OW 7930   1.966   6.168   0.109
 2344SOL    HW1 7931   1.869   6.188   0.096
 2344SOL    HW2 7932   1.993   6.192   0.202
 2345SOL     OW 7933   3.546   5.700   4.957
 2345SOL    HW1 7934   3.584   5.609   4.973
 2345SOL    HW2 7935   3.454   5.706   4.996
 2346SOL     OW 7936   4.191   2.867   5.579
 2346SOL    HW1 7937   4.138   2.783   5.587
 2346SOL    HW2 7938   4.280   2.846   5.538
 2347SOL     OW 7939   2.907   2.876   1.738
 2347SOL    HW1 7940   2.874   2.970   1.734
 2347SOL    HW2 7941   2.837   2.817   1.778
 2348SOL     OW 7942   2.299   0.144   3.765
 2348SOL    HW1 7943   2.345   0.154   3.853
 2348SOL    HW2 7944   2.363   0.108   3.698
 2349SOL     OW 7945   0.897   4.064   6.669
 2349SOL    HW1 7946   0.909   4.143   6.608
 2349SOL    HW2 7947   0.968   3.997   6.651
 2350SOL     OW 7948   4.519   6.811   6.344
 2350SOL    HW1 7949   4.565   6.773   6.425
 2350SOL    HW2 7950   4.555   6.766   6.262
 2351SOL     OW 7951   2.902   5.363   3.587
 2351SOL    HW1 7952   2.946   5.290   3.639
 2351SOL    HW2 7953   2.946   5.374   3.499
 2352SOL     OW 7954   0.887   4.757   2.263
 2352SOL    HW1 7955   0.935   4.775   2.349
 2352SOL    HW2 7956   0.815   4.689   2.279
 2353SOL     OW 7957   2.856   4.542   6.242
 2353SOL    HW1 7958   2.822   4.608   6.175
 2353SOL    HW2 7959   2.929   4.488   6.201
 2354SOL     OW 7960   3.325   1.269   6.032
 2354SOL    HW1 7961   3.379   1.241   5.953
 2354SOL    HW2 7962   3.363   1.226   6.115
 2355SOL     OW 7963   2.437   5.674   0.292
 2355SOL    HW1 7964   2.533   5.666   0.265
 2355SOL    HW2 7965   2.429   5.734   0.371
 2356SOL     OW 7966   1.338   3.346   6.467
 2356SOL    HW1 7967   1.404   3.299   6.524
 2356SOL    HW2 7968   1.315   3.290   6.388
 2357SOL     OW 7969   4.114   6.729   2.716
 2357SOL    HW1 7970   4.172   6.784   2.657
 2357SOL    HW2 7971   4.111   6.635   2.682
 2358SOL     OW 7972   4.192   5.007   5.191
 2358SOL    HW1 7973   4.249   4.930   5.162
 2358SOL    HW2 7974   4.098   4.991   5.161
 2359SOL     OW 7975   6.167   0.734   6.096
 2359SOL    HW1 7976   6.178   0.643   6.137
 2359SOL    HW2 7977   6.070   0.760   6.097
 2360SOL     OW 7978   5.562   4.893   6.979
 2360SOL    HW1 7979   5.557   4.820   0.027
 2360SOL    HW2 7980   5.634   4.873   6.913
 2361SOL     OW 7981   2.152   0.930   4.837
 2361SOL    HW1 7982   2.122   1.020   4.805
 2361SOL    HW2 7983   2.147   0.865   4.761
 2362SOL     OW 7984   2.097   7.013   4.800
 2362SOL    HW1 7985   2.138   6.974   4.718
 2362SOL    HW2 7986   2.044   0.074   4.776
 2363SOL     OW 7987   4.368   2.115   5.163
 2363SOL    HW1 7988   4.427   2.095   5.085
 2363SOL    HW2 7989   4.407   2.076   5.246
 2364SOL     OW 7990   1.205   1.533   2.573
 2364SOL    HW1 7991   1.192   1.499   2.666
 2364SOL    HW2 7992   1.142   1.486   2.511
 2365SOL     OW 7993   6.555   2.846   6.433
 2365SOL    HW1 7994   6.654   2.838   6.425
 2365SOL    HW2 7995   6.520   2.771   6.488
 2366SOL     OW 7996   1.895   5.688   6.062
 2366SOL    HW1 7997   1.843   5.731   6.136
 2366SOL    HW2 7998   1.859   5.596   6.046
 2367SOL     OW 7999   2.988   4.730   0.596
 2367SOL    HW1 8000   2.913   4.706   0.657
 2367SOL    HW2 8001   3.011   4.651   0.538
 2368SOL     OW 8002   4.572   0.424   3.462
 2368SOL    HW1 8003   4.487   0.401   3.415
 2368SOL    HW2 8004   4.556   0.500   3.526
 2369SOL     OW 8005   0.950   2.632   5.472
 2369SOL    HW1 8006   1.026   2.662   5.415
 2369SOL    HW2 8007   0.908   2.712   5.515
 2370SOL     OW 8008   5.291   3.554   6.943
 2370SOL    HW1 8009   5.211   3.585   6.994
 2370SOL    HW2 8010   5.295   3.454   6.943
 2371SOL     OW 8011   0.615   0.607   2.114
 2371SOL    HW1 8012   0.665   0.521   2.119
 2371SOL    HW2 8013   0.517   0.588   2.103
 2372SOL     OW 8014   6.985   2.427   2.272
 2372SOL    HW1 8015   6.885   2.418   2.278
 2372SOL    HW2 8016   7.007   2.500   2.207
 2373SOL     OW 8017   0.312   1.152   0.356
 2373SOL    HW1 8018   0.372   1.158   0.436
 2373SOL    HW2 8019   0.274   1.242   0.337
 2374SOL     OW 8020   5.787   1.103   3.792
 2374SOL    HW1 8021   5.738   1.174   3.841
 2374SOL    HW2 8022   5.786   1.019   3.846
 2375SOL     OW 8023   2.675   6.694   4.746
 2375SOL    HW1 8024   2.608   6.766   4.759
 2375SOL    HW2 8025   2.767   6.731   4.762
 2376SOL     OW 8026   6.550   2.788   4.016
 2376SOL    HW1 8027   6.470   2.760   3.963
 2376SOL    HW2 8028   6.631   2.739   3.982
 2377SOL     OW 8029   3.498   4.134   3.056
 2377SOL    HW1 8030   3.419   4.073   3.068
 2377SOL    HW2 8031   3.582   4.082   3.065
 2378SOL     OW 8032   5.112   2.162   0.481
 2378SOL    HW1 8033   5.071   2.201   0.398
 2378SOL    HW2 8034   5.159   2.234   0.532
 2379SOL     OW 8035   5.890   2.327   6.749
 2379SOL    HW1 8036   5.896   2.241   6.698
 2379SOL    HW2 8037   5.805   2.329   6.802
 2380SOL     OW 8038   0.894   0.348   6.224
 2380SOL    HW1 8039   0.871   0.332   6.320
 2380SOL    HW2 8040   0.845   0.428   6.190
 2381SOL     OW 8041   1.826   3.959   4.550
 2381SOL    HW1 8042   1.905   3.953   4.488
 2381SOL    HW2 8043   1.743   3.931   4.501
 2382SOL     OW 8044   2.512   4.433   3.921
 2382SOL    HW1 8045   2.491   4.398   4.012
 2382SOL    HW2 8046   2.452   4.391   3.853
 2383SOL     OW 8047   5.801   6.601   1.163
 2383SOL    HW1 8048   5.702   6.617   1.167
 2383SOL    HW2 8049   5.824   6.523   1.221
 2384SOL     OW 8050   6.126   6.844   2.726
 2384SOL    HW1 8051   6.162   6.809   2.639
 2384SOL    HW2 8052   6.190   6.824   2.800
 2385SOL     OW 8053   0.867   6.030   1.011
 2385SOL    HW1 8054   0.818   5.944   0.991
 2385SOL    HW2 8055   0.833   6.101   0.950
 2386SOL     OW 8056   5.284   4.684   4.266
 2386SOL    HW1 8057   5.315   4.712   4.175
 2386SOL    HW2 8058   5.348   4.616   4.304
 2387SOL     OW 8059   1.563   1.500   3.650
 2387SOL    HW1 8060   1.580   1.460   3.560
 2387SOL    HW2 8061   1.552   1.427   3.718
 2388SOL     OW 8062   1.386   2.311   3.500
 2388SOL    HW1 8063   1.466   2.369   3.509
 2388SOL    HW2 8064   1.336   2.335   3.416
 2389SOL     OW 8065   4.943   3.720   2.887
 2389SOL    HW1 8066   5.035   3.744   2.856
 2389SOL    HW2 8067   4.885   3.802   2.886
 2390SOL     OW 8068   4.056   3.480   2.962
 2390SOL    HW1 8069   4.116   3.404   2.936
 2390SOL    HW2 8070   4.098   3.532   3.036
 2391SOL     OW 8071   4.667   4.407   5.675
 2391SOL    HW1 8072   4.701   4.411   5.581
 2391SOL    HW2 8073   4.647   4.312   5.699
 2392SOL     OW 8074   3.498   6.623   5.786
 2392SOL    HW1 8075   3.432   6.613   5.712
 2392SOL    HW2 8076   3.575   6.561   5.770
 2393SOL     OW 8077   5.072   3.471   6.019
 2393SOL    HW1 8078   5.041   3.494   6.111
 2393SOL    HW2 8079   5.001   3.417   5.973
 2394SOL     OW 8080   1.618   3.218   4.418
 2394SOL    HW1 8081   1.597   3.295   4.356
 2394SOL    HW2 8082   1.622   3.252   4.512
 2395SOL     OW 8083   6.188   2.809   6.908
 2395SOL    HW1 8084   6.243   2.891   6.922
 2395SOL    HW2 8085   6.192   2.752   6.991
 2396SOL     OW 8086   4.448   5.017   1.226
 2396SOL    HW1 8087   4.501   5.100   1.242
 2396SOL    HW2 8088   4.413   5.017   1.132
 2397SOL     OW 8089   0.843   3.716   6.846
 2397SOL    HW1 8090   0.897   3.799   6.853
 2397SOL    HW2 8091   0.756   3.736   6.801
 2398SOL     OW 8092   2.752   3.713   6.593
 2398SOL    HW1 8093   2.701   3.697   6.509
 2398SOL    HW2 8094   2.709   3.661   6.668
 2399SOL     OW 8095   4.436   1.672   2.393
 2399SOL    HW1 8096   4.435   1.593   2.332
 2399SOL    HW2 8097   4.519   1.725   2.378
 2400SOL     OW 8098   3.072   4.804   6.929
 2400SOL    HW1 8099   3.108   4.727   6.876
 2400SOL    HW2 8100   3.108   4.800   0.002
 2401SOL     OW 8101   3.478   6.468   6.221
 2401SOL    HW1 8102   3.572   6.434   6.220
 2401SOL    HW2 8103   3.476   6.561   6.259
 2402SOL     OW 8104   6.971   1.063   3.695
 2402SOL    HW1 8105   6.997   1.129   3.766
 2402SOL    HW2 8106   0.004   1.080   3.612
 2403SOL     OW 8107   2.218   2.302   0.593
 2403SOL    HW1 8108   2.262   2.359   0.524
 2403SOL    HW2 8109   2.166   2.360   0.656
 2404SOL     OW 8110   4.158   0.929   1.188
 2404SOL    HW1 8111   4.231   0.866   1.214
 2404SOL    HW2 8112   4.165   1.013   1.241
 2405SOL     OW 8113   3.835   3.288   2.855
 2405SOL    HW1 8114   3.846   3.199   2.898
 2405SOL    HW2 8115   3.896   3.354   2.900
 2406SOL     OW 8116   2.885   6.672   3.121
 2406SOL    HW1 8117   2.900   6.694   3.218
 2406SOL    HW2 8118   2.973   6.675   3.073
 2407SOL     OW 8119   4.877   1.904   2.455
 2407SOL    HW1 8120   4.856   2.001   2.443
 2407SOL    HW2 8121   4.873   1.880   2.552
 2408SOL     OW 8122   4.079   5.128   3.534
 2408SOL    HW1 8123   3.989   5.165   3.512
 2408SOL    HW2 8124   4.087   5.035   3.496
 2409SOL     OW 8125   1.531   3.811   2.055
 2409SOL    HW1 8126   1.459   3.848   2.113
 2409SOL    HW2 8127   1.492   3.780   1.968
 2410SOL     OW 8128   4.775   2.225   5.499
 2410SOL    HW1 8129   4.829   2.149   5.461
 2410SOL    HW2 8130   4.835   2.285   5.551
 2411SOL     OW 8131   4.433   5.156   5.146
 2411SOL    HW1 8132   4.361   5.089   5.166
 2411SOL    HW2 8133   4.394   5.230   5.091
 2412SOL     OW 8134   4.492   4.846   1.436
 2412SOL    HW1 8135   4.539   4.787   1.370
 2412SOL    HW2 8136   4.466   4.932   1.392
 2413SOL     OW 8137   6.199   2.361   0.996
 2413SOL    HW1 8138   6.215   2.354   1.095
 2413SOL    HW2 8139   6.102   2.346   0.978
 2414SOL     OW 8140   4.901   4.275   2.446
 2414SOL    HW1 8141   4.848   4.300   2.365
 2414SOL    HW2 8142   4.989   4.237   2.417
 2415SOL     OW 8143   0.080   6.714   1.699
 2415SOL    HW1 8144   0.130   6.793   1.662
 2415SOL    HW2 8145   0.026   6.743   1.777
 2416SOL     OW 8146   4.080   2.016   5.140
 2416SOL    HW1 8147   4.015   1.986   5.070
 2416SOL    HW2 8148   4.126   1.937   5.179
 2417SOL     OW 8149   3.810   3.604   6.135
 2417SOL    HW1 8150   3.885   3.544   6.108
 2417SOL    HW2 8151   3.725   3.551   6.143
 2418SOL     OW 8152   3.067   3.750   3.756
 2418SOL    HW1 8153   3.127   3.677   3.789
 2418SOL    HW2 8154   3.112   3.838   3.768
 2419SOL     OW 8155   0.909   6.205   4.525
 2419SOL    HW1 8156   0.929   6.303   4.533
 2419SOL    HW2 8157   0.909   6.163   4.616
 2420SOL     OW 8158   3.041   1.200   1.974
 2420SOL    HW1 8159   3.034   1.135   2.050
 2420SOL    HW2 8160   2.955   1.251   1.968
 2421SOL     OW 8161   2.976   1.600   4.796
 2421SOL    HW1 8162   2.905   1.671   4.796
 2421SOL    HW2 8163   3.032   1.608   4.714
 2422SOL     OW 8164   5.683   0.937   1.714
 2422SOL    HW1 8165   5.716   0.917   1.622
 2422SOL    HW2 8166   5.749   0.905   1.782
 2423SOL     OW 8167   0.904   6.215   3.377
 2423SOL    HW1 8168   0.975   6.146   3.381
 2423SOL    HW2 8169   0.820   6.176   3.339
 2424SOL     OW 8170   6.483   6.754   6.602
 2424SOL    HW1 8171   6.493   6.851   6.624
 2424SOL    HW2 8172   6.416   6.713   6.664
 2425SOL     OW 8173   5.924   0.205   4.241
 2425SOL    HW1 8174   5.846   0.160   4.286
 2425SOL    HW2 8175   5.941   0.163   4.152
 2426SOL     OW 8176   1.047   5.633   4.401
 2426SOL    HW1 8177   1.031   5.537   4.425
 2426SOL    HW2 8178   1.026   5.692   4.479
 2427SOL     OW 8179   5.755   5.161   5.460
 2427SOL    HW1 8180   5.658   5.166   5.436
 2427SOL    HW2 8181   5.770   5.203   5.549
 2428SOL     OW 8182   6.299   0.125   3.603
 2428SOL    HW1 8183   6.286   0.026   3.595
 2428SOL    HW2 8184   6.384   0.143   3.653
 2429SOL     OW 8185   5.357   5.261   3.786
 2429SOL    HW1 8186   5.407   5.315   3.719
 2429SOL    HW2 8187   5.336   5.318   3.866
 2430SOL     OW 8188   6.518   1.959   1.146
 2430SOL    HW1 8189   6.460   1.912   1.079
 2430SOL    HW2 8190   6.519   2.057   1.124
 2431SOL     OW 8191   4.368   0.677   2.521
 2431SOL    HW1 8192   4.348   0.584   2.552
 2431SOL    HW2 8193   4.385   0.676   2.422
 2432SOL     OW 8194   3.384   6.933   3.005
 2432SOL    HW1 8195   3.380   6.852   2.947
 2432SOL    HW2 8196   3.356   7.013   2.952
 2433SOL     OW 8197   3.509   0.609   1.343
 2433SOL    HW1 8198   3.413   0.617   1.315
 2433SOL    HW2 8199   3.528   0.514   1.369
 2434SOL     OW 8200   4.445   0.206   5.131
 2434SOL    HW1 8201   4.355   0.246   5.116
 2434SOL    HW2 8202   4.502   0.219   5.049
 2435SOL     OW 8203   4.169   4.859   6.269
 2435SOL    HW1 8204   4.080   4.855   6.314
 2435SOL    HW2 8205   4.242   4.863   6.338
 2436SOL     OW 8206   1.778   5.820   1.569
 2436SOL    HW1 8207   1.713   5.856   1.636
 2436SOL    HW2 8208   1.785   5.882   1.492
 2437SOL     OW 8209   4.842   6.183   6.634
 2437SOL    HW1 8210   4.889   6.236   6.705
 2437SOL    HW2 8211   4.805   6.246   6.565
 2438SOL     OW 8212   3.773   1.090   6.285
 2438SOL    HW1 8213   3.868   1.115   6.303
 2438SOL    HW2 8214   3.770   1.005   6.233
 2439SOL     OW 8215   0.949   4.769   6.388
 2439SOL    HW1 8216   0.908   4.799   6.474
 2439SOL    HW2 8217   0.894   4.802   6.311
 2440SOL     OW 8218   4.820   5.618   5.877
 2440SOL    HW1 8219   4.900   5.676   5.860
 2440SOL    HW2 8220   4.745   5.675   5.913
 2441SOL     OW 8221   0.769   0.435   0.065
 2441SOL    HW1 8222   0.729   0.365   0.006
 2441SOL    HW2 8223   0.869   0.428   0.062
 2442SOL     OW 8224   0.121   4.637   5.122
 2442SOL    HW1 8225   0.050   4.626   5.192
 2442SOL    HW2 8226   0.082   4.682   5.042
 2443SOL     OW 8227   4.189   5.708   5.611
 2443SOL    HW1 8228   4.253   5.685   5.684
 2443SOL    HW2 8229   4.235   5.768   5.545
 2444SOL     OW 8230   2.858   4.100   6.099
 2444SOL    HW1 8231   2.869   4.007   6.134
 2444SOL    HW2 8232   2.904   4.108   6.011
 2445SOL     OW 8233   0.341   0.583   2.045
 2445SOL    HW1 8234   0.284   0.530   2.107
 2445SOL    HW2 8235   0.352   0.534   1.959
 2446SOL     OW 8236   0.076   5.251   3.990
 2446SOL    HW1 8237   0.131   5.176   3.953
 2446SOL    HW2 8238   0.137   5.320   4.031
 2447SOL     OW 8239   2.078   2.278   1.022
 2447SOL    HW1 8240   2.050   2.317   1.110
 2447SOL    HW2 8241   2.173   2.304   1.003
 2448SOL     OW 8242   0.496   0.192   4.097
 2448SOL    HW1 8243   0.596   0.187   4.104
 2448SOL    HW2 8244   0.469   0.287   4.081
 2449SOL     OW 8245   0.277   5.081   0.838
 2449SOL    HW1 8246   0.300   5.125   0.751
 2449SOL    HW2 8247   0.317   5.134   0.913
 2450SOL     OW 8248   2.401   5.144   3.093
 2450SOL    HW1 8249   2.431   5.053   3.064
 2450SOL    HW2 8250   2.481   5.202   3.106
 2451SOL     OW 8251   0.780   0.250   3.035
 2451SOL    HW1 8252   0.827   0.338   3.025
 2451SOL    HW2 8253   0.813   0.205   3.118
 2452SOL     OW 8254   1.619   3.286   2.739
 2452SOL    HW1 8255   1.699   3.331   2.779
 2452SOL    HW2 8256   1.539   3.345   2.746
 2453SOL     OW 8257   6.183   4.271   1.190
 2453SOL    HW1 8258   6.190   4.277   1.289
 2453SOL    HW2 8259   6.087   4.272   1.163
 2454SOL     OW 8260   2.862   1.010   0.672
 2454SOL    HW1 8261   2.848   0.911   0.669
 2454SOL    HW2 8262   2.775   1.057   0.657
 2455SOL     OW 8263   5.336   6.100   0.271
 2455SOL    HW1 8264   5.389   6.019   0.295
 2455SOL    HW2 8265   5.267   6.076   0.203
 2456SOL     OW 8266   5.538   6.674   1.243
 2456SOL    HW1 8267   5.547   6.745   1.174
 2456SOL    HW2 8268   5.448   6.681   1.287
 2457SOL     OW 8269   6.238   6.131   0.196
 2457SOL    HW1 8270   6.246   6.143   0.295
 2457SOL    HW2 8271   6.299   6.058   0.166
 2458SOL     OW 8272   2.598   5.744   3.067
 2458SOL    HW1 8273   2.532   5.788   3.128
 2458SOL    HW2 8274   2.665   5.693   3.121
 2459SOL     OW 8275   2.390   6.644   0.626
 2459SOL    HW1 8276   2.313   6.583   0.611
 2459SOL    HW2 8277   2.404   6.657   0.725
 2460SOL     OW 8278   1.917   0.735   1.058
 2460SOL    HW1 8279   2.000   0.685   1.083
 2460SOL    HW2 8280   1.857   0.743   1.138
 2461SOL     OW 8281   5.091   0.836   3.234
 2461SOL    HW1 8282   5.066   0.890   3.153
 2461SOL    HW2 8283   5.093   0.895   3.314
 2462SOL     OW 8284   2.523   5.451   0.002
 2462SOL    HW1 8285   2.553   5.546   0.001
 2462SOL    HW2 8286   2.429   5.445   0.036
 2463SOL     OW 8287   5.937   2.751   3.976
 2463SOL    HW1 8288   5.936   2.656   3.946
 2463SOL    HW2 8289   5.863   2.801   3.930
 2464SOL     OW 8290   1.327   5.314   1.714
 2464SOL    HW1 8291   1.403   5.314   1.780
 2464SOL    HW2 8292   1.350   5.254   1.637
 2465SOL     OW 8293   0.262   5.372   1.507
 2465SOL    HW1 8294   0.327   5.443   1.536
 2465SOL    HW2 8295   0.215   5.401   1.424
 2466SOL     OW 8296   3.173   0.406   1.860
 2466SOL    HW1 8297   3.140   0.481   1.917
 2466SOL    HW2 8298   3.261   0.431   1.820
 2467SOL     OW 8299   5.594   0.823   5.689
 2467SOL    HW1 8300   5.613   0.775   5.774
 2467SOL    HW2 8301   5.511   0.878   5.699
 2468SOL     OW 8302   6.789   6.377   2.083
 2468SOL    HW1 8303   6.693   6.355   2.070
 2468SOL    HW2 8304   6.836   6.298   2.123
 2469SOL     OW 8305   3.796   4.169   5.623
 2469SOL    HW1 8306   3.775   4.250   5.679
 2469SOL    HW2 8307   3.892   4.172   5.596
 2470SOL     OW 8308   2.603   4.067   5.925
 2470SOL    HW1 8309   2.620   4.057   5.827
 2470SOL    HW2 8310   2.662   4.139   5.961
 2471SOL     OW 8311   1.515   6.997   0.963
 2471SOL    HW1 8312   1.521   6.936   0.885
 2471SOL    HW2 8313   1.599   6.992   1.016
 2472SOL     OW 8314   5.427   1.365   4.647
 2472SOL    HW1 8315   5.451   1.313   4.565
 2472SOL    HW2 8316   5.495   1.437   4.662
 2473SOL     OW 8317   2.182   4.065   4.901
 2473SOL    HW1 8318   2.214   4.157   4.881
 2473SOL    HW2 8319   2.260   4.007   4.925
 2474SOL     OW 8320   0.443   4.735   0.273
 2474SOL    HW1 8321   0.515   4.684   0.318
 2474SOL    HW2 8322   0.435   4.706   0.178
 2475SOL     OW 8323   4.125   2.076   0.963
 2475SOL    HW1 8324   4.208   2.039   0.922
 2475SOL    HW2 8325   4.054   2.082   0.893
 2476SOL     OW 8326   0.727   2.515   3.212
 2476SOL    HW1 8327   0.645   2.573   3.211
 2476SOL    HW2 8328   0.719   2.447   3.285
 2477SOL     OW 8329   6.173   6.861   2.118
 2477SOL    HW1 8330   6.238   6.844   2.043
 2477SOL    HW2 8331   6.080   6.858   2.082
 2478SOL     OW 8332   5.236   6.917   2.481
 2478SOL    HW1 8333   5.308   6.982   2.455
 2478SOL    HW2 8334   5.268   6.861   2.557
 2479SOL     OW 8335   0.495   3.535   1.511
 2479SOL    HW1 8336   0.562   3.599   1.472
 2479SOL    HW2 8337   0.495   3.451   1.457
 2480SOL     OW 8338   6.937   2.861   1.113
 2480SOL    HW1 8339   6.899   2.853   1.020
 2480SOL    HW2 8340   6.944   2.958   1.137
 2481SOL     OW 8341   3.416   6.319   0.549
 2481SOL    HW1 8342   3.417   6.395   0.614
 2481SOL    HW2 8343   3.502   6.268   0.557
 2482SOL     OW 8344   4.449   3.215   6.009
 2482SOL    HW1 8345   4.505   3.279   6.061
 2482SOL    HW2 8346   4.492   3.196   5.921
 2483SOL     OW 8347   2.242   1.389   0.620
 2483SOL    HW1 8348   2.253   1.488   0.622
 2483SOL    HW2 8349   2.330   1.345   0.636
 2484SOL     OW 8350   2.134   0.595   1.125
 2484SOL    HW1 8351   2.122   0.498   1.148
 2484SOL    HW2 8352   2.214   0.630   1.175
 2485SOL     OW 8353   5.361   5.015   2.807
 2485SOL    HW1 8354   5.360   5.092   2.871
 2485SOL    HW2 8355   5.268   4.995   2.777
 2486SOL     OW 8356   1.620   5.448   3.232
 2486SOL    HW1 8357   1.602   5.452   3.331
 2486SOL    HW2 8358   1.699   5.506   3.211
 2487SOL     OW 8359   4.101   6.267   0.027
 2487SOL    HW1 8360   4.106   6.257   0.126
 2487SOL    HW2 8361   4.009   6.295   0.001
 2488SOL     OW 8362   2.724   4.339   1.706
 2488SOL    HW1 8363   2.783   4.292   1.640
 2488SOL    HW2 8364   2.776   4.411   1.752
 2489SOL     OW 8365   2.432   5.282   4.322
 2489SOL    HW1 8366   2.409   5.193   4.283
 2489SOL    HW2 8367   2.403   5.355   4.259
 2490SOL     OW 8368   6.783   4.996   0.842
 2490SOL    HW1 8369   6.757   4.913   0.891
 2490SOL    HW2 8370   6.870   5.031   0.879
 2491SOL     OW 8371   2.914   5.825   2.695
 2491SOL    HW1 8372   2.982   5.899   2.698
 2491SOL    HW2 8373   2.840   5.845   2.759
 2492SOL     OW 8374   4.355   2.805   6.273
 2492SOL    HW1 8375   4.339   2.884   6.214
 2492SOL    HW2 8376   4.281   2.799   6.340
 2493SOL     OW 8377   5.922   0.009   2.768
 2493SOL    HW1 8378   6.004   6.976   2.750
 2493SOL    HW2 8379   5.865   6.982   2.835
 2494SOL     OW 8380   4.934   3.055   2.755
 2494SOL    HW1 8381   4.964   2.996   2.830
 2494SOL    HW2 8382   4.881   3.000   2.690
 2495SOL     OW 8383   4.813   1.288   4.955
 2495SOL    HW1 8384   4.748   1.285   4.880
 2495SOL    HW2 8385   4.775   1.342   5.031
 2496SOL     OW 8386   1.225   5.139   0.337
 2496SOL    HW1 8387   1.233   5.040   0.349
 2496SOL    HW2 8388   1.262   5.164   0.248
 2497SOL     OW 8389   6.978   1.630   0.420
 2497SOL    HW1 8390   6.945   1.542   0.384
 2497SOL    HW2 8391   6.973   1.628   0.520
 2498SOL     OW 8392   2.230   3.173   3.517
 2498SOL    HW1 8393   2.188   3.092   3.476
 2498SOL    HW2 8394   2.238   3.159   3.616
 2499SOL     OW 8395   5.551   0.529   4.882
 2499SOL    HW1 8396   5.531   0.451   4.823
 2499SOL    HW2 8397   5.471   0.589   4.887
 2500SOL     OW 8398   4.594   3.351   6.199
 2500SOL    HW1 8399   4.657   3.305   6.261
 2500SOL    HW2 8400   4.560   3.435   6.241
 2501SOL     OW 8401   5.896   4.161   6.672
 2501SOL    HW1 8402   5.955   4.179   6.750
 2501SOL    HW2 8403   5.918   4.071   6.633
 2502SOL     OW 8404   2.263   6.685   3.678
 2502SOL    HW1 8405   2.191   6.744   3.643
 2502SOL    HW2 8406   2.333   6.740   3.724
 2503SOL     OW 8407   3.680   5.726   5.682
 2503SOL    HW1 8408   3.760   5.720   5.623
 2503SOL    HW2 8409   3.603   5.680   5.637
 2504SOL     OW 8410   2.247   4.701   4.652
 2504SOL    HW1 8411   2.265   4.749   4.567
 2504SOL    HW2 8412   2.198   4.761   4.715
 2505SOL     OW 8413   3.689   5.799   4.754
 2505SOL    HW1 8414   3.789   5.795   4.755
 2505SOL    HW2 8415   3.654   5.769   4.843
 2506SOL     OW 8416   6.247   3.342   5.955
 2506SOL    HW1 8417   6.317   3.272   5.968
 2506SOL    HW2 8418   6.162   3.314   6.000
 2507SOL     OW 8419   5.961   5.091   0.518
 2507SOL    HW1 8420   5.943   5.144   0.435
 2507SOL    HW2 8421   6.008   5.149   0.584
 2508SOL     OW 8422   3.111   2.233   1.748
 2508SOL    HW1 8423   3.055   2.312   1.775
 2508SOL    HW2 8424   3.117   2.228   1.649
 2509SOL     OW 8425   5.816   1.840   2.347
 2509SOL    HW1 8426   5.897   1.785   2.370
 2509SOL    HW2 8427   5.837   1.937   2.360
 2510SOL     OW 8428   3.270   4.717   0.611
 2510SOL    HW1 8429   3.180   4.731   0.651
 2510SOL    HW2 8430   3.289   4.619   0.602
 2511SOL     OW 8431   1.337   1.173   4.910
 2511SOL    HW1 8432   1.259   1.144   4.856
 2511SOL    HW2 8433   1.317   1.263   4.950
 2512SOL     OW 8434   5.286   4.291   4.224
 2512SOL    HW1 8435   5.368   4.234   4.217
 2512SOL    HW2 8436   5.310   4.386   4.205
 2513SOL     OW 8437   0.853   2.633   6.638
 2513SOL    HW1 8438   0.878   2.724   6.606
 2513SOL    HW2 8439   0.831   2.637   6.736
 2514SOL     OW 8440   0.611   1.870   4.338
 2514SOL    HW1 8441   0.524   1.845   4.296
 2514SOL    HW2 8442   0.665   1.926   4.274
 2515SOL     OW 8443   1.396   6.689   0.547
 2515SOL    HW1 8444   1.309   6.730   0.520
 2515SOL    HW2 8445   1.454   6.678   0.466
 2516SOL     OW 8446   5.986   5.375   3.106
 2516SOL    HW1 8447   6.047   5.443   3.147
 2516SOL    HW2 8448   6.028   5.285   3.112
 2517SOL     OW 8449   2.433   4.346   6.079
 2517SOL    HW1 8450   2.514   4.353   6.021
 2517SOL    HW2 8451   2.402   4.251   6.082
 2518SOL     OW 8452   2.309   2.857   6.877
 2518SOL    HW1 8453   2.269   2.770   6.852
 2518SOL    HW2 8454   2.268   2.889   6.963
 2519SOL     OW 8455   4.986   5.312   4.455
 2519SOL    HW1 8456   4.908   5.359   4.496
 2519SOL    HW2 8457   5.070   5.358   4.482
 2520SOL     OW 8458   1.782   3.742   0.629
 2520SOL    HW1 8459   1.838   3.788   0.698
 2520SOL    HW2 8460   1.823   3.654   0.605
 2521SOL     OW 8461   1.120   0.173   5.593
 2521SOL    HW1 8462   1.111   0.272   5.578
 2521SOL    HW2 8463   1.072   0.124   5.521
 2522SOL     OW 8464   1.421   3.394   4.333
 2522SOL    HW1 8465   1.388   3.379   4.426
 2522SOL    HW2 8466   1.442   3.491   4.321
 2523SOL     OW 8467   6.491   3.166   0.570
 2523SOL    HW1 8468   6.527   3.238   0.511
 2523SOL    HW2 8469   6.461   3.089   0.514
 2524SOL     OW 8470   0.695   5.955   4.089
 2524SOL    HW1 8471   0.725   5.891   4.159
 2524SOL    HW2 8472   0.659   5.905   4.010
 2525SOL     OW 8473   0.743   4.352   4.201
 2525SOL    HW1 8474   0.834   4.379   4.233
 2525SOL    HW2 8475   0.742   4.254   4.181
 2526SOL     OW 8476   0.255   2.887   4.936
 2526SOL    HW1 8477   0.333   2.870   4.995
 2526SOL    HW2 8478   0.282   2.945   4.860
 2527SOL     OW 8479   5.774   6.490   5.599
 2527SOL    HW1 8480   5.791   6.396   5.629
 2527SOL    HW2 8481   5.716   6.489   5.518
 2528SOL     OW 8482   5.614   4.859   0.293
 2528SOL    HW1 8483   5.523   4.871   0.254
 2528SOL    HW2 8484   5.620   4.769   0.337
 2529SOL     OW 8485   4.925   4.978   5.586
 2529SOL    HW1 8486   4.919   4.977   5.686
 2529SOL    HW2 8487   5.020   4.996   5.559
 2530SOL     OW 8488   1.056   5.909   3.920
 2530SOL    HW1 8489   1.146   5.943   3.893
 2530SOL    HW2 8490   1.052   5.810   3.905
 2531SOL     OW 8491   5.286   7.005   5.068
 2531SOL    HW1 8492   5.190   0.011   5.056
 2531SOL    HW2 8493   5.305   6.923   5.016
 2532SOL     OW 8494   0.584   5.693   0.982
 2532SOL    HW1 8495   0.588   5.768   0.915
 2532SOL    HW2 8496   0.618   5.726   1.070
 2533SOL     OW 8497   5.729   6.673   4.868
 2533SOL    HW1 8498   5.717   6.772   4.860
 2533SOL    HW2 8499   5.644   6.631   4.899
 2534SOL     OW 8500   2.392   0.560   3.242
 2534SOL    HW1 8501   2.343   0.474   3.254
 2534SOL    HW2 8502   2.359   0.626   3.310
 2535SOL     OW 8503   1.618   2.220   4.592
 2535SOL    HW1 8504   1.680   2.283   4.638
 2535SOL    HW2 8505   1.664   2.131   4.582
 2536SOL     OW 8506   6.232   1.190   4.047
 2536SOL    HW1 8507   6.277   1.238   3.972
 2536SOL    HW2 8508   6.290   1.192   4.128
 2537SOL     OW 8509   4.692   6.614   0.992
 2537SOL    HW1 8510   4.653   6.522   0.985
 2537SOL    HW2 8511   4.654   6.672   0.920
 2538SOL     OW 8512   1.838   4.700   5.030
 2538SOL    HW1 8513   1.844   4.658   4.939
 2538SOL    HW2 8514   1.930   4.710   5.067
 2539SOL     OW 8515   4.476   6.885   5.460
 2539SOL    HW1 8516   4.466   6.786   5.472
 2539SOL    HW2 8517   4.462   6.908   5.363
 2540SOL     OW 8518   5.392   0.604   1.505
 2540SOL    HW1 8519   5.378   0.696   1.467
 2540SOL    HW2 8520   5.337   0.594   1.588
 2541SOL     OW 8521   1.778   0.261   5.323
 2541SOL    HW1 8522   1.874   0.235   5.331
 2541SOL    HW2 8523   1.758   0.286   5.228
 2542SOL     OW 8524   4.302   2.103   4.402
 2542SOL    HW1 8525   4.264   2.012   4.386
 2542SOL    HW2 8526   4.357   2.130   4.323
 2543SOL     OW 8527   0.815   0.397   3.284
 2543SOL    HW1 8528   0.882   0.465   3.315
 2543SOL    HW2 8529   0.859   0.307   3.280
 2544SOL     OW 8530   0.002   5.021   1.488
 2544SOL    HW1 8531   6.968   5.020   1.404
 2544SOL    HW2 8532   0.099   5.023   1.465
 2545SOL     OW 8533   1.988   1.992   1.213
 2545SOL    HW1 8534   1.953   1.983   1.119
 2545SOL    HW2 8535   1.925   1.947   1.276
 2546SOL     OW 8536   6.418   3.421   1.694
 2546SOL    HW1 8537   6.350   3.441   1.623
 2546SOL    HW2 8538   6.404   3.327   1.726
 2547SOL     OW 8539   5.618   5.271   0.909
 2547SOL    HW1 8540   5.522   5.250   0.887
 2547SOL    HW2 8541   5.631   5.370   0.908
 2548SOL     OW 8542   1.779   6.999   4.537
 2548SOL    HW1 8543   1.752   0.072   4.560
 2548SOL    HW2 8544   1.852   7.001   4.469
 2549SOL     OW 8545   1.896   2.815   1.849
 2549SOL    HW1 8546   1.839   2.896   1.835
 2549SOL    HW2 8547   1.972   2.839   1.910
 2550SOL     OW 8548   5.570   6.821   0.308
 2550SOL    HW1 8549   5.635   6.897   0.316
 2550SOL    HW2 8550   5.585   6.756   0.382
 2551SOL     OW 8551   3.760   4.558   6.983
 2551SOL    HW1 8552   3.820   4.634   6.958
 2551SOL    HW2 8553   3.731   4.510   6.900
 2552SOL     OW 8554   2.331   4.926   6.460
 2552SOL    HW1 8555   2.351   4.832   6.486
 2552SOL    HW2 8556   2.397   4.958   6.392
 2553SOL     OW 8557   3.985   2.209   6.386
 2553SOL    HW1 8558   3.997   2.260   6.300
 2553SOL    HW2 8559   3.892   2.174   6.390
 2554SOL     OW 8560   2.222   5.556   6.852
 2554SOL    HW1 8561   2.271   5.541   6.938
 2554SOL    HW2 8562   2.164   5.637   6.861
 2555SOL     OW 8563   6.573   6.211   6.301
 2555SOL    HW1 8564   6.557   6.158   6.385
 2555SOL    HW2 8565   6.488   6.215   6.248
 2556SOL     OW 8566   4.060   0.047   0.966
 2556SOL    HW1 8567   4.073   0.126   0.906
 2556SOL    HW2 8568   3.975   7.020   0.941
 2557SOL     OW 8569   3.233   0.704   6.876
 2557SOL    HW1 8570   3.201   0.774   6.813
 2557SOL    HW2 8571   3.329   0.721   6.899
 2558SOL     OW 8572   5.591   4.178   5.936
 2558SOL    HW1 8573   5.570   4.274   5.957
 2558SOL    HW2 8574   5.527   4.119   5.985
 2559SOL     OW 8575   6.923   3.425   3.487
 2559SOL    HW1 8576   6.915   3.396   3.391
 2559SOL    HW2 8577   6.831   3.438   3.525
 2560SOL     OW 8578   5.302   3.476   3.475
 2560SOL    HW1 8579   5.246   3.514   3.549
 2560SOL    HW2 8580   5.280   3.523   3.389
 2561SOL     OW 8581   3.410   0.961   3.490
 2561SOL    HW1 8582   3.464   0.970   3.574
 2561SOL    HW2 8583   3.313   0.967   3.513
 2562SOL     OW 8584   3.311   6.492   3.378
 2562SOL    HW1 8585   3.345   6.468   3.287
 2562SOL    HW2 8586   3.311   6.411   3.436
 2563SOL     OW 8587   3.215   1.541   6.829
 2563SOL    HW1 8588   3.304   1.553   6.873
 2563SOL    HW2 8589   3.146   1.592   6.882
 2564SOL     OW 8590   2.262   0.397   0.516
 2564SOL    HW1 8591   2.349   0.423   0.473
 2564SOL    HW2 8592   2.272   0.401   0.615
 2565SOL     OW 8593   0.577   1.626   6.571
 2565SOL    HW1 8594   0.573   1.722   6.542
 2565SOL    HW2 8595   0.617   1.619   6.662
 2566SOL     OW 8596   2.322   6.681   1.216
 2566SOL    HW1 8597   2.411   6.722   1.198
 2566SOL    HW2 8598   2.324   6.584   1.190
 2567SOL     OW 8599   1.288   1.196   0.572
 2567SOL    HW1 8600   1.191   1.215   0.589
 2567SOL    HW2 8601   1.313   1.110   0.615
 2568SOL     OW 8602   2.727   6.844   1.003
 2568SOL    HW1 8603   2.803   6.821   1.063
 2568SOL    HW2 8604   2.748   6.814   0.910
 2569SOL     OW 8605   2.792   1.285   1.042
 2569SOL    HW1 8606   2.755   1.193   1.029
 2569SOL    HW2 8607   2.717   1.349   1.058
 2570SOL     OW 8608   5.596   5.740   6.186
 2570SOL    HW1 8609   5.545   5.736   6.272
 2570SOL    HW2 8610   5.672   5.804   6.196
 2571SOL     OW 8611   3.811   2.913   4.701
 2571SOL    HW1 8612   3.866   2.997   4.697
 2571SOL    HW2 8613   3.797   2.877   4.609
 2572SOL     OW 8614   3.194   5.744   1.597
 2572SOL    HW1 8615   3.177   5.646   1.602
 2572SOL    HW2 8616   3.196   5.783   1.690
 2573SOL     OW 8617   6.374   2.678   3.816
 2573SOL    HW1 8618   6.325   2.597   3.847
 2573SOL    HW2 8619   6.312   2.756   3.814
 2574SOL     OW 8620   6.307   2.626   0.734
 2574SOL    HW1 8621   6.339   2.715   0.766
 2574SOL    HW2 8622   6.241   2.589   0.799
 2575SOL     OW 8623   5.090   3.549   0.642
 2575SOL    HW1 8624   5.034   3.630   0.659
 2575SOL    HW2 8625   5.103   3.537   0.543
 2576SOL     OW 8626   3.112   6.663   3.374
 2576SOL    HW1 8627   3.106   6.752   3.328
 2576SOL    HW2 8628   3.189   6.611   3.337
 2577SOL     OW 8629   3.777   0.737   3.874
 2577SOL    HW1 8630   3.834   0.656   3.889
 2577SOL    HW2 8631   3.744   0.771   3.962
 2578SOL     OW 8632   5.045   2.698   4.958
 2578SOL    HW1 8633   5.134   2.738   4.980
 2578SOL    HW2 8634   4.976   2.736   5.019
 2579SOL     OW 8635   0.779   1.672   5.838
 2579SOL    HW1 8636   0.816   1.747   5.784
 2579SOL    HW2 8637   0.819   1.586   5.807
 2580SOL     OW 8638   1.530   2.440   5.402
 2580SOL    HW1 8639   1.615   2.389   5.388
 2580SOL    HW2 8640   1.544   2.535   5.376
 2581SOL     OW 8641   5.407   5.165   1.902
 2581SOL    HW1 8642   5.453   5.183   1.989
 2581SOL    HW2 8643   5.451   5.088   1.857
 2582SOL     OW 8644   2.100   5.492   2.961
 2582SOL    HW1 8645   2.164   5.563   2.991
 2582SOL    HW2 8646   2.007   5.527   2.961
 2583SOL     OW 8647   1.325   0.997   1.348
 2583SOL    HW1 8648   1.273   1.012   1.432
 2583SOL    HW2 8649   1.288   1.054   1.274
 2584SOL     OW 8650   3.420   6.612   1.068
 2584SOL    HW1 8651   3.398   6.685   1.003
 2584SOL    HW2 8652   3.508   6.572   1.044
 2585SOL     OW 8653   3.420   0.600   1.003
 2585SOL    HW1 8654   3.474   0.685   1.008
 2585SOL    HW2 8655   3.418   0.557   1.093
 2586SOL     OW 8656   5.558   1.557   5.087
 2586SOL    HW1 8657   5.502   1.638   5.103
 2586SOL    HW2 8658   5.512   1.497   5.022
 2587SOL     OW 8659   6.920   0.092   4.430
 2587SOL    HW1 8660   6.901   7.015   4.417
 2587SOL    HW2 8661   7.019   0.107   4.427
 2588SOL     OW 8662   5.716   0.020   1.317
 2588SOL    HW1 8663   5.734   6.985   1.398
 2588SOL    HW2 8664   5.617   0.024   1.301
 2589SOL     OW 8665   6.783   0.366   5.699
 2589SOL    HW1 8666   6.816   0.281   5.658
 2589SOL    HW2 8667   6.708   0.346   5.762
 2590SOL     OW 8668   3.648   6.951   2.421
 2590SOL    HW1 8669   3.728   7.010   2.424
 2590SOL    HW2 8670   3.616   6.933   2.514
 2591SOL     OW 8671   5.500   6.022   0.922
 2591SOL    HW1 8672   5.515   5.965   0.841
 2591SOL    HW2 8673   5.567   6.096   0.925
 2592SOL     OW 8674   3.031   5.877   1.404
 2592SOL    HW1 8675   3.096   5.832   1.466
 2592SOL    HW2 8676   3.066   5.871   1.310
 2593SOL     OW 8677   3.571   6.867   2.675
 2593SOL    HW1 8678   3.489   6.825   2.713
 2593SOL    HW2 8679   3.639   6.879   2.748
 2594SOL     OW 8680   0.533   0.067   6.026
 2594SOL    HW1 8681   0.441   0.096   5.999
 2594SOL    HW2 8682   0.540   6.988   6.020
 2595SOL     OW 8683   0.219   2.098   5.161
 2595SOL    HW1 8684   0.197   2.094   5.063
 2595SOL    HW2 8685   0.180   2.181   5.200
 2596SOL     OW 8686   3.801   2.500   1.673
 2596SOL    HW1 8687   3.734   2.462   1.737
 2596SOL    HW2 8688   3.773   2.479   1.580
 2597SOL     OW 8689   1.855   3.767   0.364
 2597SOL    HW1 8690   1.857   3.863   0.334
 2597SOL    HW2 8691   1.805   3.760   0.451
 2598SOL     OW 8692   6.590   2.860   4.521
 2598SOL    HW1 8693   6.503   2.835   4.478
 2598SOL    HW2 8694   6.572   2.916   4.602
 2599SOL     OW 8695   3.449   5.658   6.374
 2599SOL    HW1 8696   3.489   5.649   6.466
 2599SOL    HW2 8697   3.372   5.721   6.377
 2600SOL     OW 8698   4.871   3.688   3.951
 2600SOL    HW1 8699   4.905   3.650   4.037
 2600SOL    HW2 8700   4.822   3.774   3.969
 2601SOL     OW 8701   2.952   2.427   6.709
 2601SOL    HW1 8702   3.007   2.509   6.726
 2601SOL    HW2 8703   2.908   2.399   6.794
 2602SOL     OW 8704   0.238   4.779   4.148
 2602SOL    HW1 8705   0.172   4.706   4.130
 2602SOL    HW2 8706   0.190   4.861   4.179
 2603SOL     OW 8707   2.671   2.712   1.728
 2603SOL    HW1 8708   2.691   2.706   1.631
 2603SOL    HW2 8709   2.669   2.620   1.768
 2604SOL     OW 8710   5.520   0.755   0.815
 2604SOL    HW1 8711   5.431   0.784   0.850
 2604SOL    HW2 8712   5.577   0.835   0.797
 2605SOL     OW 8713   4.772   4.993   2.974
 2605SOL    HW1 8714   4.872   4.981   2.975
 2605SOL    HW2 8715   4.730   4.919   2.921
 2606SOL     OW 8716   0.162   4.660   0.218
 2606SOL    HW1 8717   0.152   4.560   0.214
 2606SOL    HW2 8718   0.222   4.685   0.294
 2607SOL     OW 8719   0.946   1.532   4.709
 2607SOL    HW1 8720   0.878   1.528   4.635
 2607SOL    HW2 8721   0.925   1.609   4.769
 2608SOL     OW 8722   4.914   0.130   2.607
 2608SOL    HW1 8723   5.000   0.081   2.616
 2608SOL    HW2 8724   4.846   0.071   2.563
 2609SOL     OW 8725   1.064   1.753   1.969
 2609SOL    HW1 8726   1.154   1.710   1.971
 2609SOL    HW2 8727   1.004   1.709   2.036
 2610SOL     OW 8728   6.902   5.332   4.936
 2610SOL    HW1 8729   6.995   5.318   4.968
 2610SOL    HW2 8730   6.875   5.257   4.876
 2611SOL     OW 8731   5.995   6.590   1.571
 2611SOL    HW1 8732   6.005   6.630   1.480
 2611SOL    HW2 8733   6.047   6.644   1.637
 2612SOL     OW 8734   6.029   6.068   5.189
 2612SOL    HW1 8735   6.057   6.009   5.265
 2612SOL    HW2 8736   6.101   6.134   5.170
 2613SOL     OW 8737   3.010   6.238   2.415
 2613SOL    HW1 8738   2.979   6.253   2.509
 2613SOL    HW2 8739   3.023   6.325   2.369
 2614SOL     OW 8740   6.382   6.031   5.930
 2614SOL    HW1 8741   6.331   5.955   5.970
 2614SOL    HW2 8742   6.321   6.084   5.871
 2615SOL     OW 8743   5.711   5.421   3.223
 2615SOL    HW1 8744   5.798   5.403   3.175
 2615SOL    HW2 8745   5.729   5.471   3.307
 2616SOL     OW 8746   4.099   3.442   4.060
 2616SOL    HW1 8747   4.106   3.366   4.126
 2616SOL    HW2 8748   4.083   3.527   4.110
 2617SOL     OW 8749   3.084   5.588   0.950
 2617SOL    HW1 8750   3.150   5.579   1.025
 2617SOL    HW2 8751   3.007   5.645   0.980
 2618SOL     OW 8752   0.062   6.398   3.593
 2618SOL    HW1 8753   0.045   6.479   3.537
 2618SOL    HW2 8754   0.057   6.316   3.535
 2619SOL     OW 8755   4.325   1.793   2.597
 2619SOL    HW1 8756   4.380   1.770   2.678
 2619SOL    HW2 8757   4.366   1.752   2.516
 2620SOL     OW 8758   1.467   5.853   3.924
 2620SOL    HW1 8759   1.410   5.909   3.864
 2620SOL    HW2 8760   1.477   5.762   3.885
 2621SOL     OW 8761   1.523   5.930   3.389
 2621SOL    HW1 8762   1.440   5.876   3.376
 2621SOL    HW2 8763   1.603   5.870   3.381
 2622SOL     OW 8764   1.707   3.055   5.983
 2622SOL    HW1 8765   1.768   2.980   5.959
 2622SOL    HW2 8766   1.644   3.072   5.907
 2623SOL     OW 8767   3.830   1.136   4.692
 2623SOL    HW1 8768   3.748   1.083   4.670
 2623SOL    HW2 8769   3.889   1.083   4.752
 2624SOL     OW 8770   6.696   2.981   3.244
 2624SOL    HW1 8771   6.676   2.987   3.342
 2624SOL    HW2 8772   6.789   2.946   3.231
 2625SOL     OW 8773   1.634   2.862   5.154
 2625SOL    HW1 8774   1.691   2.787   5.122
 2625SOL    HW2 8775   1.639   2.938   5.089
 2626SOL     OW 8776   0.520   5.919   3.727
 2626SOL    HW1 8777   0.469   5.906   3.812
 2626SOL    HW2 8778   0.457   5.944   3.653
 2627SOL     OW 8779   0.431   0.804   4.819
 2627SOL    HW1 8780   0.448   0.706   4.824
 2627SOL    HW2 8781   0.337   0.823   4.846
 2628SOL     OW 8782   3.511   5.702   6.709
 2628SOL    HW1 8783   3.543   5.729   6.799
 2628SOL    HW2 8784   3.413   5.679   6.713
 2629SOL     OW 8785   3.929   3.942   1.830
 2629SOL    HW1 8786   4.014   3.978   1.869
 2629SOL    HW2 8787   3.925   3.963   1.732
 2630SOL     OW 8788   3.425   1.818   2.200
 2630SOL    HW1 8789   3.385   1.906   2.176
 2630SOL    HW2 8790   3.487   1.829   2.277
 2631SOL     OW 8791   4.069   6.964   3.846
 2631SOL    HW1 8792   4.159   6.921   3.837
 2631SOL    HW2 8793   3.998   6.899   3.820
 2632SOL     OW 8794   3.352   2.201   6.078
 2632SOL    HW1 8795   3.256   2.186   6.057
 2632SOL    HW2 8796   3.405   2.203   5.993
 2633SOL     OW 8797   6.063   2.392   5.948
 2633SOL    HW1 8798   6.152   2.347   5.944
 2633SOL    HW2 8799   6.072   2.479   5.998
 2634SOL     OW 8800   1.885   4.112   3.035
 2634SOL    HW1 8801   1.936   4.167   2.969
 2634SOL    HW2 8802   1.943   4.096   3.115
 2635SOL     OW 8803   5.361   5.750   3.938
 2635SOL    HW1 8804   5.382   5.825   3.875
 2635SOL    HW2 8805   5.317   5.788   4.020
 2636SOL     OW 8806   5.319   0.456   6.504
 2636SOL    HW1 8807   5.404   0.452   6.555
 2636SOL    HW2 8808   5.284   0.363   6.490
 2637SOL     OW 8809   6.247   0.782   3.897
 2637SOL    HW1 8810   6.270   0.704   3.839
 2637SOL    HW2 8811   6.196   0.850   3.844
 2638SOL     OW 8812   6.418   6.932   2.533
 2638SOL    HW1 8813   6.337   6.952   2.477
 2638SOL    HW2 8814   6.496   6.914   2.473
 2639SOL     OW 8815   6.834   6.664   2.473
 2639SOL    HW1 8816   6.902   6.715   2.526
 2639SOL    HW2 8817   6.881   6.595   2.418
 2640SOL     OW 8818   0.096   6.581   5.759
 2640SOL    HW1 8819   0.095   6.662   5.817
 2640SOL    HW2 8820   0.002   6.549   5.744
 2641SOL     OW 8821   5.962   3.185   0.750
 2641SOL    HW1 8822   5.997   3.146   0.664
 2641SOL    HW2 8823   5.929   3.278   0.733
 2642SOL     OW 8824   5.088   0.547   4.638
 2642SOL    HW1 8825   5.003   0.564   4.589
 2642SOL    HW2 8826   5.121   0.455   4.616
 2643SOL     OW 8827   0.571   5.041   3.154
 2643SOL    HW1 8828   0.571   5.141   3.153
 2643SOL    HW2 8829   0.486   5.007   3.112
 2644SOL     OW 8830   0.328   4.366   5.727
 2644SOL    HW1 8831   0.415   4.343   5.770
 2644SOL    HW2 8832   0.345   4.423   5.646
 2645SOL     OW 8833   4.344   6.653   5.343
 2645SOL    HW1 8834   4.344   6.677   5.246
 2645SOL    HW2 8835   4.250   6.633   5.373
 2646SOL     OW 8836   6.656   0.023   6.416
 2646SOL    HW1 8837   6.743   7.002   6.390
 2646SOL    HW2 8838   6.619   6.996   6.496
 2647SOL     OW 8839   5.473   0.637   1.099
 2647SOL    HW1 8840   5.422   0.720   1.075
 2647SOL    HW2 8841   5.563   0.663   1.134
 2648SOL     OW 8842   6.269   6.614   3.571
 2648SOL    HW1 8843   6.310   6.633   3.660
 2648SOL    HW2 8844   6.335   6.564   3.514
 2649SOL     OW 8845   3.937   1.540   5.896
 2649SOL    HW1 8846   3.968   1.550   5.802
 2649SOL    HW2 8847   3.945   1.444   5.925
 2650SOL     OW 8848   1.001   4.425   4.294
 2650SOL    HW1 8849   1.063   4.368   4.240
 2650SOL    HW2 8850   0.954   4.369   4.362
 2651SOL     OW 8851   1.297   1.623   0.794
 2651SOL    HW1 8852   1.312   1.704   0.851
 2651SOL    HW2 8853   1.334   1.639   0.703
 2652SOL     OW 8854   2.992   3.263   3.687
 2652SOL    HW1 8855   2.994   3.320   3.605
 2652SOL    HW2 8856   2.944   3.312   3.760
 2653SOL     OW 8857   4.870   6.588   5.179
 2653SOL    HW1 8858   4.874   6.688   5.172
 2653SOL    HW2 8859   4.784   6.562   5.222
 2654SOL     OW 8860   4.951   3.049   0.195
 2654SOL    HW1 8861   4.887   2.976   0.174
 2654SOL    HW2 8862   4.938   3.079   0.289
 2655SOL     OW 8863   4.854   4.688   4.275
 2655SOL    HW1 8864   4.810   4.668   4.187
 2655SOL    HW2 8865   4.880   4.784   4.278
 2656SOL     OW 8866   4.443   4.687   4.060
 2656SOL    HW1 8867   4.511   4.747   4.017
 2656SOL    HW2 8868   4.487   4.634   4.132
 2657SOL     OW 8869   2.694   4.417   6.416
 2657SOL    HW1 8870   2.770   4.450   6.360
 2657SOL    HW2 8871   2.674   4.322   6.392
 2658SOL     OW 8872   5.738   4.788   6.785
 2658SOL    HW1 8873   5.825   4.836   6.793
 2658SOL    HW2 8874   5.697   4.808   6.696
 2659SOL     OW 8875   6.633   2.139   4.300
 2659SOL    HW1 8876   6.663   2.222   4.346
 2659SOL    HW2 8877   6.533   2.136   4.297
 2660SOL     OW 8878   0.457   2.114   1.220
 2660SOL    HW1 8879   0.431   2.208   1.243
 2660SOL    HW2 8880   0.496   2.070   1.301
 2661SOL     OW 8881   1.941   6.403   1.825
 2661SOL    HW1 8882   1.926   6.496   1.792
 2661SOL    HW2 8883   1.988   6.406   1.913
 2662SOL     OW 8884   4.549   6.607   4.909
 2662SOL    HW1 8885   4.549   6.516   4.868
 2662SOL    HW2 8886   4.640   6.648   4.899
 2663SOL     OW 8887   2.408   4.898   1.210
 2663SOL    HW1 8888   2.367   4.988   1.223
 2663SOL    HW2 8889   2.399   4.844   1.294
 2664SOL     OW 8890   3.731   4.037   3.182
 2664SOL    HW1 8891   3.689   3.976   3.250
 2664SOL    HW2 8892   3.771   4.116   3.229
 2665SOL     OW 8893   3.606   2.184   5.183
 2665SOL    HW1 8894   3.685   2.163   5.241
 2665SOL    HW2 8895   3.610   2.127   5.101
 2666SOL     OW 8896   4.901   3.342   1.033
 2666SOL    HW1 8897   4.809   3.305   1.046
 2666SOL    HW2 8898   4.966   3.291   1.089
 2667SOL     OW 8899   1.625   6.314   4.940
 2667SOL    HW1 8900   1.531   6.311   4.973
 2667SOL    HW2 8901   1.679   6.244   4.988
 2668SOL     OW 8902   6.576   3.338   3.422
 2668SOL    HW1 8903   6.482   3.366   3.443
 2668SOL    HW2 8904   6.583   3.317   3.324
 2669SOL     OW 8905   3.116   4.641   5.521
 2669SOL    HW1 8906   3.061   4.637   5.605
 2669SOL    HW2 8907   3.099   4.558   5.467
 2670SOL     OW 8908   6.083   1.477   6.612
 2670SOL    HW1 8909   6.112   1.382   6.601
 2670SOL    HW2 8910   6.144   1.523   6.677
 2671SOL     OW 8911   2.761   4.276   0.004
 2671SOL    HW1 8912   2.671   4.283   0.047
 2671SOL    HW2 8913   2.754   4.218   6.943
 2672SOL     OW 8914   1.223   5.526   6.990
 2672SOL    HW1 8915   1.273   5.460   6.935
 2672SOL    HW2 8916   1.286   5.594   0.007
 2673SOL     OW 8917   5.482   2.882   3.636
 2673SOL    HW1 8918   5.521   2.969   3.606
 2673SOL    HW2 8919   5.383   2.885   3.623
 2674SOL     OW 8920   1.768   4.264   3.693
 2674SOL    HW1 8921   1.770   4.337   3.625
 2674SOL    HW2 8922   1.675   4.255   3.729
 2675SOL     OW 8923   0.948   4.387   5.162
 2675SOL    HW1 8924   0.904   4.306   5.199
 2675SOL    HW2 8925   0.959   4.455   5.235
 2676SOL     OW 8926   4.583   1.205   2.776
 2676SOL    HW1 8927   4.588   1.137   2.848
 2676SOL    HW2 8928   4.621   1.167   2.691
 2677SOL     OW 8929   3.679   4.999   1.614
 2677SOL    HW1 8930   3.651   4.961   1.526
 2677SOL    HW2 8931   3.649   5.094   1.620
 2678SOL     OW 8932   0.454   4.875   0.847
 2678SOL    HW1 8933   0.387   4.927   0.898
 2678SOL    HW2 8934   0.437   4.886   0.749
 2679SOL     OW 8935   4.408   5.745   1.395
 2679SOL    HW1 8936   4.438   5.826   1.344
 2679SOL    HW2 8937   4.442   5.750   1.489
 2680SOL     OW 8938   1.626   1.418   0.875
 2680SOL    HW1 8939   1.529   1.409   0.850
 2680SOL    HW2 8940   1.652   1.340   0.933
 2681SOL     OW 8941   1.396   3.016   4.110
 2681SOL    HW1 8942   1.415   3.107   4.074
 2681SOL    HW2 8943   1.440   3.005   4.199
 2682SOL     OW 8944   5.462   3.136   2.529
 2682SOL    HW1 8945   5.371   3.179   2.527
 2682SOL    HW2 8946   5.523   3.186   2.468
 2683SOL     OW 8947   1.192   4.366   1.464
 2683SOL    HW1 8948   1.167   4.282   1.414
 2683SOL    HW2 8949   1.247   4.425   1.405
 2684SOL     OW 8950   3.934   5.527   2.419
 2684SOL    HW1 8951   3.975   5.581   2.345
 2684SOL    HW2 8952   3.865   5.466   2.381
 2685SOL     OW 8953   6.287   6.668   5.100
 2685SOL    HW1 8954   6.267   6.613   5.181
 2685SOL    HW2 8955   6.238   6.754   5.105
 2686SOL     OW 8956   1.924   2.356   4.437
 2686SOL    HW1 8957   2.005   2.307   4.405
 2686SOL    HW2 8958   1.933   2.453   4.416
 2687SOL     OW 8959   4.297   4.647   2.800
 2687SOL    HW1 8960   4.330   4.666   2.707
 2687SOL    HW2 8961   4.214   4.700   2.817
 2688SOL     OW 8962   4.353   6.189   6.214
 2688SOL    HW1 8963   4.329   6.110   6.158
 2688SOL    HW2 8964   4.292   6.265   6.191
 2689SOL     OW 8965   2.342   1.969   3.785
 2689SOL    HW1 8966   2.367   2.053   3.833
 2689SOL    HW2 8967   2.250   1.940   3.814
 2690SOL     OW 8968   3.273   3.440   3.765
 2690SOL    HW1 8969   3.278   3.405   3.671
 2690SOL    HW2 8970   3.353   3.496   3.784
 2691SOL     OW 8971   1.838   5.250   2.210
 2691SOL    HW1 8972   1.918   5.190   2.201
 2691SOL    HW2 8973   1.781   5.218   2.285
 2692SOL     OW 8974   5.457   6.002   4.312
 2692SOL    HW1 8975   5.416   5.975   4.226
 2692SOL    HW2 8976   5.428   5.939   4.384
 2693SOL     OW 8977   2.295   4.253   2.959
 2693SOL    HW1 8978   2.361   4.287   3.026
 2693SOL    HW2 8979   2.315   4.291   2.869
 2694SOL     OW 8980   3.557   0.844   2.764
 2694SOL    HW1 8981   3.628   0.779   2.738
 2694SOL    HW2 8982   3.580   0.885   2.852
 2695SOL     OW 8983   5.373   1.714   2.712
 2695SOL    HW1 8984   5.472   1.711   2.726
 2695SOL    HW2 8985   5.334   1.787   2.767
 2696SOL     OW 8986   3.157   2.562   5.372
 2696SOL    HW1 8987   3.237   2.620   5.361
 2696SOL    HW2 8988   3.155   2.494   5.299
 2697SOL     OW 8989   4.436   2.130   4.085
 2697SOL    HW1 8990   4.463   2.075   4.006
 2697SOL    HW2 8991   4.362   2.192   4.058
 2698SOL     OW 8992   2.098   4.755   0.687
 2698SOL    HW1 8993   2.183   4.706   0.703
 2698SOL    HW2 8994   2.064   4.795   0.772
 2699SOL     OW 8995   3.739   5.243   6.721
 2699SOL    HW1 8996   3.811   5.311   6.703
 2699SOL    HW2 8997   3.742   5.217   6.818
 2700SOL     OW 8998   2.071   3.419   2.199
 2700SOL    HW1 8999   2.135   3.446   2.126
 2700SOL    HW2 9000   1.979   3.450   2.176
 2701SOL     OW 9001   3.881   6.875   6.793
 2701SOL    HW1 9002   3.902   6.903   6.886
 2701SOL    HW2 9003   3.948   6.806   6.764
 2702SOL     OW 9004   7.019   1.291   2.778
 2702SOL    HW1 9005   0.061   1.246   2.713
 2702SOL    HW2 9006   0.044   1.370   2.817
 2703SOL     OW 9007   2.373   0.931   2.933
 2703SOL    HW1 9008   2.350   0.849   2.986
 2703SOL    HW2 9009   2.325   0.928   2.845
 2704SOL     OW 9010   1.351   5.711   0.984
 2704SOL    HW1 9011   1.409   5.763   0.922
 2704SOL    HW2 9012   1.278   5.666   0.933
 2705SOL     OW 9013   0.355   5.174   4.292
 2705SOL    HW1 9014   0.354   5.146   4.388
 2705SOL    HW2 9015   0.394   5.102   4.236
 2706SOL     OW 9016   0.530   0.740   1.765
 2706SOL    HW1 9017   0.625   0.769   1.779
 2706SOL    HW2 9018   0.475   0.819   1.739
 2707SOL     OW 9019   2.392   0.812   5.508
 2707SOL    HW1 9020   2.341   0.727   5.523
 2707SOL    HW2 9021   2.486   0.801   5.539
 2708SOL     OW 9022   1.933   3.139   1.543
 2708SOL    HW1 9023   1.871   3.117   1.468
 2708SOL    HW2 9024   2.027   3.141   1.508
 2709SOL     OW 9025   5.279   6.614   1.005
 2709SOL    HW1 9026   5.352   6.678   0.981
 2709SOL    HW2 9027   5.263   6.618   1.104
 2710SOL     OW 9028   6.203   3.916   2.720
 2710SOL    HW1 9029   6.247   4.001   2.691
 2710SOL    HW2 9030   6.261   3.838   2.695
 2711SOL     OW 9031   2.163   0.189   2.732
 2711SOL    HW1 9032   2.198   0.274   2.694
 2711SOL    HW2 9033   2.100   0.147   2.666
 2712SOL     OW 9034   3.903   4.800   7.011
 2712SOL    HW1 9035   3.865   4.889   6.987
 2712SOL    HW2 9036   3.975   4.812   0.060
 2713SOL     OW 9037   1.536   2.987   4.343
 2713SOL    HW1 9038   1.580   3.069   4.379
 2713SOL    HW2 9039   1.586   2.906   4.373
 2714SOL     OW 9040   4.736   1.931   0.246
 2714SOL    HW1 9041   4.773   1.853   0.196
 2714SOL    HW2 9042   4.673   1.982   0.187
 2715SOL     OW 9043   6.503   0.277   0.051
 2715SOL    HW1 9044   6.546   0.346   0.109
 2715SOL    HW2 9045   6.493   0.313   6.978
 2716SOL     OW 9046   6.264   5.053   1.861
 2716SOL    HW1 9047   6.324   5.003   1.799
 2716SOL    HW2 9048   6.172   5.059   1.821
 2717SOL     OW 9049   0.915   5.551   2.296
 2717SOL    HW1 9050   0.975   5.476   2.324
 2717SOL    HW2 9051   0.820   5.522   2.306
 2718SOL     OW 9052   1.974   3.454   4.043
 2718SOL    HW1 9053   2.016   3.512   4.113
 2718SOL    HW2 9054   1.905   3.507   3.993
 2719SOL     OW 9055   4.903   4.852   1.519
 2719SOL    HW1 9056   4.853   4.867   1.434
 2719SOL    HW2 9057   4.989   4.805   1.500
 2720SOL     OW 9058   2.016   6.212   4.168
 2720SOL    HW1 9059   2.042   6.190   4.262
 2720SOL    HW2 9060   1.929   6.263   4.168
 2721SOL     OW 9061   2.846   0.361   5.144
 2721SOL    HW1 9062   2.776   0.423   5.109
 2721SOL    HW2 9063   2.933   0.379   5.098
 2722SOL     OW 9064   6.293   5.355   2.666
 2722SOL    HW1 9065   6.319   5.419   2.738
 2722SOL    HW2 9066   6.374   5.308   2.632
 2723SOL     OW 9067   1.809   1.206   6.289
 2723SOL    HW1 9068   1.765   1.132   6.340
 2723SOL    HW2 9069   1.773   1.208   6.195
 2724SOL     OW 9070   3.236   6.561   5.201
 2724SOL    HW1 9071   3.215   6.591   5.294
 2724SOL    HW2 9072   3.332   6.531   5.197
 2725SOL     OW 9073   6.103   5.127   3.139
 2725SOL    HW1 9074   6.102   5.088   3.047
 2725SOL    HW2 9075   6.042   5.075   3.198
 2726SOL     OW 9076   6.069   3.921   1.867
 2726SOL    HW1 9077   6.047   3.833   1.827
 2726SOL    HW2 9078   6.166   3.923   1.894
 2727SOL     OW 9079   0.431   4.882   2.737
 2727SOL    HW1 9080   0.476   4.962   2.697
 2727SOL    HW2 9081   0.460   4.800   2.687
 2728SOL     OW 9082   3.180   0.684   4.787
 2728SOL    HW1 9083   3.107   0.750   4.772
 2728SOL    HW2 9084   3.142   0.598   4.821
 2729SOL     OW 9085   6.884   5.426   2.033
 2729SOL    HW1 9086   6.837   5.361   1.974
 2729SOL    HW2 9087   6.823   5.452   2.108
 2730SOL     OW 9088   1.578   6.813   0.787
 2730SOL    HW1 9089   1.489   6.798   0.744
 2730SOL    HW2 9090   1.619   6.725   0.811
 2731SOL     OW 9091   3.167   3.720   1.267
 2731SOL    HW1 9092   3.191   3.703   1.363
 2731SOL    HW2 9093   3.080   3.769   1.263
 2732SOL     OW 9094   5.821   3.441   2.524
 2732SOL    HW1 9095   5.846   3.485   2.610
 2732SOL    HW2 9096   5.880   3.474   2.451
 2733SOL     OW 9097   0.411   6.993   5.134
 2733SOL    HW1 9098   0.369   0.053   5.091
 2733SOL    HW2 9099   0.368   6.976   5.222
 2734SOL     OW 9100   2.162   5.575   2.668
 2734SOL    HW1 9101   2.121   5.557   2.757
 2734SOL    HW2 9102   2.258   5.599   2.681
 2735SOL     OW 9103   0.624   2.946   2.590
 2735SOL    HW1 9104   0.713   2.919   2.626
 2735SOL    HW2 9105   0.615   2.915   2.495
 2736SOL     OW 9106   5.267   0.856   4.455
 2736SOL    HW1 9107   5.252   0.767   4.411
 2736SOL    HW2 9108   5.191   0.874   4.519
 2737SOL     OW 9109   3.430   3.359   5.687
 2737SOL    HW1 9110   3.461   3.352   5.592
 2737SOL    HW2 9111   3.393   3.271   5.716
 2738SOL     OW 9112   4.960   5.553   4.791
 2738SOL    HW1 9113   5.051   5.514   4.777
 2738SOL    HW2 9114   4.965   5.653   4.791
 2739SOL     OW 9115   5.951   3.932   0.154
 2739SOL    HW1 9116   6.027   3.983   0.195
 2739SOL    HW2 9117   5.987   3.853   0.105
 2740SOL     OW 9118   5.516   2.123   2.380
 2740SOL    HW1 9119   5.480   2.202   2.430
 2740SOL    HW2 9120   5.555   2.058   2.445
 2741SOL     OW 9121   0.222   1.882   6.320
 2741SOL    HW1 9122   0.236   1.783   6.328
 2741SOL    HW2 9123   0.142   1.900   6.262
 2742SOL     OW 9124   1.715   6.047   6.117
 2742SOL    HW1 9125   1.685   6.141   6.127
 2742SOL    HW2 9126   1.680   6.009   6.031
 2743SOL     OW 9127   6.040   5.318   1.751
 2743SOL    HW1 9128   6.112   5.371   1.797
 2743SOL    HW2 9129   5.976   5.283   1.820
 2744SOL     OW 9130   3.660   2.840   0.109
 2744SOL    HW1 9131   3.751   2.826   0.071
 2744SOL    HW2 9132   3.615   2.751   0.122
 2745SOL     OW 9133   2.329   6.446   0.119
 2745SOL    HW1 9134   2.327   6.512   0.043
 2745SOL    HW2 9135   2.373   6.488   0.198
 2746SOL     OW 9136   2.185   3.277   4.785
 2746SOL    HW1 9137   2.282   3.256   4.777
 2746SOL    HW2 9138   2.151   3.310   4.697
 2747SOL     OW 9139   5.570   4.613   4.884
 2747SOL    HW1 9140   5.472   4.615   4.905
 2747SOL    HW2 9141   5.615   4.542   4.939
 2748SOL     OW 9142   3.355   1.087   2.269
 2748SOL    HW1 9143   3.418   1.157   2.235
 2748SOL    HW2 9144   3.395   0.996   2.253
 2749SOL     OW 9145   5.074   5.158   3.762
 2749SOL    HW1 9146   5.171   5.166   3.788
 2749SOL    HW2 9147   5.021   5.227   3.811
 2750SOL     OW 9148   0.900   5.569   1.532
 2750SOL    HW1 9149   0.955   5.508   1.476
 2750SOL    HW2 9150   0.959   5.633   1.580
 2751SOL     OW 9151   1.735   0.165   0.026
 2751SOL    HW1 9152   1.651   0.217   0.037
 2751SOL    HW2 9153   1.750   0.146   6.949
 2752SOL     OW 9154   5.156   5.671   5.835
 2752SOL    HW1 9155   5.163   5.574   5.810
 2752SOL    HW2 9156   5.234   5.696   5.893
 2753SOL     OW 9157   2.370   6.242   6.333
 2753SOL    HW1 9158   2.301   6.273   6.398
 2753SOL    HW2 9159   2.450   6.209   6.383
 2754SOL     OW 9160   6.207   0.206   4.792
 2754SOL    HW1 9161   6.259   0.128   4.757
 2754SOL    HW2 9162   6.269   0.272   4.833
 2755SOL     OW 9163   3.122   6.748   2.988
 2755SOL    HW1 9164   3.146   6.843   3.008
 2755SOL    HW2 9165   3.201   6.702   2.947
 2756SOL     OW 9166   5.888   4.440   4.051
 2756SOL    HW1 9167   5.938   4.423   3.966
 2756SOL    HW2 9168   5.948   4.421   4.129
 2757SOL     OW 9169   2.774   1.501   6.594
 2757SOL    HW1 9170   2.873   1.488   6.602
 2757SOL    HW2 9171   2.757   1.585   6.543
 2758SOL     OW 9172   4.810   6.009   3.354
 2758SOL    HW1 9173   4.760   5.944   3.411
 2758SOL    HW2 9174   4.802   5.982   3.258
 2759SOL     OW 9175   3.645   4.443   5.470
 2759SOL    HW1 9176   3.555   4.485   5.474
 2759SOL    HW2 9177   3.641   4.357   5.419
 2760SOL     OW 9178   6.162   5.705   2.765
 2760SOL    HW1 9179   6.062   5.714   2.758
 2760SOL    HW2 9180   6.184   5.620   2.813
 2761SOL     OW 9181   1.412   3.697   3.559
 2761SOL    HW1 9182   1.397   3.770   3.493
 2761SOL    HW2 9183   1.443   3.736   3.646
 2762SOL     OW 9184   1.244   2.112   0.039
 2762SOL    HW1 9185   1.342   2.131   0.030
 2762SOL    HW2 9186   1.203   2.181   0.100
 2763SOL     OW 9187   5.281   2.033   5.913
 2763SOL    HW1 9188   5.367   2.054   5.867
 2763SOL    HW2 9189   5.242   1.949   5.875
 2764SOL     OW 9190   0.360   4.945   2.990
 2764SOL    HW1 9191   0.268   4.933   3.029
 2764SOL    HW2 9192   0.353   4.947   2.890
 2765SOL     OW 9193   0.253   0.246   1.250
 2765SOL    HW1 9194   0.327   0.211   1.193
 2765SOL    HW2 9195   0.168   0.200   1.227
 2766SOL     OW 9196   4.204   0.913   6.647
 2766SOL    HW1 9197   4.113   0.933   6.611
 2766SOL    HW2 9198   4.231   0.986   6.710
 2767SOL     OW 9199   5.768   6.213   6.667
 2767SOL    HW1 9200   5.864   6.198   6.692
 2767SOL    HW2 9201   5.717   6.241   6.748
 2768SOL     OW 9202   4.282   0.969   0.729
 2768SOL    HW1 9203   4.207   0.930   0.783
 2768SOL    HW2 9204   4.315   0.901   0.664
 2769SOL     OW 9205   1.396   4.299   6.229
 2769SOL    HW1 9206   1.440   4.364   6.167
 2769SOL    HW2 9207   1.375   4.345   6.316
 2770SOL     OW 9208   3.552   6.262   5.856
 2770SOL    HW1 9209   3.556   6.180   5.800
 2770SOL    HW2 9210   3.456   6.287   5.873
 2771SOL     OW 9211   5.605   6.663   4.385
 2771SOL    HW1 9212   5.678   6.686   4.320
 2771SOL    HW2 9213   5.640   6.600   4.454
 2772SOL     OW 9214   3.391   0.801   2.209
 2772SOL    HW1 9215   3.332   0.772   2.285
 2772SOL    HW2 9216   3.335   0.823   2.130
 2773SOL     OW 9217   0.185   2.509   3.576
 2773SOL    HW1 9218   0.238   2.457   3.643
 2773SOL    HW2 9219   0.093   2.526   3.612
 2774SOL     OW 9220   4.991   2.906   2.960
 2774SOL    HW1 9221   4.978   2.835   3.030
 2774SOL    HW2 9222   5.060   2.971   2.991
 2775SOL     OW 9223   6.914   4.041   3.808
 2775SOL    HW1 9224   6.984   4.052   3.738
 2775SOL    HW2 9225   6.825   4.027   3.765
 2776SOL     OW 9226   4.802   5.794   6.596
 2776SOL    HW1 9227   4.815   5.824   6.690
 2776SOL    HW2 9228   4.851   5.709   6.580
 2777SOL     OW 9229   2.359   2.108   5.928
 2777SOL    HW1 9230   2.311   2.050   5.862
 2777SOL    HW2 9231   2.351   2.204   5.900
 2778SOL     OW 9232   2.057   5.928   6.012
 2778SOL    HW1 9233   1.977   5.868   6.020
 2778SOL    HW2 9234   2.030   6.023   6.027
 2779SOL     OW 9235   5.889   6.109   2.106
 2779SOL    HW1 9236   5.871   6.023   2.058
 2779SOL    HW2 9237   5.973   6.100   2.160
 2780SOL     OW 9238   0.303   0.437   6.354
 2780SOL    HW1 9239   0.249   0.354   6.341
 2780SOL    HW2 9240   0.381   0.418   6.413
 2781SOL     OW 9241   6.069   0.567   2.717
 2781SOL    HW1 9242   6.100   0.534   2.806
 2781SOL    HW2 9243   6.055   0.490   2.655
 2782SOL     OW 9244   4.348   1.178   5.531
 2782SOL    HW1 9245   4.258   1.140   5.510
 2782SOL    HW2 9246   4.338   1.252   5.598
 2783SOL     OW 9247   6.389   3.156   0.847
 2783SOL    HW1 9248   6.407   3.221   0.920
 2783SOL    HW2 9249   6.461   3.164   0.777
 2784SOL     OW 9250   3.090   1.906   2.326
 2784SOL    HW1 9251   3.099   1.980   2.258
 2784SOL    HW2 9252   3.181   1.868   2.344
 2785SOL     OW 9253   4.995   2.504   1.894
 2785SOL    HW1 9254   4.944   2.451   1.826
 2785SOL    HW2 9255   4.943   2.508   1.979
 2786SOL     OW 9256   6.197   6.024   1.472
 2786SOL    HW1 9257   6.244   5.973   1.399
 2786SOL    HW2 9258   6.101   5.995   1.476
 2787SOL     OW 9259   6.568   5.796   5.436
 2787SOL    HW1 9260   6.646   5.754   5.389
 2787SOL    HW2 9261   6.601   5.872   5.492
 2788SOL     OW 9262   3.035   6.168   6.354
 2788SOL    HW1 9263   3.024   6.084   6.406
 2788SOL    HW2 9264   3.127   6.205   6.368
 2789SOL     OW 9265   1.031   2.301   3.897
 2789SOL    HW1 9266   1.076   2.245   3.966
 2789SOL    HW2 9267   1.002   2.388   3.938
 2790SOL     OW 9268   2.752   4.947   0.409
 2790SOL    HW1 9269   2.791   4.903   0.329
 2790SOL    HW2 9270   2.715   4.878   0.471
 2791SOL     OW 9271   0.718   4.053   2.116
 2791SOL    HW1 9272   0.624   4.088   2.109
 2791SOL    HW2 9273   0.746   4.053   2.212
 2792SOL     OW 9274   3.385   0.816   4.712
 2792SOL    HW1 9275   3.322   0.750   4.752
 2792SOL    HW2 9276   3.334   0.878   4.652
 2793SOL     OW 9277   4.841   3.889   1.223
 2793SOL    HW1 9278   4.842   3.818   1.153
 2793SOL    HW2 9279   4.894   3.859   1.302
 2794SOL     OW 9280   0.024   1.267   6.325
 2794SOL    HW1 9281   0.036   1.254   6.424
 2794SOL    HW2 9282   0.086   1.207   6.276
 2795SOL     OW 9283   0.918   4.983   1.202
 2795SOL    HW1 9284   0.896   5.079   1.186
 2795SOL    HW2 9285   0.862   4.948   1.277
 2796SOL     OW 9286   0.889   5.597   5.326
 2796SOL    HW1 9287   0.929   5.550   5.248
 2796SOL    HW2 9288   0.793   5.573   5.334
 2797SOL     OW 9289   5.325   5.006   5.812
 2797SOL    HW1 9290   5.265   5.053   5.747
 2797SOL    HW2 9291   5.409   5.058   5.824
 2798SOL     OW 9292   6.714   5.981   2.498
 2798SOL    HW1 9293   6.683   5.996   2.404
 2798SOL    HW2 9294   6.784   5.910   2.499
 2799SOL     OW 9295   4.493   5.396   5.536
 2799SOL    HW1 9296   4.494   5.297   5.518
 2799SOL    HW2 9297   4.572   5.420   5.591
 2800SOL     OW 9298   5.848   0.825   0.218
 2800SOL    HW1 9299   5.905   0.897   0.258
 2800SOL    HW2 9300   5.759   0.864   0.193
 2801SOL     OW 9301   0.641   5.441   6.007
 2801SOL    HW1 9302   0.633   5.464   6.104
 2801SOL    HW2 9303   0.672   5.521   5.956
 2802SOL     OW 9304   6.889   6.385   5.149
 2802SOL    HW1 9305   6.909   6.448   5.224
 2802SOL    HW2 9306   6.891   6.434   5.062
 2803SOL     OW 9307   3.424   3.759   5.789
 2803SOL    HW1 9308   3.373   3.685   5.744
 2803SOL    HW2 9309   3.460   3.725   5.876
 2804SOL     OW 9310   0.703   2.658   3.883
 2804SOL    HW1 9311   0.709   2.652   3.783
 2804SOL    HW2 9312   0.616   2.699   3.909
 2805SOL     OW 9313   5.188   3.535   2.124
 2805SOL    HW1 9314   5.280   3.572   2.117
 2805SOL    HW2 9315   5.187   3.441   2.090
 2806SOL     OW 9316   2.139   4.330   6.510
 2806SOL    HW1 9317   2.170   4.260   6.446
 2806SOL    HW2 9318   2.215   4.391   6.533
 2807SOL     OW 9319   2.929   0.709   2.990
 2807SOL    HW1 9320   2.873   0.777   2.942
 2807SOL    HW2 9321   2.927   0.728   3.088
 2808SOL     OW 9322   5.712   5.528   0.883
 2808SOL    HW1 9323   5.666   5.558   0.967
 2808SOL    HW2 9324   5.737   5.608   0.828
 2809SOL     OW 9325   5.569   3.241   1.561
 2809SOL    HW1 9326   5.557   3.171   1.490
 2809SOL    HW2 9327   5.554   3.199   1.651
 2810SOL     OW 9328   2.448   6.186   3.160
 2810SOL    HW1 9329   2.470   6.164   3.065
 2810SOL    HW2 9330   2.421   6.282   3.166
 2811SOL     OW 9331   0.843   0.624   2.852
 2811SOL    HW1 9332   0.828   0.526   2.837
 2811SOL    HW2 9333   0.815   0.649   2.944
 2812SOL     OW 9334   0.700   3.150   0.532
 2812SOL    HW1 9335   0.622   3.166   0.472
 2812SOL    HW2 9336   0.732   3.056   0.521
 2813SOL     OW 9337   0.995   2.008   1.251
 2813SOL    HW1 9338   1.093   2.026   1.245
 2813SOL    HW2 9339   0.954   2.014   1.160
 2814SOL     OW 9340   2.664   4.002   6.489
 2814SOL    HW1 9341   2.756   4.027   6.459
 2814SOL    HW2 9342   2.665   3.910   6.528
 2815SOL     OW 9343   0.152   6.016   5.852
 2815SOL    HW1 9344   0.141   5.963   5.768
 2815SOL    HW2 9345   0.064   6.053   5.881
 2816SOL     OW 9346   6.859   6.136   5.265
 2816SOL    HW1 9347   6.804   6.169   5.341
 2816SOL    HW2 9348   6.875   6.210   5.200
 2817SOL     OW 9349   3.800   0.616   2.136
 2817SOL    HW1 9350   3.893   0.592   2.109
 2817SOL    HW2 9351   3.788   0.715   2.130
 2818SOL     OW 9352   0.692   0.897   1.002
 2818SOL    HW1 9353   0.626   0.864   1.070
 2818SOL    HW2 9354   0.731   0.819   0.952
 2819SOL     OW 9355   0.748   0.683   0.831
 2819SOL    HW1 9356   0.726   0.668   0.734
 2819SOL    HW2 9357   0.813   0.613   0.861
 2820SOL     OW 9358   1.413   1.978   2.446
 2820SOL    HW1 9359   1.331   2.014   2.401
 2820SOL    HW2 9360   1.489   1.979   2.381
 2821SOL     OW 9361   3.717   5.099   5.814
 2821SOL    HW1 9362   3.712   5.112   5.715
 2821SOL    HW2 9363   3.811   5.078   5.840
 2822SOL     OW 9364   3.824   3.046   0.666
 2822SOL    HW1 9365   3.785   3.128   0.624
 2822SOL    HW2 9366   3.767   2.967   0.644
 2823SOL     OW 9367   5.276   0.832   0.947
 2823SOL    HW1 9368   5.291   0.921   0.991
 2823SOL    HW2 9369   5.193   0.836   0.891
 2824SOL     OW 9370   1.674   3.907   5.261
 2824SOL    HW1 9371   1.654   3.809   5.256
 2824SOL    HW2 9372   1.769   3.920   5.288
 2825SOL     OW 9373   5.512   0.745   6.719
 2825SOL    HW1 9374   5.413   0.732   6.721
 2825SOL    HW2 9375   5.558   0.656   6.716
 2826SOL     OW 9376   1.534   3.410   6.082
 2826SOL    HW1 9377   1.555   3.316   6.108
 2826SOL    HW2 9378   1.620   3.460   6.067
 2827SOL     OW 9379   0.575   0.708   6.403
 2827SOL    HW1 9380   0.498   0.675   6.348
 2827SOL    HW2 9381   0.661   0.674   6.364
 2828SOL     OW 9382   1.876   3.366   1.376
 2828SOL    HW1 9383   1.875   3.355   1.476
 2828SOL    HW2 9384   1.843   3.458   1.353
 2829SOL     OW 9385   3.333   3.841   2.757
 2829SOL    HW1 9386   3.272   3.771   2.794
 2829SOL    HW2 9387   3.323   3.925   2.811
 2830SOL     OW 9388   3.816   4.282   5.227
 2830SOL    HW1 9389   3.904   4.236   5.214
 2830SOL    HW2 9390   3.827   4.355   5.294
 2831SOL     OW 9391   6.892   2.001   2.252
 2831SOL    HW1 9392   6.973   2.045   2.213
 2831SOL    HW2 9393   6.833   2.070   2.293
 2832SOL     OW 9394   1.006   3.330   1.419
 2832SOL    HW1 9395   1.042   3.237   1.428
 2832SOL    HW2 9396   0.965   3.358   1.506
 2833SOL     OW 9397   2.625   0.712   2.004
 2833SOL    HW1 9398   2.678   0.695   1.922
 2833SOL    HW2 9399   2.528   0.719   1.981
 2834SOL     OW 9400   4.405   6.280   4.657
 2834SOL    HW1 9401   4.387   6.182   4.663
 2834SOL    HW2 9402   4.483   6.304   4.715
 2835SOL     OW 9403   1.304   6.435   0.368
 2835SOL    HW1 9404   1.279   6.515   0.313
 2835SOL    HW2 9405   1.261   6.442   0.458
 2836SOL     OW 9406   3.984   6.700   3.195
 2836SOL    HW1 9407   4.013   6.659   3.281
 2836SOL    HW2 9408   4.042   6.667   3.121
 2837SOL     OW 9409   5.668   3.784   1.881
 2837SOL    HW1 9410   5.665   3.868   1.936
 2837SOL    HW2 9411   5.575   3.758   1.856
 2838SOL     OW 9412   5.151   4.090   6.216
 2838SOL    HW1 9413   5.174   3.993   6.211
 2838SOL    HW2 9414   5.178   4.126   6.305
 2839SOL     OW 9415   6.566   3.228   3.721
 2839SOL    HW1 9416   6.470   3.251   3.708
 2839SOL    HW2 9417   6.586   3.218   3.818
 2840SOL     OW 9418   1.356   5.551   3.165
 2840SOL    HW1 9419   1.283   5.484   3.175
 2840SOL    HW2 9420   1.440   5.515   3.205
 2841SOL     OW 9421   6.132   2.561   0.537
 2841SOL    HW1 9422   6.037   2.594   0.533
 2841SOL    HW2 9423   6.176   2.596   0.619
 2842SOL     OW 9424   0.949   5.764   4.588
 2842SOL    HW1 9425   0.966   5.838   4.652
 2842SOL    HW2 9426   0.853   5.736   4.594
 2843SOL     OW 9427   2.302   2.823   2.863
 2843SOL    HW1 9428   2.366   2.748   2.874
 2843SOL    HW2 9429   2.323   2.874   2.780
 2844SOL     OW 9430   4.667   4.196   1.510
 2844SOL    HW1 9431   4.673   4.105   1.468
 2844SOL    HW2 9432   4.609   4.192   1.591
 2845SOL     OW 9433   5.128   3.082   3.690
 2845SOL    HW1 9434   5.056   3.114   3.628
 2845SOL    HW2 9435   5.116   3.126   3.780
 2846SOL     OW 9436   4.117   0.740   0.231
 2846SOL    HW1 9437   4.144   0.818   0.175
 2846SOL    HW2 9438   4.019   0.724   0.221
 2847SOL     OW 9439   4.689   4.288   2.200
 2847SOL    HW1 9440   4.610   4.305   2.142
 2847SOL    HW2 9441   4.752   4.227   2.152
 2848SOL     OW 9442   1.115   2.567   5.017
 2848SOL    HW1 9443   1.030   2.531   5.056
 2848SOL    HW2 9444   1.094   2.619   4.934
 2849SOL     OW 9445   3.434   0.490   1.850
 2849SOL    HW1 9446   3.423   0.521   1.945
 2849SOL    HW2 9447   3.524   0.516   1.817
 2850SOL     OW 9448   2.044   6.626   3.423
 2850SOL    HW1 9449   2.067   6.720   3.449
 2850SOL    HW2 9450   2.034   6.571   3.505
 2851SOL     OW 9451   3.953   3.206   6.600
 2851SOL    HW1 9452   4.037   3.230   6.648
 2851SOL    HW2 9453   3.948   3.257   6.514
 2852SOL     OW 9454   6.406   4.079   6.807
 2852SOL    HW1 9455   6.338   4.119   6.746
 2852SOL    HW2 9456   6.459   4.153   6.850
 2853SOL     OW 9457   0.058   3.408   6.848
 2853SOL    HW1 9458   6.992   3.359   6.857
 2853SOL    HW2 9459   0.042   3.506   6.856
 2854SOL     OW 9460   3.390   0.830   6.426
 2854SOL    HW1 9461   3.327   0.891   6.474
 2854SOL    HW2 9462   3.358   0.815   6.333
 2855SOL     OW 9463   0.967   2.387   4.283
 2855SOL    HW1 9464   0.989   2.464   4.343
 2855SOL    HW2 9465   0.969   2.302   4.336
 2856SOL     OW 9466   1.612   3.229   3.005
 2856SOL    HW1 9467   1.599   3.220   2.906
 2856SOL    HW2 9468   1.682   3.166   3.036
 2857SOL     OW 9469   0.194   3.277   0.295
 2857SOL    HW1 9470   0.170   3.274   0.392
 2857SOL    HW2 9471   0.152   3.199   0.248
 2858SOL     OW 9472   5.555   6.238   2.937
 2858SOL    HW1 9473   5.473   6.213   2.988
 2858SOL    HW2 9474   5.635   6.233   2.996
 2859SOL     OW 9475   5.387   5.804   0.458
 2859SOL    HW1 9476   5.303   5.809   0.512
 2859SOL    HW2 9477   5.427   5.713   0.468
 2860SOL     OW 9478   1.785   6.201   1.500
 2860SOL    HW1 9479   1.822   6.142   1.428
 2860SOL    HW2 9480   1.859   6.249   1.546
 2861SOL     OW 9481   3.181   4.935   5.681
 2861SOL    HW1 9482   3.105   4.930   5.617
 2861SOL    HW2 9483   3.160   4.881   5.763
 2862SOL     OW 9484   4.408   2.845   1.450
 2862SOL    HW1 9485   4.312   2.819   1.454
 2862SOL    HW2 9486   4.454   2.815   1.534
 2863SOL     OW 9487   5.268   0.933   6.185
 2863SOL    HW1 9488   5.273   1.005   6.254
 2863SOL    HW2 9489   5.267   0.843   6.229
 2864SOL     OW 9490   4.433   3.098   1.264
 2864SOL    HW1 9491   4.422   3.058   1.355
 2864SOL    HW2 9492   4.351   3.080   1.209
 2865SOL     OW 9493   4.510   6.234   4.245
 2865SOL    HW1 9494   4.469   6.299   4.309
 2865SOL    HW2 9495   4.463   6.240   4.157
 2866SOL     OW 9496   5.633   4.576   6.936
 2866SOL    HW1 9497   5.648   4.479   6.916
 2866SOL    HW2 9498   5.701   4.630   6.887
 2867SOL     OW 9499   6.774   6.656   2.061
 2867SOL    HW1 9500   6.681   6.688   2.081
 2867SOL    HW2 9501   6.771   6.560   2.034
 2868SOL     OW 9502   0.999   1.298   5.480
 2868SOL    HW1 9503   1.086   1.314   5.435
 2868SOL    HW2 9504   0.925   1.306   5.414
 2869SOL     OW 9505   5.968   6.856   4.148
 2869SOL    HW1 9506   5.969   6.939   4.093
 2869SOL    HW2 9507   5.945   6.880   4.243
 2870SOL     OW 9508   1.370   1.712   0.137
 2870SOL    HW1 9509   1.303   1.780   0.167
 2870SOL    HW2 9510   1.346   1.623   0.175
 2871SOL     OW 9511   6.487   0.975   1.312
 2871SOL    HW1 9512   6.447   0.901   1.365
 2871SOL    HW2 9513   6.414   1.030   1.271
 2872SOL     OW 9514   2.699   1.529   2.098
 2872SOL    HW1 9515   2.695   1.517   2.197
 2872SOL    HW2 9516   2.661   1.618   2.073
 2873SOL     OW 9517   0.661   5.659   1.463
 2873SOL    HW1 9518   0.577   5.631   1.510
 2873SOL    HW2 9519   0.740   5.616   1.506
 2874SOL     OW 9520   3.165   0.524   2.487
 2874SOL    HW1 9521   3.127   0.527   2.579
 2874SOL    HW2 9522   3.143   0.436   2.445
 2875SOL     OW 9523   2.987   6.839   2.775
 2875SOL    HW1 9524   2.977   6.764   2.710
 2875SOL    HW2 9525   3.027   6.804   2.860
 2876SOL     OW 9526   1.335   6.505   2.096
 2876SOL    HW1 9527   1.344   6.582   2.034
 2876SOL    HW2 9528   1.312   6.422   2.045
 2877SOL     OW 9529   2.053   1.882   5.940
 2877SOL    HW1 9530   2.119   1.819   5.982
 2877SOL    HW2 9531   2.099   1.935   5.868
 2878SOL     OW 9532   3.428   2.972   4.636
 2878SOL    HW1 9533   3.360   3.004   4.570
 2878SOL    HW2 9534   3.486   3.048   4.664
 2879SOL     OW 9535   4.713   5.055   5.853
 2879SOL    HW1 9536   4.774   5.098   5.919
 2879SOL    HW2 9537   4.641   5.119   5.826
 2880SOL     OW 9538   0.590   2.033   3.640
 2880SOL    HW1 9539   0.505   2.030   3.587
 2880SOL    HW2 9540   0.668   2.037   3.577
 2881SOL     OW 9541   3.240   5.395   6.956
 2881SOL    HW1 9542   3.296   5.315   6.980
 2881SOL    HW2 9543   3.182   5.372   6.878
 2882SOL     OW 9544   5.713   6.281   0.373
 2882SOL    HW1 9545   5.772   6.209   0.408
 2882SOL    HW2 9546   5.704   6.353   0.442
 2883SOL     OW 9547   6.533   6.824   3.213
 2883SOL    HW1 9548   6.551   6.829   3.311
 2883SOL    HW2 9549   6.453   6.881   3.192
 2884SOL     OW 9550   6.927   4.888   2.734
 2884SOL    HW1 9551   6.875   4.871   2.650
 2884SOL    HW2 9552   7.012   4.935   2.712
 2885SOL     OW 9553   1.465   2.754   3.898
 2885SOL    HW1 9554   1.484   2.852   3.888
 2885SOL    HW2 9555   1.506   2.721   3.983
 2886SOL     OW 9556   2.548   4.477   0.370
 2886SOL    HW1 9557   2.543   4.496   0.468
 2886SOL    HW2 9558   2.560   4.563   0.320
 2887SOL     OW 9559   0.366   5.863   3.960
 2887SOL    HW1 9560   0.284   5.805   3.962
 2887SOL    HW2 9561   0.360   5.930   4.034
 2888SOL     OW 9562   0.348   6.067   6.869
 2888SOL    HW1 9563   0.420   6.062   6.939
 2888SOL    HW2 9564   0.262   6.034   6.908
 2889SOL     OW 9565   3.385   6.728   2.852
 2889SOL    HW1 9566   3.458   6.691   2.909
 2889SOL    HW2 9567   3.355   6.658   2.787
 2890SOL     OW 9568   2.286   6.214   0.708
 2890SOL    HW1 9569   2.328   6.256   0.627
 2890SOL    HW2 9570   2.187   6.213   0.698
 2891SOL     OW 9571   0.960   3.019   2.498
 2891SOL    HW1 9572   1.053   3.023   2.534
 2891SOL    HW2 9573   0.931   3.110   2.469
 2892SOL     OW 9574   6.574   3.639   1.096
 2892SOL    HW1 9575   6.543   3.729   1.124
 2892SOL    HW2 9576   6.612   3.591   1.175
 2893SOL     OW 9577   1.057   5.418   4.906
 2893SOL    HW1 9578   1.089   5.323   4.896
 2893SOL    HW2 9579   0.987   5.436   4.837
 2894SOL     OW 9580   2.045   4.356   1.851
 2894SOL    HW1 9581   2.125   4.367   1.792
 2894SOL    HW2 9582   1.971   4.413   1.817
 2895SOL     OW 9583   3.810   0.452   6.258
 2895SOL    HW1 9584   3.796   0.413   6.349
 2895SOL    HW2 9585   3.722   0.476   6.219
 2896SOL     OW 9586   6.027   6.878   5.733
 2896SOL    HW1 9587   6.013   6.966   5.779
 2896SOL    HW2 9588   5.970   6.874   5.651
 2897SOL     OW 9589   3.702   5.191   2.676
 2897SOL    HW1 9590   3.626   5.251   2.700
 2897SOL    HW2 9591   3.682   5.098   2.709
 2898SOL     OW 9592   6.180   3.917   3.538
 2898SOL    HW1 9593   6.222   3.832   3.506
 2898SOL    HW2 9594   6.231   3.994   3.501
 2899SOL     OW 9595   0.077   2.422   1.299
 2899SOL    HW1 9596   0.066   2.494   1.230
 2899SOL    HW2 9597   0.064   2.461   1.390
 2900SOL     OW 9598   3.681   4.353   6.798
 2900SOL    HW1 9599   3.585   4.356   6.770
 2900SOL    HW2 9600   3.738   4.386   6.724
 2901SOL     OW 9601   1.649   5.041   3.943
 2901SOL    HW1 9602   1.585   5.047   4.020
 2901SOL    HW2 9603   1.654   5.129   3.896
 2902SOL     OW 9604   6.936   5.950   3.752
 2902SOL    HW1 9605   6.845   5.927   3.787
 2902SOL    HW2 9606   6.933   5.956   3.652
 2903SOL     OW 9607   4.075   6.280   0.894
 2903SOL    HW1 9608   4.033   6.222   0.963
 2903SOL    HW2 9609   4.171   6.294   0.917
 2904SOL     OW 9610   3.018   4.807   5.101
 2904SOL    HW1 9611   2.965   4.729   5.066
 2904SOL    HW2 9612   3.065   4.852   5.025
 2905SOL     OW 9613   1.205   4.244   2.779
 2905SOL    HW1 9614   1.246   4.327   2.818
 2905SOL    HW2 9615   1.267   4.167   2.795
 2906SOL     OW 9616   5.338   6.184   3.063
 2906SOL    HW1 9617   5.311   6.204   3.157
 2906SOL    HW2 9618   5.294   6.099   3.033
 2907SOL     OW 9619   0.812   0.645   4.189
 2907SOL    HW1 9620   0.748   0.594   4.131
 2907SOL    HW2 9621   0.777   0.737   4.204
 2908SOL     OW 9622   5.294   0.153   3.804
 2908SOL    HW1 9623   5.265   0.210   3.727
 2908SOL    HW2 9624   5.214   0.127   3.858
 2909SOL     OW 9625   1.211   6.683   2.993
 2909SOL    HW1 9626   1.151   6.718   3.064
 2909SOL    HW2 9627   1.184   6.589   2.969
 2910SOL     OW 9628   6.552   0.857   4.181
 2910SOL    HW1 9629   6.548   0.759   4.203
 2910SOL    HW2 9630   6.567   0.869   4.083
 2911SOL     OW 9631   1.073   4.975   3.822
 2911SOL    HW1 9632   1.141   4.959   3.751
 2911SOL    HW2 9633   1.061   5.073   3.836
 2912SOL     OW 9634   6.971   6.428   0.804
 2912SOL    HW1 9635   0.003   6.432   0.718
 2912SOL    HW2 9636   6.903   6.355   0.798
 2913SOL     OW 9637   2.381   4.394   1.995
 2913SOL    HW1 9638   2.395   4.303   2.034
 2913SOL    HW2 9639   2.297   4.396   1.942
 2914SOL     OW 9640   5.352   5.279   0.872
 2914SOL    HW1 9641   5.326   5.364   0.917
 2914SOL    HW2 9642   5.274   5.217   0.870
 2915SOL     OW 9643   3.110   2.200   3.076
 2915SOL    HW1 9644   3.131   2.205   2.978
 2915SOL    HW2 9645   3.025   2.249   3.094
 2916SOL     OW 9646   2.636   5.336   6.812
 2916SOL    HW1 9647   2.579   5.366   6.889
 2916SOL    HW2 9648   2.644   5.236   6.814
 2917SOL     OW 9649   2.349   0.115   4.103
 2917SOL    HW1 9650   2.304   0.064   4.177
 2917SOL    HW2 9651   2.351   0.212   4.126
 2918SOL     OW 9652   6.418   3.620   0.880
 2918SOL    HW1 9653   6.335   3.573   0.910
 2918SOL    HW2 9654   6.482   3.627   0.956
 2919SOL     OW 9655   6.638   5.588   4.174
 2919SOL    HW1 9656   6.656   5.629   4.264
 2919SOL    HW2 9657   6.570   5.515   4.183
 2920SOL     OW 9658   2.008   0.542   1.999
 2920SOL    HW1 9659   2.095   0.584   2.021
 2920SOL    HW2 9660   2.022   0.470   1.931
 2921SOL     OW 9661   6.730   6.682   5.389
 2921SOL    HW1 9662   6.762   6.624   5.464
 2921SOL    HW2 9663   6.635   6.708   5.405
 2922SOL     OW 9664   4.293   0.086   2.727
 2922SOL    HW1 9665   4.236   0.086   2.809
 2922SOL    HW2 9666   4.259   0.153   2.661
 2923SOL     OW 9667   6.440   4.950   4.421
 2923SOL    HW1 9668   6.530   4.981   4.391
 2923SOL    HW2 9669   6.394   4.902   4.347
 2924SOL     OW 9670   6.910   1.419   4.963
 2924SOL    HW1 9671   6.818   1.455   4.947
 2924SOL    HW2 9672   6.952   1.397   4.875
 2925SOL     OW 9673   5.265   1.058   6.833
 2925SOL    HW1 9674   5.179   1.007   6.827
 2925SOL    HW2 9675   5.319   1.023   6.910
 2926SOL     OW 9676   6.947   2.025   5.281
 2926SOL    HW1 9677   6.974   2.046   5.187
 2926SOL    HW2 9678   7.012   2.065   5.345
 2927SOL     OW 9679   2.136   3.340   1.025
 2927SOL    HW1 9680   2.134   3.439   1.038
 2927SOL    HW2 9681   2.055   3.299   1.066
 2928SOL     OW 9682   6.403   1.364   0.390
 2928SOL    HW1 9683   6.448   1.380   0.478
 2928SOL    HW2 9684   6.304   1.363   0.403
 2929SOL     OW 9685   1.394   2.664   5.077
 2929SOL    HW1 9686   1.320   2.596   5.074
 2929SOL    HW2 9687   1.481   2.617   5.088
 2930SOL     OW 9688   6.194   5.479   5.808
 2930SOL    HW1 9689   6.256   5.555   5.789
 2930SOL    HW2 9690   6.147   5.452   5.723
 2931SOL     OW 9691   4.192   4.676   0.264
 2931SOL    HW1 9692   4.257   4.683   0.188
 2931SOL    HW2 9693   4.143   4.762   0.274
 2932SOL     OW 9694   6.785   5.735   2.360
 2932SOL    HW1 9695   6.734   5.757   2.277
 2932SOL    HW2 9696   6.722   5.705   2.431
 2933SOL     OW 9697   0.395   0.028   1.932
 2933SOL    HW1 9698   0.452   7.005   2.001
 2933SOL    HW2 9699   0.452   0.082   1.869
 2934SOL     OW 9700   4.232   3.097   1.096
 2934SOL    HW1 9701   4.150   3.154   1.091
 2934SOL    HW2 9702   4.213   3.008   1.056
 2935SOL     OW 9703   1.115   2.316   6.278
 2935SOL    HW1 9704   1.046   2.256   6.238
 2935SOL    HW2 9705   1.172   2.263   6.342
 2936SOL     OW 9706   4.734   0.279   0.624
 2936SOL    HW1 9707   4.640   0.251   0.607
 2936SOL    HW2 9708   4.763   0.345   0.555
 2937SOL     OW 9709   4.796   4.872   1.250
 2937SOL    HW1 9710   4.710   4.887   1.201
 2937SOL    HW2 9711   4.857   4.815   1.194
 2938SOL     OW 9712   6.338   5.569   0.040
 2938SOL    HW1 9713   6.382   5.605   0.122
 2938SOL    HW2 9714   6.375   5.478   0.019
 2939SOL     OW 9715   0.386   6.651   1.516
 2939SOL    HW1 9716   0.396   6.726   1.581
 2939SOL    HW2 9717   0.469   6.643   1.461
 2940SOL     OW 9718   5.686   5.831   4.563
 2940SOL    HW1 9719   5.679   5.792   4.471
 2940SOL    HW2 9720   5.767   5.889   4.568
 2941SOL     OW 9721   1.905   2.857   3.149
 2941SOL    HW1 9722   1.994   2.887   3.115
 2941SOL    HW2 9723   1.895   2.759   3.136
 2942SOL     OW 9724   2.802   2.522   0.138
 2942SOL    HW1 9725   2.741   2.539   0.061
 2942SOL    HW2 9726   2.853   2.437   0.121
 2943SOL     OW 9727   6.092   4.849   4.297
 2943SOL    HW1 9728   6.031   4.835   4.219
 2943SOL    HW2 9729   6.099   4.947   4.316
 2944SOL     OW 9730   2.889   6.243   3.910
 2944SOL    HW1 9731   2.841   6.194   3.837
 2944SOL    HW2 9732   2.897   6.340   3.886
 2945SOL     OW 9733   5.268   3.705   1.514
 2945SOL    HW1 9734   5.345   3.660   1.468
 2945SOL    HW2 9735   5.197   3.637   1.533
 2946SOL     OW 9736   2.663   4.575   5.797
 2946SOL    HW1 9737   2.593   4.647   5.799
 2946SOL    HW2 9738   2.725   4.591   5.720
 2947SOL     OW 9739   0.051   6.094   0.654
 2947SOL    HW1 9740   0.049   6.093   0.754
 2947SOL    HW2 9741   0.130   6.043   0.621
 2948SOL     OW 9742   5.933   4.777   3.452
 2948SOL    HW1 9743   6.007   4.764   3.518
 2948SOL    HW2 9744   5.847   4.745   3.493
 2949SOL     OW 9745   1.038   6.491   0.127
 2949SOL    HW1 9746   1.131   6.529   0.125
 2949SOL    HW2 9747   0.986   6.527   0.050
 2950SOL     OW 9748   5.616   4.666   2.848
 2950SOL    HW1 9749   5.696   4.713   2.811
 2950SOL    HW2 9750   5.591   4.590   2.788
 2951SOL     OW 9751   6.026   0.781   1.646
 2951SOL    HW1 9752   6.059   0.735   1.563
 2951SOL    HW2 9753   5.995   0.873   1.622
 2952SOL     OW 9754   6.053   0.808   5.376
 2952SOL    HW1 9755   6.013   0.724   5.339
 2952SOL    HW2 9756   5.994   0.886   5.356
 2953SOL     OW 9757   6.370   4.871   3.288
 2953SOL    HW1 9758   6.351   4.859   3.191
 2953SOL    HW2 9759   6.443   4.939   3.299
 2954SOL     OW 9760   0.586   4.726   6.687
 2954SOL    HW1 9761   0.601   4.630   6.712
 2954SOL    HW2 9762   0.501   4.758   6.728
 2955SOL     OW 9763   1.361   4.243   0.181
 2955SOL    HW1 9764   1.331   4.218   0.089
 2955SOL    HW2 9765   1.417   4.169   0.219
 2956SOL     OW 9766   6.893   5.207   4.227
 2956SOL    HW1 9767   6.884   5.117   4.186
 2956SOL    HW2 9768   6.938   5.269   4.163
 2957SOL     OW 9769   4.193   5.012   1.339
 2957SOL    HW1 9770   4.198   5.021   1.439
 2957SOL    HW2 9771   4.284   4.992   1.303
 2958SOL     OW 9772   2.027   5.397   3.246
 2958SOL    HW1 9773   2.026   5.400   3.146
 2958SOL    HW2 9774   1.978   5.477   3.282
 2959SOL     OW 9775   5.451   2.827   2.906
 2959SOL    HW1 9776   5.424   2.738   2.870
 2959SOL    HW2 9777   5.550   2.830   2.916
 2960SOL     OW 9778   3.379   0.900   0.154
 2960SOL    HW1 9779   3.325   0.876   0.234
 2960SOL    HW2 9780   3.331   0.969   0.100
 2961SOL     OW 9781   5.957   4.709   2.967
 2961SOL    HW1 9782   5.954   4.676   3.062
 2961SOL    HW2 9783   5.872   4.684   2.921
 2962SOL     OW 9784   5.127   6.762   3.779
 2962SOL    HW1 9785   5.130   6.668   3.815
 2962SOL    HW2 9786   5.220   6.797   3.770
 2963SOL     OW 9787   1.510   1.203   6.167
 2963SOL    HW1 9788   1.436   1.152   6.211
 2963SOL    HW2 9789   1.471   1.279   6.114
 2964SOL     OW 9790   0.350   3.043   6.959
 2964SOL    HW1 9791   0.286   3.106   7.004
 2964SOL    HW2 9792   0.326   3.036   6.862
 2965SOL     OW 9793   0.805   0.863   4.467
 2965SOL    HW1 9794   0.799   0.889   4.371
 2965SOL    HW2 9795   0.898   0.879   4.500
 2966SOL     OW 9796   4.593   5.811   4.183
 2966SOL    HW1 9797   4.530   5.877   4.225
 2966SOL    HW2 9798   4.665   5.860   4.135
 2967SOL     OW 9799   6.616   1.355   6.193
 2967SOL    HW1 9800   6.617   1.256   6.208
 2967SOL    HW2 9801   6.689   1.397   6.248
 2968SOL     OW 9802   2.376   3.244   0.977
 2968SOL    HW1 9803   2.366   3.155   0.931
 2968SOL    HW2 9804   2.286   3.282   0.995
 2969SOL     OW 9805   4.945   3.629   4.643
 2969SOL    HW1 9806   4.866   3.668   4.690
 2969SOL    HW2 9807   5.010   3.701   4.621
 2970SOL     OW 9808   2.781   2.655   5.517
 2970SOL    HW1 9809   2.736   2.572   5.483
 2970SOL    HW2 9810   2.838   2.694   5.445
 2971SOL     OW 9811   5.731   4.074   0.233
 2971SOL    HW1 9812   5.813   4.020   0.215
 2971SOL    HW2 9813   5.717   4.083   0.331
 2972SOL     OW 9814   5.729   5.117   0.291
 2972SOL    HW1 9815   5.689   5.032   0.326
 2972SOL    HW2 9816   5.661   5.165   0.235
 2973SOL     OW 9817   4.731   6.992   2.498
 2973SOL    HW1 9818   4.666   7.014   2.571
 2973SOL    HW2 9819   4.762   6.897   2.509
 2974SOL     OW 9820   6.136   4.393   3.189
 2974SOL    HW1 9821   6.171   4.459   3.121
 2974SOL    HW2 9822   6.079   4.325   3.143
 2975SOL     OW 9823   4.929   4.813   3.603
 2975SOL    HW1 9824   5.020   4.846   3.579
 2975SOL    HW2 9825   4.860   4.873   3.561
 2976SOL     OW 9826   4.526   1.920   3.203
 2976SOL    HW1 9827   4.531   1.835   3.256
 2976SOL    HW2 9828   4.607   1.976   3.222
 2977SOL     OW 9829   0.962   0.510   2.347
 2977SOL    HW1 9830   0.981   0.480   2.253
 2977SOL    HW2 9831   0.928   0.604   2.345
 2978SOL     OW 9832   4.101   4.109   6.899
 2978SOL    HW1 9833   4.055   4.161   6.971
 2978SOL    HW2 9834   4.100   4.012   6.922
 2979SOL     OW 9835   3.332   1.253   4.394
 2979SOL    HW1 9836   3.254   1.222   4.448
 2979SOL    HW2 9837   3.343   1.352   4.403
 2980SOL     OW 9838   3.062   4.735   6.222
 2980SOL    HW1 9839   3.044   4.653   6.277
 2980SOL    HW2 9840   2.979   4.791   6.217
 2981SOL     OW 9841   2.228   2.103   6.640
 2981SOL    HW1 9842   2.250   2.186   6.691
 2981SOL    HW2 9843   2.131   2.103   6.616
 2982SOL     OW 9844   2.067   6.563   2.410
 2982SOL    HW1 9845   1.976   6.526   2.429
 2982SOL    HW2 9846   2.058   6.651   2.364
 2983SOL     OW 9847   7.005   2.605   6.991
 2983SOL    HW1 9848   7.011   2.559   0.059
 2983SOL    HW2 9849   7.014   2.539   6.917
 2984SOL     OW 9850   6.367   4.859   6.939
 2984SOL    HW1 9851   6.315   4.810   6.868
 2984SOL    HW2 9852   6.396   4.947   6.903
 2985SOL     OW 9853   0.894   0.162   4.716
 2985SOL    HW1 9854   0.931   0.210   4.636
 2985SOL    HW2 9855   0.968   0.150   4.783
 2986SOL     OW 9856   3.025   3.951   2.187
 2986SOL    HW1 9857   2.979   4.025   2.139
 2986SOL    HW2 9858   2.964   3.914   2.257
 2987SOL     OW 9859   1.325   1.943   3.614
 2987SOL    HW1 9860   1.321   1.853   3.572
 2987SOL    HW2 9861   1.419   1.975   3.617
 2988SOL     OW 9862   1.051   0.270   1.440
 2988SOL    HW1 9863   1.146   0.298   1.425
 2988SOL    HW2 9864   0.999   0.282   1.356
 2989SOL     OW 9865   5.175   3.881   5.429
 2989SOL    HW1 9866   5.149   3.809   5.494
 2989SOL    HW2 9867   5.123   3.965   5.449
 2990SOL     OW 9868   5.501   2.307   4.249
 2990SOL    HW1 9869   5.413   2.285   4.291
 2990SOL    HW2 9870   5.558   2.356   4.314
 2991SOL     OW 9871   6.060   3.688   0.530
 2991SOL    HW1 9872   6.004   3.693   0.612
 2991SOL    HW2 9873   6.156   3.679   0.556
 2992SOL     OW 9874   0.378   4.400   4.516
 2992SOL    HW1 9875   0.352   4.485   4.470
 2992SOL    HW2 9876   0.328   4.323   4.476
 2993SOL     OW 9877   0.587   4.956   0.264
 2993SOL    HW1 9878   0.523   4.880   0.257
 2993SOL    HW2 9879   0.629   4.973   0.175
 2994SOL     OW 9880   4.743   6.434   7.017
 2994SOL    HW1 9881   4.775   6.428   0.091
 2994SOL    HW2 9882   4.729   6.530   6.992
 2995SOL     OW 9883   4.907   0.358   0.426
 2995SOL    HW1 9884   4.979   0.352   0.495
 2995SOL    HW2 9885   4.912   0.448   0.381
 2996SOL     OW 9886   1.360   2.176   4.731
 2996SOL    HW1 9887   1.433   2.239   4.706
 2996SOL    HW2 9888   1.393   2.082   4.724
 2997SOL     OW 9889   4.139   0.949   3.134
 2997SOL    HW1 9890   4.204   0.992   3.071
 2997SOL    HW2 9891   4.189   0.892   3.200
 2998SOL     OW 9892   3.081   0.636   4.117
 2998SOL    HW1 9893   3.081   0.592   4.026
 2998SOL    HW2 9894   3.148   0.710   4.118
 2999SOL     OW 9895   2.887   4.846   6.567
 2999SOL    HW1 9896   2.841   4.928   6.602
 2999SOL    HW2 9897   2.981   4.845   6.601
 3000SOL     OW 9898   2.749   3.542   5.640
 3000SOL    HW1 9899   2.842   3.568   5.665
 3000SOL    HW2 9900   2.692   3.536   5.722
 3001SOL     OW 9901   5.882   1.288   0.327
 3001SOL    HW1 9902   5.846   1.379   0.344
 3001SOL    HW2 9903   5.838   1.223   0.388
 3002SOL     OW 9904   3.051   1.417   1.070
 3002SOL    HW1 9905   2.962   1.377   1.092
 3002SOL    HW2 9906   3.059   1.426   0.971
 3003SOL     OW 9907   0.769   6.489   1.078
 3003SOL    HW1 9908   0.747   6.470   1.174
 3003SOL    HW2 9909   0.866   6.472   1.062
 3004SOL     OW 9910   1.752   4.302   4.296
 3004SOL    HW1 9911   1.684   4.334   4.232
 3004SOL    HW2 9912   1.819   4.375   4.313
 3005SOL     OW 9913   0.669   3.417   5.533
 3005SOL    HW1 9914   0.646   3.341   5.594
 3005SOL    HW2 9915   0.597   3.486   5.538
 3006SOL     OW 9916   5.431   1.969   5.531
 3006SOL    HW1 9917   5.421   1.870   5.521
 3006SOL    HW2 9918   5.528   1.993   5.532
 3007SOL     OW 9919   4.604   5.618   6.941
 3007SOL    HW1 9920   4.664   5.681   6.991
 3007SOL    HW2 9921   4.552   5.562   7.006
 3008SOL     OW 9922   3.988   2.319   6.143
 3008SOL    HW1 9923   3.953   2.291   6.054
 3008SOL    HW2 9924   4.033   2.407   6.135
 3009SOL     OW 9925   6.699   2.293   2.814
 3009SOL    HW1 9926   6.785   2.342   2.823
 3009SOL    HW2 9927   6.715   2.195   2.822
 3010SOL     OW 9928   3.600   6.035   5.707
 3010SOL    HW1 9929   3.657   5.964   5.749
 3010SOL    HW2 9930   3.512   5.996   5.680
 3011SOL     OW 9931   6.461   0.148   2.189
 3011SOL    HW1 9932   6.384   0.121   2.248
 3011SOL    HW2 9933   6.426   0.174   2.099
 3012SOL     OW 9934   2.553   3.303   6.777
 3012SOL    HW1 9935   2.528   3.334   6.685
 3012SOL    HW2 9936   2.478   3.249   6.815
 3013SOL     OW 9937   6.277   5.138   3.335
 3013SOL    HW1 9938   6.209   5.142   3.262
 3013SOL    HW2 9939   6.321   5.049   3.336
 3014SOL     OW 9940   5.153   1.266   6.549
 3014SOL    HW1 9941   5.234   1.313   6.583
 3014SOL    HW2 9942   5.071   1.307   6.590
 3015SOL     OW 9943   2.596   1.073   0.634
 3015SOL    HW1 9944   2.582   1.163   0.674
 3015SOL    HW2 9945   2.512   1.042   0.590
 3016SOL     OW 9946   3.112   6.822   4.215
 3016SOL    HW1 9947   3.172   6.861   4.145
 3016SOL    HW2 9948   3.168   6.783   4.289
 3017SOL     OW 9949   5.726   4.343   2.303
 3017SOL    HW1 9950   5.774   4.256   2.305
 3017SOL    HW2 9951   5.789   4.417   2.325
 3018SOL     OW 9952   3.919   6.931   0.045
 3018SOL    HW1 9953   3.828   6.970   0.060
 3018SOL    HW2 9954   3.926   6.843   0.091
 3019SOL     OW 9955   1.288   6.900   0.145
 3019SOL    HW1 9956   1.354   6.911   0.219
 3019SOL    HW2 9957   1.214   6.966   0.156
 3020SOL     OW 9958   4.969   3.531   6.742
 3020SOL    HW1 9959   4.971   3.545   6.841
 3020SOL    HW2 9960   5.010   3.443   6.719
 3021SOL     OW 9961   2.634   6.717   4.484
 3021SOL    HW1 9962   2.631   6.712   4.584
 3021SOL    HW2 9963   2.598   6.632   4.446
 3022SOL     OW 9964   3.982   6.098   4.023
 3022SOL    HW1 9965   4.010   6.071   3.931
 3022SOL    HW2 9966   3.900   6.049   4.049
 3023SOL     OW 9967   3.978   6.937   2.839
 3023SOL    HW1 9968   4.024   6.862   2.792
 3023SOL    HW2 9969   4.046   6.998   2.879
 3024SOL     OW 9970   6.136   5.966   5.403
 3024SOL    HW1 9971   6.228   5.942   5.371
 3024SOL    HW2 9972   6.125   5.936   5.498
 3025SOL     OW 9973   4.195   5.942   0.662
 3025SOL    HW1 9974   4.221   5.910   0.754
 3025SOL    HW2 9975   4.141   6.026   0.671
 3026SOL     OW 9976   6.726   1.115   0.195
 3026SOL    HW1 9977   6.767   1.086   0.109
 3026SOL    HW2 9978   6.793   1.107   0.269
 3027SOL     OW 9979   4.384   1.449   2.256
 3027SOL    HW1 9980   4.318   1.378   2.280
 3027SOL    HW2 9981   4.389   1.458   2.156
 3028SOL     OW 9982   1.744   4.075   6.478
 3028SOL    HW1 9983   1.794   4.149   6.434
 3028SOL    HW2 9984   1.654   4.064   6.434
 3029SOL     OW 9985   0.605   1.970   3.922
 3029SOL    HW1 9986   0.692   2.002   3.959
 3029SOL    HW2 9987   0.610   1.967   3.822
 3030SOL     OW 9988   1.516   4.191   0.854
 3030SOL    HW1 9989   1.443   4.128   0.880
 3030SOL    HW2 9990   1.495   4.231   0.765
 3031SOL     OW 9991   1.504   5.470   1.385
 3031SOL    HW1 9992   1.565   5.500   1.458
 3031SOL    HW2 9993   1.461   5.550   1.343
 3032SOL     OW 9994   1.771   6.252   3.444
 3032SOL    HW1 9995   1.864   6.218   3.460
 3032SOL    HW2 9996   1.767   6.350   3.462
 3033SOL     OW 9997   6.537   2.272   3.441
 3033SOL    HW1 9998   6.441   2.257   3.463
 3033SOL    HW2 9999   6.590   2.281   3.525
 3034SOL     OW10000   1.021   5.615   3.482
 3034SOL    HW110001   1.029   5.656   3.573
 3034SOL    HW210002   0.959   5.670   3.426
 3035SOL     OW10003   1.294   3.107   6.276
 3035SOL    HW110004   1.212   3.114   6.219
 3035SOL    HW210005   1.268   3.068   6.365
 3036SOL     OW10006   1.276   2.172   5.734
 3036SOL    HW110007   1.334   2.183   5.654
 3036SOL    HW210008   1.181   2.161   5.705
 3037SOL     OW10009   0.332   5.434   5.488
 3037SOL    HW110010   0.375   5.379   5.559
 3037SOL    HW210011   0.329   5.530   5.518
 3038SOL     OW10012   4.810   5.428   6.109
 3038SOL    HW110013   4.909   5.420   6.126
 3038SOL    HW210014   4.795   5.462   6.016
 3039SOL     OW10015   6.537   3.117   6.582
 3039SOL    HW110016   6.461   3.099   6.645
 3039SOL    HW210017   6.561   3.033   6.534
 3040SOL     OW10018   3.636   4.077   6.041
 3040SOL    HW110019   3.668   4.024   5.962
 3040SOL    HW210020   3.574   4.020   6.095
 3041SOL     OW10021   1.161   4.113   5.598
 3041SOL    HW110022   1.164   4.017   5.570
 3041SOL    HW210023   1.244   4.135   5.650
 3042SOL     OW10024   6.827   5.394   2.333
 3042SOL    HW110025   6.876   5.321   2.382
 3042SOL    HW210026   6.850   5.482   2.373
 3043SOL     OW10027   3.000   3.822   0.269
 3043SOL    HW110028   2.966   3.832   0.176
 3043SOL    HW210029   2.986   3.908   0.319
 3044SOL     OW10030   3.258   3.937   5.624
 3044SOL    HW110031   3.324   3.878   5.671
 3044SOL    HW210032   3.166   3.897   5.632
 3045SOL     OW10033   4.139   0.655   3.456
 3045SOL    HW110034   4.131   0.630   3.553
 3045SOL    HW210035   4.066   0.612   3.404
 3046SOL     OW10036   4.554   6.099   6.973
 3046SOL    HW110037   4.537   6.190   6.935
 3046SOL    HW210038   4.487   6.079   0.023
 3047SOL     OW10039   6.230   6.483   0.551
 3047SOL    HW110040   6.317   6.513   0.589
 3047SOL    HW210041   6.158   6.547   0.577
 3048SOL     OW10042   4.427   3.116   0.635
 3048SOL    HW110043   4.349   3.104   0.572
 3048SOL    HW210044   4.396   3.164   0.717
 3049SOL     OW10045   0.758   0.541   4.521
 3049SOL    HW110046   0.839   0.512   4.470
 3049SOL    HW210047   0.727   0.630   4.487
 3050SOL     OW10048   2.227   2.610   1.702
 3050SOL    HW110049   2.272   2.614   1.613
 3050SOL    HW210050   2.277   2.667   1.767
 3051SOL     OW10051   3.019   6.951   6.177
 3051SOL    HW110052   3.061   6.868   6.139
 3051SOL    HW210053   2.931   6.967   6.134
 3052SOL     OW10054   5.730   5.991   2.703
 3052SOL    HW110055   5.715   5.990   2.802
 3052SOL    HW210056   5.681   6.069   2.663
 3053SOL     OW10057   1.317   4.638   0.691
 3053SOL    HW110058   1.230   4.678   0.662
 3053SOL    HW210059   1.339   4.559   0.634
 3054SOL     OW10060   5.453   1.090   3.590
 3054SOL    HW110061   5.431   1.016   3.527
 3054SOL    HW210062   5.447   1.177   3.542
 3055SOL     OW10063   6.538   6.908   6.182
 3055SOL    HW110064   6.476   6.831   6.198
 3055SOL    HW210065   6.580   6.936   6.269
 3056SOL     OW10066   5.476   1.746   5.755
 3056SOL    HW110067   5.505   1.833   5.717
 3056SOL    HW210068   5.503   1.672   5.694
 3057SOL     OW10069   5.810   6.129   3.910
 3057SOL    HW110070   5.854   6.179   3.984
 3057SOL    HW210071   5.865   6.136   3.827
 3058SOL     OW10072   6.487   4.251   1.056
 3058SOL    HW110073   6.453   4.344   1.041
 3058SOL    HW210074   6.508   4.238   1.153
 3059SOL     OW10075   2.417   2.685   4.406
 3059SOL    HW110076   2.468   2.658   4.488
 3059SOL    HW210077   2.331   2.634   4.402
 3060SOL     OW10078   2.912   5.192   6.422
 3060SOL    HW110079   2.932   5.188   6.520
 3060SOL    HW210080   2.835   5.254   6.406
 3061SOL     OW10081   5.996   5.182   5.962
 3061SOL    HW110082   6.079   5.151   6.008
 3061SOL    HW210083   5.929   5.212   6.030
 3062SOL     OW10084   4.082   5.064   1.087
 3062SOL    HW110085   3.983   5.061   1.100
 3062SOL    HW210086   4.128   5.066   1.176
 3063SOL     OW10087   0.871   4.558   0.399
 3063SOL    HW110088   0.772   4.560   0.384
 3063SOL    HW210089   0.895   4.477   0.452
 3064SOL     OW10090   4.698   3.198   7.012
 3064SOL    HW110091   4.740   3.263   0.055
 3064SOL    HW210092   4.764   3.127   6.987
 3065SOL     OW10093   0.876   1.670   6.386
 3065SOL    HW110094   0.914   1.639   6.299
 3065SOL    HW210095   0.778   1.649   6.388
 3066SOL     OW10096   4.724   5.373   5.730
 3066SOL    HW110097   4.815   5.336   5.714
 3066SOL    HW210098   4.731   5.463   5.772
 3067SOL     OW10099   2.066   1.808   0.252
 3067SOL    HW110100   2.001   1.855   0.191
 3067SOL    HW210101   2.151   1.861   0.256
 3068SOL     OW10102   0.522   0.996   1.412
 3068SOL    HW110103   0.503   1.017   1.508
 3068SOL    HW210104   0.517   1.080   1.358
 3069SOL     OW10105   5.835   6.714   3.462
 3069SOL    HW110106   5.853   6.794   3.404
 3069SOL    HW210107   5.857   6.631   3.411
 3070SOL     OW10108   2.968   1.237   6.912
 3070SOL    HW110109   2.900   1.164   6.917
 3070SOL    HW210110   2.923   1.325   6.895
 3071SOL     OW10111   6.770   4.312   3.968
 3071SOL    HW110112   6.680   4.277   3.992
 3071SOL    HW210113   6.766   4.358   3.879
 3072SOL     OW10114   2.056   5.760   6.836
 3072SOL    HW110115   2.104   5.837   6.879
 3072SOL    HW210116   1.964   5.789   6.810
 3073SOL     OW10117   0.319   4.149   1.062
 3073SOL    HW110118   0.332   4.107   1.152
 3073SOL    HW210119   0.397   4.206   1.041
 3074SOL     OW10120   0.693   4.194   1.436
 3074SOL    HW110121   0.686   4.291   1.461
 3074SOL    HW210122   0.748   4.185   1.353
 3075SOL     OW10123   2.508   4.930   3.922
 3075SOL    HW110124   2.409   4.939   3.916
 3075SOL    HW210125   2.541   4.873   3.847
 3076SOL     OW10126   0.112   1.090   5.160
 3076SOL    HW110127   0.128   1.188   5.149
 3076SOL    HW210128   0.016   1.070   5.140
 3077SOL     OW10129   6.075   3.662   1.745
 3077SOL    HW110130   6.127   3.678   1.661
 3077SOL    HW210131   5.984   3.628   1.721
 3078SOL     OW10132   6.646   3.188   2.221
 3078SOL    HW110133   6.679   3.266   2.274
 3078SOL    HW210134   6.557   3.158   2.255
 3079SOL     OW10135   2.734   2.356   4.202
 3079SOL    HW110136   2.725   2.422   4.127
 3079SOL    HW210137   2.803   2.288   4.178
 3080SOL     OW10138   4.712   4.116   1.808
 3080SOL    HW110139   4.758   4.132   1.895
 3080SOL    HW210140   4.617   4.147   1.815
 3081SOL     OW10141   1.084   4.096   0.205
 3081SOL    HW110142   1.174   4.136   0.223
 3081SOL    HW210143   1.020   4.168   0.179
 3082SOL     OW10144   2.900   5.341   4.804
 3082SOL    HW110145   2.837   5.380   4.871
 3082SOL    HW210146   2.890   5.242   4.802
 3083SOL     OW10147   2.551   5.354   2.368
 3083SOL    HW110148   2.539   5.345   2.467
 3083SOL    HW210149   2.643   5.389   2.348
 3084SOL     OW10150   0.576   3.525   2.728
 3084SOL    HW110151   0.605   3.430   2.746
 3084SOL    HW210152   0.495   3.524   2.670
 3085SOL     OW10153   5.032   4.443   0.396
 3085SOL    HW110154   5.044   4.422   0.493
 3085SOL    HW210155   5.121   4.441   0.350
 3086SOL     OW10156   5.209   1.078   0.485
 3086SOL    HW110157   5.151   1.008   0.525
 3086SOL    HW210158   5.205   1.072   0.385
 3087SOL     OW10159   2.437   6.186   2.337
 3087SOL    HW110160   2.519   6.209   2.389
 3087SOL    HW210161   2.374   6.264   2.337
 3088SOL     OW10162   0.890   3.433   5.982
 3088SOL    HW110163   0.854   3.480   6.063
 3088SOL    HW210164   0.860   3.481   5.899
 3089SOL     OW10165   4.897   1.086   4.757
 3089SOL    HW110166   4.860   1.123   4.842
 3089SOL    HW210167   4.855   1.133   4.679
 3090SOL     OW10168   1.657   1.348   2.132
 3090SOL    HW110169   1.710   1.283   2.077
 3090SOL    HW210170   1.687   1.341   2.228
 3091SOL     OW10171   1.024   1.204   0.640
 3091SOL    HW110172   1.043   1.107   0.633
 3091SOL    HW210173   0.986   1.224   0.730
 3092SOL     OW10174   5.132   0.275   2.027
 3092SOL    HW110175   5.173   0.301   2.114
 3092SOL    HW210176   5.166   0.186   1.999
 3093SOL     OW10177   5.773   6.060   5.982
 3093SOL    HW110178   5.753   6.101   6.071
 3093SOL    HW210179   5.862   6.016   5.985
 3094SOL     OW10180   2.632   0.899   3.998
 3094SOL    HW110181   2.687   0.885   4.079
 3094SOL    HW210182   2.670   0.974   3.944
 3095SOL     OW10183   2.644   3.177   5.313
 3095SOL    HW110184   2.583   3.223   5.378
 3095SOL    HW210185   2.589   3.121   5.250
 3096SOL     OW10186   0.375   3.309   5.013
 3096SOL    HW110187   0.443   3.301   5.086
 3096SOL    HW210188   0.325   3.395   5.023
 3097SOL     OW10189   5.706   2.899   6.815
 3097SOL    HW110190   5.794   2.865   6.781
 3097SOL    HW210191   5.671   2.838   6.886
 3098SOL     OW10192   2.047   2.318   2.533
 3098SOL    HW110193   2.062   2.389   2.602
 3098SOL    HW210194   1.994   2.244   2.573
 3099SOL     OW10195   0.641   5.801   3.441
 3099SOL    HW110196   0.739   5.803   3.421
 3099SOL    HW210197   0.625   5.824   3.537
 3100SOL     OW10198   6.617   5.836   2.790
 3100SOL    HW110199   6.649   5.900   2.720
 3100SOL    HW210200   6.671   5.849   2.873
 3101SOL     OW10201   4.861   6.973   5.633
 3101SOL    HW110202   4.907   6.990   5.720
 3101SOL    HW210203   4.790   0.022   5.619
 3102SOL     OW10204   0.055   5.554   0.279
 3102SOL    HW110205   0.135   5.547   0.338
 3102SOL    HW210206   0.049   5.646   0.240
 3103SOL     OW10207   4.217   0.499   1.257
 3103SOL    HW110208   4.288   0.556   1.297
 3103SOL    HW210209   4.127   0.541   1.271
 3104SOL     OW10210   4.423   0.169   6.524
 3104SOL    HW110211   4.484   0.133   6.595
 3104SOL    HW210212   4.413   0.101   6.451
 3105SOL     OW10213   5.119   2.986   1.103
 3105SOL    HW110214   5.094   3.063   1.163
 3105SOL    HW210215   5.036   2.940   1.072
 3106SOL     OW10216   4.994   1.049   5.339
 3106SOL    HW110217   5.022   1.069   5.245
 3106SOL    HW210218   5.067   1.075   5.402
 3107SOL     OW10219   4.165   1.601   4.263
 3107SOL    HW110220   4.137   1.583   4.358
 3107SOL    HW210221   4.260   1.573   4.251
 3108SOL     OW10222   2.385   4.387   4.434
 3108SOL    HW110223   2.304   4.446   4.435
 3108SOL    HW210224   2.424   4.383   4.526
 3109SOL     OW10225   6.118   0.631   5.038
 3109SOL    HW110226   6.045   0.683   5.082
 3109SOL    HW210227   6.112   0.535   5.066
 3110SOL     OW10228   2.637   4.641   3.762
 3110SOL    HW110229   2.610   4.664   3.668
 3110SOL    HW210230   2.587   4.560   3.792
 3111SOL     OW10231   6.349   4.872   4.154
 3111SOL    HW110232   6.264   4.822   4.172
 3111SOL    HW210233   6.327   4.965   4.124
 3112SOL     OW10234   3.475   3.049   6.644
 3112SOL    HW110235   3.558   3.082   6.600
 3112SOL    HW210236   3.399   3.052   6.579
 3113SOL     OW10237   3.211   5.725   2.442
 3113SOL    HW110238   3.293   5.756   2.395
 3113SOL    HW210239   3.196   5.780   2.524
 3114SOL     OW10240   3.667   1.106   0.507
 3114SOL    HW110241   3.575   1.073   0.529
 3114SOL    HW210242   3.731   1.029   0.513
 3115SOL     OW10243   4.069   4.205   5.289
 3115SOL    HW110244   4.077   4.106   5.272
 3115SOL    HW210245   4.138   4.253   5.235
 3116SOL     OW10246   0.817   2.189   0.629
 3116SOL    HW110247   0.762   2.115   0.668
 3116SOL    HW210248   0.880   2.224   0.698
 3117SOL     OW10249   4.835   2.509   5.981
 3117SOL    HW110250   4.934   2.500   5.990
 3117SOL    HW210251   4.791   2.473   6.064
 3118SOL     OW10252   1.435   0.314   3.007
 3118SOL    HW110253   1.403   0.402   3.044
 3118SOL    HW210254   1.438   0.247   3.081
 3119SOL     OW10255   3.105   2.427   5.609
 3119SOL    HW110256   3.163   2.427   5.691
 3119SOL    HW210257   3.142   2.492   5.543
 3120SOL     OW10258   3.125   0.420   5.260
 3120SOL    HW110259   3.167   0.470   5.184
 3120SOL    HW210260   3.054   0.477   5.302
 3121SOL     OW10261   5.152   2.049   4.509
 3121SOL    HW110262   5.108   1.982   4.568
 3121SOL    HW210263   5.153   2.016   4.415
 3122SOL     OW10264   4.524   4.576   4.844
 3122SOL    HW110265   4.452   4.615   4.787
 3122SOL    HW210266   4.491   4.567   4.938
 3123SOL     OW10267   2.126   0.332   3.654
 3123SOL    HW110268   2.183   0.261   3.696
 3123SOL    HW210269   2.182   0.413   3.638
 3124SOL     OW10270   5.373   6.559   4.239
 3124SOL    HW110271   5.439   6.496   4.198
 3124SOL    HW210272   5.422   6.637   4.279
 3125SOL     OW10273   0.958   2.915   5.565
 3125SOL    HW110274   0.993   2.944   5.655
 3125SOL    HW210275   0.932   2.996   5.512
 3126SOL     OW10276   5.546   4.745   5.477
 3126SOL    HW110277   5.598   4.778   5.398
 3126SOL    HW210278   5.521   4.649   5.463
 3127SOL     OW10279   0.879   2.520   5.161
 3127SOL    HW110280   0.893   2.421   5.160
 3127SOL    HW210281   0.854   2.550   5.253
 3128SOL     OW10282   3.281   0.813   0.713
 3128SOL    HW110283   3.373   0.835   0.744
 3128SOL    HW210284   3.258   0.719   0.741
 3129SOL     OW10285   5.327   2.976   0.949
 3129SOL    HW110286   5.255   2.985   1.018
 3129SOL    HW210287   5.415   2.961   0.995
 3130SOL     OW10288   1.751   4.295   1.226
 3130SOL    HW110289   1.708   4.223   1.281
 3130SOL    HW210290   1.686   4.325   1.156
 3131SOL     OW10291   7.020   3.276   2.267
 3131SOL    HW110292   0.095   3.287   2.295
 3131SOL    HW210293   6.967   3.355   2.298
 3132SOL     OW10294   4.449   4.596   6.748
 3132SOL    HW110295   4.486   4.504   6.757
 3132SOL    HW210296   4.400   4.621   6.832
 3133SOL     OW10297   3.503   1.277   3.333
 3133SOL    HW110298   3.511   1.259   3.431
 3133SOL    HW210299   3.490   1.191   3.285
 3134SOL     OW10300   3.710   4.870   2.176
 3134SOL    HW110301   3.793   4.816   2.171
 3134SOL    HW210302   3.641   4.832   2.114
 3135SOL     OW10303   5.695   6.884   6.223
 3135SOL    HW110304   5.774   6.844   6.270
 3135SOL    HW210305   5.696   6.983   6.236
 3136SOL     OW10306   5.910   0.854   2.207
 3136SOL    HW110307   6.006   0.866   2.182
 3136SOL    HW210308   5.898   0.879   2.304
 3137SOL     OW10309   0.208   0.152   2.080
 3137SOL    HW110310   0.272   0.116   2.012
 3137SOL    HW210311   0.122   0.102   2.074
 3138SOL     OW10312   5.453   5.400   3.564
 3138SOL    HW110313   5.416   5.492   3.554
 3138SOL    HW210314   5.546   5.397   3.525
 3139SOL     OW10315   3.636   4.827   1.395
 3139SOL    HW110316   3.599   4.751   1.449
 3139SOL    HW210317   3.681   4.791   1.313
 3140SOL     OW10318   0.012   6.208   5.581
 3140SOL    HW110319   0.057   6.146   5.646
 3140SOL    HW210320   0.049   6.194   5.489
 3141SOL     OW10321   0.051   1.960   0.666
 3141SOL    HW110322   7.016   1.936   0.746
 3141SOL    HW210323   0.082   2.055   0.676
 3142SOL     OW10324   4.050   0.592   2.696
 3142SOL    HW110325   4.131   0.637   2.734
 3142SOL    HW210326   4.026   0.634   2.609
 3143SOL     OW10327   6.559   1.839   0.132
 3143SOL    HW110328   6.529   1.930   0.162
 3143SOL    HW210329   6.615   1.797   0.203
 3144SOL     OW10330   4.179   3.773   6.938
 3144SOL    HW110331   4.112   3.788   7.011
 3144SOL    HW210332   4.259   3.830   6.954
 3145SOL     OW10333   1.869   6.610   2.067
 3145SOL    HW110334   1.941   6.652   2.011
 3145SOL    HW210335   1.900   6.520   2.099
 3146SOL     OW10336   1.028   0.900   5.039
 3146SOL    HW110337   0.954   0.874   4.978
 3146SOL    HW210338   1.111   0.919   4.986
 3147SOL     OW10339   3.346   5.129   6.571
 3147SOL    HW110340   3.440   5.102   6.549
 3147SOL    HW210341   3.348   5.211   6.628
 3148SOL     OW10342   0.032   0.257   3.346
 3148SOL    HW110343   0.126   0.292   3.346
 3148SOL    HW210344   0.022   0.188   3.417
 3149SOL     OW10345   3.031   1.220   6.520
 3149SOL    HW110346   3.083   1.233   6.605
 3149SOL    HW210347   2.959   1.153   6.535
 3150SOL     OW10348   6.493   5.277   6.030
 3150SOL    HW110349   6.417   5.223   5.994
 3150SOL    HW210350   6.509   5.356   5.971
 3151SOL     OW10351   6.836   2.047   6.096
 3151SOL    HW110352   6.852   1.989   6.016
 3151SOL    HW210353   6.823   1.989   6.177
 3152SOL     OW10354   1.234   4.341   6.723
 3152SOL    HW110355   1.245   4.438   6.745
 3152SOL    HW210356   1.159   4.330   6.659
 3153SOL     OW10357   6.371   4.688   0.685
 3153SOL    HW110358   6.351   4.733   0.598
 3153SOL    HW210359   6.466   4.708   0.711
 3154SOL     OW10360   5.832   0.934   1.434
 3154SOL    HW110361   5.855   0.951   1.338
 3154SOL    HW210362   5.885   0.996   1.492
 3155SOL     OW10363   6.844   4.508   0.745
 3155SOL    HW110364   6.923   4.552   0.787
 3155SOL    HW210365   6.863   4.411   0.732
 3156SOL     OW10366   3.290   3.994   2.185
 3156SOL    HW110367   3.191   3.984   2.194
 3156SOL    HW210368   3.322   3.938   2.108
 3157SOL     OW10369   1.179   2.230   4.916
 3157SOL    HW110370   1.257   2.224   4.853
 3157SOL    HW210371   1.192   2.307   4.978
 3158SOL     OW10372   2.602   1.971   5.387
 3158SOL    HW110373   2.670   1.937   5.323
 3158SOL    HW210374   2.511   1.940   5.358
 3159SOL     OW10375   5.412   0.220   0.497
 3159SOL    HW110376   5.428   0.121   0.501
 3159SOL    HW210377   5.499   0.267   0.481
 3160SOL     OW10378   1.963   6.830   5.121
 3160SOL    HW110379   1.867   6.819   5.147
 3160SOL    HW210380   1.975   6.803   5.025
 3161SOL     OW10381   1.905   2.908   2.772
 3161SOL    HW110382   1.908   3.002   2.807
 3161SOL    HW210383   1.831   2.900   2.705
 3162SOL     OW10384   2.292   5.523   0.113
 3162SOL    HW110385   2.345   5.574   0.180
 3162SOL    HW210386   2.205   5.494   0.153
 3163SOL     OW10387   3.574   3.531   0.379
 3163SOL    HW110388   3.581   3.605   0.312
 3163SOL    HW210389   3.653   3.534   0.441
 3164SOL     OW10390   3.521   5.916   2.132
 3164SOL    HW110391   3.578   5.871   2.064
 3164SOL    HW210392   3.576   5.981   2.184
 3165SOL     OW10393   1.302   5.329   1.046
 3165SOL    HW110394   1.252   5.248   1.075
 3165SOL    HW210395   1.245   5.410   1.059
 3166SOL     OW10396   4.300   1.004   4.029
 3166SOL    HW110397   4.359   0.927   4.053
 3166SOL    HW210398   4.311   1.027   3.932
 3167SOL     OW10399   5.932   4.536   0.692
 3167SOL    HW110400   5.877   4.459   0.658
 3167SOL    HW210401   5.966   4.588   0.614
 3168SOL     OW10402   5.618   2.093   1.146
 3168SOL    HW110403   5.678   2.111   1.224
 3168SOL    HW210404   5.568   2.008   1.162
 3169SOL     OW10405   2.282   4.732   3.203
 3169SOL    HW110406   2.205   4.797   3.202
 3169SOL    HW210407   2.271   4.668   3.279
 3170SOL     OW10408   4.495   6.061   2.411
 3170SOL    HW110409   4.403   6.080   2.375
 3170SOL    HW210410   4.495   6.076   2.510
 3171SOL     OW10411   5.580   2.167   1.972
 3171SOL    HW110412   5.496   2.184   2.023
 3171SOL    HW210413   5.628   2.088   2.011
 3172SOL     OW10414   0.359   5.536   0.068
 3172SOL    HW110415   0.423   5.600   0.111
 3172SOL    HW210416   0.347   5.561   6.992
 3173SOL     OW10417   2.599   2.848   0.047
 3173SOL    HW110418   2.612   2.839   6.968
 3173SOL    HW210419   2.511   2.808   0.073
 3174SOL     OW10420   2.434   2.727   6.158
 3174SOL    HW110421   2.496   2.703   6.232
 3174SOL    HW210422   2.342   2.695   6.179
 3175SOL     OW10423   6.040   1.280   2.243
 3175SOL    HW110424   6.049   1.221   2.163
 3175SOL    HW210425   6.105   1.356   2.236
 3176SOL     OW10426   0.425   3.094   5.519
 3176SOL    HW110427   0.480   3.128   5.442
 3176SOL    HW210428   0.422   2.994   5.516
 3177SOL     OW10429   5.184   4.124   3.992
 3177SOL    HW110430   5.253   4.179   4.039
 3177SOL    HW210431   5.181   4.032   4.033
 3178SOL     OW10432   6.439   2.078   0.261
 3178SOL    HW110433   6.346   2.073   0.298
 3178SOL    HW210434   6.456   2.170   0.225
 3179SOL     OW10435   1.570   1.824   1.972
 3179SOL    HW110436   1.659   1.869   1.959
 3179SOL    HW210437   1.582   1.725   1.965
 3180SOL     OW10438   5.661   6.298   0.104
 3180SOL    HW110439   5.691   6.299   0.199
 3180SOL    HW210440   5.570   6.341   0.097
 3181SOL     OW10441   6.652   1.062   4.325
 3181SOL    HW110442   6.617   0.977   4.288
 3181SOL    HW210443   6.639   1.064   4.424
 3182SOL     OW10444   2.801   0.729   6.361
 3182SOL    HW110445   2.758   0.642   6.384
 3182SOL    HW210446   2.747   0.804   6.397
 3183SOL     OW10447   4.520   4.969   2.416
 3183SOL    HW110448   4.528   4.923   2.327
 3183SOL    HW210449   4.583   5.047   2.419
 3184SOL     OW10450   0.523   1.959   3.160
 3184SOL    HW110451   0.451   1.890   3.164
 3184SOL    HW210452   0.492   2.037   3.107
 3185SOL     OW10453   6.313   6.418   5.897
 3185SOL    HW110454   6.215   6.418   5.918
 3185SOL    HW210455   6.333   6.493   5.833
 3186SOL     OW10456   2.440   1.618   0.269
 3186SOL    HW110457   2.512   1.556   0.302
 3186SOL    HW210458   2.350   1.580   0.293
 3187SOL     OW10459   3.384   5.377   2.293
 3187SOL    HW110460   3.351   5.366   2.200
 3187SOL    HW210461   3.432   5.293   2.321
 3188SOL     OW10462   1.969   5.642   4.682
 3188SOL    HW110463   2.056   5.598   4.658
 3188SOL    HW210464   1.895   5.576   4.671
 3189SOL     OW10465   1.993   1.319   0.303
 3189SOL    HW110466   1.934   1.279   0.373
 3189SOL    HW210467   2.069   1.256   0.284
 3190SOL     OW10468   6.696   5.753   6.639
 3190SOL    HW110469   6.791   5.722   6.635
 3190SOL    HW210470   6.638   5.692   6.584
 3191SOL     OW10471   4.836   5.733   1.943
 3191SOL    HW110472   4.934   5.717   1.954
 3191SOL    HW210473   4.786   5.650   1.970
 3192SOL     OW10474   0.194   2.649   0.689
 3192SOL    HW110475   0.161   2.652   0.784
 3192SOL    HW210476   0.265   2.579   0.680
 3193SOL     OW10477   4.062   1.063   4.836
 3193SOL    HW110478   4.126   0.993   4.807
 3193SOL    HW210479   4.010   1.029   4.915
 3194SOL     OW10480   0.797   1.062   5.479
 3194SOL    HW110481   0.836   1.057   5.387
 3194SOL    HW210482   0.836   1.139   5.528
 3195SOL     OW10483   0.623   1.239   1.575
 3195SOL    HW110484   0.579   1.304   1.513
 3195SOL    HW210485   0.721   1.234   1.555
 3196SOL     OW10486   6.712   0.644   6.359
 3196SOL    HW110487   6.742   0.649   6.454
 3196SOL    HW210488   6.702   0.736   6.322
 3197SOL     OW10489   2.461   6.863   5.285
 3197SOL    HW110490   2.363   6.883   5.284
 3197SOL    HW210491   2.511   6.942   5.318
 3198SOL     OW10492   6.291   2.455   3.269
 3198SOL    HW110493   6.389   2.437   3.272
 3198SOL    HW210494   6.264   2.479   3.176
 3199SOL     OW10495   5.616   4.716   3.133
 3199SOL    HW110496   5.687   4.779   3.101
 3199SOL    HW210497   5.583   4.661   3.056
 3200SOL     OW10498   6.056   3.437   3.089
 3200SOL    HW110499   6.152   3.451   3.065
 3200SOL    HW210500   6.047   3.353   3.143
 3201SOL     OW10501   6.213   5.187   3.668
 3201SOL    HW110502   6.262   5.210   3.584
 3201SOL    HW210503   6.120   5.158   3.645
 3202SOL     OW10504   1.111   5.542   0.862
 3202SOL    HW110505   1.033   5.583   0.814
 3202SOL    HW210506   1.174   5.503   0.795
 3203SOL     OW10507   5.391   1.508   1.432
 3203SOL    HW110508   5.405   1.525   1.529
 3203SOL    HW210509   5.476   1.525   1.382
 3204SOL     OW10510   3.046   1.151   2.903
 3204SOL    HW110511   3.030   1.072   2.843
 3204SOL    HW210512   3.117   1.209   2.863
 3205SOL     OW10513   4.830   2.563   5.472
 3205SOL    HW110514   4.868   2.528   5.557
 3205SOL    HW210515   4.750   2.620   5.492
 3206SOL     OW10516   2.674   3.838   1.222
 3206SOL    HW110517   2.647   3.867   1.130
 3206SOL    HW210518   2.635   3.748   1.241
 3207SOL     OW10519   1.097   1.082   6.419
 3207SOL    HW110520   1.075   1.001   6.473
 3207SOL    HW210521   1.073   1.164   6.471
 3208SOL     OW10522   5.446   5.853   6.389
 3208SOL    HW110523   5.499   5.893   6.464
 3208SOL    HW210524   5.349   5.867   6.406
 3209SOL     OW10525   3.451   4.962   4.793
 3209SOL    HW110526   3.481   5.050   4.758
 3209SOL    HW210527   3.473   4.890   4.727
 3210SOL     OW10528   0.944   5.174   1.525
 3210SOL    HW110529   0.965   5.082   1.490
 3210SOL    HW210530   0.970   5.179   1.621
 3211SOL     OW10531   1.874   4.779   0.132
 3211SOL    HW110532   1.868   4.683   0.157
 3211SOL    HW210533   1.961   4.817   0.162
 3212SOL     OW10534   3.201   6.904   2.306
 3212SOL    HW110535   3.283   6.869   2.260
 3212SOL    HW210536   3.123   6.894   2.245
 3213SOL     OW10537   1.665   0.487   6.367
 3213SOL    HW110538   1.667   0.498   6.268
 3213SOL    HW210539   1.726   0.554   6.409
 3214SOL     OW10540   4.863   6.748   2.573
 3214SOL    HW110541   4.811   6.663   2.579
 3214SOL    HW210542   4.903   6.756   2.481
 3215SOL     OW10543   1.177   3.748   1.221
 3215SOL    HW110544   1.108   3.676   1.219
 3215SOL    HW210545   1.251   3.725   1.157
 3216SOL     OW10546   5.765   5.051   0.949
 3216SOL    HW110547   5.761   5.070   1.047
 3216SOL    HW210548   5.699   5.109   0.902
 3217SOL     OW10549   0.241   5.368   2.448
 3217SOL    HW110550   0.242   5.454   2.396
 3217SOL    HW210551   0.248   5.291   2.384
 3218SOL     OW10552   6.087   2.304   3.366
 3218SOL    HW110553   6.071   2.388   3.417
 3218SOL    HW210554   6.160   2.319   3.299
 3219SOL     OW10555   6.870   0.550   4.764
 3219SOL    HW110556   6.796   0.500   4.720
 3219SOL    HW210557   6.958   0.514   4.732
 3220SOL     OW10558   0.562   5.861   6.101
 3220SOL    HW110559   0.602   5.947   6.132
 3220SOL    HW210560   0.462   5.870   6.098
 3221SOL     OW10561   3.316   6.539   2.640
 3221SOL    HW110562   3.251   6.505   2.708
 3221SOL    HW210563   3.328   6.471   2.568
 3222SOL     OW10564   3.095   1.036   2.186
 3222SOL    HW110565   3.080   0.941   2.159
 3222SOL    HW210566   3.193   1.054   2.190
 3223SOL     OW10567   2.719   6.918   6.999
 3223SOL    HW110568   2.751   6.866   6.919
 3223SOL    HW210569   2.797   6.938   0.038
 3224SOL     OW10570   4.947   2.540   4.765
 3224SOL    HW110571   4.911   2.461   4.815
 3224SOL    HW210572   4.985   2.606   4.830
 3225SOL     OW10573   4.269   1.489   4.944
 3225SOL    HW110574   4.247   1.395   4.971
 3225SOL    HW210575   4.185   1.542   4.935
 3226SOL     OW10576   1.779   0.336   1.445
 3226SOL    HW110577   1.768   0.395   1.525
 3226SOL    HW210578   1.766   0.390   1.362
 3227SOL     OW10579   3.330   3.080   6.416
 3227SOL    HW110580   3.344   3.026   6.333
 3227SOL    HW210581   3.242   3.128   6.410
 3228SOL     OW10582   6.972   3.827   0.333
 3228SOL    HW110583   0.042   3.816   0.374
 3228SOL    HW210584   6.904   3.837   0.406
 3229SOL     OW10585   3.550   0.739   5.464
 3229SOL    HW110586   3.459   0.727   5.505
 3229SOL    HW210587   3.602   0.806   5.518
 3230SOL     OW10588   1.744   5.586   5.795
 3230SOL    HW110589   1.775   5.493   5.773
 3230SOL    HW210590   1.817   5.651   5.775
 3231SOL     OW10591   2.677   0.855   2.599
 3231SOL    HW110592   2.745   0.783   2.603
 3231SOL    HW210593   2.693   0.922   2.671
 3232SOL     OW10594   4.102   5.978   4.285
 3232SOL    HW110595   4.056   6.033   4.216
 3232SOL    HW210596   4.131   5.891   4.245
 3233SOL     OW10597   6.993   2.785   0.480
 3233SOL    HW110598   0.014   2.800   0.570
 3233SOL    HW210599   0.044   2.760   0.414
 3234SOL     OW10600   1.483   2.691   0.616
 3234SOL    HW110601   1.574   2.655   0.600
 3234SOL    HW210602   1.470   2.775   0.563
 3235SOL     OW10603   6.364   6.854   1.931
 3235SOL    HW110604   6.386   6.948   1.902
 3235SOL    HW210605   6.366   6.794   1.851
 3236SOL     OW10606   1.071   4.806   0.706
 3236SOL    HW110607   1.143   4.862   0.746
 3236SOL    HW210608   0.986   4.859   0.702
 3237SOL     OW10609   6.134   1.375   2.915
 3237SOL    HW110610   6.061   1.424   2.963
 3237SOL    HW210611   6.156   1.291   2.965
 3238SOL     OW10612   6.143   5.275   0.131
 3238SOL    HW110613   6.127   5.176   0.133
 3238SOL    HW210614   6.241   5.293   0.135
 3239SOL     OW10615   6.999   0.068   3.548
 3239SOL    HW110616   6.964   0.059   3.641
 3239SOL    HW210617   6.924   0.055   3.483
 3240SOL     OW10618   0.619   0.575   5.543
 3240SOL    HW110619   0.652   0.482   5.525
 3240SOL    HW210620   0.530   0.588   5.500
 3241SOL     OW10621   5.229   1.759   5.864
 3241SOL    HW110622   5.318   1.767   5.819
 3241SOL    HW210623   5.170   1.700   5.809
 3242SOL     OW10624   4.694   3.481   5.785
 3242SOL    HW110625   4.669   3.395   5.740
 3242SOL    HW210626   4.643   3.556   5.744
 3243SOL     OW10627   4.518   5.479   0.171
 3243SOL    HW110628   4.584   5.449   0.240
 3243SOL    HW210629   4.455   5.545   0.212
 3244SOL     OW10630   5.722   6.085   6.967
 3244SOL    HW110631   5.709   6.167   0.001
 3244SOL    HW210632   5.818   6.058   6.967
 3245SOL     OW10633   4.814   1.976   4.550
 3245SOL    HW110634   4.719   1.950   4.564
 3245SOL    HW210635   4.874   1.899   4.574
 3246SOL     OW10636   6.374   0.020   2.814
 3246SOL    HW110637   6.450   0.082   2.831
 3246SOL    HW210638   6.384   6.999   2.723
 3247SOL     OW10639   6.444   4.711   2.254
 3247SOL    HW110640   6.367   4.734   2.195
 3247SOL    HW210641   6.411   4.661   2.334
 3248SOL     OW10642   5.169   2.262   2.580
 3248SOL    HW110643   5.159   2.240   2.677
 3248SOL    HW210644   5.199   2.180   2.530
 3249SOL     OW10645   3.168   4.033   3.788
 3249SOL    HW110646   3.125   4.111   3.833
 3249SOL    HW210647   3.261   4.021   3.823
 3250SOL     OW10648   5.220   0.640   2.903
 3250SOL    HW110649   5.308   0.680   2.878
 3250SOL    HW210650   5.232   0.576   2.979
 3251SOL     OW10651   2.976   0.992   4.077
 3251SOL    HW110652   2.910   0.932   4.122
 3251SOL    HW210653   2.929   1.054   4.015
 3252SOL     OW10654   2.882   0.691   2.605
 3252SOL    HW110655   2.921   0.650   2.688
 3252SOL    HW210656   2.956   0.715   2.542
 3253SOL     OW10657   4.379   3.725   0.314
 3253SOL    HW110658   4.361   3.682   0.403
 3253SOL    HW210659   4.357   3.660   0.241
 3254SOL     OW10660   5.372   6.858   6.268
 3254SOL    HW110661   5.283   6.815   6.281
 3254SOL    HW210662   5.424   6.808   6.198
 3255SOL     OW10663   5.081   6.267   1.434
 3255SOL    HW110664   5.142   6.191   1.413
 3255SOL    HW210665   5.025   6.288   1.353
 3256SOL     OW10666   3.839   1.991   1.196
 3256SOL    HW110667   3.885   1.914   1.240
 3256SOL    HW210668   3.862   1.994   1.099
 3257SOL     OW10669   2.284   1.873   1.827
 3257SOL    HW110670   2.245   1.807   1.763
 3257SOL    HW210671   2.210   1.920   1.876
 3258SOL     OW10672   3.609   5.377   3.649
 3258SOL    HW110673   3.539   5.407   3.584
 3258SOL    HW210674   3.667   5.455   3.674
 3259SOL     OW10675   5.184   5.424   4.193
 3259SOL    HW110676   5.238   5.423   4.277
 3259SOL    HW210677   5.087   5.433   4.215
 3260SOL     OW10678   1.589   3.531   1.483
 3260SOL    HW110679   1.667   3.496   1.535
 3260SOL    HW210680   1.565   3.623   1.516
 3261SOL     OW10681   5.070   0.596   1.417
 3261SOL    HW110682   5.011   0.523   1.383
 3261SOL    HW210683   5.113   0.643   1.339
 3262SOL     OW10684   3.926   2.094   1.866
 3262SOL    HW110685   3.837   2.137   1.879
 3262SOL    HW210686   3.918   1.995   1.881
 3263SOL     OW10687   3.509   1.201   2.854
 3263SOL    HW110688   3.557   1.157   2.779
 3263SOL    HW210689   3.506   1.140   2.933
 3264SOL     OW10690   1.997   5.479   1.107
 3264SOL    HW110691   2.036   5.388   1.120
 3264SOL    HW210692   2.069   5.543   1.081
 3265SOL     OW10693   5.789   6.583   6.640
 3265SOL    HW110694   5.780   6.678   6.670
 3265SOL    HW210695   5.703   6.552   6.600
 3266SOL     OW10696   2.939   4.321   6.632
 3266SOL    HW110697   2.911   4.417   6.629
 3266SOL    HW210698   2.931   4.281   6.541
 3267SOL     OW10699   2.822   6.865   2.383
 3267SOL    HW110700   2.871   6.912   2.457
 3267SOL    HW210701   2.884   6.852   2.306
 3268SOL     OW10702   1.766   4.568   1.045
 3268SOL    HW110703   1.777   4.616   0.958
 3268SOL    HW210704   1.684   4.510   1.040
 3269SOL     OW10705   6.727   5.340   1.826
 3269SOL    HW110706   6.733   5.290   1.740
 3269SOL    HW210707   6.749   5.436   1.810
 3270SOL     OW10708   1.703   3.225   6.735
 3270SOL    HW110709   1.647   3.289   6.787
 3270SOL    HW210710   1.679   3.229   6.638
 3271SOL     OW10711   6.681   2.999   1.312
 3271SOL    HW110712   6.743   2.922   1.328
 3271SOL    HW210713   6.610   2.971   1.247
 3272SOL     OW10714   2.707   4.555   6.903
 3272SOL    HW110715   2.736   4.567   6.808
 3272SOL    HW210716   2.722   4.460   6.931
 3273SOL     OW10717   6.198   5.068   6.790
 3273SOL    HW110718   6.292   5.073   6.758
 3273SOL    HW210719   6.169   5.157   6.825
 3274SOL     OW10720   6.018   0.283   1.151
 3274SOL    HW110721   6.046   0.376   1.129
 3274SOL    HW210722   5.927   0.284   1.194
 3275SOL     OW10723   4.778   0.920   0.234
 3275SOL    HW110724   4.710   0.986   0.263
 3275SOL    HW210725   4.754   0.885   0.143
 3276SOL     OW10726   3.939   6.549   6.917
 3276SOL    HW110727   3.972   6.586   6.830
 3276SOL    HW210728   3.839   6.544   6.916
 3277SOL     OW10729   3.367   1.605   0.673
 3277SOL    HW110730   3.339   1.661   0.595
 3277SOL    HW210731   3.320   1.637   0.755
 3278SOL     OW10732   1.068   0.867   5.932
 3278SOL    HW110733   1.079   0.789   5.992
 3278SOL    HW210734   0.970   0.889   5.923
 3279SOL     OW10735   5.439   0.069   0.925
 3279SOL    HW110736   5.391   0.154   0.908
 3279SOL    HW210737   5.537   0.083   0.913
 3280SOL     OW10738   4.747   4.469   4.548
 3280SOL    HW110739   4.651   4.491   4.532
 3280SOL    HW210740   4.802   4.504   4.472
 3281SOL     OW10741   0.827   4.848   1.438
 3281SOL    HW110742   0.751   4.890   1.488
 3281SOL    HW210743   0.911   4.856   1.491
 3282SOL     OW10744   6.610   4.518   4.945
 3282SOL    HW110745   6.560   4.458   5.007
 3282SOL    HW210746   6.697   4.474   4.919
 3283SOL     OW10747   3.709   0.853   1.716
 3283SOL    HW110748   3.765   0.861   1.798
 3283SOL    HW210749   3.755   0.897   1.639
 3284SOL     OW10750   1.070   6.030   5.153
 3284SOL    HW110751   0.991   5.976   5.182
 3284SOL    HW210752   1.153   5.975   5.163
 3285SOL     OW10753   5.351   2.114   4.872
 3285SOL    HW110754   5.416   2.042   4.850
 3285SOL    HW210755   5.361   2.189   4.806
 3286SOL     OW10756   3.501   2.659   1.470
 3286SOL    HW110757   3.416   2.712   1.464
 3286SOL    HW210758   3.519   2.636   1.565
 3287SOL     OW10759   0.645   0.389   0.304
 3287SOL    HW110760   0.672   0.397   0.208
 3287SOL    HW210761   0.545   0.391   0.311
 3288SOL     OW10762   1.904   6.932   0.165
 3288SOL    HW110763   1.913   0.002   0.122
 3288SOL    HW210764   1.839   6.937   0.240
 3289SOL     OW10765   2.691   1.680   5.964
 3289SOL    HW110766   2.784   1.646   5.949
 3289SOL    HW210767   2.689   1.779   5.948
 3290SOL     OW10768   6.965   5.333   0.948
 3290SOL    HW110769   6.891   5.379   0.998
 3290SOL    HW210770   7.002   5.259   1.004
 3291SOL     OW10771   2.790   1.048   5.714
 3291SOL    HW110772   2.848   0.967   5.711
 3291SOL    HW210773   2.810   1.100   5.797
 3292SOL     OW10774   0.169   1.194   0.640
 3292SOL    HW110775   0.265   1.168   0.628
 3292SOL    HW210776   0.117   1.115   0.673
 3293SOL     OW10777   6.341   4.834   1.319
 3293SOL    HW110778   6.334   4.737   1.299
 3293SOL    HW210779   6.253   4.869   1.350
 3294SOL     OW10780   5.019   2.284   6.123
 3294SOL    HW110781   5.068   2.234   6.194
 3294SOL    HW210782   4.925   2.250   6.116
 3295SOL     OW10783   0.857   3.413   1.854
 3295SOL    HW110784   0.877   3.320   1.885
 3295SOL    HW210785   0.939   3.469   1.863
 3296SOL     OW10786   0.609   0.726   3.654
 3296SOL    HW110787   0.584   0.643   3.605
 3296SOL    HW210788   0.529   0.787   3.660
 3297SOL     OW10789   2.964   1.141   5.282
 3297SOL    HW110790   2.926   1.185   5.363
 3297SOL    HW210791   2.891   1.109   5.223
 3298SOL     OW10792   6.537   2.344   5.378
 3298SOL    HW110793   6.586   2.273   5.329
 3298SOL    HW210794   6.543   2.430   5.327
 3299SOL     OW10795   3.771   6.023   3.128
 3299SOL    HW110796   3.862   5.981   3.127
 3299SOL    HW210797   3.723   6.001   3.044
 3300SOL     OW10798   1.967   0.793   6.000
 3300SOL    HW110799   2.021   0.722   6.045
 3300SOL    HW210800   1.976   0.879   6.049
 3301SOL     OW10801   2.095   3.484   3.622
 3301SOL    HW110802   2.144   3.428   3.555
 3301SOL    HW210803   2.072   3.428   3.701
 3302SOL     OW10804   1.093   5.060   5.649
 3302SOL    HW110805   1.091   4.992   5.722
 3302SOL    HW210806   1.183   5.104   5.648
 3303SOL     OW10807   3.145   3.573   6.985
 3303SOL    HW110808   3.206   3.605   0.037
 3303SOL    HW210809   3.182   3.599   6.896
 3304SOL     OW10810   1.793   5.447   6.050
 3304SOL    HW110811   1.711   5.393   6.065
 3304SOL    HW210812   1.872   5.386   6.043
 3305SOL     OW10813   2.719   1.005   1.874
 3305SOL    HW110814   2.715   1.027   1.972
 3305SOL    HW210815   2.799   0.947   1.857
 3306SOL     OW10816   1.170   5.173   4.899
 3306SOL    HW110817   1.127   5.138   4.816
 3306SOL    HW210818   1.231   5.104   4.937
 3307SOL     OW10819   1.136   0.024   5.197
 3307SOL    HW110820   1.109   6.973   5.132
 3307SOL    HW210821   1.235   0.030   5.201
 3308SOL     OW10822   3.293   5.545   1.131
 3308SOL    HW110823   3.387   5.558   1.100
 3308SOL    HW210824   3.262   5.626   1.179
 3309SOL     OW10825   6.344   4.474   4.530
 3309SOL    HW110826   6.435   4.468   4.571
 3309SOL    HW210827   6.288   4.537   4.584
 3310SOL     OW10828   0.101   4.386   4.988
 3310SOL    HW110829   0.102   4.476   5.031
 3310SOL    HW210830   0.194   4.359   4.966
 3311SOL     OW10831   3.122   4.106   0.161
 3311SOL    HW110832   3.203   4.046   0.163
 3311SOL    HW210833   3.064   4.085   0.239
 3312SOL     OW10834   4.303   2.854   5.969
 3312SOL    HW110835   4.274   2.944   6.001
 3312SOL    HW210836   4.392   2.861   5.925
 3313SOL     OW10837   1.259   6.604   3.385
 3313SOL    HW110838   1.346   6.637   3.348
 3313SOL    HW210839   1.216   6.678   3.438
 3314SOL     OW10840   2.769   0.623   1.800
 3314SOL    HW110841   2.839   0.693   1.791
 3314SOL    HW210842   2.810   0.533   1.783
 3315SOL     OW10843   0.435   4.188   5.186
 3315SOL    HW110844   0.439   4.118   5.258
 3315SOL    HW210845   0.433   4.144   5.096
 3316SOL     OW10846   4.140   0.599   5.172
 3316SOL    HW110847   4.173   0.679   5.222
 3316SOL    HW210848   4.050   0.619   5.133
 3317SOL     OW10849   5.047   2.189   2.292
 3317SOL    HW110850   5.138   2.169   2.327
 3317SOL    HW210851   4.982   2.194   2.368
 3318SOL     OW10852   1.745   1.311   0.415
 3318SOL    HW110853   1.765   1.333   0.319
 3318SOL    HW210854   1.654   1.271   0.421
 3319SOL     OW10855   5.607   0.638   3.804
 3319SOL    HW110856   5.629   0.724   3.850
 3319SOL    HW210857   5.656   0.633   3.717
 3320SOL     OW10858   6.200   0.767   0.065
 3320SOL    HW110859   6.102   0.776   0.050
 3320SOL    HW210860   6.231   0.841   0.125
 3321SOL     OW10861   5.954   1.676   0.841
 3321SOL    HW110862   5.914   1.746   0.900
 3321SOL    HW210863   5.940   1.586   0.882
 3322SOL     OW10864   0.395   2.610   1.058
 3322SOL    HW110865   0.465   2.618   1.129
 3322SOL    HW210866   0.424   2.661   0.977
 3323SOL     OW10867   2.378   2.358   0.968
 3323SOL    HW110868   2.385   2.408   0.881
 3323SOL    HW210869   2.424   2.270   0.960
 3324SOL     OW10870   4.411   5.249   6.115
 3324SOL    HW110871   4.465   5.221   6.036
 3324SOL    HW210872   4.323   5.285   6.083
 3325SOL     OW10873   0.035   3.671   6.920
 3325SOL    HW110874   7.016   3.746   6.974
 3325SOL    HW210875   0.092   3.709   6.848
 3326SOL     OW10876   4.357   1.472   1.551
 3326SOL    HW110877   4.265   1.497   1.522
 3326SOL    HW210878   4.352   1.412   1.631
 3327SOL     OW10879   2.568   5.682   1.354
 3327SOL    HW110880   2.604   5.615   1.288
 3327SOL    HW210881   2.633   5.757   1.364
 3328SOL     OW10882   3.879   1.743   0.799
 3328SOL    HW110883   3.901   1.702   0.710
 3328SOL    HW210884   3.786   1.779   0.798
 3329SOL     OW10885   5.422   0.117   5.684
 3329SOL    HW110886   5.469   0.180   5.623
 3329SOL    HW210887   5.489   0.059   5.730
 3330SOL     OW10888   6.362   3.174   1.493
 3330SOL    HW110889   6.377   3.139   1.401
 3330SOL    HW210890   6.316   3.263   1.487
 3331SOL     OW10891   2.628   3.178   1.358
 3331SOL    HW110892   2.611   3.276   1.358
 3331SOL    HW210893   2.577   3.135   1.283
 3332SOL     OW10894   5.986   5.423   0.300
 3332SOL    HW110895   5.995   5.403   0.397
 3332SOL    HW210896   6.055   5.372   0.248
 3333SOL     OW10897   3.852   5.923   6.084
 3333SOL    HW110898   3.843   5.851   6.014
 3333SOL    HW210899   3.892   6.005   6.042
 3334SOL     OW10900   3.455   3.673   1.230
 3334SOL    HW110901   3.361   3.692   1.204
 3334SOL    HW210902   3.480   3.730   1.308
 3335SOL     OW10903   4.804   5.163   5.357
 3335SOL    HW110904   4.811   5.076   5.308
 3335SOL    HW210905   4.825   5.148   5.454
 3336SOL     OW10906   3.224   4.950   4.952
 3336SOL    HW110907   3.165   5.028   4.931
 3336SOL    HW210908   3.308   4.956   4.899
 3337SOL     OW10909   3.164   2.905   1.856
 3337SOL    HW110910   3.083   2.929   1.803
 3337SOL    HW210911   3.187   2.809   1.841
 3338SOL     OW10912   5.965   3.658   0.812
 3338SOL    HW110913   5.885   3.717   0.824
 3338SOL    HW210914   6.028   3.671   0.888
 3339SOL     OW10915   6.956   7.017   6.748
 3339SOL    HW110916   6.993   0.029   6.661
 3339SOL    HW210917   6.936   0.075   6.806
 3340SOL     OW10918   3.628   0.215   1.552
 3340SOL    HW110919   3.557   0.264   1.501
 3340SOL    HW210920   3.604   0.213   1.649
 3341SOL     OW10921   1.762   6.020   3.589
 3341SOL    HW110922   1.810   6.074   3.659
 3341SOL    HW210923   1.730   6.081   3.516
 3342SOL     OW10924   2.116   6.458   4.035
 3342SOL    HW110925   2.140   6.496   4.124
 3342SOL    HW210926   2.100   6.359   4.044
 3343SOL     OW10927   5.394   2.643   0.360
 3343SOL    HW110928   5.410   2.619   0.456
 3343SOL    HW210929   5.326   2.716   0.354
 3344SOL     OW10930   5.860   3.760   4.675
 3344SOL    HW110931   5.842   3.732   4.769
 3344SOL    HW210932   5.865   3.860   4.670
 3345SOL     OW10933   2.149   3.631   6.053
 3345SOL    HW110934   2.122   3.542   6.018
 3345SOL    HW210935   2.218   3.671   5.993
 3346SOL     OW10936   1.511   1.036   1.746
 3346SOL    HW110937   1.609   1.041   1.727
 3346SOL    HW210938   1.490   1.089   1.828
 3347SOL     OW10939   0.607   5.178   3.988
 3347SOL    HW110940   0.558   5.096   4.018
 3347SOL    HW210941   0.611   5.180   3.888
 3348SOL     OW10942   3.063   3.143   3.193
 3348SOL    HW110943   3.109   3.076   3.135
 3348SOL    HW210944   3.072   3.117   3.289
 3349SOL     OW10945   0.616   4.704   4.638
 3349SOL    HW110946   0.657   4.770   4.700
 3349SOL    HW210947   0.580   4.627   4.690
 3350SOL     OW10948   1.286   2.098   6.502
 3350SOL    HW110949   1.353   2.171   6.516
 3350SOL    HW210950   1.217   2.102   6.575
 3351SOL     OW10951   5.275   0.457   2.568
 3351SOL    HW110952   5.203   0.506   2.617
 3351SOL    HW210953   5.334   0.411   2.634
 3352SOL     OW10954   0.092   3.495   0.525
 3352SOL    HW110955   0.056   3.587   0.542
 3352SOL    HW210956   0.035   3.449   0.457
 3353SOL     OW10957   0.962   6.532   1.766
 3353SOL    HW110958   0.978   6.631   1.763
 3353SOL    HW210959   0.989   6.496   1.855
 3354SOL     OW10960   6.172   2.555   4.041
 3354SOL    HW110961   6.207   2.648   4.051
 3354SOL    HW210962   6.142   2.540   3.947
 3355SOL     OW10963   1.504   1.220   0.388
 3355SOL    HW110964   1.514   1.142   0.327
 3355SOL    HW210965   1.447   1.195   0.466
 3356SOL     OW10966   1.972   3.082   0.313
 3356SOL    HW110967   1.921   3.134   0.381
 3356SOL    HW210968   2.049   3.137   0.281
 3357SOL     OW10969   2.403   5.040   1.802
 3357SOL    HW110970   2.367   4.947   1.806
 3357SOL    HW210971   2.484   5.046   1.860
 3358SOL     OW10972   4.705   0.201   1.638
 3358SOL    HW110973   4.736   0.185   1.544
 3358SOL    HW210974   4.606   0.220   1.637
 3359SOL     OW10975   6.838   0.332   3.991
 3359SOL    HW110976   6.834   0.232   3.999
 3359SOL    HW210977   6.749   0.371   4.015
 3360SOL     OW10978   6.965   1.028   1.183
 3360SOL    HW110979   6.956   1.113   1.132
 3360SOL    HW210980   6.883   1.014   1.240
 3361SOL     OW10981   0.475   4.791   2.259
 3361SOL    HW110982   0.436   4.701   2.237
 3361SOL    HW210983   0.467   4.851   2.179
 3362SOL     OW10984   3.700   1.414   4.555
 3362SOL    HW110985   3.654   1.325   4.549
 3362SOL    HW210986   3.704   1.444   4.650
 3363SOL     OW10987   0.831   0.690   6.285
 3363SOL    HW110988   0.921   0.695   6.243
 3363SOL    HW210989   0.767   0.648   6.221
 3364SOL     OW10990   1.043   4.685   4.382
 3364SOL    HW110991   1.095   4.687   4.468
 3364SOL    HW210992   1.029   4.589   4.355
 3365SOL     OW10993   0.711   2.446   4.864
 3365SOL    HW110994   0.749   2.538   4.873
 3365SOL    HW210995   0.657   2.423   4.945
 3366SOL     OW10996   6.590   0.629   5.186
 3366SOL    HW110997   6.632   0.664   5.269
 3366SOL    HW210998   6.640   0.663   5.106
 3367SOL     OW10999   2.130   2.607   2.066
 3367SOL    HW111000   2.095   2.701   2.060
 3367SOL    HW211001   2.208   2.605   2.129
 3368SOL     OW11002   0.647   5.886   6.765
 3368SOL    HW111003   0.617   5.887   6.669
 3368SOL    HW211004   0.573   5.849   6.822
 3369SOL     OW11005   3.509   2.141   5.871
 3369SOL    HW111006   3.601   2.175   5.854
 3369SOL    HW211007   3.445   2.182   5.805
 3370SOL     OW11008   6.734   6.242   5.519
 3370SOL    HW111009   6.697   6.304   5.449
 3370SOL    HW211010   6.824   6.274   5.548
 3371SOL     OW11011   0.415   4.525   2.233
 3371SOL    HW111012   0.324   4.517   2.274
 3371SOL    HW211013   0.448   4.434   2.207
 3372SOL     OW11014   1.268   1.149   2.583
 3372SOL    HW111015   1.343   1.163   2.518
 3372SOL    HW211016   1.301   1.095   2.660
 3373SOL     OW11017   6.313   1.130   3.741
 3373SOL    HW111018   6.255   1.211   3.728
 3373SOL    HW211019   6.256   1.049   3.748
 3374SOL     OW11020   2.686   5.692   4.438
 3374SOL    HW111021   2.733   5.763   4.384
 3374SOL    HW211022   2.691   5.605   4.389
 3375SOL     OW11023   4.361   4.719   4.692
 3375SOL    HW111024   4.289   4.765   4.744
 3375SOL    HW211025   4.338   4.721   4.594
 3376SOL     OW11026   3.997   3.226   3.191
 3376SOL    HW111027   4.009   3.130   3.166
 3376SOL    HW211028   4.042   3.244   3.278
 3377SOL     OW11029   0.037   6.350   4.574
 3377SOL    HW111030   0.116   6.411   4.579
 3377SOL    HW211031   0.066   6.260   4.544
 3378SOL     OW11032   6.560   0.594   1.301
 3378SOL    HW111033   6.560   0.495   1.317
 3378SOL    HW211034   6.491   0.637   1.359
 3379SOL     OW11035   6.760   5.131   6.472
 3379SOL    HW111036   6.751   5.138   6.372
 3379SOL    HW211037   6.725   5.042   6.502
 3380SOL     OW11038   6.005   5.927   5.940
 3380SOL    HW111039   5.956   5.840   5.946
 3380SOL    HW211040   6.071   5.932   6.015
 3381SOL     OW11041   2.238   2.067   0.384
 3381SOL    HW111042   2.295   2.148   0.368
 3381SOL    HW211043   2.146   2.084   0.349
 3382SOL     OW11044   0.936   1.578   0.740
 3382SOL    HW111045   0.983   1.501   0.784
 3382SOL    HW211046   0.922   1.651   0.806
 3383SOL     OW11047   5.295   5.196   2.978
 3383SOL    HW111048   5.228   5.269   2.993
 3383SOL    HW211049   5.342   5.175   3.063
 3384SOL     OW11050   3.194   2.983   4.903
 3384SOL    HW111051   3.158   2.968   4.995
 3384SOL    HW211052   3.246   2.903   4.874
 3385SOL     OW11053   0.318   3.695   4.170
 3385SOL    HW111054   0.300   3.615   4.227
 3385SOL    HW211055   0.284   3.777   4.216
 3386SOL     OW11056   6.158   2.834   5.271
 3386SOL    HW111057   6.160   2.911   5.208
 3386SOL    HW211058   6.236   2.841   5.334
 3387SOL     OW11059   2.584   0.710   2.833
 3387SOL    HW111060   2.567   0.794   2.782
 3387SOL    HW211061   2.583   0.729   2.931
 3388SOL     OW11062   6.366   3.139   1.225
 3388SOL    HW111063   6.428   3.068   1.191
 3388SOL    HW211064   6.372   3.220   1.166
 3389SOL     OW11065   4.445   4.993   4.783
 3389SOL    HW111066   4.541   5.014   4.762
 3389SOL    HW211067   4.419   4.909   4.736
 3390SOL     OW11068   5.126   4.616   5.715
 3390SOL    HW111069   5.127   4.589   5.811
 3390SOL    HW211070   5.204   4.675   5.696
 3391SOL     OW11071   5.768   2.529   4.674
 3391SOL    HW111072   5.700   2.457   4.660
 3391SOL    HW211073   5.810   2.552   4.587
 3392SOL     OW11074   2.770   1.107   3.415
 3392SOL    HW111075   2.815   1.145   3.334
 3392SOL    HW211076   2.769   1.176   3.487
 3393SOL     OW11077   0.095   6.367   0.597
 3393SOL    HW111078   0.062   6.273   0.604
 3393SOL    HW211079   0.068   6.405   0.509
 3394SOL     OW11080   5.940   3.428   0.651
 3394SOL    HW111081   5.946   3.526   0.667
 3394SOL    HW211082   6.030   3.393   0.623
 3395SOL     OW11083   6.893   3.533   3.827
 3395SOL    HW111084   6.882   3.631   3.847
 3395SOL    HW211085   6.833   3.507   3.752
 3396SOL     OW11086   0.177   2.241   3.464
 3396SOL    HW111087   0.259   2.222   3.410
 3396SOL    HW211088   0.171   2.339   3.482
 3397SOL     OW11089   3.072   1.107   5.603
 3397SOL    HW111090   3.003   1.074   5.539
 3397SOL    HW211091   3.142   1.158   5.554
 3398SOL     OW11092   0.971   6.726   4.231
 3398SOL    HW111093   0.983   6.673   4.147
 3398SOL    HW211094   1.012   6.816   4.220
 3399SOL     OW11095   4.732   4.293   4.223
 3399SOL    HW111096   4.728   4.249   4.313
 3399SOL    HW211097   4.827   4.316   4.201
 3400SOL     OW11098   3.909   0.947   5.039
 3400SOL    HW111099   3.975   0.997   5.096
 3400SOL    HW211100   3.818   0.954   5.080
 3401SOL     OW11101   6.941   3.410   0.976
 3401SOL    HW111102   6.894   3.498   0.968
 3401SOL    HW211103   6.955   3.389   1.073
 3402SOL     OW11104   4.109   6.200   0.629
 3402SOL    HW111105   4.201   6.229   0.602
 3402SOL    HW211106   4.089   6.234   0.721
 3403SOL     OW11107   3.346   0.512   4.623
 3403SOL    HW111108   3.288   0.472   4.552
 3403SOL    HW211109   3.294   0.581   4.674
 3404SOL     OW11110   4.481   1.403   0.190
 3404SOL    HW111111   4.532   1.452   0.119
 3404SOL    HW211112   4.538   1.330   0.227
 3405SOL     OW11113   6.367   3.768   4.012
 3405SOL    HW111114   6.381   3.687   4.068
 3405SOL    HW211115   6.291   3.752   3.949
 3406SOL     OW11116   1.179   4.181   1.796
 3406SOL    HW111117   1.218   4.173   1.887
 3406SOL    HW211118   1.176   4.277   1.769
 3407SOL     OW11119   1.561   5.413   0.066
 3407SOL    HW111120   1.597   5.403   6.994
 3407SOL    HW211121   1.576   5.328   0.117
 3408SOL     OW11122   5.319   4.485   4.936
 3408SOL    HW111123   5.354   4.397   4.903
 3408SOL    HW211124   5.220   4.479   4.947
 3409SOL     OW11125   3.264   6.337   5.634
 3409SOL    HW111126   3.181   6.362   5.683
 3409SOL    HW211127   3.288   6.409   5.569
 3410SOL     OW11128   5.650   5.834   0.312
 3410SOL    HW111129   5.719   5.762   0.308
 3410SOL    HW211130   5.559   5.793   0.314
 3411SOL     OW11131   0.251   2.816   1.841
 3411SOL    HW111132   0.312   2.884   1.801
 3411SOL    HW211133   0.268   2.810   1.940
 3412SOL     OW11134   4.569   2.698   6.853
 3412SOL    HW111135   4.627   2.616   6.859
 3412SOL    HW211136   4.582   2.742   6.764
 3413SOL     OW11137   5.033   1.031   3.045
 3413SOL    HW111138   4.934   1.029   3.059
 3413SOL    HW211139   5.053   1.024   2.947
 3414SOL     OW11140   2.123   1.414   5.691
 3414SOL    HW111141   2.063   1.348   5.737
 3414SOL    HW211142   2.202   1.434   5.748
 3415SOL     OW11143   2.231   4.125   4.195
 3415SOL    HW111144   2.155   4.061   4.190
 3415SOL    HW211145   2.267   4.128   4.288
 3416SOL     OW11146   6.772   5.609   0.242
 3416SOL    HW111147   6.855   5.556   0.261
 3416SOL    HW211148   6.692   5.552   0.263
 3417SOL     OW11149   6.555   5.973   3.455
 3417SOL    HW111150   6.504   5.903   3.505
 3417SOL    HW211151   6.494   6.047   3.429
 3418SOL     OW11152   3.975   6.945   4.783
 3418SOL    HW111153   4.056   6.964   4.839
 3418SOL    HW211154   3.956   0.003   4.724
 3419SOL     OW11155   3.243   5.449   5.264
 3419SOL    HW111156   3.230   5.416   5.171
 3419SOL    HW211157   3.200   5.539   5.274
 3420SOL     OW11158   5.357   2.826   3.138
 3420SOL    HW111159   5.394   2.849   3.048
 3420SOL    HW211160   5.315   2.735   3.135
 3421SOL     OW11161   6.167   0.573   6.376
 3421SOL    HW111162   6.239   0.642   6.370
 3421SOL    HW211163   6.163   0.536   6.469
 3422SOL     OW11164   2.399   6.520   1.010
 3422SOL    HW111165   2.494   6.509   0.981
 3422SOL    HW211166   2.359   6.599   0.963
 3423SOL     OW11167   2.069   7.006   0.625
 3423SOL    HW111168   2.090   6.909   0.619
 3423SOL    HW211169   2.135   0.038   0.571
 3424SOL     OW11170   2.959   6.590   2.668
 3424SOL    HW111171   2.882   6.525   2.666
 3424SOL    HW211172   2.997   6.599   2.576
 3425SOL     OW11173   5.158   3.749   1.917
 3425SOL    HW111174   5.196   3.667   1.961
 3425SOL    HW211175   5.059   3.751   1.931
 3426SOL     OW11176   2.888   2.915   6.945
 3426SOL    HW111177   2.875   2.867   6.858
 3426SOL    HW211178   2.925   3.006   6.927
 3427SOL     OW11179   6.920   6.956   6.236
 3427SOL    HW111180   7.017   6.937   6.253
 3427SOL    HW211181   6.908   0.035   6.228
 3428SOL     OW11182   3.372   4.891   1.385
 3428SOL    HW111183   3.466   4.858   1.393
 3428SOL    HW211184   3.340   4.923   1.474
 3429SOL     OW11185   0.740   1.572   6.762
 3429SOL    HW111186   0.830   1.570   6.717
 3429SOL    HW211187   0.706   1.478   6.771
 3430SOL     OW11188   0.077   6.956   5.239
 3430SOL    HW111189   0.077   6.966   5.139
 3430SOL    HW211190   0.152   6.895   5.266
 3431SOL     OW11191   2.156   0.246   1.021
 3431SOL    HW111192   2.240   0.215   1.065
 3431SOL    HW211193   2.086   0.264   1.090
 3432SOL     OW11194   2.594   2.677   6.372
 3432SOL    HW111195   2.658   2.753   6.384
 3432SOL    HW211196   2.531   2.675   6.450
 3433SOL     OW11197   1.379   6.787   6.277
 3433SOL    HW111198   1.430   6.710   6.317
 3433SOL    HW211199   1.307   6.815   6.340
 3434SOL     OW11200   3.561   2.664   1.092
 3434SOL    HW111201   3.646   2.704   1.056
 3434SOL    HW211202   3.583   2.585   1.149
 3435SOL     OW11203   0.924   2.249   1.364
 3435SOL    HW111204   0.934   2.254   1.463
 3435SOL    HW211205   0.917   2.153   1.336
 3436SOL     OW11206   3.775   6.555   5.767
 3436SOL    HW111207   3.834   6.605   5.703
 3436SOL    HW211208   3.768   6.607   5.853
 3437SOL     OW11209   3.831   0.304   6.491
 3437SOL    HW111210   3.899   0.367   6.527
 3437SOL    HW211211   3.875   0.234   6.435
 3438SOL     OW11212   1.321   2.476   0.019
 3438SOL    HW111213   1.356   2.567   7.015
 3438SOL    HW211214   1.285   2.432   6.958
 3439SOL     OW11215   2.168   6.981   5.903
 3439SOL    HW111216   2.204   6.964   5.995
 3439SOL    HW211217   2.243   7.013   5.844
 3440SOL     OW11218   4.301   3.342   1.662
 3440SOL    HW111219   4.298   3.306   1.568
 3440SOL    HW211220   4.229   3.298   1.716
 3441SOL     OW11221   5.188   0.526   3.916
 3441SOL    HW111222   5.094   0.517   3.880
 3441SOL    HW211223   5.213   0.443   3.966
 3442SOL     OW11224   3.250   4.980   2.506
 3442SOL    HW111225   3.238   4.903   2.444
 3442SOL    HW211226   3.178   4.979   2.576
 3443SOL     OW11227   5.541   0.991   2.263
 3443SOL    HW111228   5.521   0.968   2.358
 3443SOL    HW211229   5.456   1.021   2.218
 3444SOL     OW11230   5.161   5.262   6.947
 3444SOL    HW111231   5.065   5.235   6.938
 3444SOL    HW211232   5.203   5.264   6.856
 3445SOL     OW11233   5.560   5.236   4.303
 3445SOL    HW111234   5.624   5.310   4.324
 3445SOL    HW211235   5.593   5.150   4.343
 3446SOL     OW11236   6.155   0.967   3.288
 3446SOL    HW111237   6.100   0.895   3.331
 3446SOL    HW211238   6.215   1.008   3.357
 3447SOL     OW11239   5.675   4.262   0.802
 3447SOL    HW111240   5.719   4.172   0.801
 3447SOL    HW211241   5.698   4.312   0.719
 3448SOL     OW11242   3.197   0.162   1.039
 3448SOL    HW111243   3.259   0.150   0.962
 3448SOL    HW211244   3.119   0.219   1.010
 3449SOL     OW11245   6.057   6.338   4.003
 3449SOL    HW111246   5.990   6.283   4.054
 3449SOL    HW211247   6.051   6.433   4.033
 3450SOL     OW11248   0.658   2.389   0.229
 3450SOL    HW111249   0.755   2.366   0.227
 3450SOL    HW211250   0.628   2.413   0.137
 3451SOL     OW11251   1.108   5.397   3.190
 3451SOL    HW111252   1.081   5.311   3.146
 3451SOL    HW211253   1.043   5.419   3.263
 3452SOL     OW11254   5.770   1.813   0.294
 3452SOL    HW111255   5.710   1.765   0.229
 3452SOL    HW211256   5.715   1.870   0.354
 3453SOL     OW11257   6.688   5.975   6.182
 3453SOL    HW111258   6.786   5.957   6.193
 3453SOL    HW211259   6.665   6.063   6.225
 3454SOL     OW11260   1.689   1.064   6.057
 3454SOL    HW111261   1.697   0.967   6.077
 3454SOL    HW211262   1.619   1.105   6.115
 3455SOL     OW11263   2.061   2.994   4.321
 3455SOL    HW111264   2.144   2.953   4.358
 3455SOL    HW211265   2.044   3.082   4.366
 3456SOL     OW11266   5.515   6.444   2.513
 3456SOL    HW111267   5.452   6.519   2.532
 3456SOL    HW211268   5.584   6.474   2.448
 3457SOL     OW11269   2.482   5.470   4.066
 3457SOL    HW111270   2.450   5.403   4.000
 3457SOL    HW211271   2.469   5.562   4.030
 3458SOL     OW11272   5.399   6.943   0.468
 3458SOL    HW111273   5.455   6.942   0.550
 3458SOL    HW211274   5.454   6.918   0.389
 3459SOL     OW11275   5.744   3.904   3.047
 3459SOL    HW111276   5.738   3.962   3.128
 3459SOL    HW211277   5.796   3.822   3.068
 3460SOL     OW11278   2.819   3.820   0.045
 3460SOL    HW111279   2.732   3.852   0.082
 3460SOL    HW211280   2.817   3.720   0.038
 3461SOL     OW11281   4.392   5.857   4.564
 3461SOL    HW111282   4.406   5.920   4.488
 3461SOL    HW211283   4.461   5.785   4.560
 3462SOL     OW11284   6.912   3.662   2.421
 3462SOL    HW111285   7.010   3.680   2.421
 3462SOL    HW211286   6.876   3.675   2.513
 3463SOL     OW11287   0.920   3.242   3.144
 3463SOL    HW111288   0.928   3.227   3.046
 3463SOL    HW211289   1.011   3.248   3.185
 3464SOL     OW11290   6.631   2.314   6.734
 3464SOL    HW111291   6.715   2.348   6.692
 3464SOL    HW211292   6.653   2.236   6.793
 3465SOL     OW11293   0.643   2.903   1.989
 3465SOL    HW111294   0.568   2.968   1.982
 3465SOL    HW211295   0.718   2.944   2.042
 3466SOL     OW11296   6.982   4.572   6.701
 3466SOL    HW111297   6.949   4.518   6.624
 3466SOL    HW211298   0.060   4.556   6.714
 3467SOL     OW11299   2.453   1.751   0.611
 3467SOL    HW111300   2.522   1.789   0.672
 3467SOL    HW211301   2.449   1.806   0.527
 3468SOL     OW11302   5.227   1.371   3.408
 3468SOL    HW111303   5.158   1.355   3.337
 3468SOL    HW211304   5.306   1.312   3.390
 3469SOL     OW11305   4.372   0.242   4.325
 3469SOL    HW111306   4.365   0.266   4.422
 3469SOL    HW211307   4.363   0.143   4.315
 3470SOL     OW11308   0.714   2.081   1.923
 3470SOL    HW111309   0.757   2.068   1.834
 3470SOL    HW211310   0.724   2.177   1.951
 3471SOL     OW11311   4.511   4.445   3.641
 3471SOL    HW111312   4.445   4.518   3.629
 3471SOL    HW211313   4.537   4.439   3.738
 3472SOL     OW11314   2.586   0.907   1.613
 3472SOL    HW111315   2.610   0.962   1.693
 3472SOL    HW211316   2.671   0.877   1.568
 3473SOL     OW11317   6.656   3.132   2.774
 3473SOL    HW111318   6.677   3.187   2.693
 3473SOL    HW211319   6.735   3.075   2.798
 3474SOL     OW11320   0.180   4.521   2.357
 3474SOL    HW111321   0.091   4.538   2.317
 3474SOL    HW211322   0.193   4.581   2.436
 3475SOL     OW11323   0.802   4.811   4.410
 3475SOL    HW111324   0.890   4.768   4.391
 3475SOL    HW211325   0.733   4.740   4.426
 3476SOL     OW11326   2.615   2.300   2.479
 3476SOL    HW111327   2.542   2.233   2.466
 3476SOL    HW211328   2.657   2.322   2.391
 3477SOL     OW11329   1.737   5.026   0.804
 3477SOL    HW111330   1.766   5.092   0.874
 3477SOL    HW211331   1.777   4.936   0.825
 3478SOL     OW11332   2.247   5.843   6.275
 3478SOL    HW111333   2.329   5.898   6.293
 3478SOL    HW211334   2.265   5.781   6.198
 3479SOL     OW11335   0.721   0.629   3.126
 3479SOL    HW111336   0.746   0.557   3.191
 3479SOL    HW211337   0.633   0.607   3.084
 3480SOL     OW11338   6.953   6.030   4.932
 3480SOL    HW111339   6.989   6.123   4.918
 3480SOL    HW211340   6.878   6.033   4.998
 3481SOL     OW11341   5.124   0.706   0.371
 3481SOL    HW111342   5.218   0.674   0.368
 3481SOL    HW211343   5.109   0.761   0.453
 3482SOL     OW11344   6.728   0.962   1.995
 3482SOL    HW111345   6.748   0.867   1.974
 3482SOL    HW211346   6.812   1.016   1.989
 3483SOL     OW11347   5.279   1.994   1.928
 3483SOL    HW111348   5.369   1.965   1.896
 3483SOL    HW211349   5.218   2.006   1.849
 3484SOL     OW11350   1.190   2.715   0.624
 3484SOL    HW111351   1.132   2.684   0.548
 3484SOL    HW211352   1.286   2.706   0.599
 3485SOL     OW11353   2.230   1.485   4.511
 3485SOL    HW111354   2.150   1.511   4.458
 3485SOL    HW211355   2.308   1.540   4.483
 3486SOL     OW11356   2.277   0.402   2.985
 3486SOL    HW111357   2.371   0.372   3.004
 3486SOL    HW211358   2.218   0.322   2.975
 3487SOL     OW11359   0.494   1.773   0.751
 3487SOL    HW111360   0.429   1.840   0.788
 3487SOL    HW211361   0.444   1.703   0.701
 3488SOL     OW11362   5.933   1.062   5.356
 3488SOL    HW111363   5.903   1.062   5.451
 3488SOL    HW211364   5.858   1.090   5.296
 3489SOL     OW11365   3.711   0.325   2.034
 3489SOL    HW111366   3.716   0.425   2.027
 3489SOL    HW211367   3.642   0.300   2.102
 3490SOL     OW11368   4.063   4.245   1.221
 3490SOL    HW111369   4.127   4.319   1.243
 3490SOL    HW211370   4.024   4.209   1.306
 3491SOL     OW11371   4.755   2.171   6.016
 3491SOL    HW111372   4.719   2.189   5.925
 3491SOL    HW211373   4.713   2.234   6.081
 3492SOL     OW11374   6.641   4.292   0.827
 3492SOL    HW111375   6.682   4.212   0.785
 3492SOL    HW211376   6.599   4.266   0.914
 3493SOL     OW11377   4.786   3.933   4.045
 3493SOL    HW111378   4.835   3.951   4.131
 3493SOL    HW211379   4.771   4.019   3.997
 3494SOL     OW11380   2.374   1.090   1.543
 3494SOL    HW111381   2.434   1.018   1.579
 3494SOL    HW211382   2.424   1.176   1.538
 3495SOL     OW11383   5.946   4.650   1.817
 3495SOL    HW111384   5.924   4.588   1.743
 3495SOL    HW211385   6.046   4.659   1.824
 3496SOL     OW11386   6.118   4.984   1.093
 3496SOL    HW111387   6.140   4.901   1.040
 3496SOL    HW211388   6.103   4.959   1.188
 3497SOL     OW11389   2.884   1.787   3.417
 3497SOL    HW111390   2.984   1.798   3.422
 3497SOL    HW211391   2.849   1.765   3.508
 3498SOL     OW11392   3.431   1.494   1.493
 3498SOL    HW111393   3.352   1.553   1.477
 3498SOL    HW211394   3.510   1.550   1.520
 3499SOL     OW11395   5.712   4.239   4.076
 3499SOL    HW111396   5.766   4.307   4.027
 3499SOL    HW211397   5.615   4.253   4.057
 3500SOL     OW11398   1.867   3.394   3.431
 3500SOL    HW111399   1.836   3.484   3.461
 3500SOL    HW211400   1.964   3.398   3.406
 3501SOL     OW11401   3.045   6.094   5.737
 3501SOL    HW111402   3.020   6.036   5.815
 3501SOL    HW211403   3.135   6.066   5.703
 3502SOL     OW11404   6.833   1.930   1.097
 3502SOL    HW111405   6.867   1.946   1.190
 3502SOL    HW211406   6.733   1.930   1.098
 3503SOL     OW11407   6.147   5.637   5.181
 3503SOL    HW111408   6.162   5.735   5.187
 3503SOL    HW211409   6.129   5.600   5.272
 3504SOL     OW11410   2.452   0.347   1.673
 3504SOL    HW111411   2.418   0.441   1.679
 3504SOL    HW211412   2.445   0.303   1.763
 3505SOL     OW11413   5.244   4.304   6.030
 3505SOL    HW111414   5.208   4.215   6.056
 3505SOL    HW211415   5.170   4.371   6.030
 3506SOL     OW11416   5.332   5.178   5.121
 3506SOL    HW111417   5.242   5.135   5.135
 3506SOL    HW211418   5.401   5.107   5.109
 3507SOL     OW11419   3.084   0.630   0.987
 3507SOL    HW111420   3.142   0.605   0.909
 3507SOL    HW211421   3.111   0.720   1.021
 3508SOL     OW11422   1.894   2.057   6.071
 3508SOL    HW111423   1.941   2.141   6.046
 3508SOL    HW211424   1.933   1.980   6.020
 3509SOL     OW11425   5.262   0.171   0.249
 3509SOL    HW111426   5.305   0.193   0.337
 3509SOL    HW211427   5.186   0.234   0.232
 3510SOL     OW11428   1.270   1.007   1.998
 3510SOL    HW111429   1.213   0.997   2.079
 3510SOL    HW211430   1.323   0.923   1.984
 3511SOL     OW11431   1.957   4.203   1.501
 3511SOL    HW111432   1.861   4.229   1.509
 3511SOL    HW211433   1.985   4.152   1.582
 3512SOL     OW11434   0.259   4.803   0.453
 3512SOL    HW111435   0.267   4.882   0.513
 3512SOL    HW211436   0.335   4.802   0.388
 3513SOL     OW11437   5.645   1.990   0.455
 3513SOL    HW111438   5.558   2.016   0.498
 3513SOL    HW211439   5.679   2.067   0.401
 3514SOL     OW11440   0.092   0.945   1.847
 3514SOL    HW111441   0.091   0.884   1.767
 3514SOL    HW211442   0.155   0.908   1.916
 3515SOL     OW11443   4.757   6.283   2.761
 3515SOL    HW111444   4.765   6.192   2.801
 3515SOL    HW211445   4.778   6.278   2.663
 3516SOL     OW11446   5.049   7.005   1.118
 3516SOL    HW111447   4.958   6.975   1.148
 3516SOL    HW211448   5.112   6.928   1.123
 3517SOL     OW11449   0.752   1.845   1.487
 3517SOL    HW111450   0.829   1.909   1.490
 3517SOL    HW211451   0.750   1.793   1.572
 3518SOL     OW11452   4.864   2.904   4.795
 3518SOL    HW111453   4.900   2.882   4.886
 3518SOL    HW211454   4.843   2.819   4.747
 3519SOL     OW11455   1.571   0.715   5.795
 3519SOL    HW111456   1.545   0.649   5.865
 3519SOL    HW211457   1.667   0.739   5.807
 3520SOL     OW11458   3.357   5.839   0.163
 3520SOL    HW111459   3.331   5.764   0.103
 3520SOL    HW211460   3.414   5.904   0.112
 3521SOL     OW11461   5.094   2.533   0.414
 3521SOL    HW111462   5.056   2.454   0.364
 3521SOL    HW211463   5.130   2.502   0.502
 3522SOL     OW11464   0.614   5.144   0.905
 3522SOL    HW111465   0.618   5.044   0.900
 3522SOL    HW211466   0.634   5.183   0.816
 3523SOL     OW11467   1.273   4.481   5.357
 3523SOL    HW111468   1.281   4.493   5.456
 3523SOL    HW211469   1.360   4.450   5.319
 3524SOL     OW11470   4.759   1.447   1.726
 3524SOL    HW111471   4.746   1.348   1.733
 3524SOL    HW211472   4.714   1.492   1.804
 3525SOL     OW11473   6.426   4.559   3.785
 3525SOL    HW111474   6.468   4.649   3.777
 3525SOL    HW211475   6.327   4.566   3.767
 3526SOL     OW11476   2.345   6.826   3.935
 3526SOL    HW111477   2.365   6.775   4.019
 3526SOL    HW211478   2.428   6.874   3.904
 3527SOL     OW11479   5.669   2.914   6.084
 3527SOL    HW111480   5.749   2.903   6.143
 3527SOL    HW211481   5.621   2.999   6.107
 3528SOL     OW11482   1.242   6.651   5.228
 3528SOL    HW111483   1.204   6.731   5.181
 3528SOL    HW211484   1.280   6.679   5.316
 3529SOL     OW11485   4.060   0.279   0.544
 3529SOL    HW111486   4.073   0.301   0.447
 3529SOL    HW211487   4.006   0.195   0.551
 3530SOL     OW11488   6.230   6.133   1.941
 3530SOL    HW111489   6.286   6.119   1.859
 3530SOL    HW211490   6.280   6.100   2.021
 3531SOL     OW11491   5.147   2.684   1.041
 3531SOL    HW111492   5.105   2.772   1.023
 3531SOL    HW211493   5.243   2.697   1.065
 3532SOL     OW11494   2.440   6.736   1.896
 3532SOL    HW111495   2.412   6.810   1.958
 3532SOL    HW211496   2.507   6.678   1.943
 3533SOL     OW11497   0.929   1.555   2.700
 3533SOL    HW111498   0.926   1.640   2.647
 3533SOL    HW211499   1.024   1.532   2.721
 3534SOL     OW11500   0.309   1.912   0.894
 3534SOL    HW111501   0.233   1.924   0.958
 3534SOL    HW211502   0.369   1.993   0.898
 3535SOL     OW11503   1.975   5.400   6.510
 3535SOL    HW111504   2.032   5.319   6.524
 3535SOL    HW211505   2.024   5.466   6.452
 3536SOL     OW11506   3.541   1.848   2.832
 3536SOL    HW111507   3.482   1.825   2.754
 3536SOL    HW211508   3.565   1.945   2.828
 3537SOL     OW11509   2.815   5.696   2.454
 3537SOL    HW111510   2.858   5.785   2.474
 3537SOL    HW211511   2.834   5.633   2.529
 3538SOL     OW11512   2.258   6.938   6.153
 3538SOL    HW111513   2.329   6.870   6.169
 3538SOL    HW211514   2.191   6.934   6.228
 3539SOL     OW11515   3.667   2.739   5.370
 3539SOL    HW111516   3.661   2.651   5.417
 3539SOL    HW211517   3.761   2.756   5.344
 3540SOL     OW11518   1.742   2.616   5.115
 3540SOL    HW111519   1.818   2.588   5.174
 3540SOL    HW211520   1.696   2.535   5.079
 3541SOL     OW11521   1.870   2.598   6.014
 3541SOL    HW111522   1.796   2.628   5.954
 3541SOL    HW211523   1.955   2.590   5.961
 3542SOL     OW11524   1.676   5.371   3.504
 3542SOL    HW111525   1.727   5.302   3.452
 3542SOL    HW211526   1.739   5.433   3.550
 3543SOL     OW11527   0.759   2.236   4.679
 3543SOL    HW111528   0.713   2.148   4.689
 3543SOL    HW211529   0.746   2.291   4.761
 3544SOL     OW11530   2.178   4.443   6.032
 3544SOL    HW111531   2.260   4.390   6.056
 3544SOL    HW211532   2.189   4.482   5.941
 3545SOL     OW11533   4.044   5.399   0.468
 3545SOL    HW111534   4.091   5.378   0.383
 3545SOL    HW211535   3.948   5.419   0.449
 3546SOL     OW11536   1.578   4.185   3.920
 3546SOL    HW111537   1.647   4.180   3.992
 3546SOL    HW211538   1.499   4.236   3.954
 3547SOL     OW11539   6.774   4.643   3.924
 3547SOL    HW111540   6.698   4.689   3.879
 3547SOL    HW211541   6.813   4.574   3.862
 3548SOL     OW11542   5.563   1.914   6.048
 3548SOL    HW111543   5.569   1.993   5.987
 3548SOL    HW211544   5.500   1.846   6.010
 3549SOL     OW11545   6.375   5.270   6.317
 3549SOL    HW111546   6.432   5.323   6.254
 3549SOL    HW211547   6.314   5.210   6.265
 3550SOL     OW11548   5.872   2.453   2.489
 3550SOL    HW111549   5.955   2.404   2.513
 3550SOL    HW211550   5.845   2.430   2.395
 3551SOL     OW11551   3.375   0.093   2.491
 3551SOL    HW111552   3.430   0.010   2.490
 3551SOL    HW211553   3.363   0.127   2.397
 3552SOL     OW11554   5.609   6.158   1.834
 3552SOL    HW111555   5.705   6.146   1.812
 3552SOL    HW211556   5.598   6.229   1.903
 3553SOL     OW11557   5.181   3.949   1.166
 3553SOL    HW111558   5.151   3.890   1.090
 3553SOL    HW211559   5.144   3.913   1.252
 3554SOL     OW11560   4.087   2.436   1.053
 3554SOL    HW111561   4.023   2.382   0.999
 3554SOL    HW211562   4.048   2.454   1.144
 3555SOL     OW11563   0.970   3.769   3.614
 3555SOL    HW111564   1.019   3.681   3.614
 3555SOL    HW211565   1.004   3.826   3.539
 3556SOL     OW11566   4.835   1.003   3.361
 3556SOL    HW111567   4.924   0.972   3.392
 3556SOL    HW211568   4.805   0.947   3.284
 3557SOL     OW11569   1.131   0.291   3.889
 3557SOL    HW111570   1.178   0.302   3.802
 3557SOL    HW211571   1.054   0.354   3.893
 3558SOL     OW11572   1.262   6.358   1.152
 3558SOL    HW111573   1.186   6.422   1.158
 3558SOL    HW211574   1.229   6.270   1.118
 3559SOL     OW11575   0.600   6.368   4.635
 3559SOL    HW111576   0.563   6.450   4.592
 3559SOL    HW211577   0.619   6.300   4.565
 3560SOL     OW11578   1.157   5.936   1.395
 3560SOL    HW111579   1.175   5.944   1.297
 3560SOL    HW211580   1.238   5.901   1.441
 3561SOL     OW11581   4.353   4.617   5.359
 3561SOL    HW111582   4.410   4.700   5.357
 3561SOL    HW211583   4.257   4.643   5.352
 3562SOL     OW11584   5.115   1.024   3.990
 3562SOL    HW111585   5.056   1.096   3.954
 3562SOL    HW211586   5.203   1.064   4.018
 3563SOL     OW11587   5.844   1.101   0.910
 3563SOL    HW111588   5.926   1.129   0.959
 3563SOL    HW211589   5.821   1.169   0.840
 3564SOL     OW11590   1.593   4.422   4.107
 3564SOL    HW111591   1.647   4.433   4.024
 3564SOL    HW211592   1.497   4.405   4.082
 3565SOL     OW11593   3.405   5.870   5.391
 3565SOL    HW111594   3.479   5.892   5.327
 3565SOL    HW211595   3.410   5.774   5.416
 3566SOL     OW11596   6.637   3.643   5.971
 3566SOL    HW111597   6.549   3.625   5.926
 3566SOL    HW211598   6.666   3.560   6.019
 3567SOL     OW11599   1.353   3.202   0.033
 3567SOL    HW111600   1.305   3.143   0.099
 3567SOL    HW211601   1.346   3.297   0.062
 3568SOL     OW11602   4.777   5.929   4.051
 3568SOL    HW111603   4.810   5.946   3.958
 3568SOL    HW211604   4.806   6.003   4.111
 3569SOL     OW11605   3.078   2.448   5.983
 3569SOL    HW111606   3.059   2.513   5.909
 3569SOL    HW211607   3.074   2.496   6.071
 3570SOL     OW11608   5.003   0.177   4.796
 3570SOL    HW111609   5.080   0.238   4.777
 3570SOL    HW211610   4.956   0.209   4.878
 3571SOL     OW11611   1.985   0.757   4.985
 3571SOL    HW111612   1.916   0.704   4.935
 3571SOL    HW211613   2.060   0.781   4.923
 3572SOL     OW11614   5.479   3.704   2.513
 3572SOL    HW111615   5.514   3.630   2.572
 3572SOL    HW211616   5.380   3.712   2.525
 3573SOL     OW11617   6.057   3.937   2.420
 3573SOL    HW111618   6.048   3.975   2.328
 3573SOL    HW211619   6.030   4.005   2.488
 3574SOL     OW11620   1.300   3.336   0.685
 3574SOL    HW111621   1.374   3.278   0.652
 3574SOL    HW211622   1.331   3.430   0.691
 3575SOL     OW11623   4.832   5.581   2.274
 3575SOL    HW111624   4.906   5.646   2.286
 3575SOL    HW211625   4.775   5.580   2.356
 3576SOL     OW11626   0.435   1.971   0.135
 3576SOL    HW111627   0.365   1.979   0.205
 3576SOL    HW211628   0.440   1.877   0.102
 3577SOL     OW11629   1.937   3.072   6.624
 3577SOL    HW111630   1.857   3.132   6.637
 3577SOL    HW211631   1.979   3.054   6.713
 3578SOL     OW11632   5.134   1.615   1.030
 3578SOL    HW111633   5.048   1.652   0.995
 3578SOL    HW211634   5.117   1.529   1.078
 3579SOL     OW11635   6.851   2.564   2.620
 3579SOL    HW111636   6.936   2.557   2.567
 3579SOL    HW211637   6.861   2.512   2.705
 3580SOL     OW11638   6.194   3.139   6.957
 3580SOL    HW111639   6.199   3.231   6.919
 3580SOL    HW211640   6.124   3.136   0.009
 3581SOL     OW11641   0.721   5.656   3.091
 3581SOL    HW111642   0.660   5.641   3.169
 3581SOL    HW211643   0.671   5.703   3.018
 3582SOL     OW11644   2.196   4.476   5.765
 3582SOL    HW111645   2.280   4.492   5.713
 3582SOL    HW211646   2.158   4.386   5.741
 3583SOL     OW11647   1.674   5.205   0.189
 3583SOL    HW111648   1.705   5.141   0.118
 3583SOL    HW211649   1.675   5.160   0.278
 3584SOL     OW11650   5.481   4.440   5.510
 3584SOL    HW111651   5.461   4.428   5.413
 3584SOL    HW211652   5.396   4.436   5.562
 3585SOL     OW11653   2.703   2.410   4.973
 3585SOL    HW111654   2.775   2.403   4.904
 3585SOL    HW211655   2.742   2.399   5.064
 3586SOL     OW11656   6.658   1.548   4.922
 3586SOL    HW111657   6.616   1.544   4.832
 3586SOL    HW211658   6.595   1.511   4.990
 3587SOL     OW11659   2.197   5.675   6.043
 3587SOL    HW111660   2.168   5.594   5.992
 3587SOL    HW211661   2.141   5.753   6.017
 3588SOL     OW11662   6.663   2.845   5.082
 3588SOL    HW111663   6.591   2.778   5.063
 3588SOL    HW211664   6.752   2.798   5.086
 3589SOL     OW11665   5.976   0.333   6.882
 3589SOL    HW111666   6.043   0.371   6.944
 3589SOL    HW211667   5.895   0.393   6.879
 3590SOL     OW11668   0.320   3.531   0.278
 3590SOL    HW111669   0.375   3.527   0.361
 3590SOL    HW211670   0.265   3.448   0.270
 3591SOL     OW11671   6.027   3.515   0.338
 3591SOL    HW111672   6.059   3.578   0.267
 3591SOL    HW211673   6.024   3.561   0.426
 3592SOL     OW11674   0.424   0.001   3.119
 3592SOL    HW111675   0.406   7.020   3.218
 3592SOL    HW211676   0.490   0.073   3.098
 3593SOL     OW11677   0.440   4.411   6.151
 3593SOL    HW111678   0.343   4.399   6.173
 3593SOL    HW211679   0.462   4.508   6.150
 3594SOL     OW11680   4.504   0.438   4.177
 3594SOL    HW111681   4.586   0.452   4.232
 3594SOL    HW211682   4.436   0.386   4.230
 3595SOL     OW11683   5.158   5.739   6.435
 3595SOL    HW111684   5.147   5.768   6.340
 3595SOL    HW211685   5.076   5.689   6.464
 3596SOL     OW11686   5.194   2.837   3.635
 3596SOL    HW111687   5.159   2.923   3.674
 3596SOL    HW211688   5.215   2.851   3.538
 3597SOL     OW11689   1.731   2.813   5.463
 3597SOL    HW111690   1.779   2.744   5.517
 3597SOL    HW211691   1.785   2.836   5.383
 3598SOL     OW11692   2.028   6.560   5.663
 3598SOL    HW111693   1.963   6.565   5.588
 3598SOL    HW211694   1.998   6.490   5.728
 3599SOL     OW11695   4.571   2.083   0.672
 3599SOL    HW111696   4.543   1.992   0.643
 3599SOL    HW211697   4.630   2.124   0.602
 3600SOL     OW11698   0.510   3.115   2.272
 3600SOL    HW111699   0.541   3.026   2.308
 3600SOL    HW211700   0.556   3.132   2.185
 3601SOL     OW11701   5.440   2.640   5.793
 3601SOL    HW111702   5.534   2.676   5.788
 3601SOL    HW211703   5.376   2.709   5.759
 3602SOL     OW11704   1.436   3.694   1.099
 3602SOL    HW111705   1.504   3.713   1.029
 3602SOL    HW211706   1.464   3.613   1.152
 3603SOL     OW11707   3.562   1.183   4.547
 3603SOL    HW111708   3.477   1.208   4.500
 3603SOL    HW211709   3.544   1.170   4.644
 3604SOL     OW11710   6.495   0.118   4.066
 3604SOL    HW111711   6.553   0.199   4.079
 3604SOL    HW211712   6.548   0.036   4.087
 3605SOL     OW11713   0.819   4.495   3.979
 3605SOL    HW111714   0.869   4.417   3.941
 3605SOL    HW211715   0.775   4.467   4.065
 3606SOL     OW11716   1.022   6.470   3.272
 3606SOL    HW111717   1.120   6.486   3.283
 3606SOL    HW211718   0.999   6.380   3.308
 3607SOL     OW11719   5.377   3.750   1.759
 3607SOL    HW111720   5.361   3.718   1.665
 3607SOL    HW211721   5.289   3.768   1.803
 3608SOL     OW11722   4.719   1.150   4.456
 3608SOL    HW111723   4.637   1.121   4.406
 3608SOL    HW211724   4.800   1.125   4.403
 3609SOL     OW11725   2.237   0.110   4.444
 3609SOL    HW111726   2.166   0.106   4.374
 3609SOL    HW211727   2.208   0.171   4.518
 3610SOL     OW11728   1.485   0.973   5.850
 3610SOL    HW111729   1.483   0.889   5.796
 3610SOL    HW211730   1.580   0.998   5.868
 3611SOL     OW11731   3.981   4.803   3.723
 3611SOL    HW111732   4.043   4.831   3.650
 3611SOL    HW211733   3.938   4.716   3.699
 3612SOL     OW11734   0.277   0.999   6.540
 3612SOL    HW111735   0.269   0.958   6.449
 3612SOL    HW211736   0.194   1.050   6.561
 3613SOL     OW11737   4.933   4.471   1.919
 3613SOL    HW111738   4.936   4.383   1.872
 3613SOL    HW211739   4.925   4.457   2.018
 3614SOL     OW11740   2.919   3.981   6.841
 3614SOL    HW111741   3.007   4.014   6.875
 3614SOL    HW211742   2.884   3.909   6.901
 3615SOL     OW11743   5.755   2.343   6.167
 3615SOL    HW111744   5.702   2.334   6.083
 3615SOL    HW211745   5.846   2.380   6.146
 3616SOL     OW11746   0.823   0.145   6.606
 3616SOL    HW111747   0.855   0.103   6.521
 3616SOL    HW211748   0.887   0.123   6.680
 3617SOL     OW11749   4.404   0.724   5.499
 3617SOL    HW111750   4.426   0.813   5.460
 3617SOL    HW211751   4.475   0.658   5.475
 3618SOL     OW11752   2.494   3.473   5.368
 3618SOL    HW111753   2.406   3.482   5.320
 3618SOL    HW211754   2.549   3.554   5.351
 3619SOL     OW11755   5.531   3.720   6.539
 3619SOL    HW111756   5.615   3.762   6.573
 3619SOL    HW211757   5.543   3.694   6.444
 3620SOL     OW11758   5.637   5.394   5.935
 3620SOL    HW111759   5.646   5.494   5.944
 3620SOL    HW211760   5.672   5.350   6.018
 3621SOL     OW11761   3.726   3.593   4.659
 3621SOL    HW111762   3.632   3.559   4.656
 3621SOL    HW211763   3.745   3.646   4.576
 3622SOL     OW11764   2.388   1.001   0.508
 3622SOL    HW111765   2.333   0.952   0.440
 3622SOL    HW211766   2.336   1.011   0.592
 3623SOL     OW11767   6.790   5.583   4.824
 3623SOL    HW111768   6.837   5.501   4.855
 3623SOL    HW211769   6.751   5.567   4.733
 3624SOL     OW11770   1.442   6.905   2.288
 3624SOL    HW111771   1.369   6.884   2.224
 3624SOL    HW211772   1.528   6.869   2.254
 3625SOL     OW11773   0.229   3.453   6.082
 3625SOL    HW111774   0.287   3.394   6.137
 3625SOL    HW211775   0.176   3.398   6.018
 3626SOL     OW11776   0.332   2.978   4.646
 3626SOL    HW111777   0.241   3.019   4.647
 3626SOL    HW211778   0.399   3.045   4.618
 3627SOL     OW11779   4.597   3.260   1.714
 3627SOL    HW111780   4.508   3.305   1.707
 3627SOL    HW211781   4.590   3.180   1.773
 3628SOL     OW11782   1.477   1.194   1.957
 3628SOL    HW111783   1.413   1.132   2.002
 3628SOL    HW211784   1.517   1.256   2.024
 3629SOL     OW11785   0.997   0.513   4.988
 3629SOL    HW111786   1.006   0.562   5.075
 3629SOL    HW211787   0.978   0.578   4.915
 3630SOL     OW11788   6.635   3.068   3.472
 3630SOL    HW111789   6.537   3.047   3.470
 3630SOL    HW211790   6.648   3.167   3.471
 3631SOL     OW11791   1.514   6.760   3.385
 3631SOL    HW111792   1.568   6.766   3.469
 3631SOL    HW211793   1.575   6.741   3.307
 3632SOL     OW11794   4.896   4.648   0.212
 3632SOL    HW111795   4.946   4.700   0.143
 3632SOL    HW211796   4.950   4.570   0.243
 3633SOL     OW11797   4.589   2.867   5.929
 3633SOL    HW111798   4.569   2.948   5.874
 3633SOL    HW211799   4.686   2.866   5.953
 3634SOL     OW11800   2.061   6.270   6.127
 3634SOL    HW111801   2.155   6.287   6.098
 3634SOL    HW211802   2.055   6.274   6.227
 3635SOL     OW11803   2.584   1.583   0.886
 3635SOL    HW111804   2.649   1.642   0.838
 3635SOL    HW211805   2.506   1.636   0.918
 3636SOL     OW11806   6.595   5.728   1.502
 3636SOL    HW111807   6.497   5.733   1.523
 3636SOL    HW211808   6.614   5.782   1.420
 3637SOL     OW11809   0.903   2.760   1.121
 3637SOL    HW111810   0.804   2.772   1.116
 3637SOL    HW211811   0.949   2.836   1.075
 3638SOL     OW11812   6.755   4.204   2.831
 3638SOL    HW111813   6.681   4.270   2.815
 3638SOL    HW211814   6.810   4.195   2.747
 3639SOL     OW11815   3.536   4.695   6.468
 3639SOL    HW111816   3.608   4.759   6.440
 3639SOL    HW211817   3.471   4.684   6.393
 3640SOL     OW11818   5.139   1.978   0.693
 3640SOL    HW111819   5.135   2.040   0.771
 3640SOL    HW211820   5.110   2.027   0.611
 3641SOL     OW11821   5.611   3.826   1.123
 3641SOL    HW111822   5.529   3.785   1.164
 3641SOL    HW211823   5.599   3.925   1.116
 3642SOL     OW11824   5.023   2.210   6.760
 3642SOL    HW111825   4.939   2.156   6.761
 3642SOL    HW211826   5.038   2.248   6.669
 3643SOL     OW11827   4.167   6.339   6.080
 3643SOL    HW111828   4.175   6.329   5.981
 3643SOL    HW211829   4.136   6.431   6.102
 3644SOL     OW11830   2.624   0.495   1.501
 3644SOL    HW111831   2.618   0.432   1.579
 3644SOL    HW211832   2.538   0.545   1.492
 3645SOL     OW11833   1.093   3.975   4.197
 3645SOL    HW111834   1.026   3.902   4.180
 3645SOL    HW211835   1.126   3.969   4.291
 3646SOL     OW11836   1.371   4.437   4.835
 3646SOL    HW111837   1.443   4.400   4.894
 3646SOL    HW211838   1.343   4.367   4.769
 3647SOL     OW11839   2.753   6.141   6.815
 3647SOL    HW111840   2.845   6.178   6.823
 3647SOL    HW211841   2.690   6.196   6.869
 3648SOL     OW11842   5.019   6.176   2.868
 3648SOL    HW111843   5.041   6.137   2.779
 3648SOL    HW211844   4.970   6.262   2.855
 3649SOL     OW11845   6.570   3.550   0.156
 3649SOL    HW111846   6.523   3.561   0.068
 3649SOL    HW211847   6.588   3.453   0.172
 3650SOL     OW11848   6.099   4.318   0.458
 3650SOL    HW111849   6.178   4.373   0.429
 3650SOL    HW211850   6.122   4.269   0.542
 3651SOL     OW11851   1.807   0.952   4.311
 3651SOL    HW111852   1.718   0.970   4.268
 3651SOL    HW211853   1.855   1.039   4.324
 3652SOL     OW11854   5.739   6.774   3.202
 3652SOL    HW111855   5.646   6.805   3.224
 3652SOL    HW211856   5.734   6.683   3.160
 3653SOL     OW11857   1.681   1.040   3.416
 3653SOL    HW111858   1.668   1.119   3.357
 3653SOL    HW211859   1.746   1.064   3.489
 3654SOL     OW11860   4.692   6.115   0.405
 3654SOL    HW111861   4.625   6.102   0.332
 3654SOL    HW211862   4.746   6.197   0.386
 3655SOL     OW11863   2.957   1.304   3.915
 3655SOL    HW111864   2.886   1.236   3.927
 3655SOL    HW211865   2.978   1.314   3.817
 3656SOL     OW11866   1.373   5.833   1.508
 3656SOL    HW111867   1.411   5.788   1.428
 3656SOL    HW211868   1.434   5.905   1.539
 3657SOL     OW11869   4.723   5.859   5.361
 3657SOL    HW111870   4.711   5.945   5.313
 3657SOL    HW211871   4.755   5.789   5.297
 3658SOL     OW11872   1.562   5.101   6.450
 3658SOL    HW111873   1.518   5.095   6.539
 3658SOL    HW211874   1.605   5.191   6.439
 3659SOL     OW11875   0.652   2.053   6.838
 3659SOL    HW111876   0.652   2.091   6.931
 3659SOL    HW211877   0.560   2.056   6.801
 3660SOL     OW11878   6.009   5.610   4.933
 3660SOL    HW111879   6.025   5.708   4.917
 3660SOL    HW211880   6.076   5.576   4.999
 3661SOL     OW11881   0.287   0.609   4.585
 3661SOL    HW111882   0.373   0.603   4.535
 3661SOL    HW211883   0.270   0.703   4.612
 3662SOL     OW11884   3.966   0.915   4.299
 3662SOL    HW111885   4.018   0.856   4.360
 3662SOL    HW211886   3.939   0.998   4.348
 3663SOL     OW11887   1.997   2.769   0.121
 3663SOL    HW111888   1.917   2.792   0.065
 3663SOL    HW211889   2.074   2.829   0.096
 3664SOL     OW11890   3.973   1.830   1.896
 3664SOL    HW111891   4.057   1.833   1.842
 3664SOL    HW211892   3.996   1.832   1.993
 3665SOL     OW11893   0.741   5.617   5.839
 3665SOL    HW111894   0.777   5.556   5.768
 3665SOL    HW211895   0.817   5.663   5.885
 3666SOL     OW11896   0.765   3.141   3.334
 3666SOL    HW111897   0.834   3.187   3.278
 3666SOL    HW211898   0.809   3.074   3.393
 3667SOL     OW11899   0.689   1.286   3.803
 3667SOL    HW111900   0.628   1.341   3.746
 3667SOL    HW211901   0.731   1.214   3.748
 3668SOL     OW11902   1.394   0.757   1.171
 3668SOL    HW111903   1.338   0.826   1.216
 3668SOL    HW211904   1.427   0.793   1.083
 3669SOL     OW11905   5.316   1.828   3.921
 3669SOL    HW111906   5.361   1.751   3.875
 3669SOL    HW211907   5.273   1.887   3.854
 3670SOL     OW11908   3.345   5.017   0.793
 3670SOL    HW111909   3.368   4.972   0.706
 3670SOL    HW211910   3.258   4.980   0.827
 3671SOL     OW11911   6.705   0.907   3.666
 3671SOL    HW111912   6.716   0.822   3.615
 3671SOL    HW211913   6.794   0.944   3.691
 3672SOL     OW11914   4.780   1.603   2.679
 3672SOL    HW111915   4.818   1.514   2.704
 3672SOL    HW211916   4.700   1.623   2.735
 3673SOL     OW11917   3.889   5.486   6.707
 3673SOL    HW111918   3.895   5.535   6.794
 3673SOL    HW211919   3.955   5.524   6.642
 3674SOL     OW11920   1.202   5.937   5.453
 3674SOL    HW111921   1.114   5.900   5.481
 3674SOL    HW211922   1.226   5.902   5.363
 3675SOL     OW11923   0.513   2.846   3.934
 3675SOL    HW111924   0.488   2.806   4.022
 3675SOL    HW211925   0.465   2.933   3.921
 3676SOL     OW11926   5.640   3.053   2.711
 3676SOL    HW111927   5.711   3.121   2.731
 3676SOL    HW211928   5.573   3.092   2.647
 3677SOL     OW11929   2.283   0.939   5.263
 3677SOL    HW111930   2.352   0.905   5.328
 3677SOL    HW211931   2.329   0.989   5.190
 3678SOL     OW11932   1.758   1.580   4.142
 3678SOL    HW111933   1.730   1.598   4.048
 3678SOL    HW211934   1.777   1.667   4.188
 3679SOL     OW11935   6.261   0.154   3.963
 3679SOL    HW111936   6.239   0.249   3.941
 3679SOL    HW211937   6.355   0.149   3.998
 3680SOL     OW11938   4.506   2.518   4.327
 3680SOL    HW111939   4.470   2.515   4.421
 3680SOL    HW211940   4.526   2.425   4.297
 3681SOL     OW11941   0.704   0.945   6.087
 3681SOL    HW111942   0.768   1.007   6.133
 3681SOL    HW211943   0.729   0.935   5.991
 3682SOL     OW11944   5.485   2.433   0.585
 3682SOL    HW111945   5.514   2.499   0.654
 3682SOL    HW211946   5.565   2.383   0.551
 3683SOL     OW11947   0.712   1.165   4.824
 3683SOL    HW111948   0.635   1.146   4.763
 3683SOL    HW211949   0.784   1.212   4.772
 3684SOL     OW11950   1.307   5.972   0.004
 3684SOL    HW111951   1.355   6.053   0.037
 3684SOL    HW211952   1.372   5.910   6.980
 3685SOL     OW11953   2.772   6.337   5.109
 3685SOL    HW111954   2.706   6.347   5.035
 3685SOL    HW211955   2.726   6.297   5.189
 3686SOL     OW11956   6.681   4.488   4.212
 3686SOL    HW111957   6.613   4.553   4.178
 3686SOL    HW211958   6.742   4.460   4.137
 3687SOL     OW11959   4.836   6.660   3.489
 3687SOL    HW111960   4.746   6.627   3.460
 3687SOL    HW211961   4.829   6.698   3.582
 3688SOL     OW11962   6.124   3.346   6.730
 3688SOL    HW111963   6.223   3.364   6.726
 3688SOL    HW211964   6.080   3.416   6.786
 3689SOL     OW11965   2.190   1.989   5.483
 3689SOL    HW111966   2.241   2.017   5.402
 3689SOL    HW211967   2.102   1.950   5.455
 3690SOL     OW11968   4.684   5.822   1.014
 3690SOL    HW111969   4.601   5.879   1.012
 3690SOL    HW211970   4.732   5.830   0.927
 3691SOL     OW11971   2.685   1.942   5.939
 3691SOL    HW111972   2.767   1.965   5.885
 3691SOL    HW211973   2.615   2.012   5.924
 3692SOL     OW11974   6.535   4.475   6.281
 3692SOL    HW111975   6.612   4.527   6.243
 3692SOL    HW211976   6.564   4.381   6.297
 3693SOL     OW11977   2.329   2.179   2.908
 3693SOL    HW111978   2.254   2.115   2.928
 3693SOL    HW211979   2.290   2.268   2.883
 3694SOL     OW11980   1.060   6.810   1.679
 3694SOL    HW111981   1.153   6.811   1.642
 3694SOL    HW211982   1.009   6.889   1.644
 3695SOL     OW11983   6.375   2.100   1.764
 3695SOL    HW111984   6.418   2.010   1.767
 3695SOL    HW211985   6.443   2.169   1.739
 3696SOL     OW11986   4.286   7.006   5.637
 3696SOL    HW111987   4.268   0.062   5.575
 3696SOL    HW211988   4.342   6.938   5.591
 3697SOL     OW11989   6.703   6.194   3.225
 3697SOL    HW111990   6.781   6.134   3.208
 3697SOL    HW211991   6.715   6.279   3.174
 3698SOL     OW11992   2.063   1.421   3.673
 3698SOL    HW111993   2.027   1.505   3.713
 3698SOL    HW211994   2.001   1.389   3.602
 3699SOL     OW11995   2.137   1.931   3.349
 3699SOL    HW111996   2.072   1.870   3.395
 3699SOL    HW211997   2.179   1.991   3.417
 3700SOL     OW11998   1.320   5.488   4.820
 3700SOL    HW111999   1.221   5.485   4.833
 3700SOL    HW212000   1.364   5.423   4.882
 3701SOL     OW12001   0.754   6.601   2.510
 3701SOL    HW112002   0.762   6.700   2.493
 3701SOL    HW212003   0.705   6.586   2.596
 3702SOL     OW12004   5.430   6.566   3.551
 3702SOL    HW112005   5.461   6.657   3.579
 3702SOL    HW212006   5.471   6.542   3.463
 3703SOL     OW12007   0.985   0.845   6.502
 3703SOL    HW112008   0.948   0.775   6.441
 3703SOL    HW212009   0.944   0.835   6.593
 3704SOL     OW12010   5.580   3.014   1.091
 3704SOL    HW112011   5.630   3.095   1.058
 3704SOL    HW212012   5.643   2.953   1.138
 3705SOL     OW12013   4.460   4.895   3.650
 3705SOL    HW112014   4.554   4.922   3.670
 3705SOL    HW212015   4.404   4.977   3.638
 3706SOL     OW12016   1.113   3.858   0.109
 3706SOL    HW112017   1.076   3.853   0.016
 3706SOL    HW212018   1.096   3.949   0.147
 3707SOL     OW12019   4.214   5.757   4.113
 3707SOL    HW112020   4.135   5.717   4.067
 3707SOL    HW212021   4.272   5.683   4.148
 3708SOL     OW12022   4.839   6.886   1.247
 3708SOL    HW112023   4.890   6.901   1.331
 3708SOL    HW212024   4.798   6.795   1.247
 3709SOL     OW12025   2.369   7.002   1.489
 3709SOL    HW112026   2.410   6.990   1.579
 3709SOL    HW212027   2.307   6.926   1.470
 3710SOL     OW12028   0.549   5.849   4.986
 3710SOL    HW112029   0.580   5.754   4.989
 3710SOL    HW212030   0.587   5.899   5.064
 3711SOL     OW12031   1.220   6.131   4.903
 3711SOL    HW112032   1.155   6.088   4.965
 3711SOL    HW212033   1.288   6.182   4.956
 3712SOL     OW12034   1.711   6.150   6.686
 3712SOL    HW112035   1.639   6.080   6.678
 3712SOL    HW212036   1.681   6.221   6.749
 3713SOL     OW12037   0.745   0.391   4.859
 3713SOL    HW112038   0.780   0.314   4.804
 3713SOL    HW212039   0.820   0.429   4.914
 3714SOL     OW12040   6.623   5.117   0.049
 3714SOL    HW112041   6.654   5.053   6.999
 3714SOL    HW212042   6.609   5.068   0.134
 3715SOL     OW12043   0.605   5.117   2.614
 3715SOL    HW112044   0.644   5.039   2.565
 3715SOL    HW212045   0.675   5.187   2.625
 3716SOL     OW12046   5.910   5.201   4.590
 3716SOL    HW112047   5.938   5.272   4.655
 3716SOL    HW212048   5.889   5.117   4.640
 3717SOL     OW12049   6.297   1.333   0.770
 3717SOL    HW112050   6.375   1.272   0.788
 3717SOL    HW212051   6.328   1.428   0.774
 3718SOL     OW12052   0.099   0.376   6.806
 3718SOL    HW112053   0.129   0.416   6.893
 3718SOL    HW212054   0.081   0.278   6.819
 3719SOL     OW12055   4.310   3.185   6.416
 3719SOL    HW112056   4.260   3.175   6.502
 3719SOL    HW212057   4.320   3.282   6.395
 3720SOL     OW12058   5.452   3.531   0.250
 3720SOL    HW112059   5.487   3.438   0.266
 3720SOL    HW212060   5.526   3.588   0.215
 3721SOL     OW12061   6.746   4.943   0.583
 3721SOL    HW112062   6.759   4.991   0.670
 3721SOL    HW212063   6.735   5.010   0.509
 3722SOL     OW12064   5.396   6.433   1.653
 3722SOL    HW112065   5.300   6.460   1.641
 3722SOL    HW212066   5.420   6.366   1.583
 3723SOL     OW12067   4.716   5.094   0.000
 3723SOL    HW112068   4.649   5.168   0.013
 3723SOL    HW212069   4.794   5.129   6.969
 3724SOL     OW12070   2.051   4.767   5.150
 3724SOL    HW112071   2.057   4.691   5.215
 3724SOL    HW212072   2.143   4.798   5.127
 3725SOL     OW12073   0.595   6.401   6.947
 3725SOL    HW112074   0.549   6.344   7.015
 3725SOL    HW212075   0.547   6.394   6.859
 3726SOL     OW12076   5.651   3.455   5.658
 3726SOL    HW112077   5.560   3.453   5.617
 3726SOL    HW212078   5.689   3.547   5.651
 3727SOL     OW12079   6.908   3.263   4.774
 3727SOL    HW112080   6.837   3.259   4.844
 3727SOL    HW212081   6.923   3.359   4.746
 3728SOL     OW12082   2.175   3.906   6.439
 3728SOL    HW112083   2.091   3.890   6.491
 3728SOL    HW212084   2.168   3.993   6.390
 3729SOL     OW12085   0.858   0.424   3.882
 3729SOL    HW112086   0.775   0.413   3.938
 3729SOL    HW212087   0.874   0.521   3.866
 3730SOL     OW12088   3.758   6.182   5.516
 3730SOL    HW112089   3.707   6.129   5.584
 3730SOL    HW212090   3.798   6.119   5.449
 3731SOL     OW12091   0.521   1.483   0.225
 3731SOL    HW112092   0.519   1.563   0.165
 3731SOL    HW212093   0.562   1.509   0.312
 3732SOL     OW12094   1.934   1.852   0.810
 3732SOL    HW112095   1.985   1.851   0.723
 3732SOL    HW212096   1.962   1.774   0.865
 3733SOL     OW12097   1.921   2.728   3.948
 3733SOL    HW112098   2.003   2.717   4.004
 3733SOL    HW212099   1.875   2.814   3.974
 3734SOL     OW12100   4.198   0.745   1.709
 3734SOL    HW112101   4.261   0.798   1.653
 3734SOL    HW212102   4.223   0.648   1.704
 3735SOL     OW12103   3.892   0.341   2.715
 3735SOL    HW112104   3.795   0.323   2.703
 3735SOL    HW212105   3.908   0.439   2.727
 3736SOL     OW12106   6.953   1.313   1.452
 3736SOL    HW112107   0.015   1.339   1.502
 3736SOL    HW212108   6.970   1.319   1.354
 3737SOL     OW12109   6.350   2.235   3.636
 3737SOL    HW112110   6.391   2.280   3.715
 3737SOL    HW212111   6.259   2.201   3.660
 3738SOL     OW12112   6.472   6.208   1.113
 3738SOL    HW112113   6.445   6.278   1.179
 3738SOL    HW212114   6.570   6.187   1.124
 3739SOL     OW12115   3.032   4.656   1.650
 3739SOL    HW112116   3.115   4.692   1.694
 3739SOL    HW212117   2.993   4.584   1.709
 3740SOL     OW12118   5.830   5.775   0.642
 3740SOL    HW112119   5.850   5.709   0.570
 3740SOL    HW212120   5.912   5.791   0.697
 3741SOL     OW12121   4.035   2.945   6.476
 3741SOL    HW112122   4.099   2.900   6.539
 3741SOL    HW212123   4.011   3.035   6.511
 3742SOL     OW12124   4.445   0.247   0.589
 3742SOL    HW112125   4.367   0.241   0.651
 3742SOL    HW212126   4.452   0.163   0.535
 3743SOL     OW12127   5.166   4.064   1.790
 3743SOL    HW112128   5.185   4.021   1.702
 3743SOL    HW212129   5.241   4.125   1.815
 3744SOL     OW12130   0.951   6.428   2.443
 3744SOL    HW112131   0.927   6.354   2.380
 3744SOL    HW212132   0.871   6.488   2.455
 3745SOL     OW12133   5.257   3.833   2.314
 3745SOL    HW112134   5.241   3.793   2.404
 3745SOL    HW212135   5.296   3.764   2.253
 3746SOL     OW12136   5.928   0.349   3.323
 3746SOL    HW112137   5.960   0.254   3.328
 3746SOL    HW212138   6.006   0.410   3.313
 3747SOL     OW12139   4.947   6.502   5.449
 3747SOL    HW112140   4.921   6.587   5.494
 3747SOL    HW212141   4.925   6.508   5.351
 3748SOL     OW12142   5.163   0.496   2.302
 3748SOL    HW112143   5.204   0.473   2.390
 3748SOL    HW212144   5.229   0.547   2.247
 3749SOL     OW12145   2.044   4.923   3.265
 3749SOL    HW112146   2.103   5.003   3.276
 3749SOL    HW212147   2.005   4.898   3.354
 3750SOL     OW12148   6.174   4.229   0.699
 3750SOL    HW112149   6.191   4.314   0.749
 3750SOL    HW212150   6.097   4.181   0.740
 3751SOL     OW12151   0.735   2.563   0.927
 3751SOL    HW112152   0.810   2.510   0.966
 3751SOL    HW212153   0.769   2.653   0.899
 3752SOL     OW12154   0.602   6.985   0.357
 3752SOL    HW112155   0.569   6.986   0.263
 3752SOL    HW212156   0.559   6.909   0.407
 3753SOL     OW12157   0.305   7.002   4.102
 3753SOL    HW112158   0.371   0.055   4.090
 3753SOL    HW212159   0.312   6.937   4.027
 3754SOL     OW12160   4.615   6.062   1.850
 3754SOL    HW112161   4.644   6.036   1.942
 3754SOL    HW212162   4.546   5.997   1.817
 3755SOL     OW12163   5.480   5.681   4.684
 3755SOL    HW112164   5.404   5.738   4.714
 3755SOL    HW212165   5.545   5.736   4.631
 3756SOL     OW12166   1.430   0.720   6.224
 3756SOL    HW112167   1.390   0.705   6.314
 3756SOL    HW212168   1.382   0.796   6.179
 3757SOL     OW12169   3.690   5.957   6.736
 3757SOL    HW112170   3.703   5.883   6.670
 3757SOL    HW212171   3.594   5.983   6.738
 3758SOL     OW12172   1.496   1.181   4.337
 3758SOL    HW112173   1.502   1.201   4.435
 3758SOL    HW212174   1.537   1.092   4.318
 3759SOL     OW12175   4.089   4.690   5.453
 3759SOL    HW112176   4.028   4.763   5.483
 3759SOL    HW212177   4.111   4.632   5.531
 3760SOL     OW12178   0.693   4.050   4.693
 3760SOL    HW112179   0.689   4.150   4.694
 3760SOL    HW212180   0.601   4.012   4.694
 3761SOL     OW12181   0.636   6.852   5.064
 3761SOL    HW112182   0.557   6.905   5.096
 3761SOL    HW212183   0.621   6.826   4.968
 3762SOL     OW12184   0.984   5.400   6.883
 3762SOL    HW112185   1.045   5.479   6.895
 3762SOL    HW212186   0.968   5.357   6.972
 3763SOL     OW12187   6.341   4.966   0.340
 3763SOL    HW112188   6.265   5.002   0.285
 3763SOL    HW212189   6.387   4.892   0.290
 3764SOL     OW12190   2.066   0.468   4.062
 3764SOL    HW112191   2.150   0.519   4.079
 3764SOL    HW212192   1.994   0.532   4.035
 3765SOL     OW12193   5.275   1.424   1.995
 3765SOL    HW112194   5.187   1.434   2.042
 3765SOL    HW212195   5.340   1.492   2.031
 3766SOL     OW12196   0.696   0.893   4.874
 3766SOL    HW112197   0.720   0.990   4.867
 3766SOL    HW212198   0.597   0.883   4.873
 3767SOL     OW12199   2.583   5.501   0.592
 3767SOL    HW112200   2.597   5.439   0.669
 3767SOL    HW212201   2.495   5.480   0.548
 3768SOL     OW12202   2.489   5.823   5.856
 3768SOL    HW112203   2.525   5.766   5.929
 3768SOL    HW212204   2.564   5.855   5.798
 3769SOL     OW12205   5.493   5.406   5.698
 3769SOL    HW112206   5.536   5.395   5.608
 3769SOL    HW212207   5.564   5.412   5.768
 3770SOL     OW12208   1.526   0.545   6.728
 3770SOL    HW112209   1.605   0.509   6.679
 3770SOL    HW212210   1.446   0.487   6.708
 3771SOL     OW12211   5.737   2.223   0.340
 3771SOL    HW112212   5.827   2.220   0.296
 3771SOL    HW212213   5.666   2.223   0.270
 3772SOL     OW12214   6.778   1.611   0.965
 3772SOL    HW112215   6.842   1.569   1.029
 3772SOL    HW212216   6.821   1.689   0.920
 3773SOL     OW12217   5.865   2.713   6.173
 3773SOL    HW112218   5.902   2.768   6.248
 3773SOL    HW212219   5.941   2.681   6.116
 3774SOL     OW12220   0.811   6.801   6.982
 3774SOL    HW112221   0.815   6.729   6.912
 3774SOL    HW212222   0.766   6.765   0.043
 3775SOL     OW12223   5.110   4.133   2.060
 3775SOL    HW112224   5.158   4.143   2.148
 3775SOL    HW212225   5.158   4.067   2.003
 3776SOL     OW12226   3.104   1.405   0.745
 3776SOL    HW112227   3.062   1.318   0.771
 3776SOL    HW212228   3.117   1.407   0.645
 3777SOL     OW12229   3.045   4.860   4.247
 3777SOL    HW112230   2.988   4.941   4.266
 3777SOL    HW212231   2.988   4.789   4.205
 3778SOL     OW12232   2.711   5.962   2.902
 3778SOL    HW112233   2.684   5.888   2.963
 3778SOL    HW212234   2.793   6.007   2.937
 3779SOL     OW12235   2.261   4.457   0.746
 3779SOL    HW112236   2.349   4.464   0.794
 3779SOL    HW212237   2.189   4.433   0.812
 3780SOL     OW12238   4.483   4.856   5.340
 3780SOL    HW112239   4.470   4.954   5.355
 3780SOL    HW212240   4.454   4.832   5.248
 3781SOL     OW12241   1.595   6.170   4.606
 3781SOL    HW112242   1.519   6.140   4.664
 3781SOL    HW212243   1.604   6.108   4.528
 3782SOL     OW12244   2.821   2.052   4.693
 3782SOL    HW112245   2.841   2.071   4.789
 3782SOL    HW212246   2.875   2.114   4.635
 3783SOL     OW12247   5.663   6.594   5.308
 3783SOL    HW112248   5.630   6.508   5.347
 3783SOL    HW212249   5.590   6.637   5.255
 3784SOL     OW12250   4.967   1.845   3.588
 3784SOL    HW112251   4.912   1.923   3.561
 3784SOL    HW212252   4.999   1.796   3.506
 3785SOL     OW12253   1.914   1.354   7.005
 3785SOL    HW112254   1.929   1.444   6.964
 3785SOL    HW212255   1.924   1.360   0.084
 3786SOL     OW12256   3.237   6.234   3.547
 3786SOL    HW112257   3.147   6.275   3.562
 3786SOL    HW212258   3.232   6.172   3.469
 3787SOL     OW12259   6.393   6.142   3.632
 3787SOL    HW112260   6.333   6.213   3.667
 3787SOL    HW212261   6.467   6.125   3.698
 3788SOL     OW12262   0.332   2.876   3.423
 3788SOL    HW112263   0.345   2.779   3.447
 3788SOL    HW212264   0.419   2.925   3.432
 3789SOL     OW12265   1.474   3.272   4.096
 3789SOL    HW112266   1.453   3.313   4.185
 3789SOL    HW212267   1.469   3.342   4.025
 3790SOL     OW12268   1.425   3.999   5.213
 3790SOL    HW112269   1.379   3.911   5.224
 3790SOL    HW212270   1.521   3.989   5.238
 3791SOL     OW12271   6.395   0.142   0.881
 3791SOL    HW112272   6.420   0.146   0.977
 3791SOL    HW212273   6.299   0.171   0.871
 3792SOL     OW12274   6.970   0.800   4.294
 3792SOL    HW112275   6.962   0.702   4.280
 3792SOL    HW212276   6.910   0.849   4.231
 3793SOL     OW12277   3.344   0.127   2.819
 3793SOL    HW112278   3.264   0.182   2.796
 3793SOL    HW212279   3.390   0.099   2.735
 3794SOL     OW12280   3.371   4.660   1.243
 3794SOL    HW112281   3.383   4.665   1.144
 3794SOL    HW212282   3.343   4.749   1.278
 3795SOL     OW12283   3.861   6.423   0.227
 3795SOL    HW112284   3.827   6.376   0.146
 3795SOL    HW212285   3.909   6.357   0.285
 3796SOL     OW12286   2.549   2.516   1.435
 3796SOL    HW112287   2.538   2.507   1.336
 3796SOL    HW212288   2.561   2.425   1.476
 3797SOL     OW12289   6.788   4.837   2.501
 3797SOL    HW112290   6.798   4.819   2.403
 3797SOL    HW212291   6.693   4.824   2.527
 3798SOL     OW12292   3.408   5.418   3.473
 3798SOL    HW112293   3.411   5.353   3.397
 3798SOL    HW212294   3.434   5.509   3.440
 3799SOL     OW12295   0.505   2.381   4.410
 3799SOL    HW112296   0.564   2.409   4.333
 3799SOL    HW212297   0.426   2.442   4.415
 3800SOL     OW12298   5.334   2.927   4.683
 3800SOL    HW112299   5.406   2.858   4.692
 3800SOL    HW212300   5.260   2.890   4.625
 3801SOL     OW12301   6.840   6.381   4.376
 3801SOL    HW112302   6.762   6.389   4.438
 3801SOL    HW212303   6.924   6.370   4.428
 3802SOL     OW12304   0.095   1.786   4.457
 3802SOL    HW112305   0.048   1.700   4.438
 3802SOL    HW212306   0.031   1.851   4.498
 3803SOL     OW12307   3.724   1.231   2.027
 3803SOL    HW112308   3.749   1.326   2.045
 3803SOL    HW212309   3.753   1.205   1.935
 3804SOL     OW12310   5.083   2.277   4.204
 3804SOL    HW112311   5.177   2.277   4.239
 3804SOL    HW212312   5.031   2.349   4.249
 3805SOL     OW12313   2.696   3.810   1.678
 3805SOL    HW112314   2.766   3.838   1.744
 3805SOL    HW212315   2.707   3.863   1.593
 3806SOL     OW12316   2.148   3.401   0.021
 3806SOL    HW112317   2.057   3.380   7.005
 3806SOL    HW212318   2.156   3.499   0.035
 3807SOL     OW12319   2.269   1.214   3.998
 3807SOL    HW112320   2.294   1.257   3.912
 3807SOL    HW212321   2.305   1.120   4.000
 3808SOL     OW12322   3.444   1.275   1.342
 3808SOL    HW112323   3.400   1.215   1.409
 3808SOL    HW212324   3.456   1.366   1.380
 3809SOL     OW12325   6.508   2.326   0.434
 3809SOL    HW112326   6.580   2.276   0.386
 3809SOL    HW212327   6.544   2.414   0.467
 3810SOL     OW12328   4.341   2.526   5.344
 3810SOL    HW112329   4.347   2.612   5.394
 3810SOL    HW212330   4.257   2.525   5.289
 3811SOL     OW12331   0.874   4.848   4.719
 3811SOL    HW112332   0.942   4.822   4.789
 3811SOL    HW212333   0.870   4.776   4.650
 3812SOL     OW12334   5.607   1.467   5.477
 3812SOL    HW112335   5.642   1.423   5.394
 3812SOL    HW212336   5.507   1.477   5.470
 3813SOL     OW12337   4.600   4.281   0.812
 3813SOL    HW112338   4.508   4.292   0.774
 3813SOL    HW212339   4.597   4.220   0.891
 3814SOL     OW12340   6.484   6.313   1.551
 3814SOL    HW112341   6.448   6.325   1.459
 3814SOL    HW212342   6.468   6.396   1.604
 3815SOL     OW12343   4.998   2.330   0.263
 3815SOL    HW112344   4.914   2.378   0.285
 3815SOL    HW212345   4.993   2.296   0.169
 3816SOL     OW12346   6.753   6.242   0.769
 3816SOL    HW112347   6.762   6.156   0.818
 3816SOL    HW212348   6.697   6.228   0.688
 3817SOL     OW12349   4.935   3.007   3.933
 3817SOL    HW112350   4.907   2.957   4.015
 3817SOL    HW212351   4.880   2.977   3.855
 3818SOL     OW12352   5.252   6.614   1.282
 3818SOL    HW112353   5.189   6.619   1.359
 3818SOL    HW212354   5.274   6.518   1.263
 3819SOL     OW12355   5.331   4.914   0.506
 3819SOL    HW112356   5.362   4.883   0.416
 3819SOL    HW212357   5.407   4.957   0.554
 3820SOL     OW12358   6.594   6.894   4.156
 3820SOL    HW112359   6.648   6.970   4.192
 3820SOL    HW212360   6.655   6.817   4.134
 3821SOL     OW12361   1.822   3.105   1.783
 3821SOL    HW112362   1.892   3.148   1.841
 3821SOL    HW212363   1.855   3.100   1.689
 3822SOL     OW12364   1.263   5.580   2.709
 3822SOL    HW112365   1.225   5.512   2.773
 3822SOL    HW212366   1.210   5.664   2.716
 3823SOL     OW12367   3.959   2.175   5.487
 3823SOL    HW112368   3.932   2.209   5.577
 3823SOL    HW212369   4.058   2.176   5.479
 3824SOL     OW12370   5.655   1.527   5.988
 3824SOL    HW112371   5.670   1.609   5.932
 3824SOL    HW212372   5.643   1.448   5.928
 3825SOL     OW12373   0.438   0.430   0.608
 3825SOL    HW112374   0.401   0.381   0.530
 3825SOL    HW212375   0.367   0.490   0.647
 3826SOL     OW12376   0.591   3.444   6.520
 3826SOL    HW112377   0.555   3.466   6.611
 3826SOL    HW212378   0.547   3.361   6.485
 3827SOL     OW12379   3.599   3.838   0.468
 3827SOL    HW112380   3.573   3.921   0.419
 3827SOL    HW212381   3.690   3.809   0.438
 3828SOL     OW12382   4.421   2.053   1.292
 3828SOL    HW112383   4.392   2.140   1.253
 3828SOL    HW212384   4.488   2.010   1.232
 3829SOL     OW12385   2.050   4.710   3.948
 3829SOL    HW112386   2.087   4.689   4.038
 3829SOL    HW212387   1.969   4.769   3.958
 3830SOL     OW12388   0.502   0.458   4.525
 3830SOL    HW112389   0.601   0.465   4.531
 3830SOL    HW212390   0.466   0.421   4.611
 3831SOL     OW12391   4.425   1.966   2.315
 3831SOL    HW112392   4.405   1.879   2.269
 3831SOL    HW212393   4.505   2.009   2.273
 3832SOL     OW12394   6.208   0.351   2.230
 3832SOL    HW112395   6.255   0.396   2.306
 3832SOL    HW212396   6.116   0.324   2.259
 3833SOL     OW12397   0.874   5.938   6.083
 3833SOL    HW112398   0.888   5.848   6.041
 3833SOL    HW212399   0.898   5.934   6.179
 3834SOL     OW12400   3.425   2.630   0.204
 3834SOL    HW112401   3.378   2.685   0.135
 3834SOL    HW212402   3.399   2.534   0.194
 3835SOL     OW12403   3.234   4.797   5.271
 3835SOL    HW112404   3.158   4.779   5.209
 3835SOL    HW212405   3.213   4.758   5.361
 3836SOL     OW12406   2.141   3.401   5.022
 3836SOL    HW112407   2.167   3.305   5.011
 3836SOL    HW212408   2.109   3.437   4.934
 3837SOL     OW12409   4.795   3.221   6.695
 3837SOL    HW112410   4.751   3.310   6.706
 3837SOL    HW212411   4.742   3.165   6.632
 3838SOL     OW12412   6.292   3.945   4.233
 3838SOL    HW112413   6.277   4.033   4.187
 3838SOL    HW212414   6.307   3.874   4.165
 3839SOL     OW12415   4.589   6.861   4.267
 3839SOL    HW112416   4.685   6.885   4.248
 3839SOL    HW212417   4.584   6.764   4.291
 3840SOL     OW12418   1.548   1.223   5.284
 3840SOL    HW112419   1.553   1.174   5.198
 3840SOL    HW212420   1.502   1.167   5.353
 3841SOL     OW12421   0.287   3.879   5.435
 3841SOL    HW112422   0.199   3.860   5.479
 3841SOL    HW212423   0.342   3.796   5.433
 3842SOL     OW12424   1.467   5.192   0.566
 3842SOL    HW112425   1.563   5.183   0.541
 3842SOL    HW212426   1.442   5.122   0.633
 3843SOL     OW12427   6.686   3.505   1.285
 3843SOL    HW112428   6.731   3.562   1.354
 3843SOL    HW212429   6.690   3.409   1.313
 3844SOL     OW12430   6.953   4.629   5.346
 3844SOL    HW112431   7.004   4.571   5.409
 3844SOL    HW212432   6.996   4.719   5.340
 3845SOL     OW12433   3.421   2.873   2.840
 3845SOL    HW112434   3.359   2.795   2.842
 3845SOL    HW212435   3.369   2.958   2.844
 3846SOL     OW12436   0.408   4.274   4.184
 3846SOL    HW112437   0.483   4.335   4.211
 3846SOL    HW212438   0.321   4.318   4.205
 3847SOL     OW12439   6.414   1.486   6.102
 3847SOL    HW112440   6.412   1.512   6.006
 3847SOL    HW212441   6.499   1.437   6.122
 3848SOL     OW12442   2.579   5.617   2.818
 3848SOL    HW112443   2.532   5.668   2.747
 3848SOL    HW212444   2.602   5.678   2.894
 3849SOL     OW12445   0.605   1.398   5.656
 3849SOL    HW112446   0.561   1.457   5.724
 3849SOL    HW212447   0.538   1.335   5.618
 3850SOL     OW12448   2.432   3.656   1.648
 3850SOL    HW112449   2.531   3.672   1.658
 3850SOL    HW212450   2.403   3.585   1.711
 3851SOL     OW12451   1.471   4.147   2.824
 3851SOL    HW112452   1.540   4.148   2.896
 3851SOL    HW212453   1.500   4.206   2.749
 3852SOL     OW12454   4.846   6.673   4.876
 3852SOL    HW112455   4.853   6.638   4.783
 3852SOL    HW212456   4.926   6.643   4.929
 3853SOL     OW12457   1.442   3.630   2.733
 3853SOL    HW112458   1.460   3.604   2.638
 3853SOL    HW212459   1.348   3.604   2.757
 3854SOL     OW12460   0.755   3.720   3.193
 3854SOL    HW112461   0.677   3.750   3.138
 3854SOL    HW212462   0.812   3.658   3.138
 3855SOL     OW12463   5.627   5.414   6.753
 3855SOL    HW112464   5.722   5.429   6.726
 3855SOL    HW212465   5.577   5.375   6.676
 3856SOL     OW12466   0.153   6.967   4.966
 3856SOL    HW112467   0.219   6.896   4.942
 3856SOL    HW212468   0.201   0.035   4.974
 3857SOL     OW12469   1.355   6.822   4.842
 3857SOL    HW112470   1.400   6.755   4.783
 3857SOL    HW212471   1.391   6.913   4.822
 3858SOL     OW12472   1.166   6.000   6.069
 3858SOL    HW112473   1.145   5.943   6.149
 3858SOL    HW212474   1.100   5.982   5.997
 3859SOL     OW12475   6.782   1.550   3.022
 3859SOL    HW112476   6.739   1.485   3.085
 3859SOL    HW212477   6.731   1.636   3.023
 3860SOL     OW12478   2.199   6.455   4.313
 3860SOL    HW112479   2.262   6.378   4.317
 3860SOL    HW212480   2.137   6.452   4.392
 3861SOL     OW12481   5.897   4.431   1.314
 3861SOL    HW112482   5.875   4.433   1.216
 3861SOL    HW212483   5.870   4.342   1.352
 3862SOL     OW12484   6.889   6.993   5.897
 3862SOL    HW112485   6.842   0.024   5.969
 3862SOL    HW212486   6.865   0.012   5.808
 3863SOL     OW12487   3.710   3.976   0.157
 3863SOL    HW112488   3.757   4.035   0.092
 3863SOL    HW212489   3.710   4.019   0.247
 3864SOL     OW12490   4.442   2.131   6.048
 3864SOL    HW112491   4.384   2.104   6.124
 3864SOL    HW212492   4.497   2.052   6.018
 3865SOL     OW12493   3.714   0.514   1.743
 3865SOL    HW112494   3.694   0.612   1.747
 3865SOL    HW212495   3.779   0.496   1.670
 3866SOL     OW12496   3.925   0.593   0.537
 3866SOL    HW112497   3.921   0.516   0.600
 3866SOL    HW212498   4.013   0.593   0.490
 3867SOL     OW12499   2.172   3.650   3.332
 3867SOL    HW112500   2.146   3.675   3.426
 3867SOL    HW212501   2.178   3.732   3.276
 3868SOL     OW12502   2.489   5.737   1.799
 3868SOL    HW112503   2.523   5.812   1.742
 3868SOL    HW212504   2.403   5.763   1.841
 3869SOL     OW12505   6.941   2.548   3.728
 3869SOL    HW112506   6.947   2.483   3.804
 3869SOL    HW212507   6.989   2.632   3.752
 3870SOL     OW12508   3.020   5.105   7.008
 3870SOL    HW112509   3.000   5.156   0.071
 3870SOL    HW212510   3.001   5.008   0.002
 3871SOL     OW12511   3.257   0.168   2.277
 3871SOL    HW112512   3.174   0.208   2.316
 3871SOL    HW212513   3.236   0.079   2.238
 3872SOL     OW12514   3.991   3.229   1.086
 3872SOL    HW112515   3.973   3.254   0.991
 3872SOL    HW212516   3.939   3.147   1.109
 3873SOL     OW12517   5.771   5.430   1.507
 3873SOL    HW112518   5.807   5.451   1.598
 3873SOL    HW212519   5.846   5.399   1.448
 3874SOL     OW12520   4.303   0.079   0.191
 3874SOL    HW112521   4.214   0.124   0.197
 3874SOL    HW212522   4.311   0.032   0.104
 3875SOL     OW12523   1.065   3.925   2.836
 3875SOL    HW112524   0.996   3.861   2.800
 3875SOL    HW212525   1.156   3.886   2.824
 3876SOL     OW12526   4.849   5.652   6.252
 3876SOL    HW112527   4.771   5.668   6.314
 3876SOL    HW212528   4.820   5.592   6.178
 3877SOL     OW12529   6.812   1.562   1.559
 3877SOL    HW112530   6.839   1.478   1.511
 3877SOL    HW212531   6.893   1.620   1.572
 3878SOL     OW12532   3.032   6.374   5.810
 3878SOL    HW112533   2.998   6.296   5.758
 3878SOL    HW212534   3.069   6.343   5.898
 3879SOL     OW12535   4.523   5.720   0.643
 3879SOL    HW112536   4.599   5.779   0.669
 3879SOL    HW212537   4.461   5.769   0.582
 3880SOL     OW12538   6.031   4.085   2.190
 3880SOL    HW112539   6.052   4.057   2.097
 3880SOL    HW212540   6.035   4.185   2.196
 3881SOL     OW12541   1.719   5.499   0.520
 3881SOL    HW112542   1.789   5.432   0.495
 3881SOL    HW212543   1.664   5.464   0.595
 3882SOL     OW12544   6.438   0.960   6.268
 3882SOL    HW112545   6.500   1.031   6.300
 3882SOL    HW212546   6.422   0.972   6.170
 3883SOL     OW12547   4.508   1.072   4.266
 3883SOL    HW112548   4.430   1.010   4.253
 3883SOL    HW212549   4.572   1.063   4.189
 3884SOL     OW12550   1.198   6.085   4.625
 3884SOL    HW112551   1.207   6.110   4.722
 3884SOL    HW212552   1.101   6.072   4.604
 3885SOL     OW12553   6.596   1.362   4.321
 3885SOL    HW112554   6.606   1.354   4.421
 3885SOL    HW212555   6.639   1.283   4.277
 3886SOL     OW12556   6.508   0.307   5.534
 3886SOL    HW112557   6.567   0.383   5.505
 3886SOL    HW212558   6.549   0.262   5.613
 3887SOL     OW12559   4.462   1.651   5.587
 3887SOL    HW112560   4.365   1.676   5.591
 3887SOL    HW212561   4.502   1.655   5.678
 3888SOL     OW12562   6.768   1.424   0.303
 3888SOL    HW112563   6.683   1.448   0.255
 3888SOL    HW212564   6.831   1.380   0.240
 3889SOL     OW12565   0.501   5.569   6.379
 3889SOL    HW112566   0.529   5.496   6.441
 3889SOL    HW212567   0.579   5.595   6.321
 3890SOL     OW12568   5.711   6.237   3.409
 3890SOL    HW112569   5.801   6.204   3.436
 3890SOL    HW212570   5.648   6.231   3.487
 3891SOL     OW12571   5.195   5.365   4.893
 3891SOL    HW112572   5.153   5.275   4.885
 3891SOL    HW212573   5.174   5.404   4.983
 3892SOL     OW12574   0.210   6.867   2.824
 3892SOL    HW112575   0.207   6.965   2.840
 3892SOL    HW212576   0.124   6.837   2.782
 3893SOL     OW12577   3.938   5.639   3.952
 3893SOL    HW112578   3.948   5.605   4.046
 3893SOL    HW212579   3.950   5.563   3.888
 3894SOL     OW12580   4.178   2.686   0.595
 3894SOL    HW112581   4.174   2.767   0.653
 3894SOL    HW212582   4.110   2.619   0.626
 3895SOL     OW12583   1.545   1.634   5.316
 3895SOL    HW112584   1.614   1.583   5.264
 3895SOL    HW212585   1.590   1.705   5.369
 3896SOL     OW12586   0.152   2.002   6.062
 3896SOL    HW112587   0.175   2.077   6.124
 3896SOL    HW212588   0.089   2.034   5.991
 3897SOL     OW12589   2.621   6.545   2.267
 3897SOL    HW112590   2.629   6.448   2.244
 3897SOL    HW212591   2.656   6.560   2.360
 3898SOL     OW12592   3.532   3.244   4.208
 3898SOL    HW112593   3.439   3.267   4.237
 3898SOL    HW212594   3.534   3.234   4.109
 3899SOL     OW12595   4.711   1.428   5.162
 3899SOL    HW112596   4.687   1.406   5.256
 3899SOL    HW212597   4.738   1.524   5.156
 3900SOL     OW12598   6.618   2.734   3.178
 3900SOL    HW112599   6.593   2.670   3.250
 3900SOL    HW212600   6.633   2.825   3.218
 3901SOL     OW12601   0.990   6.445   4.581
 3901SOL    HW112602   1.055   6.460   4.655
 3901SOL    HW212603   0.948   6.532   4.555
 3902SOL     OW12604   5.574   4.780   1.519
 3902SOL    HW112605   5.663   4.793   1.475
 3902SOL    HW212606   5.565   4.685   1.548
 3903SOL     OW12607   4.315   2.346   0.243
 3903SOL    HW112608   4.381   2.354   0.167
 3903SOL    HW212609   4.228   2.314   0.207
 3904SOL     OW12610   1.124   0.094   0.137
 3904SOL    HW112611   1.130   0.193   0.149
 3904SOL    HW212612   1.028   0.066   0.140
 3905SOL     OW12613   6.808   6.790   6.062
 3905SOL    HW112614   6.818   6.843   5.977
 3905SOL    HW212615   6.854   6.838   6.136
 3906SOL     OW12616   1.710   4.655   4.220
 3906SOL    HW112617   1.668   4.679   4.308
 3906SOL    HW212618   1.660   4.578   4.179
 3907SOL     OW12619   0.068   1.032   4.436
 3907SOL    HW112620   0.094   1.071   4.348
 3907SOL    HW212621   7.015   0.965   4.424
 3908SOL     OW12622   1.572   0.886   5.192
 3908SOL    HW112623   1.670   0.864   5.183
 3908SOL    HW212624   1.557   0.933   5.279
 3909SOL     OW12625   5.106   2.673   5.621
 3909SOL    HW112626   5.165   2.743   5.661
 3909SOL    HW212627   5.114   2.588   5.673
 3910SOL     OW12628   3.268   3.106   1.647
 3910SOL    HW112629   3.296   3.014   1.674
 3910SOL    HW212630   3.341   3.148   1.594
 3911SOL     OW12631   5.721   0.688   1.462
 3911SOL    HW112632   5.628   0.666   1.491
 3911SOL    HW212633   5.731   0.788   1.458
 3912SOL     OW12634   3.566   2.021   6.679
 3912SOL    HW112635   3.662   2.041   6.695
 3912SOL    HW212636   3.536   1.950   6.743
 3913SOL     OW12637   4.094   6.262   0.305
 3913SOL    HW112638   4.104   6.196   0.379
 3913SOL    HW212639   4.161   6.335   0.316
 3914SOL     OW12640   5.855   1.451   1.000
 3914SOL    HW112641   5.806   1.514   1.061
 3914SOL    HW212642   5.791   1.385   0.961
 3915SOL     OW12643   4.750   5.392   0.427
 3915SOL    HW112644   4.741   5.374   0.525
 3915SOL    HW212645   4.843   5.372   0.399
 3916SOL     OW12646   2.257   0.675   3.018
 3916SOL    HW112647   2.228   0.599   2.960
 3916SOL    HW212648   2.337   0.648   3.072
 3917SOL     OW12649   2.591   5.296   0.786
 3917SOL    HW112650   2.522   5.224   0.776
 3917SOL    HW212651   2.657   5.268   0.856
 3918SOL     OW12652   5.671   0.522   0.902
 3918SOL    HW112653   5.634   0.523   0.995
 3918SOL    HW212654   5.629   0.596   0.850
 3919SOL     OW12655   4.463   1.036   0.933
 3919SOL    HW112656   4.420   0.974   0.999
 3919SOL    HW212657   4.427   1.020   0.842
 3920SOL     OW12658   3.199   1.094   6.343
 3920SOL    HW112659   3.125   1.053   6.290
 3920SOL    HW212660   3.161   1.158   6.410
 3921SOL     OW12661   0.711   2.831   5.943
 3921SOL    HW112662   0.635   2.789   5.993
 3921SOL    HW212663   0.676   2.905   5.886
 3922SOL     OW12664   4.857   4.720   1.864
 3922SOL    HW112665   4.786   4.696   1.799
 3922SOL    HW212666   4.910   4.638   1.888
 3923SOL     OW12667   5.418   0.974   1.776
 3923SOL    HW112668   5.404   1.031   1.857
 3923SOL    HW212669   5.516   0.962   1.760
 3924SOL     OW12670   0.031   4.570   4.739
 3924SOL    HW112671   0.131   4.564   4.745
 3924SOL    HW212672   0.002   4.664   4.758
 3925SOL     OW12673   4.872   3.572   0.226
 3925SOL    HW112674   4.816   3.503   0.272
 3925SOL    HW212675   4.965   3.570   0.264
 3926SOL     OW12676   1.468   0.564   5.977
 3926SOL    HW112677   1.382   0.513   5.966
 3926SOL    HW212678   1.469   0.608   6.067
 3927SOL     OW12679   0.433   2.614   5.106
 3927SOL    HW112680   0.440   2.714   5.105
 3927SOL    HW212681   0.383   2.586   5.188
 3928SOL     OW12682   1.957   6.843   3.258
 3928SOL    HW112683   1.922   6.760   3.301
 3928SOL    HW212684   1.929   6.845   3.162
 3929SOL     OW12685   6.985   2.042   4.989
 3929SOL    HW112686   6.952   1.956   4.950
 3929SOL    HW212687   0.026   2.086   4.923
 3930SOL     OW12688   1.163   3.424   3.992
 3930SOL    HW112689   1.223   3.407   4.070
 3930SOL    HW212690   1.076   3.460   4.024
 3931SOL     OW12691   1.633   2.783   1.702
 3931SOL    HW112692   1.717   2.733   1.726
 3931SOL    HW212693   1.616   2.774   1.604
 3932SOL     OW12694   1.720   5.963   3.993
 3932SOL    HW112695   1.627   5.932   3.971
 3932SOL    HW212696   1.728   5.975   4.092
 3933SOL     OW12697   2.096   4.894   0.437
 3933SOL    HW112698   2.127   4.866   0.346
 3933SOL    HW212699   2.113   4.819   0.502
 3934SOL     OW12700   0.680   1.439   2.686
 3934SOL    HW112701   0.775   1.466   2.679
 3934SOL    HW212702   0.669   1.376   2.763
 3935SOL     OW12703   6.145   3.448   6.346
 3935SOL    HW112704   6.212   3.381   6.377
 3935SOL    HW212705   6.076   3.403   6.289
 3936SOL     OW12706   6.806   5.379   5.287
 3936SOL    HW112707   6.732   5.317   5.314
 3936SOL    HW212708   6.888   5.326   5.269
 3937SOL     OW12709   0.033   6.083   2.612
 3937SOL    HW112710   0.120   6.067   2.659
 3937SOL    HW212711   6.999   5.999   2.615
 3938SOL     OW12712   6.594   3.902   3.468
 3938SOL    HW112713   6.687   3.918   3.435
 3938SOL    HW212714   6.568   3.807   3.450
 3939SOL     OW12715   0.741   1.068   2.465
 3939SOL    HW112716   0.799   1.150   2.454
 3939SOL    HW212717   0.660   1.078   2.407
 3940SOL     OW12718   3.207   4.815   1.747
 3940SOL    HW112719   3.283   4.871   1.780
 3940SOL    HW212720   3.146   4.793   1.823
 3941SOL     OW12721   5.889   6.560   4.327
 3941SOL    HW112722   5.954   6.503   4.377
 3941SOL    HW212723   5.893   6.654   4.360
 3942SOL     OW12724   1.008   6.234   6.379
 3942SOL    HW112725   1.076   6.250   6.308
 3942SOL    HW212726   0.991   6.319   6.428
 3943SOL     OW12727   1.376   3.034   1.634
 3943SOL    HW112728   1.442   2.986   1.692
 3943SOL    HW212729   1.363   3.127   1.668
 3944SOL     OW12730   6.692   2.341   6.396
 3944SOL    HW112731   6.632   2.275   6.441
 3944SOL    HW212732   6.665   2.351   6.300
 3945SOL     OW12733   0.964   1.105   3.230
 3945SOL    HW112734   1.033   1.112   3.159
 3945SOL    HW212735   0.938   1.009   3.242
 3946SOL     OW12736   0.768   2.878   0.558
 3946SOL    HW112737   0.778   2.813   0.633
 3946SOL    HW212738   0.677   2.867   0.517
 3947SOL     OW12739   6.030   5.790   0.974
 3947SOL    HW112740   5.931   5.781   0.967
 3947SOL    HW212741   6.067   5.710   1.022
 3948SOL     OW12742   1.676   2.378   5.734
 3948SOL    HW112743   1.614   2.304   5.761
 3948SOL    HW212744   1.770   2.348   5.741
 3949SOL     OW12745   6.287   6.595   2.195
 3949SOL    HW112746   6.236   6.681   2.193
 3949SOL    HW212747   6.245   6.530   2.132
 3950SOL     OW12748   3.583   4.312   1.259
 3950SOL    HW112749   3.644   4.260   1.199
 3950SOL    HW212750   3.510   4.353   1.205
 3951SOL     OW12751   0.352   1.556   5.550
 3951SOL    HW112752   0.447   1.563   5.521
 3951SOL    HW212753   0.345   1.494   5.628
 3952SOL     OW12754   6.433   2.562   5.267
 3952SOL    HW112755   6.397   2.489   5.324
 3952SOL    HW212756   6.407   2.651   5.306
 3953SOL     OW12757   3.712   4.431   6.503
 3953SOL    HW112758   3.759   4.343   6.501
 3953SOL    HW212759   3.618   4.419   6.470
 3954SOL     OW12760   0.667   3.591   5.143
 3954SOL    HW112761   0.693   3.682   5.113
 3954SOL    HW212762   0.582   3.596   5.196
 3955SOL     OW12763   5.091   5.577   6.887
 3955SOL    HW112764   5.170   5.637   6.901
 3955SOL    HW212765   5.122   5.484   6.869
 3956SOL     OW12766   0.175   2.600   6.038
 3956SOL    HW112767   0.222   2.615   6.125
 3956SOL    HW212768   0.181   2.504   6.013
 3957SOL     OW12769   2.126   6.958   4.139
 3957SOL    HW112770   2.147   6.968   4.041
 3957SOL    HW212771   2.084   6.869   4.155
 3958SOL     OW12772   6.340   6.233   6.147
 3958SOL    HW112773   6.343   6.320   6.098
 3958SOL    HW212774   6.383   6.162   6.091
 3959SOL     OW12775   3.300   5.001   6.917
 3959SOL    HW112776   3.236   4.959   6.853
 3959SOL    HW212777   3.249   5.060   6.980
 3960SOL     OW12778   3.752   3.173   0.139
 3960SOL    HW112779   3.721   3.078   0.133
 3960SOL    HW212780   3.675   3.231   0.166
 3961SOL     OW12781   4.737   1.187   1.647
 3961SOL    HW112782   4.744   1.170   1.549
 3961SOL    HW212783   4.790   1.119   1.697
 3962SOL     OW12784   0.702   6.852   6.593
 3962SOL    HW112785   0.712   6.783   6.665
 3962SOL    HW212786   0.665   6.936   6.632
 3963SOL     OW12787   4.975   5.657   4.220
 3963SOL    HW112788   4.988   5.681   4.316
 3963SOL    HW212789   4.909   5.582   4.213
 3964SOL     OW12790   5.123   5.914   5.697
 3964SOL    HW112791   5.126   5.828   5.747
 3964SOL    HW212792   5.034   5.925   5.654
 3965SOL     OW12793   3.256   4.056   6.884
 3965SOL    HW112794   3.235   4.142   6.930
 3965SOL    HW212795   3.335   4.013   6.928
 3966SOL     OW12796   6.465   4.397   5.127
 3966SOL    HW112797   6.383   4.430   5.173
 3966SOL    HW212798   6.542   4.395   5.191
 3967SOL     OW12799   0.631   6.170   5.843
 3967SOL    HW112800   0.621   6.269   5.851
 3967SOL    HW212801   0.725   6.148   5.817
 3968SOL     OW12802   5.248   0.956   2.617
 3968SOL    HW112803   5.174   0.966   2.684
 3968SOL    HW212804   5.215   0.901   2.540
 3969SOL     OW12805   0.791   4.904   2.893
 3969SOL    HW112806   0.804   4.995   2.853
 3969SOL    HW212807   0.827   4.905   2.987
 3970SOL     OW12808   4.636   4.741   3.276
 3970SOL    HW112809   4.645   4.664   3.340
 3970SOL    HW212810   4.719   4.748   3.221
 3971SOL     OW12811   2.170   5.911   3.536
 3971SOL    HW112812   2.113   5.965   3.474
 3971SOL    HW212813   2.154   5.942   3.630
 3972SOL     OW12814   0.397   6.607   0.749
 3972SOL    HW112815   0.446   6.543   0.808
 3972SOL    HW212816   0.323   6.650   0.801
 3973SOL     OW12817   3.201   4.104   4.464
 3973SOL    HW112818   3.278   4.132   4.522
 3973SOL    HW212819   3.230   4.101   4.369
 3974SOL     OW12820   6.713   0.836   6.148
 3974SOL    HW112821   6.630   0.784   6.126
 3974SOL    HW212822   6.787   0.809   6.088
 3975SOL     OW12823   6.535   1.593   6.470
 3975SOL    HW112824   6.545   1.683   6.512
 3975SOL    HW212825   6.442   1.583   6.435
 3976SOL     OW12826   1.348   3.952   0.891
 3976SOL    HW112827   1.407   3.901   0.828
 3976SOL    HW212828   1.340   3.901   0.977
 3977SOL     OW12829   2.763   6.197   6.300
 3977SOL    HW112830   2.862   6.198   6.306
 3977SOL    HW212831   2.725   6.168   6.389
 3978SOL     OW12832   6.021   2.011   5.674
 3978SOL    HW112833   6.064   2.040   5.588
 3978SOL    HW212834   5.968   2.087   5.711
 3979SOL     OW12835   0.931   0.061   2.073
 3979SOL    HW112836   1.023   0.082   2.038
 3979SOL    HW212837   0.931   6.991   2.115
 3980SOL     OW12838   4.840   3.184   4.339
 3980SOL    HW112839   4.843   3.265   4.397
 3980SOL    HW212840   4.845   3.102   4.396
 3981SOL     OW12841   6.704   1.971   0.674
 3981SOL    HW112842   6.621   1.953   0.621
 3981SOL    HW212843   6.720   2.070   0.679
 3982SOL     OW12844   2.751   2.026   3.992
 3982SOL    HW112845   2.840   2.070   4.009
 3982SOL    HW212846   2.735   1.957   4.063
 3983SOL     OW12847   2.942   6.645   4.120
 3983SOL    HW112848   2.981   6.730   4.156
 3983SOL    HW212849   2.994   6.567   4.155
 3984SOL     OW12850   1.654   6.371   2.063
 3984SOL    HW112851   1.745   6.412   2.058
 3984SOL    HW212852   1.586   6.433   2.025
 3985SOL     OW12853   2.152   3.496   0.366
 3985SOL    HW112854   2.208   3.493   0.283
 3985SOL    HW212855   2.173   3.416   0.423
 3986SOL     OW12856   0.094   1.820   1.387
 3986SOL    HW112857   0.085   1.919   1.389
 3986SOL    HW212858   0.059   1.782   1.472
 3987SOL     OW12859   1.940   5.121   6.222
 3987SOL    HW112860   1.971   5.042   6.170
 3987SOL    HW212861   1.840   5.119   6.230
 3988SOL     OW12862   4.109   2.796   0.352
 3988SOL    HW112863   4.010   2.798   0.338
 3988SOL    HW212864   4.130   2.752   0.439
 3989SOL     OW12865   6.234   6.632   0.133
 3989SOL    HW112866   6.197   6.691   0.061
 3989SOL    HW212867   6.191   6.543   0.128
 3990SOL     OW12868   0.811   2.907   4.092
 3990SOL    HW112869   0.820   3.004   4.070
 3990SOL    HW212870   0.778   2.857   4.012
 3991SOL     OW12871   0.724   2.276   3.715
 3991SOL    HW112872   0.679   2.187   3.721
 3991SOL    HW212873   0.792   2.284   3.788
 3992SOL     OW12874   4.275   3.471   6.529
 3992SOL    HW112875   4.282   3.519   6.616
 3992SOL    HW212876   4.200   3.510   6.475
 3993SOL     OW12877   3.049   2.233   2.778
 3993SOL    HW112878   3.041   2.198   2.685
 3993SOL    HW212879   2.966   2.284   2.801
 3994SOL     OW12880   2.420   2.743   4.145
 3994SOL    HW112881   2.477   2.824   4.159
 3994SOL    HW212882   2.430   2.681   4.223
 3995SOL     OW12883   2.453   4.404   3.629
 3995SOL    HW112884   2.518   4.431   3.558
 3995SOL    HW212885   2.383   4.344   3.590
 3996SOL     OW12886   0.812   0.700   3.843
 3996SOL    HW112887   0.741   0.708   3.774
 3996SOL    HW212888   0.819   0.785   3.895
 3997SOL     OW12889   5.156   3.763   3.127
 3997SOL    HW112890   5.219   3.748   3.051
 3997SOL    HW212891   5.178   3.701   3.202
 3998SOL     OW12892   6.756   2.022   2.843
 3998SOL    HW112893   6.804   2.002   2.757
 3998SOL    HW212894   6.680   1.958   2.854
 3999SOL     OW12895   5.994   3.693   2.536
 3999SOL    HW112896   5.945   3.706   2.622
 3999SOL    HW212897   6.022   3.782   2.500
 4000SOL     OW12898   2.602   5.388   2.638
 4000SOL    HW112899   2.563   5.476   2.665
 4000SOL    HW212900   2.696   5.381   2.673
 4001SOL     OW12901   2.725   3.909   5.703
 4001SOL    HW112902   2.681   3.820   5.687
 4001SOL    HW212903   2.691   3.975   5.636
 4002SOL     OW12904   3.780   3.298   4.863
 4002SOL    HW112905   3.697   3.250   4.832
 4002SOL    HW212906   3.852   3.286   4.794
 4003SOL     OW12907   2.958   1.432   6.219
 4003SOL    HW112908   3.041   1.463   6.172
 4003SOL    HW212909   2.980   1.413   6.315
 4004SOL     OW12910   6.831   3.467   3.038
 4004SOL    HW112911   6.879   3.380   3.047
 4004SOL    HW212912   6.862   3.530   3.109
 4005SOL     OW12913   4.212   3.746   0.612
 4005SOL    HW112914   4.293   3.765   0.667
 4005SOL    HW212915   4.132   3.789   0.654
 4006SOL     OW12916   5.185   5.375   2.262
 4006SOL    HW112917   5.132   5.299   2.226
 4006SOL    HW212918   5.221   5.350   2.352
 4007SOL     OW12919   0.789   2.030   2.921
 4007SOL    HW112920   0.721   1.980   2.974
 4007SOL    HW212921   0.815   2.113   2.970
 4008SOL     OW12922   2.789   0.266   0.097
 4008SOL    HW112923   2.700   0.305   0.073
 4008SOL    HW212924   2.825   0.313   0.178
 4009SOL     OW12925   4.727   1.368   1.230
 4009SOL    HW112926   4.717   1.270   1.247
 4009SOL    HW212927   4.693   1.419   1.309
 4010SOL     OW12928   3.819   4.753   1.185
 4010SOL    HW112929   3.830   4.768   1.087
 4010SOL    HW212930   3.908   4.765   1.230
 4011SOL     OW12931   6.781   6.016   0.897
 4011SOL    HW112932   6.876   5.988   0.906
 4011SOL    HW212933   6.732   5.948   0.842
 4012SOL     OW12934   4.463   0.025   2.154
 4012SOL    HW112935   4.549   0.059   2.192
 4012SOL    HW212936   4.481   6.996   2.069
 4013SOL     OW12937   1.368   0.375   0.633
 4013SOL    HW112938   1.303   0.351   0.705
 4013SOL    HW212939   1.430   0.446   0.666
 4014SOL     OW12940   3.436   6.029   3.662
 4014SOL    HW112941   3.506   6.016   3.592
 4014SOL    HW212942   3.376   6.104   3.635
 4015SOL     OW12943   4.409   4.798   6.125
 4015SOL    HW112944   4.322   4.831   6.161
 4015SOL    HW212945   4.439   4.718   6.177
 4016SOL     OW12946   2.910   5.296   0.173
 4016SOL    HW112947   2.989   5.355   0.182
 4016SOL    HW212948   2.880   5.266   0.264
 4017SOL     OW12949   0.260   4.988   5.233
 4017SOL    HW112950   0.182   5.009   5.173
 4017SOL    HW212951   0.339   5.042   5.206
 4018SOL     OW12952   4.177   6.575   2.014
 4018SOL    HW112953   4.238   6.643   2.054
 4018SOL    HW212954   4.218   6.485   2.022
 4019SOL     OW12955   5.138   3.239   2.095
 4019SOL    HW112956   5.045   3.227   2.062
 4019SOL    HW212957   5.202   3.195   2.032
 4020SOL     OW12958   6.992   3.909   4.794
 4020SOL    HW112959   6.916   3.969   4.821
 4020SOL    HW212960   6.958   3.816   4.779
 4021SOL     OW12961   3.277   3.586   5.644
 4021SOL    HW112962   3.281   3.592   5.544
 4021SOL    HW212963   3.310   3.497   5.674
 4022SOL     OW12964   3.966   6.622   0.486
 4022SOL    HW112965   4.020   6.692   0.440
 4022SOL    HW212966   3.875   6.617   0.444
 4023SOL     OW12967   6.964   1.317   5.581
 4023SOL    HW112968   0.037   1.280   5.587
 4023SOL    HW212969   6.930   1.305   5.488
 4024SOL     OW12970   1.817   5.102   4.420
 4024SOL    HW112971   1.815   5.192   4.376
 4024SOL    HW212972   1.824   5.113   4.519
 4025SOL     OW12973   0.956   6.032   4.289
 4025SOL    HW112974   0.969   6.083   4.374
 4025SOL    HW212975   0.966   6.094   4.211
 4026SOL     OW12976   6.193   6.305   5.110
 4026SOL    HW112977   6.133   6.349   5.176
 4026SOL    HW212978   6.216   6.369   5.037
 4027SOL     OW12979   2.507   1.699   6.626
 4027SOL    HW112980   2.511   1.657   6.716
 4027SOL    HW212981   2.418   1.743   6.613
 4028SOL     OW12982   4.429   1.158   3.553
 4028SOL    HW112983   4.523   1.173   3.521
 4028SOL    HW212984   4.368   1.150   3.475
 4029SOL     OW12985   2.668   4.353   5.968
 4029SOL    HW112986   2.759   4.328   6.001
 4029SOL    HW212987   2.674   4.436   5.912
 4030SOL     OW12988   6.741   1.046   1.352
 4030SOL    HW112989   6.739   1.104   1.433
 4030SOL    HW212990   6.647   1.027   1.323
 4031SOL     OW12991   5.354   6.721   3.034
 4031SOL    HW112992   5.411   6.768   3.102
 4031SOL    HW212993   5.404   6.715   2.947
 4032SOL     OW12994   0.106   0.161   2.748
 4032SOL    HW112995   0.127   0.147   2.844
 4032SOL    HW212996   0.093   0.259   2.730
 4033SOL     OW12997   2.367   2.049   2.545
 4033SOL    HW112998   2.382   2.030   2.642
 4033SOL    HW212999   2.331   1.967   2.501
 4034SOL     OW13000   6.180   2.098   5.449
 4034SOL    HW113001   6.205   2.141   5.362
 4034SOL    HW213002   6.258   2.102   5.511
 4035SOL     OW13003   6.416   1.227   1.547
 4035SOL    HW113004   6.478   1.259   1.618
 4035SOL    HW213005   6.364   1.305   1.511
 4036SOL     OW13006   4.037   4.859   2.260
 4036SOL    HW113007   3.997   4.848   2.351
 4036SOL    HW213008   4.108   4.930   2.264
 4037SOL     OW13009   2.207   1.668   6.049
 4037SOL    HW113010   2.243   1.712   6.131
 4037SOL    HW213011   2.283   1.636   5.992
 4038SOL     OW13012   4.735   2.883   0.064
 4038SOL    HW113013   4.748   2.877   6.985
 4038SOL    HW213014   4.641   2.856   0.086
 4039SOL     OW13015   4.539   5.677   1.630
 4039SOL    HW113016   4.559   5.604   1.695
 4039SOL    HW213017   4.592   5.758   1.654
 4040SOL     OW13018   2.706   6.063   4.497
 4040SOL    HW113019   2.663   6.073   4.407
 4040SOL    HW213020   2.805   6.078   4.489
 4041SOL     OW13021   2.260   6.286   1.079
 4041SOL    HW113022   2.308   6.363   1.037
 4041SOL    HW213023   2.214   6.316   1.163
 4042SOL     OW13024   5.927   6.292   3.694
 4042SOL    HW113025   5.877   6.379   3.697
 4042SOL    HW213026   6.024   6.310   3.710
 4043SOL     OW13027   6.916   2.109   6.558
 4043SOL    HW113028   6.870   2.103   6.646
 4043SOL    HW213029   6.996   2.169   6.566
 4044SOL     OW13030   5.272   5.488   2.977
 4044SOL    HW113031   5.362   5.456   2.948
 4044SOL    HW213032   5.274   5.512   3.074
 4045SOL     OW13033   3.938   6.361   5.622
 4045SOL    HW113034   3.914   6.425   5.694
 4045SOL    HW213035   3.860   6.301   5.602
 4046SOL     OW13036   1.054   2.102   2.582
 4046SOL    HW113037   0.964   2.146   2.587
 4046SOL    HW213038   1.110   2.134   2.658
 4047SOL     OW13039   2.221   2.601   6.790
 4047SOL    HW113040   2.144   2.559   6.838
 4047SOL    HW213041   2.247   2.543   6.713
 4048SOL     OW13042   5.414   1.176   1.972
 4048SOL    HW113043   5.356   1.257   1.964
 4048SOL    HW213044   5.510   1.205   1.983
 4049SOL     OW13045   4.615   5.712   6.401
 4049SOL    HW113046   4.646   5.771   6.475
 4049SOL    HW213047   4.532   5.749   6.361
 4050SOL     OW13048   0.759   6.317   1.539
 4050SOL    HW113049   0.771   6.384   1.467
 4050SOL    HW213050   0.845   6.304   1.588
 4051SOL     OW13051   4.647   1.208   6.451
 4051SOL    HW113052   4.709   1.263   6.395
 4051SOL    HW213053   4.599   1.142   6.393
 4052SOL     OW13054   5.720   2.389   3.022
 4052SOL    HW113055   5.806   2.340   3.029
 4052SOL    HW213056   5.732   2.470   2.964
 4053SOL     OW13057   2.381   6.283   4.493
 4053SOL    HW113058   2.363   6.251   4.586
 4053SOL    HW213059   2.459   6.346   4.494
 4054SOL     OW13060   5.394   3.931   0.865
 4054SOL    HW113061   5.331   3.871   0.916
 4054SOL    HW213062   5.408   3.893   0.774
 4055SOL     OW13063   2.588   4.639   0.935
 4055SOL    HW113064   2.612   4.610   1.028
 4055SOL    HW213065   2.503   4.691   0.937
 4056SOL     OW13066   5.684   3.567   1.206
 4056SOL    HW113067   5.731   3.516   1.134
 4056SOL    HW213068   5.661   3.659   1.172
 4057SOL     OW13069   0.093   3.067   0.147
 4057SOL    HW113070   0.054   3.030   0.063
 4057SOL    HW213071   0.139   2.993   0.197
 4058SOL     OW13072   3.091   6.462   4.759
 4058SOL    HW113073   3.013   6.515   4.726
 4058SOL    HW213074   3.158   6.523   4.801
 4059SOL     OW13075   7.001   1.875   3.126
 4059SOL    HW113076   6.903   1.890   3.122
 4059SOL    HW213077   7.020   1.796   3.185
 4060SOL     OW13078   5.361   4.749   5.709
 4060SOL    HW113079   5.451   4.719   5.678
 4060SOL    HW213080   5.366   4.845   5.738
 4061SOL     OW13081   2.740   4.806   2.632
 4061SOL    HW113082   2.707   4.748   2.558
 4061SOL    HW213083   2.691   4.893   2.630
 4062SOL     OW13084   2.465   0.213   2.601
 4062SOL    HW113085   2.507   0.173   2.683
 4062SOL    HW213086   2.483   0.311   2.599
 4063SOL     OW13087   6.123   0.173   0.780
 4063SOL    HW113088   6.036   0.214   0.752
 4063SOL    HW213089   6.178   0.153   0.698
 4064SOL     OW13090   2.717   1.661   4.411
 4064SOL    HW113091   2.636   1.666   4.470
 4064SOL    HW213092   2.791   1.716   4.452
 4065SOL     OW13093   0.926   7.001   1.528
 4065SOL    HW113094   0.859   0.054   1.543
 4065SOL    HW213095   0.959   7.004   1.434
 4066SOL     OW13096   6.719   4.627   2.942
 4066SOL    HW113097   6.690   4.534   2.920
 4066SOL    HW213098   6.743   4.633   3.039
 4067SOL     OW13099   5.746   4.107   3.261
 4067SOL    HW113100   5.652   4.119   3.229
 4067SOL    HW213101   5.755   4.147   3.352
 4068SOL     OW13102   2.266   2.058   4.621
 4068SOL    HW113103   2.264   2.142   4.675
 4068SOL    HW213104   2.320   1.989   4.669
 4069SOL     OW13105   4.041   5.152   6.891
 4069SOL    HW113106   4.082   5.074   6.845
 4069SOL    HW213107   4.083   5.237   6.859
 4070SOL     OW13108   0.580   2.619   2.903
 4070SOL    HW113109   0.537   2.642   2.991
 4070SOL    HW213110   0.669   2.577   2.919
 4071SOL     OW13111   1.221   1.466   4.712
 4071SOL    HW113112   1.226   1.392   4.644
 4071SOL    HW213113   1.127   1.497   4.719
 4072SOL     OW13114   0.711   5.664   4.601
 4072SOL    HW113115   0.664   5.588   4.556
 4072SOL    HW213116   0.645   5.737   4.622
 4073SOL     OW13117   2.584   6.040   6.162
 4073SOL    HW113118   2.583   6.052   6.062
 4073SOL    HW213119   2.652   6.101   6.202
 4074SOL     OW13120   0.405   4.692   1.437
 4074SOL    HW113121   0.496   4.665   1.407
 4074SOL    HW213122   0.375   4.773   1.387
 4075SOL     OW13123   4.962   1.956   1.110
 4075SOL    HW113124   4.930   1.931   1.202
 4075SOL    HW213125   4.895   2.016   1.067
 4076SOL     OW13126   2.228   3.241   6.552
 4076SOL    HW113127   2.203   3.292   6.470
 4076SOL    HW213128   2.202   3.293   6.633
 4077SOL     OW13129   4.102   2.212   0.146
 4077SOL    HW113130   4.121   2.156   0.065
 4077SOL    HW213131   4.003   2.214   0.163
 4078SOL     OW13132   2.196   5.361   2.253
 4078SOL    HW113133   2.190   5.291   2.182
 4078SOL    HW213134   2.272   5.422   2.234
 4079SOL     OW13135   2.036   1.244   3.257
 4079SOL    HW113136   2.121   1.257   3.308
 4079SOL    HW213137   2.054   1.255   3.160
 4080SOL     OW13138   4.826   2.642   6.373
 4080SOL    HW113139   4.853   2.700   6.296
 4080SOL    HW213140   4.868   2.678   6.457
 4081SOL     OW13141   1.493   2.988   3.686
 4081SOL    HW113142   1.549   2.910   3.657
 4081SOL    HW213143   1.534   3.073   3.651
 4082SOL     OW13144   0.995   4.342   0.550
 4082SOL    HW113145   1.048   4.386   0.623
 4082SOL    HW213146   1.033   4.252   0.531
 4083SOL     OW13147   6.622   3.299   2.556
 4083SOL    HW113148   6.565   3.240   2.500
 4083SOL    HW213149   6.675   3.360   2.497
 4084SOL     OW13150   5.846   2.323   3.988
 4084SOL    HW113151   5.889   2.315   4.077
 4084SOL    HW213152   5.812   2.416   3.974
 4085SOL     OW13153   3.567   5.400   1.296
 4085SOL    HW113154   3.531   5.445   1.378
 4085SOL    HW213155   3.588   5.469   1.227
 4086SOL     OW13156   2.144   5.569   1.717
 4086SOL    HW113157   2.117   5.491   1.660
 4086SOL    HW213158   2.222   5.542   1.774
 4087SOL     OW13159   3.129   2.195   3.463
 4087SOL    HW113160   3.078   2.240   3.390
 4087SOL    HW213161   3.217   2.164   3.428
 4088SOL     OW13162   0.653   1.994   0.771
 4088SOL    HW113163   0.624   1.898   0.771
 4088SOL    HW213164   0.654   2.027   0.866
 4089SOL     OW13165   6.230   6.322   3.759
 4089SOL    HW113166   6.195   6.273   3.839
 4089SOL    HW213167   6.219   6.421   3.773
 4090SOL     OW13168   1.712   4.207   6.015
 4090SOL    HW113169   1.637   4.141   6.022
 4090SOL    HW213170   1.678   4.299   6.033
 4091SOL     OW13171   6.512   6.280   0.347
 4091SOL    HW113172   6.524   6.198   0.292
 4091SOL    HW213173   6.421   6.279   0.388
 4092SOL     OW13174   6.582   3.113   5.087
 4092SOL    HW113175   6.601   3.015   5.076
 4092SOL    HW213176   6.572   3.133   5.185
 4093SOL     OW13177   4.724   0.472   3.223
 4093SOL    HW113178   4.700   0.456   3.319
 4093SOL    HW213179   4.813   0.433   3.204
 4094SOL     OW13180   2.282   5.956   4.589
 4094SOL    HW113181   2.313   6.051   4.588
 4094SOL    HW213182   2.266   5.926   4.494
 4095SOL     OW13183   0.958   3.521   6.984
 4095SOL    HW113184   1.044   3.499   6.939
 4095SOL    HW213185   0.912   3.594   6.935
 4096SOL     OW13186   4.509   5.473   0.549
 4096SOL    HW113187   4.584   5.469   0.483
 4096SOL    HW213188   4.525   5.547   0.613
 4097SOL     OW13189   3.794   4.252   6.167
 4097SOL    HW113190   3.818   4.334   6.115
 4097SOL    HW213191   3.713   4.210   6.126
 4098SOL     OW13192   1.126   3.055   1.422
 4098SOL    HW113193   1.209   3.057   1.478
 4098SOL    HW213194   1.049   3.025   1.478
 4099SOL     OW13195   2.909   4.771   1.048
 4099SOL    HW113196   2.892   4.706   0.973
 4099SOL    HW213197   2.822   4.794   1.092
 4100SOL     OW13198   6.428   5.479   5.201
 4100SOL    HW113199   6.420   5.517   5.293
 4100SOL    HW213200   6.514   5.509   5.160
 4101SOL     OW13201   6.059   0.954   0.416
 4101SOL    HW113202   6.097   1.039   0.450
 4101SOL    HW213203   5.992   0.918   0.482
 4102SOL     OW13204   6.428   0.654   0.773
 4102SOL    HW113205   6.436   0.654   0.873
 4102SOL    HW213206   6.514   0.620   0.733
 4103SOL     OW13207   0.479   0.680   0.873
 4103SOL    HW113208   0.461   0.616   0.947
 4103SOL    HW213209   0.569   0.662   0.834
 4104SOL     OW13210   0.810   5.073   2.379
 4104SOL    HW113211   0.752   5.088   2.299
 4104SOL    HW213212   0.901   5.112   2.362
 4105SOL     OW13213   3.743   5.853   1.422
 4105SOL    HW113214   3.776   5.780   1.362
 4105SOL    HW213215   3.762   5.942   1.380
 4106SOL     OW13216   6.784   1.923   4.399
 4106SOL    HW113217   6.792   1.851   4.330
 4106SOL    HW213218   6.733   2.000   4.362
 4107SOL     OW13219   1.777   6.320   1.063
 4107SOL    HW113220   1.696   6.277   1.102
 4107SOL    HW213221   1.847   6.250   1.047
 4108SOL     OW13222   0.171   4.304   5.947
 4108SOL    HW113223   0.168   4.364   6.027
 4108SOL    HW213224   0.237   4.340   5.881
 4109SOL     OW13225   4.474   6.295   5.042
 4109SOL    HW113226   4.519   6.318   4.956
 4109SOL    HW213227   4.492   6.200   5.065
 4110SOL     OW13228   4.308   2.413   6.632
 4110SOL    HW113229   4.242   2.363   6.689
 4110SOL    HW213230   4.287   2.396   6.536
 4111SOL     OW13231   3.706   3.118   6.451
 4111SOL    HW113232   3.792   3.168   6.439
 4111SOL    HW213233   3.641   3.146   6.380
 4112SOL     OW13234   4.671   0.246   5.338
 4112SOL    HW113235   4.586   0.256   5.287
 4112SOL    HW213236   4.731   0.324   5.318
 4113SOL     OW13237   4.824   6.366   4.429
 4113SOL    HW113238   4.782   6.300   4.366
 4113SOL    HW213239   4.756   6.397   4.495
 4114SOL     OW13240   3.402   2.070   4.513
 4114SOL    HW113241   3.464   2.012   4.566
 4114SOL    HW213242   3.441   2.085   4.422
 4115SOL     OW13243   3.876   5.882   2.304
 4115SOL    HW113244   3.955   5.881   2.243
 4115SOL    HW213245   3.818   5.802   2.284
 4116SOL     OW13246   3.722   2.206   1.600
 4116SOL    HW113247   3.736   2.237   1.694
 4116SOL    HW213248   3.644   2.144   1.596
 4117SOL     OW13249   0.673   5.460   2.085
 4117SOL    HW113250   0.638   5.552   2.100
 4117SOL    HW213251   0.605   5.393   2.113
 4118SOL     OW13252   2.951   6.652   0.124
 4118SOL    HW113253   2.922   6.691   0.212
 4118SOL    HW213254   3.007   6.719   0.075
 4119SOL     OW13255   4.192   2.157   3.775
 4119SOL    HW113256   4.113   2.125   3.722
 4119SOL    HW213257   4.239   2.229   3.724
 4120SOL     OW13258   4.401   0.380   0.356
 4120SOL    HW113259   4.415   0.298   0.300
 4120SOL    HW213260   4.413   0.358   0.452
 4121SOL     OW13261   5.714   1.410   5.237
 4121SOL    HW113262   5.657   1.451   5.167
 4121SOL    HW213263   5.796   1.466   5.251
 4122SOL     OW13264   0.977   5.791   5.554
 4122SOL    HW113265   0.918   5.833   5.623
 4122SOL    HW213266   0.926   5.723   5.502
 4123SOL     OW13267   4.455   4.660   5.709
 4123SOL    HW113268   4.456   4.759   5.695
 4123SOL    HW213269   4.513   4.616   5.640
 4124SOL     OW13270   6.525   5.282   6.593
 4124SOL    HW113271   6.623   5.294   6.574
 4124SOL    HW213272   6.474   5.285   6.507
 4125SOL     OW13273   4.809   1.554   2.402
 4125SOL    HW113274   4.898   1.509   2.412
 4125SOL    HW213275   4.782   1.594   2.489
 4126SOL     OW13276   1.159   3.553   3.534
 4126SOL    HW113277   1.230   3.609   3.576
 4126SOL    HW213278   1.177   3.543   3.436
 4127SOL     OW13279   4.772   4.440   4.823
 4127SOL    HW113280   4.701   4.486   4.877
 4127SOL    HW213281   4.753   4.453   4.726
 4128SOL     OW13282   1.534   3.419   1.799
 4128SOL    HW113283   1.540   3.449   1.895
 4128SOL    HW213284   1.624   3.387   1.769
 4129SOL     OW13285   4.873   1.438   6.810
 4129SOL    HW113286   4.921   1.351   6.819
 4129SOL    HW213287   4.936   1.513   6.831
 4130SOL     OW13288   0.160   2.894   5.708
 4130SOL    HW113289   0.140   2.970   5.769
 4130SOL    HW213290   0.113   2.908   5.621
 4131SOL     OW13291   1.322   6.060   4.077
 4131SOL    HW113292   1.276   6.001   4.143
 4131SOL    HW213293   1.363   6.004   4.005
 4132SOL     OW13294   4.989   4.355   3.613
 4132SOL    HW113295   4.893   4.328   3.619
 4132SOL    HW213296   4.996   4.444   3.567
 4133SOL     OW13297   2.827   6.891   1.651
 4133SOL    HW113298   2.796   6.880   1.746
 4133SOL    HW213299   2.766   6.840   1.590
 4134SOL     OW13300   1.921   2.400   0.374
 4134SOL    HW113301   1.829   2.435   0.391
 4134SOL    HW213302   1.951   2.345   0.452
 4135SOL     OW13303   2.063   1.232   2.300
 4135SOL    HW113304   2.056   1.220   2.201
 4135SOL    HW213305   2.119   1.160   2.339
 4136SOL     OW13306   1.717   1.927   2.618
 4136SOL    HW113307   1.670   1.843   2.643
 4136SOL    HW213308   1.787   1.947   2.687
 4137SOL     OW13309   1.539   4.385   1.061
 4137SOL    HW113310   1.533   4.295   1.017
 4137SOL    HW213311   1.492   4.453   1.005
 4138SOL     OW13312   3.834   5.261   3.071
 4138SOL    HW113313   3.836   5.164   3.096
 4138SOL    HW213314   3.883   5.314   3.139
 4139SOL     OW13315   2.536   2.566   4.623
 4139SOL    HW113316   2.629   2.597   4.641
 4139SOL    HW213317   2.537   2.487   4.562
 4140SOL     OW13318   2.882   0.788   5.128
 4140SOL    HW113319   2.976   0.816   5.146
 4140SOL    HW213320   2.826   0.869   5.110
 4141SOL     OW13321   5.311   6.759   1.749
 4141SOL    HW113322   5.341   6.677   1.701
 4141SOL    HW213323   5.223   6.742   1.792
 4142SOL     OW13324   6.447   5.616   0.734
 4142SOL    HW113325   6.464   5.711   0.762
 4142SOL    HW213326   6.358   5.587   0.770
 4143SOL     OW13327   0.287   2.844   0.223
 4143SOL    HW113328   0.277   2.813   0.128
 4143SOL    HW213329   0.249   2.775   0.284
 4144SOL     OW13330   5.054   3.266   6.666
 4144SOL    HW113331   4.954   3.259   6.672
 4144SOL    HW213332   5.094   3.175   6.672
 4145SOL     OW13333   6.876   5.781   1.551
 4145SOL    HW113334   6.780   5.807   1.541
 4145SOL    HW213335   6.916   5.832   1.627
 4146SOL     OW13336   0.247   1.121   5.791
 4146SOL    HW113337   0.172   1.065   5.755
 4146SOL    HW213338   0.328   1.065   5.803
 4147SOL     OW13339   4.531   2.353   5.493
 4147SOL    HW113340   4.474   2.420   5.446
 4147SOL    HW213341   4.625   2.385   5.495
 4148SOL     OW13342   1.055   7.004   4.222
 4148SOL    HW113343   1.011   7.000   4.312
 4148SOL    HW213344   1.015   0.060   4.169
 4149SOL     OW13345   0.518   2.560   0.643
 4149SOL    HW113346   0.526   2.480   0.703
 4149SOL    HW213347   0.495   2.641   0.698
 4150SOL     OW13348   0.116   1.014   5.559
 4150SOL    HW113349   0.021   0.983   5.547
 4150SOL    HW213350   0.166   0.999   5.474
 4151SOL     OW13351   4.347   6.614   6.104
 4151SOL    HW113352   4.379   6.540   6.045
 4151SOL    HW213353   4.338   6.580   6.198
 4152SOL     OW13354   3.033   6.315   0.725
 4152SOL    HW113355   3.097   6.246   0.691
 4152SOL    HW213356   3.083   6.383   0.779
 4153SOL     OW13357   4.429   4.970   6.697
 4153SOL    HW113358   4.519   4.926   6.692
 4153SOL    HW213359   4.409   4.994   6.792
 4154SOL     OW13360   0.354   4.397   4.912
 4154SOL    HW113361   0.317   4.329   4.848
 4154SOL    HW213362   0.451   4.380   4.927
 4155SOL     OW13363   6.413   2.209   3.155
 4155SOL    HW113364   6.423   2.157   3.240
 4155SOL    HW213365   6.337   2.171   3.102
 4156SOL     OW13366   5.477   6.571   4.991
 4156SOL    HW113367   5.448   6.596   5.084
 4156SOL    HW213368   5.426   6.490   4.961
 4157SOL     OW13369   4.251   6.669   3.584
 4157SOL    HW113370   4.251   6.743   3.652
 4157SOL    HW213371   4.281   6.584   3.627
 4158SOL     OW13372   1.831   5.341   4.317
 4158SOL    HW113373   1.737   5.336   4.284
 4158SOL    HW213374   1.841   5.423   4.375
 4159SOL     OW13375   1.930   2.948   3.684
 4159SOL    HW113376   1.909   2.941   3.587
 4159SOL    HW213377   1.890   3.033   3.721
 4160SOL     OW13378   0.007   0.855   0.985
 4160SOL    HW113379   0.046   0.763   0.972
 4160SOL    HW213380   6.996   0.865   1.079
 4161SOL     OW13381   1.697   6.826   6.162
 4161SOL    HW113382   1.698   6.807   6.260
 4161SOL    HW213383   1.644   6.755   6.115
 4162SOL     OW13384   6.067   6.433   5.610
 4162SOL    HW113385   6.081   6.376   5.529
 4162SOL    HW213386   5.976   6.475   5.606
 4163SOL     OW13387   6.043   0.101   3.282
 4163SOL    HW113388   6.121   0.157   3.256
 4163SOL    HW213389   6.043   0.016   3.229
 4164SOL     OW13390   1.049   6.587   6.238
 4164SOL    HW113391   1.016   6.578   6.332
 4164SOL    HW213392   1.148   6.580   6.237
 4165SOL     OW13393   4.669   0.290   0.247
 4165SOL    HW113394   4.655   0.374   0.194
 4165SOL    HW213395   4.752   0.299   0.302
 4166SOL     OW13396   6.242   3.423   1.055
 4166SOL    HW113397   6.216   3.330   1.028
 4166SOL    HW213398   6.175   3.459   1.120
 4167SOL     OW13399   1.760   4.245   0.531
 4167SOL    HW113400   1.836   4.235   0.595
 4167SOL    HW213401   1.767   4.333   0.484
 4168SOL     OW13402   0.143   5.380   1.261
 4168SOL    HW113403   0.195   5.438   1.199
 4168SOL    HW213404   0.048   5.412   1.264
 4169SOL     OW13405   5.675   3.485   3.501
 4169SOL    HW113406   5.662   3.578   3.469
 4169SOL    HW213407   5.600   3.427   3.469
 4170SOL     OW13408   2.886   3.205   5.105
 4170SOL    HW113409   2.923   3.117   5.136
 4170SOL    HW213410   2.800   3.223   5.152
 4171SOL     OW13411   5.513   4.502   1.585
 4171SOL    HW113412   5.441   4.512   1.517
 4171SOL    HW213413   5.561   4.415   1.570
 4172SOL     OW13414   0.247   1.975   6.567
 4172SOL    HW113415   0.235   1.944   6.473
 4172SOL    HW213416   0.158   1.987   6.610
 4173SOL     OW13417   6.037   3.194   5.027
 4173SOL    HW113418   6.021   3.174   4.930
 4173SOL    HW213419   5.949   3.204   5.073
 4174SOL     OW13420   5.539   0.475   4.301
 4174SOL    HW113421   5.505   0.491   4.393
 4174SOL    HW213422   5.569   0.561   4.260
 4175SOL     OW13423   2.858   5.855   4.305
 4175SOL    HW113424   2.910   5.908   4.372
 4175SOL    HW213425   2.917   5.784   4.267
 4176SOL     OW13426   2.638   6.590   1.981
 4176SOL    HW113427   2.671   6.498   1.961
 4176SOL    HW213428   2.620   6.599   2.079
 4177SOL     OW13429   6.847   4.417   4.875
 4177SOL    HW113430   6.858   4.347   4.946
 4177SOL    HW213431   6.937   4.447   4.843
 4178SOL     OW13432   4.224   0.678   4.140
 4178SOL    HW113433   4.144   0.737   4.142
 4178SOL    HW213434   4.224   0.623   4.057
 4179SOL     OW13435   5.361   3.044   3.913
 4179SOL    HW113436   5.328   2.978   3.845
 4179SOL    HW213437   5.294   3.117   3.925
 4180SOL     OW13438   5.459   3.220   1.979
 4180SOL    HW113439   5.469   3.154   1.904
 4180SOL    HW213440   5.452   3.312   1.942
 4181SOL     OW13441   2.059   2.304   5.927
 4181SOL    HW113442   2.003   2.352   5.994
 4181SOL    HW213443   2.155   2.311   5.953
 4182SOL     OW13444   0.722   6.299   2.679
 4182SOL    HW113445   0.713   6.390   2.718
 4182SOL    HW213446   0.731   6.232   2.752
 4183SOL     OW13447   3.739   0.744   1.266
 4183SOL    HW113448   3.669   0.677   1.290
 4183SOL    HW213449   3.706   0.836   1.289
 4184SOL     OW13450   4.854   5.173   1.215
 4184SOL    HW113451   4.861   5.177   1.115
 4184SOL    HW213452   4.856   5.077   1.245
 4185SOL     OW13453   0.832   5.432   2.871
 4185SOL    HW113454   0.798   5.513   2.823
 4185SOL    HW213455   0.763   5.402   2.937
 4186SOL     OW13456   1.554   4.600   0.363
 4186SOL    HW113457   1.641   4.552   0.363
 4186SOL    HW213458   1.566   4.692   0.400
 4187SOL     OW13459   3.832   3.083   5.859
 4187SOL    HW113460   3.774   3.159   5.830
 4187SOL    HW213461   3.902   3.066   5.791
 4188SOL     OW13462   4.871   6.710   3.768
 4188SOL    HW113463   4.971   6.719   3.759
 4188SOL    HW213464   4.850   6.629   3.823
 4189SOL     OW13465   3.098   1.218   4.535
 4189SOL    HW113466   3.102   1.207   4.634
 4189SOL    HW213467   3.031   1.288   4.511
 4190SOL     OW13468   1.912   0.155   6.552
 4190SOL    HW113469   1.981   0.212   6.507
 4190SOL    HW213470   1.946   0.062   6.561
 4191SOL     OW13471   5.417   3.771   2.940
 4191SOL    HW113472   5.455   3.723   3.020
 4191SOL    HW213473   5.487   3.829   2.899
 4192SOL     OW13474   6.554   0.882   3.910
 4192SOL    HW113475   6.600   0.928   3.834
 4192SOL    HW213476   6.467   0.846   3.878
 4193SOL     OW13477   1.852   6.631   1.670
 4193SOL    HW113478   1.914   6.636   1.592
 4193SOL    HW213479   1.804   6.718   1.680
 4194SOL     OW13480   6.653   1.636   5.400
 4194SOL    HW113481   6.726   1.583   5.357
 4194SOL    HW213482   6.620   1.706   5.336
 4195SOL     OW13483   3.404   0.312   1.418
 4195SOL    HW113484   3.327   0.293   1.479
 4195SOL    HW213485   3.370   0.334   1.327
 4196SOL     OW13486   6.338   1.865   3.986
 4196SOL    HW113487   6.347   1.932   3.912
 4196SOL    HW213488   6.429   1.832   4.012
 4197SOL     OW13489   4.545   4.869   4.354
 4197SOL    HW113490   4.613   4.802   4.325
 4197SOL    HW213491   4.591   4.955   4.375
 4198SOL     OW13492   6.082   3.858   6.776
 4198SOL    HW113493   6.060   3.937   6.720
 4198SOL    HW213494   6.035   3.778   6.741
 4199SOL     OW13495   1.849   3.620   6.334
 4199SOL    HW113496   1.888   3.528   6.327
 4199SOL    HW213497   1.835   3.658   6.243
 4200SOL     OW13498   2.904   6.926   5.053
 4200SOL    HW113499   2.893   6.836   5.096
 4200SOL    HW213500   2.998   6.958   5.066
 4201SOL     OW13501   5.660   6.570   4.118
 4201SOL    HW113502   5.637   6.509   4.042
 4201SOL    HW213503   5.756   6.558   4.143
 4202SOL     OW13504   3.996   5.383   5.980
 4202SOL    HW113505   3.907   5.389   5.935
 4202SOL    HW213506   3.985   5.340   6.070
 4203SOL     OW13507   4.132   5.704   2.228
 4203SOL    HW113508   4.120   5.791   2.180
 4203SOL    HW213509   4.211   5.656   2.190
 4204SOL     OW13510   3.600   2.767   2.036
 4204SOL    HW113511   3.669   2.729   2.098
 4204SOL    HW213512   3.540   2.829   2.086
 4205SOL     OW13513   3.451   5.287   4.279
 4205SOL    HW113514   3.433   5.381   4.250
 4205SOL    HW213515   3.471   5.231   4.198
 4206SOL     OW13516   5.402   1.268   5.881
 4206SOL    HW113517   5.312   1.300   5.853
 4206SOL    HW213518   5.393   1.206   5.959
 4207SOL     OW13519   2.136   1.814   1.451
 4207SOL    HW113520   2.045   1.835   1.415
 4207SOL    HW213521   2.205   1.861   1.396
 4208SOL     OW13522   1.577   2.385   0.396
 4208SOL    HW113523   1.590   2.302   0.450
 4208SOL    HW213524   1.482   2.390   0.365
 4209SOL     OW13525   0.919   1.275   4.646
 4209SOL    HW113526   0.918   1.260   4.547
 4209SOL    HW213527   0.931   1.372   4.665
 4210SOL     OW13528   3.306   3.347   1.819
 4210SOL    HW113529   3.284   3.259   1.777
 4210SOL    HW213530   3.222   3.395   1.842
 4211SOL     OW13531   4.881   6.144   6.104
 4211SOL    HW113532   4.896   6.088   6.185
 4211SOL    HW213533   4.814   6.100   6.043
 4212SOL     OW13534   6.135   2.271   2.243
 4212SOL    HW113535   6.223   2.229   2.223
 4212SOL    HW213536   6.148   2.368   2.265
 4213SOL     OW13537   2.283   1.081   2.455
 4213SOL    HW113538   2.376   1.043   2.458
 4213SOL    HW213539   2.244   1.079   2.547
 4214SOL     OW13540   6.639   4.187   5.924
 4214SOL    HW113541   6.735   4.201   5.949
 4214SOL    HW213542   6.597   4.124   5.989
 4215SOL     OW13543   6.746   5.906   5.161
 4215SOL    HW113544   6.783   5.829   5.212
 4215SOL    HW213545   6.768   5.991   5.208
 4216SOL     OW13546   1.712   2.142   3.060
 4216SOL    HW113547   1.615   2.120   3.056
 4216SOL    HW213548   1.753   2.096   3.139
 4217SOL     OW13549   6.121   0.507   3.195
 4217SOL    HW113550   6.091   0.601   3.214
 4217SOL    HW213551   6.122   0.492   3.096
 4218SOL     OW13552   5.230   0.355   1.623
 4218SOL    HW113553   5.203   0.404   1.707
 4218SOL    HW213554   5.321   0.318   1.635
 4219SOL     OW13555   2.707   4.874   5.079
 4219SOL    HW113556   2.772   4.801   5.058
 4219SOL    HW213557   2.755   4.951   5.121
 4220SOL     OW13558   6.256   3.410   3.368
 4220SOL    HW113559   6.292   3.384   3.279
 4220SOL    HW213560   6.157   3.391   3.371
 4221SOL     OW13561   6.405   5.925   6.267
 4221SOL    HW113562   6.371   5.964   6.353
 4221SOL    HW213563   6.502   5.906   6.275
 4222SOL     OW13564   5.954   2.137   2.060
 4222SOL    HW113565   5.916   2.211   2.006
 4222SOL    HW213566   6.012   2.175   2.133
 4223SOL     OW13567   3.442   2.881   4.246
 4223SOL    HW113568   3.389   2.861   4.163
 4223SOL    HW213569   3.384   2.930   4.312
 4224SOL     OW13570   4.943   3.352   4.125
 4224SOL    HW113571   4.905   3.341   4.034
 4224SOL    HW213572   4.899   3.289   4.188
 4225SOL     OW13573   4.918   0.796   5.283
 4225SOL    HW113574   4.929   0.888   5.320
 4225SOL    HW213575   4.989   0.736   5.321
 4226SOL     OW13576   2.265   0.302   3.310
 4226SOL    HW113577   2.169   0.309   3.284
 4226SOL    HW213578   2.278   0.222   3.368
 4227SOL     OW13579   3.251   4.249   6.322
 4227SOL    HW113580   3.262   4.154   6.350
 4227SOL    HW213581   3.200   4.299   6.393
 4228SOL     OW13582   5.942   4.973   3.740
 4228SOL    HW113583   5.982   4.992   3.829
 4228SOL    HW213584   5.962   5.048   3.677
 4229SOL     OW13585   3.924   4.765   6.344
 4229SOL    HW113586   3.841   4.743   6.294
 4229SOL    HW213587   3.987   4.687   6.341
 4230SOL     OW13588   2.439   0.535   5.010
 4230SOL    HW113589   2.509   0.604   4.989
 4230SOL    HW213590   2.415   0.540   5.107
 4231SOL     OW13591   5.333   6.372   4.922
 4231SOL    HW113592   5.245   6.385   4.877
 4231SOL    HW213593   5.329   6.291   4.979
 4232SOL     OW13594   0.451   5.098   2.055
 4232SOL    HW113595   0.460   5.012   2.006
 4232SOL    HW213596   0.540   5.127   2.089
 4233SOL     OW13597   6.734   0.350   0.403
 4233SOL    HW113598   6.721   0.385   0.310
 4233SOL    HW213599   6.683   0.264   0.414
 4234SOL     OW13600   1.721   6.250   5.430
 4234SOL    HW113601   1.817   6.267   5.451
 4234SOL    HW213602   1.667   6.333   5.447
 4235SOL     OW13603   5.669   4.184   5.215
 4235SOL    HW113604   5.761   4.147   5.206
 4235SOL    HW213605   5.651   4.208   5.310
 4236SOL     OW13606   6.813   2.943   2.841
 4236SOL    HW113607   6.861   2.905   2.920
 4236SOL    HW213608   6.761   2.871   2.795
 4237SOL     OW13609   6.448   4.296   4.335
 4237SOL    HW113610   6.510   4.350   4.279
 4237SOL    HW213611   6.410   4.353   4.408
 4238SOL     OW13612   4.219   4.676   3.889
 4238SOL    HW113613   4.269   4.676   3.976
 4238SOL    HW213614   4.163   4.758   3.883
 4239SOL     OW13615   5.390   0.089   4.341
 4239SOL    HW113616   5.460   0.027   4.377
 4239SOL    HW213617   5.417   0.120   4.250
 4240SOL     OW13618   2.511   5.854   6.325
 4240SOL    HW113619   2.548   5.932   6.273
 4240SOL    HW213620   2.582   5.783   6.333
 4241SOL     OW13621   6.048   0.061   0.997
 4241SOL    HW113622   6.036   0.138   1.060
 4241SOL    HW213623   6.079   0.096   0.908
 4242SOL     OW13624   2.175   0.025   3.241
 4242SOL    HW113625   2.133   6.954   3.249
 4242SOL    HW213626   2.139   0.070   3.159
 4243SOL     OW13627   0.977   3.642   2.716
 4243SOL    HW113628   0.948   3.547   2.724
 4243SOL    HW213629   0.910   3.694   2.663
 4244SOL     OW13630   4.750   5.838   1.273
 4244SOL    HW113631   4.737   5.747   1.312
 4244SOL    HW213632   4.714   5.840   1.179
 4245SOL     OW13633   6.946   2.471   0.198
 4245SOL    HW113634   6.995   2.383   0.199
 4245SOL    HW213635   6.917   2.494   0.290
 4246SOL     OW13636   5.316   3.401   3.165
 4246SOL    HW113637   5.284   3.376   3.074
 4246SOL    HW213638   5.240   3.436   3.219
 4247SOL     OW13639   2.191   5.116   4.469
 4247SOL    HW113640   2.210   5.022   4.444
 4247SOL    HW213641   2.177   5.171   4.387
 4248SOL     OW13642   1.558   0.509   3.331
 4248SOL    HW113643   1.602   0.461   3.407
 4248SOL    HW213644   1.628   0.551   3.273
 4249SOL     OW13645   0.027   1.745   3.526
 4249SOL    HW113646   0.002   1.833   3.567
 4249SOL    HW213647   6.968   1.685   3.524
 4250SOL     OW13648   0.147   5.865   4.240
 4250SOL    HW113649   0.193   5.952   4.256
 4250SOL    HW213650   0.115   5.828   4.327
 4251SOL     OW13651   6.130   2.625   6.555
 4251SOL    HW113652   6.110   2.695   6.487
 4251SOL    HW213653   6.046   2.578   6.581
 4252SOL     OW13654   6.017   5.645   6.326
 4252SOL    HW113655   6.094   5.685   6.275
 4252SOL    HW213656   5.935   5.700   6.312
 4253SOL     OW13657   3.667   6.174   2.605
 4253SOL    HW113658   3.719   6.253   2.572
 4253SOL    HW213659   3.721   6.091   2.592
 4254SOL     OW13660   2.054   4.708   1.748
 4254SOL    HW113661   1.993   4.773   1.703
 4254SOL    HW213662   2.075   4.633   1.686
 4255SOL     OW13663   0.157   3.325   4.108
 4255SOL    HW113664   0.159   3.381   4.025
 4255SOL    HW213665   0.211   3.370   4.179
 4256SOL     OW13666   0.932   5.728   2.090
 4256SOL    HW113667   0.929   5.661   2.164
 4256SOL    HW213668   0.906   5.684   2.004
 4257SOL     OW13669   6.403   1.373   4.742
 4257SOL    HW113670   6.342   1.309   4.694
 4257SOL    HW213671   6.497   1.356   4.715
 4258SOL     OW13672   3.438   5.814   1.171
 4258SOL    HW113673   3.435   5.810   1.271
 4258SOL    HW213674   3.489   5.736   1.136
 4259SOL     OW13675   1.824   6.697   0.984
 4259SOL    HW113676   1.794   6.792   0.991
 4259SOL    HW213677   1.874   6.671   1.067
 4260SOL     OW13678   5.091   0.073   4.077
 4260SOL    HW113679   5.140   7.007   4.069
 4260SOL    HW213680   5.077   0.095   4.173
 4261SOL     OW13681   1.882   6.905   3.867
 4261SOL    HW113682   1.853   6.988   3.914
 4261SOL    HW213683   1.980   6.909   3.848
 4262SOL     OW13684   1.570   4.616   5.756
 4262SOL    HW113685   1.590   4.567   5.841
 4262SOL    HW213686   1.613   4.706   5.759
 4263SOL     OW13687   2.818   1.811   3.158
 4263SOL    HW113688   2.861   1.739   3.104
 4263SOL    HW213689   2.836   1.795   3.255
 4264SOL     OW13690   5.786   1.245   4.605
 4264SOL    HW113691   5.750   1.335   4.630
 4264SOL    HW213692   5.762   1.225   4.510
 4265SOL     OW13693   3.262   0.108   0.489
 4265SOL    HW113694   3.315   0.155   0.419
 4265SOL    HW213695   3.254   0.011   0.465
 4266SOL     OW13696   1.921   0.242   0.201
 4266SOL    HW113697   1.875   0.281   0.280
 4266SOL    HW213698   1.853   0.196   0.143
 4267SOL     OW13699   2.207   3.970   3.641
 4267SOL    HW113700   2.251   3.972   3.731
 4267SOL    HW213701   2.156   3.885   3.631
 4268SOL     OW13702   1.739   5.210   6.668
 4268SOL    HW113703   1.720   5.259   6.583
 4268SOL    HW213704   1.838   5.200   6.680
 4269SOL     OW13705   3.377   1.773   3.876
 4269SOL    HW113706   3.374   1.703   3.947
 4269SOL    HW213707   3.304   1.757   3.810
 4270SOL     OW13708   3.718   3.286   1.617
 4270SOL    HW113709   3.790   3.354   1.613
 4270SOL    HW213710   3.759   3.195   1.621
 4271SOL     OW13711   6.577   0.827   0.272
 4271SOL    HW113712   6.666   0.789   0.248
 4271SOL    HW213713   6.583   0.875   0.359
 4272SOL     OW13714   6.565   3.314   5.649
 4272SOL    HW113715   6.509   3.242   5.606
 4272SOL    HW213716   6.512   3.358   5.721
 4273SOL     OW13717   4.971   6.168   5.113
 4273SOL    HW113718   4.900   6.131   5.173
 4273SOL    HW213719   5.030   6.229   5.165
 4274SOL     OW13720   0.708   6.699   2.246
 4274SOL    HW113721   0.625   6.716   2.300
 4274SOL    HW213722   0.708   6.604   2.214
 4275SOL     OW13723   0.032   2.064   4.301
 4275SOL    HW113724   0.034   2.017   4.212
 4275SOL    HW213725   7.001   2.009   4.367
 4276SOL     OW13726   3.141   5.044   3.084
 4276SOL    HW113727   3.077   4.977   3.044
 4276SOL    HW213728   3.182   5.097   3.010
 4277SOL     OW13729   6.948   4.822   3.581
 4277SOL    HW113730   6.963   4.825   3.680
 4277SOL    HW213731   0.012   4.795   3.535
 4278SOL     OW13732   6.766   6.411   3.926
 4278SOL    HW113733   6.818   6.477   3.980
 4278SOL    HW213734   6.780   6.319   3.963
 4279SOL     OW13735   1.575   0.949   2.331
 4279SOL    HW113736   1.633   0.947   2.413
 4279SOL    HW213737   1.633   0.960   2.250
 4280SOL     OW13738   6.091   6.926   6.275
 4280SOL    HW113739   6.091   6.843   6.220
 4280SOL    HW213740   6.152   6.994   6.233
 4281SOL     OW13741   4.700   5.205   4.084
 4281SOL    HW113742   4.618   5.153   4.105
 4281SOL    HW213743   4.676   5.285   4.029
 4282SOL     OW13744   3.750   4.164   0.654
 4282SOL    HW113745   3.803   4.245   0.680
 4282SOL    HW213746   3.766   4.142   0.558
 4283SOL     OW13747   4.985   1.270   3.255
 4283SOL    HW113748   4.939   1.189   3.291
 4283SOL    HW213749   4.967   1.278   3.157
 4284SOL     OW13750   3.871   5.598   6.954
 4284SOL    HW113751   3.917   5.563   0.015
 4284SOL    HW213752   3.868   5.698   6.957
 4285SOL     OW13753   3.252   0.424   6.353
 4285SOL    HW113754   3.334   0.453   6.402
 4285SOL    HW213755   3.183   0.393   6.418
 4286SOL     OW13756   7.020   0.842   6.578
 4286SOL    HW113757   0.061   0.800   6.511
 4286SOL    HW213758   0.029   0.935   6.596
 4287SOL     OW13759   4.707   1.161   6.731
 4287SOL    HW113760   4.708   1.244   6.787
 4287SOL    HW213761   4.715   1.186   6.634
 4288SOL     OW13762   6.656   6.027   2.221
 4288SOL    HW113763   6.659   5.938   2.176
 4288SOL    HW213764   6.738   6.079   2.197
 4289SOL     OW13765   0.472   2.387   5.317
 4289SOL    HW113766   0.550   2.450   5.322
 4289SOL    HW213767   0.481   2.319   5.390
 4290SOL     OW13768   0.124   6.618   3.833
 4290SOL    HW113769   0.175   6.574   3.759
 4290SOL    HW213770   0.103   6.551   3.904
 4291SOL     OW13771   4.828   2.972   6.472
 4291SOL    HW113772   4.908   2.912   6.475
 4291SOL    HW213773   4.766   2.942   6.399
 4292SOL     OW13774   5.813   2.508   7.019
 4292SOL    HW113775   5.762   2.578   6.969
 4292SOL    HW213776   5.760   2.424   0.002
 4293SOL     OW13777   4.696   3.471   6.708
 4293SOL    HW113778   4.656   3.531   6.778
 4293SOL    HW213779   4.787   3.504   6.684
 4294SOL     OW13780   2.402   2.087   6.204
 4294SOL    HW113781   2.498   2.112   6.215
 4294SOL    HW213782   2.372   2.107   6.111
 4295SOL     OW13783   4.167   6.382   2.934
 4295SOL    HW113784   4.136   6.477   2.942
 4295SOL    HW213785   4.088   6.322   2.931
 4296SOL     OW13786   3.418   6.788   0.851
 4296SOL    HW113787   3.341   6.842   0.884
 4296SOL    HW213788   3.500   6.845   0.849
 4297SOL     OW13789   6.567   5.911   1.730
 4297SOL    HW113790   6.637   5.968   1.686
 4297SOL    HW213791   6.484   5.965   1.743
 4298SOL     OW13792   3.677   6.328   1.363
 4298SOL    HW113793   3.725   6.391   1.303
 4298SOL    HW213794   3.580   6.354   1.368
 4299SOL     OW13795   0.533   3.276   0.039
 4299SOL    HW113796   0.558   3.187   7.020
 4299SOL    HW213797   0.434   3.281   0.051
 4300SOL     OW13798   3.007   0.369   1.038
 4300SOL    HW113799   2.916   0.339   1.008
 4300SOL    HW213800   3.018   0.466   1.019
 4301SOL     OW13801   2.575   6.693   1.445
 4301SOL    HW113802   2.492   6.677   1.498
 4301SOL    HW213803   2.553   6.749   1.365
 4302SOL     OW13804   6.903   0.146   6.950
 4302SOL    HW113805   6.994   0.172   6.983
 4302SOL    HW213806   6.842   0.225   6.954
 4303SOL     OW13807   0.180   4.713   3.478
 4303SOL    HW113808   0.227   4.626   3.490
 4303SOL    HW213809   0.151   4.722   3.382
 4304SOL     OW13810   3.715   4.204   1.873
 4304SOL    HW113811   3.641   4.180   1.936
 4304SOL    HW213812   3.799   4.159   1.902
 4305SOL     OW13813   0.425   6.875   4.602
 4305SOL    HW113814   0.504   6.814   4.612
 4305SOL    HW213815   0.453   6.958   4.553
 4306SOL     OW13816   4.745   4.124   4.869
 4306SOL    HW113817   4.695   4.059   4.812
 4306SOL    HW213818   4.710   4.216   4.853
 4307SOL     OW13819   5.591   2.835   5.559
 4307SOL    HW113820   5.522   2.776   5.517
 4307SOL    HW213821   5.639   2.785   5.631
 4308SOL     OW13822   5.482   4.940   1.761
 4308SOL    HW113823   5.564   4.904   1.715
 4308SOL    HW213824   5.425   4.864   1.791
 4309SOL     OW13825   1.074   3.189   6.889
 4309SOL    HW113826   1.045   3.189   6.984
 4309SOL    HW213827   1.157   3.134   6.879
 4310SOL     OW13828   1.356   2.535   2.037
 4310SOL    HW113829   1.364   2.546   2.136
 4310SOL    HW213830   1.390   2.444   2.011
 4311SOL     OW13831   1.452   6.491   2.340
 4311SOL    HW113832   1.502   6.408   2.363
 4311SOL    HW213833   1.419   6.485   2.245
 4312SOL     OW13834   1.197   5.252   2.624
 4312SOL    HW113835   1.189   5.302   2.711
 4312SOL    HW213836   1.248   5.168   2.639
 4313SOL     OW13837   3.853   2.164   6.959
 4313SOL    HW113838   3.886   2.258   6.967
 4313SOL    HW213839   3.854   2.137   6.863
 4314SOL     OW13840   6.518   2.010   5.519
 4314SOL    HW113841   6.473   2.092   5.555
 4314SOL    HW213842   6.606   1.998   5.564
 4315SOL     OW13843   2.013   1.637   3.849
 4315SOL    HW113844   2.037   1.621   3.944
 4315SOL    HW213845   1.917   1.614   3.834
 4316SOL     OW13846   5.036   6.781   2.780
 4316SOL    HW113847   4.973   6.777   2.703
 4316SOL    HW213848   5.065   6.689   2.804
 4317SOL     OW13849   4.429   0.968   5.386
 4317SOL    HW113850   4.410   1.040   5.454
 4317SOL    HW213851   4.485   1.006   5.313
 4318SOL     OW13852   0.449   0.766   4.292
 4318SOL    HW113853   0.422   0.798   4.383
 4318SOL    HW213854   0.522   0.824   4.256
 4319SOL     OW13855   1.855   1.793   1.386
 4319SOL    HW113856   1.853   1.704   1.431
 4319SOL    HW213857   1.764   1.835   1.392
 4320SOL     OW13858   3.583   5.989   0.440
 4320SOL    HW113859   3.624   6.050   0.508
 4320SOL    HW213860   3.601   5.894   0.465
 4321SOL     OW13861   6.913   5.220   3.478
 4321SOL    HW113862   6.935   5.204   3.574
 4321SOL    HW213863   6.834   5.283   3.473
 4322SOL     OW13864   0.275   3.169   5.743
 4322SOL    HW113865   0.298   3.159   5.646
 4322SOL    HW213866   0.346   3.222   5.789
 4323SOL     OW13867   4.007   5.536   0.185
 4323SOL    HW113868   4.026   5.634   0.189
 4323SOL    HW213869   4.094   5.486   0.185
 4324SOL     OW13870   6.924   3.202   5.504
 4324SOL    HW113871   6.963   3.110   5.497
 4324SOL    HW213872   6.968   3.251   5.579
 4325SOL     OW13873   2.443   1.947   2.137
 4325SOL    HW113874   2.409   1.871   2.082
 4325SOL    HW213875   2.522   1.989   2.091
 4326SOL     OW13876   5.256   2.913   2.538
 4326SOL    HW113877   5.189   2.922   2.465
 4326SOL    HW213878   5.327   2.983   2.526
 4327SOL     OW13879   3.986   5.881   3.204
 4327SOL    HW113880   4.079   5.883   3.168
 4327SOL    HW213881   3.961   5.787   3.228
 4328SOL     OW13882   6.573   4.491   4.655
 4328SOL    HW113883   6.655   4.475   4.601
 4328SOL    HW213884   6.598   4.521   4.747
 4329SOL     OW13885   5.425   3.235   5.315
 4329SOL    HW113886   5.487   3.159   5.336
 4329SOL    HW213887   5.456   3.281   5.232
 4330SOL     OW13888   2.381   6.630   4.927
 4330SOL    HW113889   2.449   6.577   4.977
 4330SOL    HW213890   2.350   6.577   4.847
 4331SOL     OW13891   0.435   0.256   1.439
 4331SOL    HW113892   0.496   0.335   1.439
 4331SOL    HW213893   0.354   0.276   1.383
 4332SOL     OW13894   5.801   3.666   2.770
 4332SOL    HW113895   5.838   3.754   2.797
 4332SOL    HW213896   5.703   3.675   2.753
 4333SOL     OW13897   4.856   2.324   4.910
 4333SOL    HW113898   4.902   2.248   4.865
 4333SOL    HW213899   4.905   2.349   4.993
 4334SOL     OW13900   1.204   3.025   2.604
 4334SOL    HW113901   1.265   3.101   2.627
 4334SOL    HW213902   1.223   2.994   2.511
 4335SOL     OW13903   3.479   3.184   1.083
 4335SOL    HW113904   3.430   3.241   1.149
 4335SOL    HW213905   3.472   3.088   1.109
 4336SOL     OW13906   2.350   4.599   5.374
 4336SOL    HW113907   2.383   4.574   5.465
 4336SOL    HW213908   2.406   4.553   5.304
 4337SOL     OW13909   1.076   6.069   2.520
 4337SOL    HW113910   1.140   5.999   2.489
 4337SOL    HW213911   0.992   6.026   2.554
 4338SOL     OW13912   6.343   0.078   6.176
 4338SOL    HW113913   6.410   0.004   6.170
 4338SOL    HW213914   6.318   0.094   6.272
 4339SOL     OW13915   4.137   2.168   6.646
 4339SOL    HW113916   4.092   2.198   6.561
 4339SOL    HW213917   4.079   2.100   6.691
 4340SOL     OW13918   6.157   3.029   0.925
 4340SOL    HW113919   6.233   3.076   0.880
 4340SOL    HW213920   6.072   3.077   0.906
 4341SOL     OW13921   1.189   5.610   2.167
 4341SOL    HW113922   1.176   5.673   2.089
 4341SOL    HW213923   1.101   5.567   2.189
 4342SOL     OW13924   4.962   3.474   3.017
 4342SOL    HW113925   4.975   3.400   2.952
 4342SOL    HW213926   4.949   3.560   2.968
 4343SOL     OW13927   3.505   0.135   6.238
 4343SOL    HW113928   3.489   0.078   6.319
 4343SOL    HW213929   3.423   0.136   6.181
 4344SOL     OW13930   0.532   2.694   3.189
 4344SOL    HW113931   0.479   2.678   3.273
 4344SOL    HW213932   0.521   2.790   3.161
 4345SOL     OW13933   3.074   3.392   2.716
 4345SOL    HW113934   3.133   3.363   2.791
 4345SOL    HW213935   3.118   3.467   2.666
 4346SOL     OW13936   2.088   2.676   2.820
 4346SOL    HW113937   2.001   2.718   2.845
 4346SOL    HW213938   2.164   2.734   2.851
 4347SOL     OW13939   6.335   6.106   1.702
 4347SOL    HW113940   6.385   6.179   1.655
 4347SOL    HW213941   6.266   6.068   1.640
 4348SOL     OW13942   6.757   5.884   4.090
 4348SOL    HW113943   6.838   5.937   4.113
 4348SOL    HW213944   6.696   5.879   4.169
 4349SOL     OW13945   0.320   3.526   3.434
 4349SOL    HW113946   0.289   3.449   3.490
 4349SOL    HW213947   0.376   3.492   3.358
 4350SOL     OW13948   5.575   1.944   4.826
 4350SOL    HW113949   5.674   1.954   4.836
 4350SOL    HW213950   5.549   1.972   4.733
 4351SOL     OW13951   1.549   6.097   1.542
 4351SOL    HW113952   1.646   6.116   1.523
 4351SOL    HW213953   1.492   6.160   1.488
 4352SOL     OW13954   5.442   3.289   0.786
 4352SOL    HW113955   5.514   3.320   0.724
 4352SOL    HW213956   5.375   3.236   0.734
 4353SOL     OW13957   2.988   3.052   6.454
 4353SOL    HW113958   3.026   3.067   6.363
 4353SOL    HW213959   2.888   3.060   6.451
 4354SOL     OW13960   0.864   0.719   5.525
 4354SOL    HW113961   0.781   0.740   5.577
 4354SOL    HW213962   0.923   0.800   5.524
 4355SOL     OW13963   1.310   6.373   3.065
 4355SOL    HW113964   1.284   6.312   3.140
 4355SOL    HW213965   1.366   6.447   3.102
 4356SOL     OW13966   4.526   3.082   5.773
 4356SOL    HW113967   4.463   3.143   5.726
 4356SOL    HW213968   4.610   3.073   5.720
 4357SOL     OW13969   0.435   1.226   1.796
 4357SOL    HW113970   0.510   1.240   1.731
 4357SOL    HW213971   0.359   1.287   1.773
 4358SOL     OW13972   0.334   1.103   6.930
 4358SOL    HW113973   0.378   1.020   6.964
 4358SOL    HW213974   0.335   1.173   7.001
 4359SOL     OW13975   2.114   0.738   6.657
 4359SOL    HW113976   2.048   0.807   6.629
 4359SOL    HW213977   2.185   0.780   6.713
 4360SOL     OW13978   1.090   2.453   3.661
 4360SOL    HW113979   1.177   2.488   3.695
 4360SOL    HW213980   1.046   2.399   3.732
 4361SOL     OW13981   2.289   2.818   1.121
 4361SOL    HW113982   2.321   2.776   1.206
 4361SOL    HW213983   2.195   2.789   1.103
 4362SOL     OW13984   0.709   6.230   3.775
 4362SOL    HW113985   0.669   6.149   3.732
 4362SOL    HW213986   0.794   6.254   3.728
 4363SOL     OW13987   4.125   0.293   2.545
 4363SOL    HW113988   4.074   0.329   2.623
 4363SOL    HW213989   4.082   0.325   2.460
 4364SOL     OW13990   2.867   3.628   2.616
 4364SOL    HW113991   2.902   3.652   2.706
 4364SOL    HW213992   2.897   3.536   2.592
 4365SOL     OW13993   3.134   2.068   1.471
 4365SOL    HW113994   3.214   2.120   1.501
 4365SOL    HW213995   3.160   2.004   1.399
 4366SOL     OW13996   6.328   5.739   5.751
 4366SOL    HW113997   6.264   5.808   5.717
 4366SOL    HW213998   6.402   5.726   5.685
 4367SOL     OW13999   3.191   5.361   2.772
 4367SOL    HW114000   3.244   5.289   2.817
 4367SOL    HW214001   3.224   5.371   2.678
 4368SOL     OW14002   3.890   5.892   2.607
 4368SOL    HW114003   3.884   5.914   2.510
 4368SOL    HW214004   3.884   5.793   2.619
 4369SOL     OW14005   5.112   5.692   2.885
 4369SOL    HW114006   5.036   5.685   2.949
 4369SOL    HW214007   5.171   5.612   2.894
 4370SOL     OW14008   3.858   3.955   1.554
 4370SOL    HW114009   3.901   3.928   1.467
 4370SOL    HW214010   3.768   3.914   1.561
 4371SOL     OW14011   2.731   0.756   2.250
 4371SOL    HW114012   2.657   0.775   2.314
 4371SOL    HW214013   2.694   0.741   2.158
 4372SOL     OW14014   1.849   3.607   4.457
 4372SOL    HW114015   1.857   3.518   4.411
 4372SOL    HW214016   1.940   3.649   4.464
 4373SOL     OW14017   4.934   0.719   6.156
 4373SOL    HW114018   4.920   0.739   6.059
 4373SOL    HW214019   4.936   0.619   6.169
 4374SOL     OW14020   2.938   2.205   1.303
 4374SOL    HW114021   2.961   2.303   1.305
 4374SOL    HW214022   2.997   2.156   1.366
 4375SOL     OW14023   3.482   0.124   3.654
 4375SOL    HW114024   3.506   0.051   3.590
 4375SOL    HW214025   3.424   0.192   3.608
 4376SOL     OW14026   6.385   0.319   1.976
 4376SOL    HW114027   6.461   0.376   2.005
 4376SOL    HW214028   6.302   0.345   2.026
 4377SOL     OW14029   6.897   5.809   0.506
 4377SOL    HW114030   6.861   5.730   0.557
 4377SOL    HW214031   6.860   5.893   0.545
 4378SOL     OW14032   1.670   5.082   2.011
 4378SOL    HW114033   1.641   4.991   2.040
 4378SOL    HW214034   1.761   5.101   2.050
 4379SOL     OW14035   2.412   0.630   1.680
 4379SOL    HW114036   2.462   0.715   1.693
 4379SOL    HW214037   2.314   0.648   1.686
 4380SOL     OW14038   2.344   5.525   5.131
 4380SOL    HW114039   2.383   5.433   5.133
 4380SOL    HW214040   2.264   5.527   5.071
 4381SOL     OW14041   2.977   4.764   4.512
 4381SOL    HW114042   2.878   4.751   4.504
 4381SOL    HW214043   3.017   4.772   4.421
 4382SOL     OW14044   5.003   4.542   4.943
 4382SOL    HW114045   4.921   4.484   4.942
 4382SOL    HW214046   4.989   4.619   5.006
 4383SOL     OW14047   0.824   1.851   5.098
 4383SOL    HW114048   0.853   1.889   5.186
 4383SOL    HW214049   0.724   1.851   5.093
 4384SOL     OW14050   5.153   0.153   1.297
 4384SOL    HW114051   5.170   0.244   1.260
 4384SOL    HW214052   5.110   0.096   1.226
 4385SOL     OW14053   6.575   1.875   3.707
 4385SOL    HW114054   6.589   1.923   3.793
 4385SOL    HW214055   6.563   1.777   3.725
 4386SOL     OW14056   1.024   4.343   6.304
 4386SOL    HW114057   1.077   4.259   6.311
 4386SOL    HW214058   1.086   4.422   6.303
 4387SOL     OW14059   6.975   2.005   1.800
 4387SOL    HW114060   7.017   2.091   1.831
 4387SOL    HW214061   6.921   1.966   1.874
 4388SOL     OW14062   4.056   1.088   6.272
 4388SOL    HW114063   4.133   1.116   6.330
 4388SOL    HW214064   4.040   0.990   6.283
 4389SOL     OW14065   5.590   1.792   1.483
 4389SOL    HW114066   5.647   1.710   1.487
 4389SOL    HW214067   5.530   1.795   1.563
 4390SOL     OW14068   4.028   2.318   1.743
 4390SOL    HW114069   4.004   2.224   1.769
 4390SOL    HW214070   3.946   2.374   1.740
 4391SOL     OW14071   0.902   6.178   6.644
 4391SOL    HW114072   0.822   6.131   6.607
 4391SOL    HW214073   0.969   6.192   6.571
 4392SOL     OW14074   5.402   4.033   5.174
 4392SOL    HW114075   5.476   4.066   5.115
 4392SOL    HW214076   5.420   4.062   5.269
 4393SOL     OW14077   4.729   6.813   3.096
 4393SOL    HW114078   4.828   6.825   3.101
 4393SOL    HW214079   4.704   6.777   3.006
 4394SOL     OW14080   5.945   4.968   2.545
 4394SOL    HW114081   6.025   5.015   2.583
 4394SOL    HW214082   5.879   5.036   2.513
 4395SOL     OW14083   4.040   2.456   0.707
 4395SOL    HW114084   4.061   2.430   0.613
 4395SOL    HW214085   4.122   2.449   0.764
 4396SOL     OW14086   2.498   1.819   4.152
 4396SOL    HW114087   2.590   1.820   4.114
 4396SOL    HW214088   2.483   1.900   4.209
 4397SOL     OW14089   0.438   1.374   4.009
 4397SOL    HW114090   0.503   1.437   3.965
 4397SOL    HW214091   0.424   1.294   3.950
 4398SOL     OW14092   1.417   4.461   4.453
 4398SOL    HW114093   1.433   4.467   4.355
 4398SOL    HW214094   1.491   4.410   4.496
 4399SOL     OW14095   2.856   0.549   0.834
 4399SOL    HW114096   2.770   0.600   0.838
 4399SOL    HW214097   2.928   0.600   0.882
 4400SOL     OW14098   2.150   6.200   4.945
 4400SOL    HW114099   2.146   6.122   5.006
 4400SOL    HW214100   2.164   6.284   4.998
 4401SOL     OW14101   6.528   5.513   5.913
 4401SOL    HW114102   6.549   5.594   5.967
 4401SOL    HW214103   6.543   5.532   5.816
 4402SOL     OW14104   1.352   6.187   2.524
 4402SOL    HW114105   1.285   6.126   2.481
 4402SOL    HW214106   1.308   6.274   2.548
 4403SOL     OW14107   6.501   6.908   3.795
 4403SOL    HW114108   6.476   6.913   3.891
 4403SOL    HW214109   6.523   6.814   3.771
 4404SOL     OW14110   1.267   3.765   4.436
 4404SOL    HW114111   1.274   3.858   4.473
 4404SOL    HW214112   1.230   3.704   4.506
 4405SOL     OW14113   3.081   4.400   6.175
 4405SOL    HW114114   3.155   4.343   6.212
 4405SOL    HW214115   3.098   4.417   6.078
 4406SOL     OW14116   5.167   4.090   0.707
 4406SOL    HW114117   5.176   4.123   0.613
 4406SOL    HW214118   5.250   4.041   0.734
 4407SOL     OW14119   0.116   5.670   0.636
 4407SOL    HW114120   0.047   5.735   0.604
 4407SOL    HW214121   0.076   5.613   0.708
 4408SOL     OW14122   5.013   0.803   0.873
 4408SOL    HW114123   5.042   0.728   0.813
 4408SOL    HW214124   4.946   0.768   0.939
 4409SOL     OW14125   3.533   0.572   2.110
 4409SOL    HW114126   3.490   0.650   2.155
 4409SOL    HW214127   3.632   0.581   2.116
 4410SOL     OW14128   2.035   4.546   6.916
 4410SOL    HW114129   2.106   4.573   6.851
 4410SOL    HW214130   1.952   4.522   6.866
 4411SOL     OW14131   3.411   2.851   3.271
 4411SOL    HW114132   3.345   2.817   3.204
 4411SOL    HW214133   3.484   2.900   3.224
 4412SOL     OW14134   4.208   1.799   5.214
 4412SOL    HW114135   4.191   1.706   5.181
 4412SOL    HW214136   4.299   1.805   5.253
 4413SOL     OW14137   5.204   6.027   5.315
 4413SOL    HW114138   5.160   5.937   5.314
 4413SOL    HW214139   5.138   6.096   5.347
 4414SOL     OW14140   5.041   4.771   2.196
 4414SOL    HW114141   5.018   4.848   2.255
 4414SOL    HW214142   5.025   4.685   2.246
 4415SOL     OW14143   5.035   3.546   6.293
 4415SOL    HW114144   4.940   3.544   6.324
 4415SOL    HW214145   5.093   3.499   6.360
 4416SOL     OW14146   2.984   1.583   3.891
 4416SOL    HW114147   2.984   1.486   3.913
 4416SOL    HW214148   2.985   1.637   3.975
 4417SOL     OW14149   0.039   4.361   2.814
 4417SOL    HW114150   0.020   4.458   2.830
 4417SOL    HW214151   7.019   4.333   2.727
 4418SOL     OW14152   4.390   6.523   3.766
 4418SOL    HW114153   4.467   6.462   3.783
 4418SOL    HW214154   4.357   6.560   3.853
 4419SOL     OW14155   5.476   5.536   0.425
 4419SOL    HW114156   5.440   5.453   0.467
 4419SOL    HW214157   5.479   5.525   0.326
 4420SOL     OW14158   4.674   1.362   0.715
 4420SOL    HW114159   4.579   1.369   0.744
 4420SOL    HW214160   4.734   1.368   0.795
 4421SOL     OW14161   1.832   1.603   3.596
 4421SOL    HW114162   1.865   1.662   3.522
 4421SOL    HW214163   1.732   1.606   3.599
 4422SOL     OW14164   2.573   3.525   5.869
 4422SOL    HW114165   2.480   3.503   5.839
 4422SOL    HW214166   2.614   3.445   5.912
 4423SOL     OW14167   0.828   3.133   5.877
 4423SOL    HW114168   0.875   3.222   5.877
 4423SOL    HW214169   0.889   3.063   5.914
 4424SOL     OW14170   5.216   0.001   3.503
 4424SOL    HW114171   5.147   0.003   3.575
 4424SOL    HW214172   5.171   0.000   3.413
 4425SOL     OW14173   3.379   6.034   6.262
 4425SOL    HW114174   3.358   5.976   6.183
 4425SOL    HW214175   3.477   6.053   6.264
 4426SOL     OW14176   6.878   0.953   5.364
 4426SOL    HW114177   6.877   1.047   5.329
 4426SOL    HW214178   6.908   0.890   5.292
 4427SOL     OW14179   6.561   0.774   2.459
 4427SOL    HW114180   6.646   0.729   2.487
 4427SOL    HW214181   6.551   0.860   2.509
 4428SOL     OW14182   2.968   4.842   3.493
 4428SOL    HW114183   3.004   4.922   3.444
 4428SOL    HW214184   2.968   4.860   3.591
 4429SOL     OW14185   2.816   0.285   4.158
 4429SOL    HW114186   2.768   0.344   4.092
 4429SOL    HW214187   2.786   0.191   4.146
 4430SOL     OW14188   4.787   2.886   3.693
 4430SOL    HW114189   4.850   2.809   3.694
 4430SOL    HW214190   4.703   2.861   3.742
 4431SOL     OW14191   2.342   1.514   2.160
 4431SOL    HW114192   2.245   1.514   2.133
 4431SOL    HW214193   2.391   1.580   2.103
 4432SOL     OW14194   3.143   3.022   3.800
 4432SOL    HW114195   3.106   3.114   3.794
 4432SOL    HW214196   3.177   2.993   3.711
 4433SOL     OW14197   6.422   6.763   4.515
 4433SOL    HW114198   6.445   6.859   4.528
 4433SOL    HW214199   6.327   6.754   4.487
 4434SOL     OW14200   4.681   1.446   4.082
 4434SOL    HW114201   4.640   1.460   3.992
 4434SOL    HW214202   4.771   1.489   4.085
 4435SOL     OW14203   3.960   3.803   0.698
 4435SOL    HW114204   3.949   3.703   0.694
 4435SOL    HW214205   3.920   3.837   0.783
 4436SOL     OW14206   3.148   2.113   0.312
 4436SOL    HW114207   3.083   2.047   0.349
 4436SOL    HW214208   3.238   2.070   0.301
 4437SOL     OW14209   4.947   1.086   4.322
 4437SOL    HW114210   4.883   1.120   4.253
 4437SOL    HW214211   4.932   0.988   4.335
 4438SOL     OW14212   4.341   1.845   6.869
 4438SOL    HW114213   4.290   1.778   6.923
 4438SOL    HW214214   4.342   1.816   6.773
 4439SOL     OW14215   0.714   5.358   1.624
 4439SOL    HW114216   0.690   5.440   1.571
 4439SOL    HW214217   0.799   5.320   1.589
 4440SOL     OW14218   1.377   5.361   6.729
 4440SOL    HW114219   1.285   5.393   6.706
 4440SOL    HW214220   1.445   5.416   6.681
 4441SOL     OW14221   6.436   1.710   1.496
 4441SOL    HW114222   6.404   1.755   1.579
 4441SOL    HW214223   6.512   1.649   1.518
 4442SOL     OW14224   3.170   6.225   3.863
 4442SOL    HW114225   3.174   6.259   3.769
 4442SOL    HW214226   3.078   6.193   3.883
 4443SOL     OW14227   1.227   2.402   6.796
 4443SOL    HW114228   1.176   2.322   6.765
 4443SOL    HW214229   1.285   2.436   6.722
 4444SOL     OW14230   3.713   6.445   6.519
 4444SOL    HW114231   3.679   6.385   6.591
 4444SOL    HW214232   3.705   6.540   6.549
 4445SOL     OW14233   1.002   0.498   6.587
 4445SOL    HW114234   0.967   0.527   6.676
 4445SOL    HW214235   0.925   0.475   6.527
 4446SOL     OW14236   5.519   1.195   1.320
 4446SOL    HW114237   5.463   1.236   1.248
 4446SOL    HW214238   5.600   1.152   1.279
 4447SOL     OW14239   5.169   3.281   5.332
 4447SOL    HW114240   5.105   3.273   5.256
 4447SOL    HW214241   5.262   3.262   5.300
 4448SOL     OW14242   3.006   4.071   0.408
 4448SOL    HW114243   2.957   4.158   0.404
 4448SOL    HW214244   2.987   4.026   0.496
 4449SOL     OW14245   3.637   0.287   5.928
 4449SOL    HW114246   3.600   0.353   5.994
 4449SOL    HW214247   3.701   0.225   5.976
 4450SOL     OW14248   3.895   2.970   3.310
 4450SOL    HW114249   3.995   2.974   3.310
 4450SOL    HW214250   3.862   2.972   3.404
 4451SOL     OW14251   5.787   4.083   2.306
 4451SOL    HW114252   5.886   4.079   2.290
 4451SOL    HW214253   5.752   3.990   2.317
 4452SOL     OW14254   5.808   6.255   5.206
 4452SOL    HW114255   5.849   6.344   5.187
 4452SOL    HW214256   5.880   6.187   5.222
 4453SOL     OW14257   6.554   2.970   6.899
 4453SOL    HW114258   6.495   3.010   6.828
 4453SOL    HW214259   6.509   2.977   6.988
 4454SOL     OW14260   4.949   2.252   0.733
 4454SOL    HW114261   5.013   2.320   0.771
 4454SOL    HW214262   4.918   2.282   0.643
 4455SOL     OW14263   3.119   6.677   0.549
 4455SOL    HW114264   3.080   6.598   0.500
 4455SOL    HW214265   3.050   6.713   0.612
 4456SOL     OW14266   2.458   4.824   2.428
 4456SOL    HW114267   2.444   4.835   2.330
 4456SOL    HW214268   2.513   4.742   2.445
 4457SOL     OW14269   4.244   2.946   0.027
 4457SOL    HW114270   4.272   2.866   0.080
 4457SOL    HW214271   4.303   2.955   6.967
 4458SOL     OW14272   1.621   3.745   6.426
 4458SOL    HW114273   1.543   3.685   6.410
 4458SOL    HW214274   1.705   3.697   6.399
 4459SOL     OW14275   5.500   0.226   4.135
 4459SOL    HW114276   5.533   0.217   4.041
 4459SOL    HW214277   5.500   0.322   4.161
 4460SOL     OW14278   2.660   2.754   5.732
 4460SOL    HW114279   2.592   2.818   5.698
 4460SOL    HW214280   2.727   2.733   5.660
 4461SOL     OW14281   0.991   0.432   3.022
 4461SOL    HW114282   0.993   0.373   2.942
 4461SOL    HW214283   1.044   0.390   3.096
 4462SOL     OW14284   6.518   3.883   1.158
 4462SOL    HW114285   6.556   3.959   1.210
 4462SOL    HW214286   6.480   3.918   1.072
 4463SOL     OW14287   2.207   2.451   0.347
 4463SOL    HW114288   2.210   2.468   0.249
 4463SOL    HW214289   2.112   2.437   0.375
 4464SOL     OW14290   5.830   5.371   0.706
 4464SOL    HW114291   5.764   5.305   0.670
 4464SOL    HW214292   5.786   5.430   0.773
 4465SOL     OW14293   1.755   6.096   3.082
 4465SOL    HW114294   1.802   6.082   3.168
 4465SOL    HW214295   1.796   6.173   3.033
 4466SOL     OW14296   1.305   0.779   2.924
 4466SOL    HW114297   1.365   0.700   2.909
 4466SOL    HW214298   1.235   0.756   2.991
 4467SOL     OW14299   1.020   6.685   3.655
 4467SOL    HW114300   1.046   6.777   3.624
 4467SOL    HW214301   0.962   6.642   3.586
 4468SOL     OW14302   0.710   1.850   0.494
 4468SOL    HW114303   0.681   1.879   0.585
 4468SOL    HW214304   0.672   1.911   0.425
 4469SOL     OW14305   2.941   6.757   1.165
 4469SOL    HW114306   2.874   6.718   1.229
 4469SOL    HW214307   3.027   6.775   1.213
 4470SOL     OW14308   5.832   3.343   1.419
 4470SOL    HW114309   5.834   3.326   1.518
 4470SOL    HW214310   5.745   3.312   1.382
 4471SOL     OW14311   0.259   2.691   6.987
 4471SOL    HW114312   0.173   2.644   6.964
 4471SOL    HW214313   0.305   2.718   6.902
 4472SOL     OW14314   1.339   3.881   2.790
 4472SOL    HW114315   1.382   3.795   2.820
 4472SOL    HW214316   1.407   3.955   2.795
 4473SOL     OW14317   0.381   1.117   4.769
 4473SOL    HW114318   0.337   1.046   4.824
 4473SOL    HW214319   0.388   1.201   4.822
 4474SOL     OW14320   3.649   0.896   2.335
 4474SOL    HW114321   3.686   0.987   2.351
 4474SOL    HW214322   3.583   0.899   2.260
 4475SOL     OW14323   1.845   4.490   1.719
 4475SOL    HW114324   1.755   4.466   1.756
 4475SOL    HW214325   1.837   4.507   1.621
 4476SOL     OW14326   5.559   6.161   3.974
 4476SOL    HW114327   5.546   6.260   3.979
 4476SOL    HW214328   5.654   6.141   3.950
 4477SOL     OW14329   1.634   0.167   6.382
 4477SOL    HW114330   1.727   0.131   6.389
 4477SOL    HW214331   1.637   0.267   6.377
 4478SOL     OW14332   2.512   6.646   2.608
 4478SOL    HW114333   2.500   6.696   2.522
 4478SOL    HW214334   2.425   6.607   2.636
 4479SOL     OW14335   1.123   1.135   6.857
 4479SOL    HW114336   1.160   1.071   6.791
 4479SOL    HW214337   1.196   1.163   6.921
 4480SOL     OW14338   1.902   3.797   4.766
 4480SOL    HW114339   1.918   3.847   4.852
 4480SOL    HW214340   1.880   3.861   4.693
 4481SOL     OW14341   2.165   6.891   4.558
 4481SOL    HW114342   2.171   6.988   4.534
 4481SOL    HW214343   2.239   6.840   4.514
 4482SOL     OW14344   0.440   3.216   3.938
 4482SOL    HW114345   0.517   3.253   3.990
 4482SOL    HW214346   0.386   3.292   3.901
 4483SOL     OW14347   6.534   2.888   1.118
 4483SOL    HW114348   6.486   2.804   1.143
 4483SOL    HW214349   6.518   2.909   1.022
 4484SOL     OW14350   3.574   1.599   5.270
 4484SOL    HW114351   3.550   1.692   5.239
 4484SOL    HW214352   3.660   1.571   5.227
 4485SOL     OW14353   5.657   2.573   6.300
 4485SOL    HW114354   5.679   2.477   6.282
 4485SOL    HW214355   5.734   2.631   6.272
 4486SOL     OW14356   6.330   3.541   4.379
 4486SOL    HW114357   6.368   3.529   4.287
 4486SOL    HW214358   6.399   3.581   4.439
 4487SOL     OW14359   2.356   3.645   6.831
 4487SOL    HW114360   2.279   3.623   6.891
 4487SOL    HW214361   2.341   3.605   6.741
 4488SOL     OW14362   5.382   2.536   6.055
 4488SOL    HW114363   5.392   2.441   6.084
 4488SOL    HW214364   5.428   2.548   5.966
 4489SOL     OW14365   5.226   6.240   4.283
 4489SOL    HW114366   5.188   6.166   4.338
 4489SOL    HW214367   5.302   6.283   4.332
 4490SOL     OW14368   5.531   1.822   1.975
 4490SOL    HW114369   5.615   1.842   2.024
 4490SOL    HW214370   5.500   1.730   1.996
 4491SOL     OW14371   0.858   2.942   3.084
 4491SOL    HW114372   0.813   2.868   3.134
 4491SOL    HW214373   0.875   3.019   3.146
 4492SOL     OW14374   5.048   3.273   0.699
 4492SOL    HW114375   5.056   3.372   0.700
 4492SOL    HW214376   5.135   3.233   0.671
 4493SOL     OW14377   4.665   5.019   5.117
 4493SOL    HW114378   4.737   5.074   5.075
 4493SOL    HW214379   4.581   5.073   5.123
 4494SOL     OW14380   6.893   2.551   6.202
 4494SOL    HW114381   6.826   2.589   6.138
 4494SOL    HW214382   6.854   2.469   6.244
 4495SOL     OW14383   5.488   6.884   3.223
 4495SOL    HW114384   5.428   6.877   3.303
 4495SOL    HW214385   5.490   6.978   3.191
 4496SOL     OW14386   5.169   5.804   0.641
 4496SOL    HW114387   5.127   5.713   0.645
 4496SOL    HW214388   5.159   5.850   0.730
 4497SOL     OW14389   4.324   6.728   6.774
 4497SOL    HW114390   4.378   6.797   6.822
 4497SOL    HW214391   4.336   6.640   6.820
 4498SOL     OW14392   0.552   3.201   6.411
 4498SOL    HW114393   0.641   3.235   6.379
 4498SOL    HW214394   0.541   3.106   6.382
 4499SOL     OW14395   0.019   3.073   4.125
 4499SOL    HW114396   0.074   3.156   4.114
 4499SOL    HW214397   0.073   2.993   4.098
 4500SOL     OW14398   3.122   3.657   3.200
 4500SOL    HW114399   3.033   3.620   3.173
 4500SOL    HW214400   3.132   3.651   3.299
 4501SOL     OW14401   0.418   3.671   5.822
 4501SOL    HW114402   0.323   3.684   5.849
 4501SOL    HW214403   0.477   3.733   5.873
 4502SOL     OW14404   1.985   3.029   6.372
 4502SOL    HW114405   1.965   3.061   6.465
 4502SOL    HW214406   2.076   2.987   6.371
 4503SOL     OW14407   2.610   0.444   2.925
 4503SOL    HW114408   2.642   0.431   3.018
 4503SOL    HW214409   2.610   0.542   2.904
 4504SOL     OW14410   6.203   1.711   5.189
 4504SOL    HW114411   6.196   1.611   5.192
 4504SOL    HW214412   6.182   1.749   5.279
 4505SOL     OW14413   6.698   5.701   4.413
 4505SOL    HW114414   6.648   5.659   4.489
 4505SOL    HW214415   6.739   5.787   4.443
 4506SOL     OW14416   4.468   2.512   4.609
 4506SOL    HW114417   4.445   2.489   4.704
 4506SOL    HW214418   4.525   2.594   4.608
 4507SOL     OW14419   5.233   4.269   1.341
 4507SOL    HW114420   5.141   4.239   1.319
 4507SOL    HW214421   5.299   4.222   1.282
 4508SOL     OW14422   0.793   4.437   6.770
 4508SOL    HW114423   0.865   4.498   6.803
 4508SOL    HW214424   0.821   4.396   6.683
 4509SOL     OW14425   4.582   2.271   4.251
 4509SOL    HW114426   4.635   2.214   4.314
 4509SOL    HW214427   4.531   2.213   4.187
 4510SOL     OW14428   5.752   6.892   5.070
 4510SOL    HW114429   5.850   6.878   5.053
 4510SOL    HW214430   5.732   6.990   5.064
 4511SOL     OW14431   0.456   3.087   6.079
 4511SOL    HW114432   0.456   3.021   6.004
 4511SOL    HW214433   0.517   3.163   6.056
 4512SOL     OW14434   2.590   6.855   5.686
 4512SOL    HW114435   2.623   6.817   5.773
 4512SOL    HW214436   2.586   6.783   5.617
 4513SOL     OW14437   4.973   6.670   0.653
 4513SOL    HW114438   5.069   6.642   0.659
 4513SOL    HW214439   4.916   6.605   0.704
 4514SOL     OW14440   4.293   0.497   4.816
 4514SOL    HW114441   4.214   0.548   4.850
 4514SOL    HW214442   4.377   0.536   4.856
 4515SOL     OW14443   6.621   4.224   6.353
 4515SOL    HW114444   6.694   4.194   6.413
 4515SOL    HW214445   6.617   4.163   6.273
 4516SOL     OW14446   0.967   1.964   6.143
 4516SOL    HW114447   0.994   1.950   6.238
 4516SOL    HW214448   0.896   1.899   6.118
 4517SOL     OW14449   2.735   0.016   6.022
 4517SOL    HW114450   2.704   0.093   5.966
 4517SOL    HW214451   2.719   6.951   5.973
 4518SOL     OW14452   6.757   1.870   3.503
 4518SOL    HW114453   6.693   1.894   3.577
 4518SOL    HW214454   6.767   1.948   3.441
 4519SOL     OW14455   6.511   1.100   1.841
 4519SOL    HW114456   6.576   1.112   1.916
 4519SOL    HW214457   6.543   1.028   1.779
 4520SOL     OW14458   5.663   5.553   2.850
 4520SOL    HW114459   5.619   5.594   2.930
 4520SOL    HW214460   5.599   5.492   2.804
 4521SOL     OW14461   4.849   1.776   5.664
 4521SOL    HW114462   4.946   1.774   5.640
 4521SOL    HW214463   4.834   1.715   5.742
 4522SOL     OW14464   5.547   0.132   3.883
 4522SOL    HW114465   5.453   0.129   3.849
 4522SOL    HW214466   5.593   0.213   3.847
 4523SOL     OW14467   1.168   4.122   0.574
 4523SOL    HW114468   1.265   4.147   0.576
 4523SOL    HW214469   1.159   4.025   0.552
 4524SOL     OW14470   5.175   2.302   5.828
 4524SOL    HW114471   5.152   2.206   5.811
 4524SOL    HW214472   5.118   2.336   5.903
 4525SOL     OW14473   6.566   1.678   3.394
 4525SOL    HW114474   6.624   1.716   3.466
 4525SOL    HW214475   6.550   1.747   3.324
 4526SOL     OW14476   5.439   0.020   1.330
 4526SOL    HW114477   5.433   6.982   1.410
 4526SOL    HW214478   5.349   0.059   1.309
 4527SOL     OW14479   4.178   1.247   4.012
 4527SOL    HW114480   4.197   1.159   4.056
 4527SOL    HW214481   4.262   1.283   3.970
 4528SOL     OW14482   5.079   6.686   0.356
 4528SOL    HW114483   5.017   6.697   0.434
 4528SOL    HW214484   5.111   6.776   0.326
 4529SOL     OW14485   2.905   1.585   3.029
 4529SOL    HW114486   2.906   1.541   2.940
 4529SOL    HW214487   2.837   1.541   3.088
 4530SOL     OW14488   0.126   3.887   5.739
 4530SOL    HW114489   0.145   3.799   5.784
 4530SOL    HW214490   0.029   3.893   5.717
 4531SOL     OW14491   0.426   3.204   3.521
 4531SOL    HW114492   0.334   3.188   3.485
 4531SOL    HW214493   0.440   3.147   3.602
 4532SOL     OW14494   0.615   1.321   2.233
 4532SOL    HW114495   0.588   1.385   2.305
 4532SOL    HW214496   0.600   1.227   2.264
 4533SOL     OW14497   1.733   0.121   3.933
 4533SOL    HW114498   1.637   0.107   3.956
 4533SOL    HW214499   1.789   0.115   4.015
 4534SOL     OW14500   6.456   3.666   4.598
 4534SOL    HW114501   6.439   3.761   4.622
 4534SOL    HW214502   6.402   3.606   4.658
 4535SOL     OW14503   4.470   2.057   2.589
 4535SOL    HW114504   4.460   2.037   2.491
 4535SOL    HW214505   4.387   2.028   2.637
 4536SOL     OW14506   4.946   1.600   4.700
 4536SOL    HW114507   4.958   1.507   4.667
 4536SOL    HW214508   4.849   1.617   4.718
 4537SOL     OW14509   3.354   3.372   6.168
 4537SOL    HW114510   3.390   3.424   6.091
 4537SOL    HW214511   3.267   3.412   6.198
 4538SOL     OW14512   3.223   2.154   4.182
 4538SOL    HW114513   3.306   2.113   4.220
 4538SOL    HW214514   3.228   2.153   4.082
 4539SOL     OW14515   2.597   1.803   3.820
 4539SOL    HW114516   2.664   1.859   3.869
 4539SOL    HW214517   2.546   1.861   3.756
 4540SOL     OW14518   3.528   3.551   3.768
 4540SOL    HW114519   3.606   3.488   3.767
 4540SOL    HW214520   3.540   3.619   3.696
 4541SOL     OW14521   5.702   1.113   0.495
 4541SOL    HW114522   5.622   1.114   0.435
 4541SOL    HW214523   5.754   1.029   0.478
 4542SOL     OW14524   5.897   6.663   1.989
 4542SOL    HW114525   5.925   6.757   1.966
 4542SOL    HW214526   5.849   6.623   1.911
 4543SOL     OW14527   4.180   1.680   7.011
 4543SOL    HW114528   4.095   1.652   0.036
 4543SOL    HW214529   4.257   1.630   0.032
 4544SOL     OW14530   2.652   6.094   5.911
 4544SOL    HW114531   2.622   6.083   5.816
 4544SOL    HW214532   2.662   6.191   5.932
 4545SOL     OW14533   5.459   2.434   5.164
 4545SOL    HW114534   5.535   2.397   5.110
 4545SOL    HW214535   5.397   2.484   5.103
 4546SOL     OW14536   1.339   0.359   6.413
 4546SOL    HW114537   1.312   0.262   6.415
 4546SOL    HW214538   1.403   0.374   6.338
 4547SOL     OW14539   6.203   2.585   2.277
 4547SOL    HW114540   6.130   2.636   2.323
 4547SOL    HW214541   6.284   2.644   2.270
 4548SOL     OW14542   0.754   4.050   4.361
 4548SOL    HW114543   0.758   4.038   4.262
 4548SOL    HW214544   0.748   3.960   4.405
 4549SOL     OW14545   5.926   3.880   2.822
 4549SOL    HW114546   5.881   3.968   2.837
 4549SOL    HW214547   6.016   3.896   2.781
 4550SOL     OW14548   0.322   5.944   3.514
 4550SOL    HW114549   0.281   5.868   3.564
 4550SOL    HW214550   0.305   5.931   3.416
 4551SOL     OW14551   0.036   1.740   5.489
 4551SOL    HW114552   7.012   1.690   5.415
 4551SOL    HW214553   0.121   1.781   5.456
 4552SOL     OW14554   0.013   2.814   6.075
 4552SOL    HW114555   0.068   2.739   6.039
 4552SOL    HW214556   6.938   2.801   6.048
 4553SOL     OW14557   3.467   4.391   0.027
 4553SOL    HW114558   3.370   4.372   0.044
 4553SOL    HW214559   3.480   4.415   6.952
 4554SOL     OW14560   3.980   0.506   1.858
 4554SOL    HW114561   4.023   0.573   1.798
 4554SOL    HW214562   3.881   0.520   1.858
 4555SOL     OW14563   4.243   1.329   6.015
 4555SOL    HW114564   4.149   1.300   5.997
 4555SOL    HW214565   4.303   1.249   6.015
 4556SOL     OW14566   4.534   2.101   3.820
 4556SOL    HW114567   4.503   2.089   3.726
 4556SOL    HW214568   4.606   2.033   3.840
 4557SOL     OW14569   5.102   6.635   4.951
 4557SOL    HW114570   5.136   6.628   5.045
 4557SOL    HW214571   5.115   6.547   4.905
 4558SOL     OW14572   6.504   3.676   5.593
 4558SOL    HW114573   6.594   3.638   5.572
 4558SOL    HW214574   6.514   3.762   5.642
 4559SOL     OW14575   1.368   6.249   1.771
 4559SOL    HW114576   1.304   6.188   1.724
 4559SOL    HW214577   1.353   6.243   1.870
 4560SOL     OW14578   5.192   4.489   3.234
 4560SOL    HW114579   5.106   4.451   3.200
 4560SOL    HW214580   5.230   4.428   3.303
 4561SOL     OW14581   2.644   0.628   1.244
 4561SOL    HW114582   2.736   0.662   1.224
 4561SOL    HW214583   2.645   0.573   1.328
 4562SOL     OW14584   2.911   5.501   5.129
 4562SOL    HW114585   2.872   5.502   5.221
 4562SOL    HW214586   2.841   5.476   5.062
 4563SOL     OW14587   6.160   4.100   0.099
 4563SOL    HW114588   6.241   4.052   0.065
 4563SOL    HW214589   6.189   4.178   0.154
 4564SOL     OW14590   1.054   6.096   0.784
 4564SOL    HW114591   0.957   6.119   0.778
 4564SOL    HW214592   1.087   6.066   0.695
 4565SOL     OW14593   0.657   1.193   5.131
 4565SOL    HW114594   0.572   1.228   5.171
 4565SOL    HW214595   0.651   1.197   5.031
 4566SOL     OW14596   0.136   0.634   0.962
 4566SOL    HW114597   0.229   0.600   0.972
 4566SOL    HW214598   0.071   0.561   0.982
 4567SOL     OW14599   0.541   0.977   0.327
 4567SOL    HW114600   0.626   0.988   0.377
 4567SOL    HW214601   0.478   1.050   0.351
 4568SOL     OW14602   1.767   4.271   5.492
 4568SOL    HW114603   1.672   4.244   5.479
 4568SOL    HW214604   1.812   4.281   5.403
 4569SOL     OW14605   2.092   1.902   3.877
 4569SOL    HW114606   2.070   1.811   3.841
 4569SOL    HW214607   2.008   1.954   3.888
 4570SOL     OW14608   0.094   5.404   3.438
 4570SOL    HW114609   0.114   5.414   3.341
 4570SOL    HW214610   0.003   5.364   3.449
 4571SOL     OW14611   3.307   3.818   5.242
 4571SOL    HW114612   3.268   3.811   5.151
 4571SOL    HW214613   3.301   3.729   5.288
 4572SOL     OW14614   0.058   6.250   0.138
 4572SOL    HW114615   0.005   6.329   0.108
 4572SOL    HW214616   0.001   6.168   0.134
 4573SOL     OW14617   5.938   6.138   0.779
 4573SOL    HW114618   5.963   6.089   0.862
 4573SOL    HW214619   6.016   6.142   0.717
 4574SOL     OW14620   6.999   4.649   1.027
 4574SOL    HW114621   6.948   4.564   1.044
 4574SOL    HW214622   0.075   4.627   1.011
 4575SOL     OW14623   6.926   2.234   0.953
 4575SOL    HW114624   6.872   2.240   1.037
 4575SOL    HW214625   6.865   2.239   0.874
 4576SOL     OW14626   2.451   5.594   6.072
 4576SOL    HW114627   2.364   5.637   6.048
 4576SOL    HW214628   2.445   5.558   6.165
 4577SOL     OW14629   0.146   3.077   3.000
 4577SOL    HW114630   0.131   2.985   2.963
 4577SOL    HW214631   0.230   3.115   2.960
 4578SOL     OW14632   0.117   3.991   3.669
 4578SOL    HW114633   0.132   4.002   3.571
 4578SOL    HW214634   0.194   4.031   3.719
 4579SOL     OW14635   5.025   1.722   3.322
 4579SOL    HW114636   5.124   1.727   3.329
 4579SOL    HW214637   4.998   1.716   3.225
 4580SOL     OW14638   5.260   5.456   0.226
 4580SOL    HW114639   5.209   5.536   0.257
 4580SOL    HW214640   5.306   5.476   0.140
 4581SOL     OW14641   3.209   5.425   2.490
 4581SOL    HW114642   3.272   5.400   2.417
 4581SOL    HW214643   3.214   5.524   2.508
 4582SOL     OW14644   6.090   6.524   4.819
 4582SOL    HW114645   6.066   6.481   4.732
 4582SOL    HW214646   6.170   6.583   4.805
 4583SOL     OW14647   2.902   1.846   4.991
 4583SOL    HW114648   2.970   1.775   5.010
 4583SOL    HW214649   2.948   1.929   4.959
 4584SOL     OW14650   0.372   6.162   5.946
 4584SOL    HW114651   0.463   6.137   5.914
 4584SOL    HW214652   0.303   6.126   5.883
 4585SOL     OW14653   3.214   6.289   2.827
 4585SOL    HW114654   3.167   6.265   2.912
 4585SOL    HW214655   3.149   6.286   2.751
 4586SOL     OW14656   4.256   4.419   1.257
 4586SOL    HW114657   4.298   4.431   1.347
 4586SOL    HW214658   4.258   4.505   1.207
 4587SOL     OW14659   4.108   3.718   1.678
 4587SOL    HW114660   4.041   3.777   1.724
 4587SOL    HW214661   4.095   3.624   1.708
 4588SOL     OW14662   3.851   3.551   4.940
 4588SOL    HW114663   3.824   3.623   4.876
 4588SOL    HW214664   3.792   3.472   4.929
 4589SOL     OW14665   5.906   1.691   2.652
 4589SOL    HW114666   6.006   1.689   2.645
 4589SOL    HW214667   5.870   1.600   2.634
 4590SOL     OW14668   4.316   6.042   1.558
 4590SOL    HW114669   4.317   6.046   1.658
 4590SOL    HW214670   4.411   6.040   1.524
 4591SOL     OW14671   0.274   6.427   5.325
 4591SOL    HW114672   0.344   6.419   5.254
 4591SOL    HW214673   0.278   6.346   5.385
 4592SOL     OW14674   4.220   2.956   1.709
 4592SOL    HW114675   4.319   2.943   1.705
 4592SOL    HW214676   4.184   2.907   1.789
 4593SOL     OW14677   4.324   5.416   3.613
 4593SOL    HW114678   4.390   5.491   3.603
 4593SOL    HW214679   4.266   5.432   3.692
 4594SOL     OW14680   3.429   2.182   1.384
 4594SOL    HW114681   3.462   2.116   1.452
 4594SOL    HW214682   3.373   2.251   1.429
 4595SOL     OW14683   3.704   2.588   5.884
 4595SOL    HW114684   3.709   2.687   5.897
 4595SOL    HW214685   3.788   2.556   5.841
 4596SOL     OW14686   5.829   6.454   1.816
 4596SOL    HW114687   5.873   6.365   1.826
 4596SOL    HW214688   5.856   6.495   1.729
 4597SOL     OW14689   4.953   4.548   6.682
 4597SOL    HW114690   4.967   4.641   6.648
 4597SOL    HW214691   4.885   4.502   6.624
 4598SOL     OW14692   1.048   4.879   6.826
 4598SOL    HW114693   1.114   4.902   6.755
 4598SOL    HW214694   0.999   4.795   6.800
 4599SOL     OW14695   1.516   4.099   1.395
 4599SOL    HW114696   1.437   4.076   1.452
 4599SOL    HW214697   1.575   4.163   1.445
 4600SOL     OW14698   2.642   5.559   5.578
 4600SOL    HW114699   2.558   5.608   5.553
 4600SOL    HW214700   2.619   5.475   5.627
 4601SOL     OW14701   1.843   0.875   5.194
 4601SOL    HW114702   1.903   0.853   5.117
 4601SOL    HW214703   1.878   0.956   5.241
 4602SOL     OW14704   0.817   6.258   0.775
 4602SOL    HW114705   0.747   6.314   0.731
 4602SOL    HW214706   0.871   6.314   0.837
 4603SOL     OW14707   3.829   6.554   1.223
 4603SOL    HW114708   3.857   6.562   1.319
 4603SOL    HW214709   3.837   6.644   1.179
 4604SOL     OW14710   4.341   0.749   1.300
 4604SOL    HW114711   4.355   0.771   1.397
 4604SOL    HW214712   4.427   0.760   1.250
 4605SOL     OW14713   4.970   0.805   3.800
 4605SOL    HW114714   4.985   0.899   3.770
 4605SOL    HW214715   4.906   0.760   3.738
 4606SOL     OW14716   6.984   0.041   2.109
 4606SOL    HW114717   7.008   6.993   2.178
 4606SOL    HW214718   6.898   0.085   2.133
 4607SOL     OW14719   2.625   2.411   0.712
 4607SOL    HW114720   2.541   2.450   0.675
 4607SOL    HW214721   2.692   2.484   0.730
 4608SOL     OW14722   1.307   5.644   4.581
 4608SOL    HW114723   1.211   5.629   4.557
 4608SOL    HW214724   1.317   5.650   4.680
 4609SOL     OW14725   4.018   5.128   6.198
 4609SOL    HW114726   4.005   5.203   6.262
 4609SOL    HW214727   4.095   5.072   6.227
 4610SOL     OW14728   7.007   2.466   0.460
 4610SOL    HW114729   0.048   2.423   0.527
 4610SOL    HW214730   6.975   2.554   0.497
 4611SOL     OW14731   6.381   4.833   5.548
 4611SOL    HW114732   6.462   4.891   5.551
 4611SOL    HW214733   6.391   4.757   5.612
 4612SOL     OW14734   1.640   6.554   0.020
 4612SOL    HW114735   1.614   6.498   0.099
 4612SOL    HW214736   1.716   6.614   0.046
 4613SOL     OW14737   2.412   5.677   2.629
 4613SOL    HW114738   2.366   5.765   2.640
 4613SOL    HW214739   2.432   5.663   2.532
 4614SOL     OW14740   1.359   4.888   5.881
 4614SOL    HW114741   1.358   4.956   5.954
 4614SOL    HW214742   1.393   4.930   5.797
 4615SOL     OW14743   2.054   1.245   6.783
 4615SOL    HW114744   2.020   1.287   6.699
 4615SOL    HW214745   2.006   1.286   6.862
 4616SOL     OW14746   0.035   0.329   6.077
 4616SOL    HW114747   0.014   0.427   6.069
 4616SOL    HW214748   6.985   0.276   6.030
 4617SOL     OW14749   1.522   2.135   2.645
 4617SOL    HW114750   1.600   2.081   2.614
 4617SOL    HW214751   1.442   2.075   2.655
 4618SOL     OW14752   1.863   2.980   4.798
 4618SOL    HW114753   1.858   2.897   4.852
 4618SOL    HW214754   1.956   2.991   4.762
 4619SOL     OW14755   4.948   6.407   3.390
 4619SOL    HW114756   4.896   6.363   3.317
 4619SOL    HW214757   4.913   6.500   3.404
 4620SOL     OW14758   3.293   3.710   6.733
 4620SOL    HW114759   3.326   3.798   6.699
 4620SOL    HW214760   3.372   3.654   6.760
 4621SOL     OW14761   5.869   2.258   3.710
 4621SOL    HW114762   5.835   2.295   3.796
 4621SOL    HW214763   5.880   2.159   3.719
 4622SOL     OW14764   0.992   3.025   1.152
 4622SOL    HW114765   0.898   3.002   1.179
 4622SOL    HW214766   1.048   3.034   1.234
 4623SOL     OW14767   0.006   5.588   1.108
 4623SOL    HW114768   0.013   5.675   1.157
 4623SOL    HW214769   6.970   5.600   1.026
 4624SOL     OW14770   4.492   0.260   3.081
 4624SOL    HW114771   4.589   0.240   3.096
 4624SOL    HW214772   4.441   0.175   3.072
 4625SOL     OW14773   1.335   4.154   6.947
 4625SOL    HW114774   1.274   4.175   6.871
 4625SOL    HW214775   1.430   4.158   6.916
 4626SOL     OW14776   5.663   4.786   1.180
 4626SOL    HW114777   5.564   4.780   1.171
 4626SOL    HW214778   5.706   4.774   1.090
 4627SOL     OW14779   3.267   5.355   4.971
 4627SOL    HW114780   3.204   5.279   4.987
 4627SOL    HW214781   3.219   5.430   4.926
 4628SOL     OW14782   6.109   4.413   3.460
 4628SOL    HW114783   6.113   4.425   3.361
 4628SOL    HW214784   6.087   4.317   3.480
 4629SOL     OW14785   2.008   4.897   6.051
 4629SOL    HW114786   2.049   4.819   6.099
 4629SOL    HW214787   2.050   4.906   5.960
 4630SOL     OW14788   3.674   5.831   3.533
 4630SOL    HW114789   3.760   5.878   3.553
 4630SOL    HW214790   3.638   5.863   3.445
 4631SOL     OW14791   2.740   6.735   3.369
 4631SOL    HW114792   2.686   6.819   3.358
 4631SOL    HW214793   2.682   6.662   3.406
 4632SOL     OW14794   4.123   5.182   2.958
 4632SOL    HW114795   4.108   5.146   3.050
 4632SOL    HW214796   4.069   5.265   2.945
 4633SOL     OW14797   6.163   2.065   3.984
 4633SOL    HW114798   6.171   2.145   4.043
 4633SOL    HW214799   6.208   1.987   4.028
 4634SOL     OW14800   2.430   4.374   6.605
 4634SOL    HW114801   2.517   4.395   6.561
 4634SOL    HW214802   2.420   4.275   6.613
 4635SOL     OW14803   6.284   3.934   2.029
 4635SOL    HW114804   6.257   4.011   2.086
 4635SOL    HW214805   6.381   3.941   2.007
 4636SOL     OW14806   2.125   5.052   6.992
 4636SOL    HW114807   2.186   5.002   6.930
 4636SOL    HW214808   2.071   5.118   6.940
 4637SOL     OW14809   1.938   0.962   0.116
 4637SOL    HW114810   2.007   0.926   0.054
 4637SOL    HW214811   1.907   0.889   0.178
 4638SOL     OW14812   3.517   2.696   6.277
 4638SOL    HW114813   3.547   2.783   6.236
 4638SOL    HW214814   3.450   2.653   6.216
 4639SOL     OW14815   2.069   4.555   5.331
 4639SOL    HW114816   2.023   4.535   5.418
 4639SOL    HW214817   2.166   4.534   5.339
 4640SOL     OW14818   4.492   5.176   3.354
 4640SOL    HW114819   4.588   5.172   3.328
 4640SOL    HW214820   4.444   5.097   3.317
 4641SOL     OW14821   2.680   5.157   3.931
 4641SOL    HW114822   2.725   5.181   4.016
 4641SOL    HW214823   2.626   5.074   3.944
 4642SOL     OW14824   0.292   6.818   5.329
 4642SOL    HW114825   0.368   6.785   5.273
 4642SOL    HW214826   0.302   6.786   5.423
 4643SOL     OW14827   4.807   2.491   0.627
 4643SOL    HW114828   4.860   2.575   0.623
 4643SOL    HW214829   4.751   2.491   0.710
 4644SOL     OW14830   1.309   4.713   5.178
 4644SOL    HW114831   1.286   4.742   5.270
 4644SOL    HW214832   1.347   4.620   5.180
 4645SOL     OW14833   1.640   0.226   4.581
 4645SOL    HW114834   1.601   0.299   4.525
 4645SOL    HW214835   1.566   0.167   4.615
 4646SOL     OW14836   2.286   6.550   2.660
 4646SOL    HW114837   2.306   6.487   2.736
 4646SOL    HW214838   2.216   6.510   2.601
 4647SOL     OW14839   0.290   6.638   3.227
 4647SOL    HW114840   0.295   6.707   3.154
 4647SOL    HW214841   0.313   6.679   3.314
 4648SOL     OW14842   4.085   0.066   1.225
 4648SOL    HW114843   4.057   0.089   1.132
 4648SOL    HW214844   4.048   6.997   1.251
 4649SOL     OW14845   5.113   0.130   5.995
 4649SOL    HW114846   5.150   0.037   5.996
 4649SOL    HW214847   5.161   0.186   6.062
 4650SOL     OW14848   4.067   6.089   3.746
 4650SOL    HW114849   4.063   6.081   3.646
 4650SOL    HW214850   4.133   6.159   3.771
 4651SOL     OW14851   0.162   2.111   1.252
 4651SOL    HW114852   0.258   2.093   1.229
 4651SOL    HW214853   0.153   2.203   1.290
 4652SOL     OW14854   0.878   0.121   3.251
 4652SOL    HW114855   0.974   0.094   3.263
 4652SOL    HW214856   0.819   0.051   3.293
 4653SOL     OW14857   6.744   5.129   0.360
 4653SOL    HW114858   6.825   5.184   0.381
 4653SOL    HW214859   6.772   5.041   0.323
 4654SOL     OW14860   0.658   0.289   6.880
 4654SOL    HW114861   0.686   0.225   6.809
 4654SOL    HW214862   0.566   0.324   6.859
 4655SOL     OW14863   6.896   4.711   2.005
 4655SOL    HW114864   6.960   4.636   1.990
 4655SOL    HW214865   6.947   4.796   2.021
 4656SOL     OW14866   0.901   6.839   2.966
 4656SOL    HW114867   0.873   6.752   3.005
 4656SOL    HW214868   0.930   6.826   2.871
 4657SOL     OW14869   5.102   0.006   1.796
 4657SOL    HW114870   5.110   0.054   1.708
 4657SOL    HW214871   5.193   7.003   1.830
 4658SOL     OW14872   3.426   0.500   2.612
 4658SOL    HW114873   3.494   0.528   2.545
 4658SOL    HW214874   3.336   0.492   2.569
 4659SOL     OW14875   2.410   3.750   5.621
 4659SOL    HW114876   2.380   3.750   5.525
 4659SOL    HW214877   2.430   3.656   5.650
 4660SOL     OW14878   1.273   2.656   4.727
 4660SOL    HW114879   1.351   2.610   4.770
 4660SOL    HW214880   1.306   2.722   4.660
 4661SOL     OW14881   4.368   4.193   5.362
 4661SOL    HW114882   4.369   4.093   5.359
 4661SOL    HW214883   4.321   4.229   5.281
 4662SOL     OW14884   4.881   0.226   5.039
 4662SOL    HW114885   4.797   0.266   5.002
 4662SOL    HW214886   4.859   0.169   5.118
 4663SOL     OW14887   0.024   1.201   2.419
 4663SOL    HW114888   0.121   1.210   2.442
 4663SOL    HW214889   0.001   1.264   2.346
 4664SOL     OW14890   2.016   2.663   6.512
 4664SOL    HW114891   2.000   2.720   6.432
 4664SOL    HW214892   1.967   2.702   6.591
 4665SOL     OW14893   4.592   0.062   6.949
 4665SOL    HW114894   4.583   0.152   6.990
 4665SOL    HW214895   4.639   7.020   7.012
 4666SOL     OW14896   2.309   1.866   6.555
 4666SOL    HW114897   2.296   1.965   6.565
 4666SOL    HW214898   2.224   1.819   6.579
 4667SOL     OW14899   6.335   5.209   0.605
 4667SOL    HW114900   6.300   5.116   0.617
 4667SOL    HW214901   6.388   5.214   0.520
 4668SOL     OW14902   6.889   1.602   3.836
 4668SOL    HW114903   6.942   1.666   3.891
 4668SOL    HW214904   6.864   1.644   3.749
 4669SOL     OW14905   3.787   6.550   0.748
 4669SOL    HW114906   3.838   6.485   0.692
 4669SOL    HW214907   3.708   6.584   0.697
 4670SOL     OW14908   3.454   1.471   4.929
 4670SOL    HW114909   3.406   1.553   4.960
 4670SOL    HW214910   3.436   1.396   4.993
 4671SOL     OW14911   6.053   2.969   1.892
 4671SOL    HW114912   5.983   2.900   1.910
 4671SOL    HW214913   6.034   3.012   1.804
 4672SOL     OW14914   2.793   4.711   6.021
 4672SOL    HW114915   2.732   4.669   5.954
 4672SOL    HW214916   2.852   4.777   5.975
 4673SOL     OW14917   4.921   6.934   1.517
 4673SOL    HW114918   4.822   6.920   1.519
 4673SOL    HW214919   4.946   7.008   1.579
 4674SOL     OW14920   5.316   6.207   6.311
 4674SOL    HW114921   5.217   6.194   6.305
 4674SOL    HW214922   5.336   6.278   6.378
 4675SOL     OW14923   0.748   3.607   0.721
 4675SOL    HW114924   0.830   3.555   0.696
 4675SOL    HW214925   0.669   3.572   0.670
 4676SOL     OW14926   0.966   5.613   3.751
 4676SOL    HW114927   0.884   5.613   3.693
 4676SOL    HW214928   0.938   5.612   3.847
 4677SOL     OW14929   1.832   2.172   0.941
 4677SOL    HW114930   1.796   2.179   0.848
 4677SOL    HW214931   1.921   2.218   0.946
 4678SOL     OW14932   2.630   4.734   2.886
 4678SOL    HW114933   2.670   4.720   2.977
 4678SOL    HW214934   2.702   4.729   2.817
 4679SOL     OW14935   4.064   7.005   2.366
 4679SOL    HW114936   4.160   0.011   2.369
 4679SOL    HW214937   4.022   0.001   2.456
 4680SOL     OW14938   3.906   1.756   0.512
 4680SOL    HW114939   3.927   1.764   0.414
 4680SOL    HW214940   3.813   1.790   0.528
 4681SOL     OW14941   4.692   4.927   6.751
 4681SOL    HW114942   4.752   4.998   6.713
 4681SOL    HW214943   4.701   4.925   6.850
 4682SOL     OW14944   5.438   3.749   6.134
 4682SOL    HW114945   5.464   3.722   6.042
 4682SOL    HW214946   5.430   3.667   6.192
 4683SOL     OW14947   5.820   5.426   2.197
 4683SOL    HW114948   5.807   5.363   2.120
 4683SOL    HW214949   5.903   5.400   2.247
 4684SOL     OW14950   4.452   6.431   5.878
 4684SOL    HW114951   4.437   6.335   5.854
 4684SOL    HW214952   4.550   6.450   5.877
 4685SOL     OW14953   2.138   4.635   6.209
 4685SOL    HW114954   2.223   4.687   6.200
 4685SOL    HW214955   2.138   4.560   6.142
 4686SOL     OW14956   4.419   5.279   0.707
 4686SOL    HW114957   4.435   5.355   0.644
 4686SOL    HW214958   4.445   5.193   0.663
 4687SOL     OW14959   4.879   2.473   4.273
 4687SOL    HW114960   4.837   2.425   4.196
 4687SOL    HW214961   4.850   2.431   4.358
 4688SOL     OW14962   5.772   2.883   5.326
 4688SOL    HW114963   5.718   2.798   5.327
 4688SOL    HW214964   5.859   2.868   5.373
 4689SOL     OW14965   5.735   0.757   1.194
 4689SOL    HW114966   5.758   0.720   1.284
 4689SOL    HW214967   5.805   0.729   1.128
 4690SOL     OW14968   1.374   1.342   0.776
 4690SOL    HW114969   1.341   1.436   0.773
 4690SOL    HW214970   1.340   1.292   0.696
 4691SOL     OW14971   3.876   3.661   0.127
 4691SOL    HW114972   3.895   3.564   0.142
 4691SOL    HW214973   3.868   3.679   0.029
 4692SOL     OW14974   5.930   4.991   3.285
 4692SOL    HW114975   5.936   4.916   3.350
 4692SOL    HW214976   5.901   4.956   3.196
 4693SOL     OW14977   0.915   1.056   3.681
 4693SOL    HW114978   0.967   1.122   3.627
 4693SOL    HW214979   0.896   0.975   3.626
 4694SOL     OW14980   2.323   2.586   0.749
 4694SOL    HW114981   2.392   2.620   0.813
 4694SOL    HW214982   2.361   2.589   0.656
 4695SOL     OW14983   1.411   6.107   0.673
 4695SOL    HW114984   1.486   6.159   0.634
 4695SOL    HW214985   1.354   6.166   0.730
 4696SOL     OW14986   0.448   5.764   6.910
 4696SOL    HW114987   0.399   5.704   6.847
 4696SOL    HW214988   0.383   5.803   6.976
 4697SOL     OW14989   1.000   3.857   2.450
 4697SOL    HW114990   0.994   3.905   2.362
 4697SOL    HW214991   1.093   3.864   2.486
 4698SOL     OW14992   3.754   6.852   3.204
 4698SOL    HW114993   3.838   6.800   3.187
 4698SOL    HW214994   3.698   6.805   3.272
 4699SOL     OW14995   0.631   6.590   2.732
 4699SOL    HW114996   0.594   6.677   2.701
 4699SOL    HW214997   0.588   6.564   2.818
 4700SOL     OW14998   6.381   1.209   2.243
 4700SOL    HW114999   6.460   1.266   2.268
 4700SOL    HW215000   6.305   1.268   2.216
 4701SOL     OW15001   3.346   1.943   0.942
 4701SOL    HW115002   3.282   1.992   1.001
 4701SOL    HW215003   3.412   1.894   0.999
 4702SOL     OW15004   4.659   4.595   0.326
 4702SOL    HW115005   4.664   4.656   0.405
 4702SOL    HW215006   4.733   4.615   0.263
 4703SOL     OW15007   0.880   5.917   2.921
 4703SOL    HW115008   0.948   5.849   2.897
 4703SOL    HW215009   0.872   5.923   3.020
 4704SOL     OW15010   0.304   5.883   6.086
 4704SOL    HW115011   0.231   5.820   6.063
 4704SOL    HW215012   0.284   5.973   6.046
 4705SOL     OW15013   3.200   2.663   0.590
 4705SOL    HW115014   3.145   2.745   0.573
 4705SOL    HW215015   3.145   2.595   0.639
 4706SOL     OW15016   1.140   0.658   0.375
 4706SOL    HW115017   1.087   0.574   0.369
 4706SOL    HW215018   1.230   0.638   0.413
 4707SOL     OW15019   0.943   6.156   1.305
 4707SOL    HW115020   0.992   6.088   1.359
 4707SOL    HW215021   0.874   6.111   1.248
 4708SOL     OW15022   0.883   2.239   5.864
 4708SOL    HW115023   0.841   2.181   5.794
 4708SOL    HW215024   0.958   2.291   5.823
 4709SOL     OW15025   4.735   5.069   4.374
 4709SOL    HW115026   4.782   5.066   4.286
 4709SOL    HW215027   4.798   5.044   4.447
 4710SOL     OW15028   5.621   6.985   5.791
 4710SOL    HW115029   5.596   6.894   5.758
 4710SOL    HW215030   5.712   6.982   5.833
 4711SOL     OW15031   6.601   1.771   2.377
 4711SOL    HW115032   6.698   1.748   2.377
 4711SOL    HW215033   6.589   1.868   2.395
 4712SOL     OW15034   3.835   4.623   6.677
 4712SOL    HW115035   3.777   4.565   6.620
 4712SOL    HW215036   3.795   4.715   6.683
 4713SOL     OW15037   5.053   5.553   0.659
 4713SOL    HW115038   4.962   5.520   0.635
 4713SOL    HW215039   5.101   5.483   0.712
 4714SOL     OW15040   0.494   1.376   6.485
 4714SOL    HW115041   0.532   1.458   6.528
 4714SOL    HW215042   0.482   1.305   6.553
 4715SOL     OW15043   6.143   2.696   1.365
 4715SOL    HW115044   6.079   2.620   1.356
 4715SOL    HW215045   6.232   2.662   1.397
 4716SOL     OW15046   5.038   6.242   5.455
 4716SOL    HW115047   4.981   6.170   5.496
 4716SOL    HW215048   5.007   6.331   5.487
 4717SOL     OW15049   2.126   5.003   4.942
 4717SOL    HW115050   2.097   4.953   5.024
 4717SOL    HW215051   2.164   5.091   4.968
 4718SOL     OW15052   4.901   2.681   1.200
 4718SOL    HW115053   4.966   2.644   1.134
 4718SOL    HW215054   4.818   2.708   1.153
 4719SOL     OW15055   4.847   3.981   2.870
 4719SOL    HW115056   4.886   4.049   2.931
 4719SOL    HW215057   4.809   4.026   2.790
 4720SOL     OW15058   1.850   4.653   6.283
 4720SOL    HW115059   1.837   4.681   6.378
 4720SOL    HW215060   1.948   4.651   6.262
 4721SOL     OW15061   6.023   2.270   1.570
 4721SOL    HW115062   6.024   2.368   1.591
 4721SOL    HW215063   5.938   2.230   1.604
 4722SOL     OW15064   0.850   6.411   6.909
 4722SOL    HW115065   0.926   6.364   6.954
 4722SOL    HW215066   0.763   6.378   6.945
 4723SOL     OW15067   3.623   3.790   5.240
 4723SOL    HW115068   3.567   3.760   5.317
 4723SOL    HW215069   3.670   3.875   5.264
 4724SOL     OW15070   0.097   0.162   4.050
 4724SOL    HW115071   0.145   0.092   4.104
 4724SOL    HW215072   0.155   0.190   3.973
 4725SOL     OW15073   5.707   5.342   6.987
 4725SOL    HW115074   5.650   5.270   0.006
 4725SOL    HW215075   5.660   5.382   6.908
 4726SOL     OW15076   1.124   3.266   5.896
 4726SOL    HW115077   1.095   3.226   5.983
 4726SOL    HW215078   1.081   3.355   5.884
 4727SOL     OW15079   0.010   6.073   1.184
 4727SOL    HW115080   0.028   6.138   1.258
 4727SOL    HW215081   7.001   5.986   1.222
 4728SOL     OW15082   6.745   1.290   2.746
 4728SOL    HW115083   6.845   1.295   2.750
 4728SOL    HW215084   6.707   1.317   2.834
 4729SOL     OW15085   5.123   0.554   0.790
 4729SOL    HW115086   5.099   0.487   0.719
 4729SOL    HW215087   5.204   0.522   0.839
 4730SOL     OW15088   3.908   5.751   5.528
 4730SOL    HW115089   4.004   5.746   5.557
 4730SOL    HW215090   3.895   5.832   5.471
 4731SOL     OW15091   2.781   0.743   0.609
 4731SOL    HW115092   2.682   0.748   0.620
 4731SOL    HW215093   2.814   0.655   0.645
 4732SOL     OW15094   0.189   3.462   5.582
 4732SOL    HW115095   0.278   3.449   5.626
 4732SOL    HW215096   0.195   3.431   5.487
 4733SOL     OW15097   0.922   4.149   2.739
 4733SOL    HW115098   0.964   4.067   2.777
 4733SOL    HW215099   0.993   4.215   2.715
 4734SOL     OW15100   5.257   3.168   0.261
 4734SOL    HW115101   5.341   3.200   0.218
 4734SOL    HW215102   5.178   3.202   0.210
 4735SOL     OW15103   6.417   5.408   4.507
 4735SOL    HW115104   6.328   5.446   4.533
 4735SOL    HW215105   6.419   5.310   4.531
 4736SOL     OW15106   5.727   1.933   4.166
 4736SOL    HW115107   5.711   1.894   4.257
 4736SOL    HW215108   5.681   2.022   4.159
 4737SOL     OW15109   2.394   4.308   0.930
 4737SOL    HW115110   2.432   4.285   0.841
 4737SOL    HW215111   2.331   4.235   0.959
 4738SOL     OW15112   3.220   6.630   3.831
 4738SOL    HW115113   3.200   6.628   3.929
 4738SOL    HW215114   3.135   6.631   3.779
 4739SOL     OW15115   5.886   1.974   3.694
 4739SOL    HW115116   5.911   1.887   3.650
 4739SOL    HW215117   5.891   1.964   3.793
 4740SOL     OW15118   0.661   0.597   0.560
 4740SOL    HW115119   0.684   0.567   0.468
 4740SOL    HW215120   0.593   0.536   0.600
 4741SOL     OW15121   4.644   4.163   1.074
 4741SOL    HW115122   4.742   4.151   1.055
 4741SOL    HW215123   4.633   4.209   1.162
 4742SOL     OW15124   3.422   6.002   1.608
 4742SOL    HW115125   3.355   5.934   1.641
 4742SOL    HW215126   3.513   5.976   1.639
 4743SOL     OW15127   1.556   1.795   5.959
 4743SOL    HW115128   1.501   1.818   6.039
 4743SOL    HW215129   1.589   1.878   5.915
 4744SOL     OW15130   2.468   3.286   5.588
 4744SOL    HW115131   2.505   3.342   5.514
 4744SOL    HW215132   2.400   3.223   5.550
 4745SOL     OW15133   2.503   5.015   4.954
 4745SOL    HW115134   2.472   4.966   4.873
 4745SOL    HW215135   2.577   4.964   4.998
 4746SOL     OW15136   5.865   6.426   1.365
 4746SOL    HW115137   5.888   6.487   1.441
 4746SOL    HW215138   5.833   6.338   1.401
 4747SOL     OW15139   1.177   3.590   5.886
 4747SOL    HW115140   1.143   3.604   5.979
 4747SOL    HW215141   1.261   3.536   5.888
 4748SOL     OW15142   1.771   5.994   1.296
 4748SOL    HW115143   1.832   5.933   1.246
 4748SOL    HW215144   1.682   5.996   1.251
 4749SOL     OW15145   2.942   6.468   5.427
 4749SOL    HW115146   2.970   6.507   5.515
 4749SOL    HW215147   2.980   6.376   5.418
 4750SOL     OW15148   0.182   2.001   4.056
 4750SOL    HW115149   0.243   2.069   4.015
 4750SOL    HW215150   0.237   1.931   4.101
 4751SOL     OW15151   2.174   3.661   0.058
 4751SOL    HW115152   2.228   3.671   0.142
 4751SOL    HW215153   2.130   3.748   0.037
 4752SOL     OW15154   2.897   0.117   0.408
 4752SOL    HW115155   2.965   0.049   0.382
 4752SOL    HW215156   2.867   0.100   0.502
 4753SOL     OW15157   5.240   0.309   4.084
 4753SOL    HW115158   5.323   0.272   4.124
 4753SOL    HW215159   5.181   0.234   4.054
 4754SOL     OW15160   5.693   0.575   5.506
 4754SOL    HW115161   5.732   0.541   5.420
 4754SOL    HW215162   5.767   0.604   5.567
 4755SOL     OW15163   2.602   0.982   0.059
 4755SOL    HW115164   2.621   0.884   0.064
 4755SOL    HW215165   2.513   1.001   0.100
 4756SOL     OW15166   5.717   2.044   1.420
 4756SOL    HW115167   5.700   2.093   1.505
 4756SOL    HW215168   5.696   1.947   1.433
 4757SOL     OW15169   1.458   1.730   2.547
 4757SOL    HW115170   1.419   1.821   2.533
 4757SOL    HW215171   1.394   1.661   2.512
 4758SOL     OW15172   3.699   5.480   4.989
 4758SOL    HW115173   3.759   5.471   5.069
 4758SOL    HW215174   3.696   5.393   4.940
 4759SOL     OW15175   5.587   5.434   5.450
 4759SOL    HW115176   5.518   5.494   5.491
 4759SOL    HW215177   5.569   5.424   5.352
 4760SOL     OW15178   3.232   2.309   0.936
 4760SOL    HW115179   3.162   2.368   0.977
 4760SOL    HW215180   3.192   2.257   0.860
 4761SOL     OW15181   0.034   1.107   6.565
 4761SOL    HW115182   0.023   1.154   6.653
 4761SOL    HW215183   6.965   1.089   6.526
 4762SOL     OW15184   2.860   4.943   2.978
 4762SOL    HW115185   2.790   4.977   2.916
 4762SOL    HW215186   2.828   4.860   3.024
 4763SOL     OW15187   5.907   6.084   3.537
 4763SOL    HW115188   5.996   6.038   3.533
 4763SOL    HW215189   5.912   6.163   3.597
 4764SOL     OW15190   5.000   3.637   5.531
 4764SOL    HW115191   4.949   3.581   5.466
 4764SOL    HW215192   4.945   3.715   5.559
 4765SOL     OW15193   5.156   6.644   4.097
 4765SOL    HW115194   5.223   6.607   4.161
 4765SOL    HW215195   5.135   6.575   4.027
 4766SOL     OW15196   4.028   0.534   3.672
 4766SOL    HW115197   3.945   0.492   3.709
 4766SOL    HW215198   4.077   0.582   3.745
 4767SOL     OW15199   4.192   5.851   6.337
 4767SOL    HW115200   4.255   5.775   6.321
 4767SOL    HW215201   4.211   5.892   6.426
 4768SOL     OW15202   5.069   1.807   5.412
 4768SOL    HW115203   5.137   1.866   5.369
 4768SOL    HW215204   5.031   1.745   5.344
 4769SOL     OW15205   4.716   5.176   0.920
 4769SOL    HW115206   4.697   5.079   0.907
 4769SOL    HW215207   4.644   5.216   0.978
 4770SOL     OW15208   1.662   6.913   3.678
 4770SOL    HW115209   1.731   6.950   3.616
 4770SOL    HW215210   1.701   6.902   3.769
 4771SOL     OW15211   3.415   5.459   6.093
 4771SOL    HW115212   3.339   5.432   6.153
 4771SOL    HW215213   3.452   5.547   6.123
 4772SOL     OW15214   2.072   5.716   2.155
 4772SOL    HW115215   2.015   5.671   2.223
 4772SOL    HW215216   2.048   5.812   2.149
 4773SOL     OW15217   6.826   5.051   5.154
 4773SOL    HW115218   6.823   5.034   5.252
 4773SOL    HW215219   6.740   5.090   5.123
 4774SOL     OW15220   1.077   2.241   1.662
 4774SOL    HW115221   1.163   2.233   1.610
 4774SOL    HW215222   1.095   2.289   1.747
 4775SOL     OW15223   5.520   0.495   3.140
 4775SOL    HW115224   5.568   0.573   3.098
 4775SOL    HW215225   5.580   0.452   3.207
 4776SOL     OW15226   1.817   6.462   4.191
 4776SOL    HW115227   1.905   6.486   4.151
 4776SOL    HW215228   1.776   6.543   4.233
 4777SOL     OW15229   2.925   5.005   1.374
 4777SOL    HW115230   2.975   4.918   1.370
 4777SOL    HW215231   2.883   5.015   1.464
 4778SOL     OW15232   5.007   2.150   2.021
 4778SOL    HW115233   5.092   2.143   1.969
 4778SOL    HW215234   5.028   2.167   2.118
 4779SOL     OW15235   6.946   6.466   2.303
 4779SOL    HW115236   6.889   6.492   2.224
 4779SOL    HW215237   0.021   6.459   2.274
 4780SOL     OW15238   0.131   0.151   0.058
 4780SOL    HW115239   0.117   0.215   0.133
 4780SOL    HW215240   0.156   0.061   0.094
 4781SOL     OW15241   2.723   6.003   0.886
 4781SOL    HW115242   2.712   6.101   0.870
 4781SOL    HW215243   2.667   5.975   0.963
 4782SOL     OW15244   4.536   6.746   0.105
 4782SOL    HW115245   4.590   6.825   0.133
 4782SOL    HW215246   4.439   6.765   0.120
 4783SOL     OW15247   5.086   4.021   0.032
 4783SOL    HW115248   5.136   4.096   0.075
 4783SOL    HW215249   5.023   3.980   0.098
 4784SOL     OW15250   6.644   3.735   6.929
 4784SOL    HW115251   6.637   3.719   6.830
 4784SOL    HW215252   6.553   3.730   6.970
 4785SOL     OW15253   6.888   5.743   1.876
 4785SOL    HW115254   6.815   5.707   1.818
 4785SOL    HW215255   6.948   5.668   1.904
 4786SOL     OW15256   2.521   2.107   1.920
 4786SOL    HW115257   2.496   2.162   1.999
 4786SOL    HW215258   2.439   2.073   1.875
 4787SOL     OW15259   3.393   1.956   3.487
 4787SOL    HW115260   3.377   1.992   3.395
 4787SOL    HW215261   3.450   1.874   3.481
 4788SOL     OW15262   1.453   5.721   6.182
 4788SOL    HW115263   1.493   5.760   6.100
 4788SOL    HW215264   1.453   5.622   6.176
 4789SOL     OW15265   5.366   0.599   0.404
 4789SOL    HW115266   5.413   0.563   0.324
 4789SOL    HW215267   5.404   0.556   0.487
 4790SOL     OW15268   6.451   3.250   6.129
 4790SOL    HW115269   6.522   3.315   6.102
 4790SOL    HW215270   6.489   3.157   6.124
 4791SOL     OW15271   5.813   1.898   2.056
 4791SOL    HW115272   5.822   1.845   2.140
 4791SOL    HW215273   5.859   1.986   2.067
 4792SOL     OW15274   1.804   3.532   2.416
 4792SOL    HW115275   1.863   3.467   2.466
 4792SOL    HW215276   1.797   3.617   2.468
 4793SOL     OW15277   0.919   2.916   6.089
 4793SOL    HW115278   0.837   2.887   6.040
 4793SOL    HW215279   0.918   2.875   6.181
 4794SOL     OW15280   3.959   1.102   3.735
 4794SOL    HW115281   4.023   1.178   3.739
 4794SOL    HW215282   4.000   1.026   3.685
 4795SOL     OW15283   6.391   1.465   3.435
 4795SOL    HW115284   6.461   1.535   3.419
 4795SOL    HW215285   6.347   1.482   3.523
 4796SOL     OW15286   5.079   2.302   6.519
 4796SOL    HW115287   5.112   2.225   6.464
 4796SOL    HW215288   5.126   2.385   6.491
 4797SOL     OW15289   1.399   6.574   4.958
 4797SOL    HW115290   1.346   6.527   5.028
 4797SOL    HW215291   1.375   6.671   4.957
 4798SOL     OW15292   0.092   3.393   5.304
 4798SOL    HW115293   7.018   3.362   5.315
 4798SOL    HW215294   0.135   3.345   5.228
 4799SOL     OW15295   5.148   2.134   6.318
 4799SOL    HW115296   5.079   2.069   6.351
 4799SOL    HW215297   5.235   2.086   6.304
 4800SOL     OW15298   3.081   3.268   5.716
 4800SOL    HW115299   3.015   3.265   5.641
 4800SOL    HW215300   3.145   3.191   5.707
 4801SOL     OW15301   2.081   2.362   6.862
 4801SOL    HW115302   2.105   2.265   6.866
 4801SOL    HW215303   2.054   2.393   6.954
 4802SOL     OW15304   0.947   6.833   2.206
 4802SOL    HW115305   0.860   6.784   2.202
 4802SOL    HW215306   1.015   6.775   2.251
 4803SOL     OW15307   1.137   6.829   0.511
 4803SOL    HW115308   1.064   6.793   0.454
 4803SOL    HW215309   1.111   6.919   0.547
 4804SOL     OW15310   4.605   5.262   6.432
 4804SOL    HW115311   4.545   5.186   6.407
 4804SOL    HW215312   4.582   5.342   6.377
 4805SOL     OW15313   6.259   6.772   1.489
 4805SOL    HW115314   6.357   6.768   1.470
 4805SOL    HW215315   6.212   6.701   1.435
 4806SOL     OW15316   0.265   4.298   3.242
 4806SOL    HW115317   0.341   4.267   3.185
 4806SOL    HW215318   0.299   4.361   3.311
 4807SOL     OW15319   1.334   5.376   0.754
 4807SOL    HW115320   1.327   5.375   0.854
 4807SOL    HW215321   1.428   5.400   0.728
 4808SOL     OW15322   6.579   3.889   6.663
 4808SOL    HW115323   6.522   3.808   6.651
 4808SOL    HW215324   6.527   3.959   6.712
 4809SOL     OW15325   3.538   3.758   6.546
 4809SOL    HW115326   3.558   3.734   6.641
 4809SOL    HW215327   3.566   3.852   6.529
 4810SOL     OW15328   1.233   4.591   2.548
 4810SOL    HW115329   1.168   4.654   2.507
 4810SOL    HW215330   1.242   4.610   2.646
 4811SOL     OW15331   2.207   4.685   2.216
 4811SOL    HW115332   2.150   4.665   2.136
 4811SOL    HW215333   2.300   4.708   2.185
 4812SOL     OW15334   0.237   5.120   5.557
 4812SOL    HW115335   0.195   5.123   5.467
 4812SOL    HW215336   0.195   5.047   5.611
 4813SOL     OW15337   5.291   1.678   1.238
 4813SOL    HW115338   5.352   1.599   1.251
 4813SOL    HW215339   5.232   1.661   1.158
 4814SOL     OW15340   5.620   4.382   0.290
 4814SOL    HW115341   5.555   4.318   0.333
 4814SOL    HW215342   5.710   4.340   0.285
 4815SOL     OW15343   5.272   4.433   2.433
 4815SOL    HW115344   5.271   4.520   2.482
 4815SOL    HW215345   5.350   4.378   2.464
 4816SOL     OW15346   6.498   5.263   3.014
 4816SOL    HW115347   6.561   5.309   3.077
 4816SOL    HW215348   6.550   5.203   2.953
 4817SOL     OW15349   0.688   2.333   6.540
 4817SOL    HW115350   0.760   2.398   6.516
 4817SOL    HW215351   0.631   2.371   6.613
 4818SOL     OW15352   0.749   0.151   4.222
 4818SOL    HW115353   0.749   0.055   4.251
 4818SOL    HW215354   0.776   0.209   4.299
 4819SOL     OW15355   1.841   2.764   0.653
 4819SOL    HW115356   1.825   2.788   0.558
 4819SOL    HW215357   1.794   2.678   0.674
 4820SOL     OW15358   6.960   2.840   1.516
 4820SOL    HW115359   6.930   2.805   1.427
 4820SOL    HW215360   6.882   2.882   1.563
 4821SOL     OW15361   0.759   6.154   2.920
 4821SOL    HW115362   0.795   6.061   2.911
 4821SOL    HW215363   0.815   6.205   2.985
 4822SOL     OW15364   1.466   3.374   4.629
 4822SOL    HW115365   1.540   3.432   4.664
 4822SOL    HW215366   1.427   3.320   4.704
 4823SOL     OW15367   1.835   1.968   3.523
 4823SOL    HW115368   1.846   1.979   3.424
 4823SOL    HW215369   1.893   1.893   3.555
 4824SOL     OW15370   5.414   2.409   5.432
 4824SOL    HW115371   5.431   2.410   5.333
 4824SOL    HW215372   5.344   2.342   5.453
 4825SOL     OW15373   1.500   2.153   4.379
 4825SOL    HW115374   1.526   2.197   4.464
 4825SOL    HW215375   1.537   2.205   4.302
 4826SOL     OW15376   5.875   0.625   0.710
 4826SOL    HW115377   5.964   0.579   0.709
 4826SOL    HW215378   5.816   0.580   0.777
 4827SOL     OW15379   6.431   2.330   0.854
 4827SOL    HW115380   6.349   2.351   0.907
 4827SOL    HW215381   6.454   2.234   0.866
 4828SOL     OW15382   5.176   0.715   1.198
 4828SOL    HW115383   5.110   0.696   1.126
 4828SOL    HW215384   5.191   0.813   1.206
 4829SOL     OW15385   3.929   0.089   6.329
 4829SOL    HW115386   4.024   0.120   6.320
 4829SOL    HW215387   3.922   0.026   6.406
 4830SOL     OW15388   3.665   5.552   3.966
 4830SOL    HW115389   3.723   5.478   4.002
 4830SOL    HW215390   3.686   5.637   4.014
 4831SOL     OW15391   2.261   5.307   4.715
 4831SOL    HW115392   2.216   5.396   4.712
 4831SOL    HW215393   2.236   5.254   4.634
 4832SOL     OW15394   2.911   3.664   3.970
 4832SOL    HW115395   2.920   3.697   3.876
 4832SOL    HW215396   2.911   3.741   4.033
 4833SOL     OW15397   5.643   1.740   2.733
 4833SOL    HW115398   5.625   1.819   2.674
 4833SOL    HW215399   5.739   1.714   2.725
 4834SOL     OW15400   2.012   5.977   2.134
 4834SOL    HW115401   1.983   6.047   2.200
 4834SOL    HW215402   1.999   6.011   2.041
 4835SOL     OW15403   6.102   2.721   5.752
 4835SOL    HW115404   6.199   2.696   5.746
 4835SOL    HW215405   6.085   2.803   5.697
 4836SOL     OW15406   5.544   1.667   4.761
 4836SOL    HW115407   5.550   1.756   4.806
 4836SOL    HW215408   5.471   1.613   4.803
 4837SOL     OW15409   6.576   3.584   3.101
 4837SOL    HW115410   6.633   3.503   3.086
 4837SOL    HW215411   6.593   3.620   3.193
 4838SOL     OW15412   2.460   5.793   6.934
 4838SOL    HW115413   2.505   5.759   6.851
 4838SOL    HW215414   2.381   5.735   6.955
 4839SOL     OW15415   1.474   3.173   0.317
 4839SOL    HW115416   1.484   3.179   0.218
 4839SOL    HW215417   1.388   3.216   0.345
 4840SOL     OW15418   5.960   3.872   5.793
 4840SOL    HW115419   6.033   3.893   5.859
 4840SOL    HW215420   5.988   3.905   5.702
 4841SOL     OW15421   2.901   5.507   3.017
 4841SOL    HW115422   2.815   5.458   3.032
 4841SOL    HW215423   2.908   5.535   2.921
 4842SOL     OW15424   2.882   5.170   3.206
 4842SOL    HW115425   2.789   5.204   3.191
 4842SOL    HW215426   2.904   5.103   3.135
 4843SOL     OW15427   6.517   2.076   2.064
 4843SOL    HW115428   6.491   1.983   2.037
 4843SOL    HW215429   6.573   2.117   1.991
 4844SOL     OW15430   0.441   4.102   5.454
 4844SOL    HW115431   0.381   4.022   5.448
 4844SOL    HW215432   0.414   4.158   5.532
 4845SOL     OW15433   4.489   5.106   5.438
 4845SOL    HW115434   4.518   5.147   5.351
 4845SOL    HW215435   4.393   5.127   5.454
 4846SOL     OW15436   0.244   1.595   3.591
 4846SOL    HW115437   0.167   1.658   3.584
 4846SOL    HW215438   0.214   1.510   3.635
 4847SOL     OW15439   2.265   1.238   5.464
 4847SOL    HW115440   2.254   1.323   5.410
 4847SOL    HW215441   2.177   1.214   5.504
 4848SOL     OW15442   2.606   1.391   4.005
 4848SOL    HW115443   2.660   1.409   4.088
 4848SOL    HW215444   2.532   1.458   3.998
 4849SOL     OW15445   1.767   6.745   0.468
 4849SOL    HW115446   1.715   6.828   0.447
 4849SOL    HW215447   1.734   6.669   0.412
 4850SOL     OW15448   4.654   0.532   1.202
 4850SOL    HW115449   4.729   0.473   1.173
 4850SOL    HW215450   4.632   0.514   1.297
 4851SOL     OW15451   4.066   5.645   6.514
 4851SOL    HW115452   4.137   5.580   6.485
 4851SOL    HW215453   4.016   5.678   6.434
 4852SOL     OW15454   2.696   5.750   4.705
 4852SOL    HW115455   2.683   5.791   4.615
 4852SOL    HW215456   2.771   5.683   4.701
 4853SOL     OW15457   4.064   1.435   3.055
 4853SOL    HW115458   3.986   1.374   3.039
 4853SOL    HW215459   4.034   1.515   3.106
 4854SOL     OW15460   5.060   6.765   1.844
 4854SOL    HW115461   5.041   6.859   1.817
 4854SOL    HW215462   4.995   6.704   1.799
 4855SOL     OW15463   6.426   3.437   5.243
 4855SOL    HW115464   6.370   3.401   5.169
 4855SOL    HW215465   6.368   3.483   5.310
 4856SOL     OW15466   0.851   2.671   2.826
 4856SOL    HW115467   0.796   2.755   2.825
 4856SOL    HW215468   0.879   2.648   2.733
 4857SOL     OW15469   3.523   1.736   3.484
 4857SOL    HW115470   3.470   1.660   3.521
 4857SOL    HW215471   3.601   1.700   3.433
 4858SOL     OW15472   0.756   6.954   4.755
 4858SOL    HW115473   0.693   6.954   4.677
 4858SOL    HW215474   0.824   0.006   4.743
 4859SOL     OW15475   1.205   4.999   1.779
 4859SOL    HW115476   1.207   4.953   1.868
 4859SOL    HW215477   1.149   5.082   1.786
 4860SOL     OW15478   4.537   4.356   0.258
 4860SOL    HW115479   4.521   4.360   0.159
 4860SOL    HW215480   4.571   4.444   0.290
 4861SOL     OW15481   6.054   5.636   6.598
 4861SOL    HW115482   6.038   5.631   6.499
 4861SOL    HW215483   6.152   5.643   6.615
 4862SOL     OW15484   2.715   4.749   4.452
 4862SOL    HW115485   2.686   4.829   4.504
 4862SOL    HW215486   2.635   4.703   4.413
 4863SOL     OW15487   5.005   3.322   2.786
 4863SOL    HW115488   4.980   3.226   2.774
 4863SOL    HW215489   4.966   3.377   2.712
 4864SOL     OW15490   3.369   1.795   1.695
 4864SOL    HW115491   3.273   1.799   1.670
 4864SOL    HW215492   3.400   1.700   1.695
 4865SOL     OW15493   2.602   5.196   5.315
 4865SOL    HW115494   2.523   5.252   5.341
 4865SOL    HW215495   2.589   5.103   5.349
 4866SOL     OW15496   6.090   4.905   1.381
 4866SOL    HW115497   6.034   4.948   1.452
 4866SOL    HW215498   6.079   4.806   1.385
 4867SOL     OW15499   4.508   5.622   3.597
 4867SOL    HW115500   4.444   5.668   3.659
 4867SOL    HW215501   4.557   5.690   3.543
 4868SOL     OW15502   0.777   5.800   1.687
 4868SOL    HW115503   0.749   5.767   1.597
 4868SOL    HW215504   0.812   5.724   1.741
 4869SOL     OW15505   6.776   2.269   1.178
 4869SOL    HW115506   6.692   2.239   1.222
 4869SOL    HW215507   6.780   2.369   1.177
 4870SOL     OW15508   4.800   5.067   1.777
 4870SOL    HW115509   4.800   5.164   1.802
 4870SOL    HW215510   4.728   5.050   1.710
 4871SOL     OW15511   1.082   0.629   3.807
 4871SOL    HW115512   0.991   0.650   3.843
 4871SOL    HW215513   1.085   0.648   3.709
 4872SOL     OW15514   1.068   6.890   3.160
 4872SOL    HW115515   1.153   6.919   3.115
 4872SOL    HW215516   0.997   6.874   3.091
 4873SOL     OW15517   0.112   4.904   4.564
 4873SOL    HW115518   0.035   4.891   4.627
 4873SOL    HW215519   0.173   4.825   4.569
 4874SOL     OW15520   5.846   3.728   2.150
 4874SOL    HW115521   5.803   3.761   2.066
 4874SOL    HW215522   5.944   3.716   2.134
 4875SOL     OW15523   5.668   2.356   1.068
 4875SOL    HW115524   5.597   2.415   1.031
 4875SOL    HW215525   5.630   2.266   1.089
 4876SOL     OW15526   5.557   0.746   5.349
 4876SOL    HW115527   5.630   0.795   5.300
 4876SOL    HW215528   5.598   0.689   5.420
 4877SOL     OW15529   0.116   1.385   1.118
 4877SOL    HW115530   0.146   1.371   1.212
 4877SOL    HW215531   0.154   1.471   1.083
 4878SOL     OW15532   0.034   1.668   1.998
 4878SOL    HW115533   6.970   1.718   2.019
 4878SOL    HW215534   0.093   1.667   2.079
 4879SOL     OW15535   4.497   4.484   2.916
 4879SOL    HW115536   4.417   4.527   2.873
 4879SOL    HW215537   4.540   4.422   2.851
 4880SOL     OW15538   5.612   2.101   6.722
 4880SOL    HW115539   5.574   2.136   6.637
 4880SOL    HW215540   5.618   2.001   6.718
 4881SOL     OW15541   2.367   5.983   6.542
 4881SOL    HW115542   2.449   5.962   6.489
 4881SOL    HW215543   2.297   5.915   6.522
 4882SOL     OW15544   6.165   1.530   5.534
 4882SOL    HW115545   6.146   1.439   5.496
 4882SOL    HW215546   6.098   1.552   5.605
 4883SOL     OW15547   4.671   5.188   2.527
 4883SOL    HW115548   4.742   5.250   2.494
 4883SOL    HW215549   4.667   5.192   2.627
 4884SOL     OW15550   4.600   6.976   1.425
 4884SOL    HW115551   4.543   6.944   1.350
 4884SOL    HW215552   4.669   0.019   1.390
 4885SOL     OW15553   2.286   6.412   2.345
 4885SOL    HW115554   2.197   6.440   2.382
 4885SOL    HW215555   2.299   6.454   2.255
 4886SOL     OW15556   0.512   6.763   6.072
 4886SOL    HW115557   0.425   6.788   6.030
 4886SOL    HW215558   0.565   6.705   6.010
 4887SOL     OW15559   0.065   1.650   3.278
 4887SOL    HW115560   0.076   1.699   3.365
 4887SOL    HW215561   0.060   1.552   3.295
 4888SOL     OW15562   1.671   6.566   3.764
 4888SOL    HW115563   1.688   6.656   3.724
 4888SOL    HW215564   1.746   6.541   3.824
 4889SOL     OW15565   0.395   1.561   0.590
 4889SOL    HW115566   0.471   1.534   0.531
 4889SOL    HW215567   0.328   1.613   0.537
 4890SOL     OW15568   0.467   1.512   4.261
 4890SOL    HW115569   0.436   1.459   4.340
 4890SOL    HW215570   0.466   1.454   4.180
 4891SOL     OW15571   0.542   5.693   0.226
 4891SOL    HW115572   0.530   5.789   0.251
 4891SOL    HW215573   0.639   5.673   0.214
 4892SOL     OW15574   1.478   5.711   2.940
 4892SOL    HW115575   1.425   5.654   3.003
 4892SOL    HW215576   1.420   5.739   2.864
 4893SOL     OW15577   6.732   4.267   6.676
 4893SOL    HW115578   6.723   4.191   6.612
 4893SOL    HW215579   6.806   4.248   6.740
 4894SOL     OW15580   2.345   6.974   2.747
 4894SOL    HW115581   2.280   6.913   2.703
 4894SOL    HW215582   2.308   0.046   2.751
 4895SOL     OW15583   0.804   4.122   1.181
 4895SOL    HW115584   0.796   4.182   1.102
 4895SOL    HW215585   0.900   4.105   1.201
 4896SOL     OW15586   3.347   5.185   2.949
 4896SOL    HW115587   3.429   5.239   2.966
 4896SOL    HW215588   3.372   5.088   2.939
 4897SOL     OW15589   3.306   5.250   5.906
 4897SOL    HW115590   3.343   5.171   5.856
 4897SOL    HW215591   3.376   5.286   5.968
 4898SOL     OW15592   5.628   2.655   5.300
 4898SOL    HW115593   5.686   2.593   5.246
 4898SOL    HW215594   5.555   2.602   5.343
 4899SOL     OW15595   6.213   4.611   3.042
 4899SOL    HW115596   6.129   4.623   2.990
 4899SOL    HW215597   6.269   4.694   3.034
 4900SOL     OW15598   0.738   6.414   5.563
 4900SOL    HW115599   0.835   6.436   5.560
 4900SOL    HW215600   0.684   6.498   5.557
 4901SOL     OW15601   1.990   6.714   4.227
 4901SOL    HW115602   1.895   6.708   4.260
 4901SOL    HW215603   2.052   6.677   4.296
 4902SOL     OW15604   1.585   3.444   3.158
 4902SOL    HW115605   1.609   3.355   3.119
 4902SOL    HW215606   1.591   3.514   3.086
 4903SOL     OW15607   3.670   6.509   6.942
 4903SOL    HW115608   3.649   6.574   7.014
 4903SOL    HW215609   3.659   6.416   6.976
 4904SOL     OW15610   2.053   6.155   4.425
 4904SOL    HW115611   2.071   6.243   4.468
 4904SOL    HW215612   2.027   6.089   4.496
 4905SOL     OW15613   4.761   2.265   2.034
 4905SOL    HW115614   4.856   2.236   2.024
 4905SOL    HW215615   4.757   2.346   2.092
 4906SOL     OW15616   3.817   0.196   0.295
 4906SOL    HW115617   3.866   0.123   0.343
 4906SOL    HW215618   3.880   0.271   0.276
 4907SOL     OW15619   3.924   6.289   2.829
 4907SOL    HW115620   3.838   6.273   2.877
 4907SOL    HW215621   3.909   6.355   2.755
 4908SOL     OW15622   4.034   5.791   6.731
 4908SOL    HW115623   4.049   5.719   6.663
 4908SOL    HW215624   3.967   5.857   6.696
 4909SOL     OW15625   6.031   0.838   6.393
 4909SOL    HW115626   6.105   0.770   6.393
 4909SOL    HW215627   6.054   0.913   6.332
 4910SOL     OW15628   5.175   0.269   5.738
 4910SOL    HW115629   5.137   0.245   5.828
 4910SOL    HW215630   5.262   0.223   5.725
 4911SOL     OW15631   0.046   2.197   5.878
 4911SOL    HW115632   6.971   2.222   5.897
 4911SOL    HW215633   0.051   2.149   5.791
 4912SOL     OW15634   5.066   1.235   1.673
 4912SOL    HW115635   5.099   1.141   1.679
 4912SOL    HW215636   4.985   1.246   1.732
 4913SOL     OW15637   3.454   4.177   3.912
 4913SOL    HW115638   3.471   4.156   3.815
 4913SOL    HW215639   3.532   4.150   3.967
 4914SOL     OW15640   2.597   0.931   4.647
 4914SOL    HW115641   2.631   0.948   4.555
 4914SOL    HW215642   2.540   1.008   4.677
 4915SOL     OW15643   4.592   6.523   4.613
 4915SOL    HW115644   4.542   6.576   4.681
 4915SOL    HW215645   4.673   6.574   4.583
 4916SOL     OW15646   2.441   1.959   2.790
 4916SOL    HW115647   2.424   2.047   2.836
 4916SOL    HW215648   2.464   1.890   2.858
 4917SOL     OW15649   1.168   4.220   0.838
 4917SOL    HW115650   1.234   4.150   0.866
 4917SOL    HW215651   1.137   4.201   0.745
 4918SOL     OW15652   3.031   0.231   2.813
 4918SOL    HW115653   2.987   0.195   2.894
 4918SOL    HW215654   3.057   0.156   2.752
 4919SOL     OW15655   1.801   2.381   2.940
 4919SOL    HW115656   1.740   2.400   2.863
 4919SOL    HW215657   1.765   2.305   2.993
 4920SOL     OW15658   4.275   0.452   6.889
 4920SOL    HW115659   4.241   0.546   6.892
 4920SOL    HW215660   4.351   0.447   6.824
 4921SOL     OW15661   2.357   4.119   1.981
 4921SOL    HW115662   2.339   4.126   1.882
 4921SOL    HW215663   2.428   4.051   1.996
 4922SOL     OW15664   1.194   3.483   5.301
 4922SOL    HW115665   1.151   3.408   5.251
 4922SOL    HW215666   1.144   3.499   5.386
 4923SOL     OW15667   4.693   0.565   1.878
 4923SOL    HW115668   4.649   0.491   1.929
 4923SOL    HW215669   4.788   0.575   1.910
 4924SOL     OW15670   2.262   3.498   5.239
 4924SOL    HW115671   2.219   3.464   5.156
 4924SOL    HW215672   2.276   3.597   5.232
 4925SOL     OW15673   5.682   6.159   0.714
 4925SOL    HW115674   5.730   6.077   0.682
 4925SOL    HW215675   5.736   6.203   0.785
 4926SOL     OW15676   4.727   2.683   1.780
 4926SOL    HW115677   4.802   2.617   1.793
 4926SOL    HW215678   4.746   2.738   1.699
 4927SOL     OW15679   3.641   2.959   3.137
 4927SOL    HW115680   3.673   2.926   3.048
 4927SOL    HW215681   3.714   2.949   3.204
 4928SOL     OW15682   0.074   0.090   6.551
 4928SOL    HW115683   0.077   0.098   6.451
 4928SOL    HW215684   0.057   0.181   6.591
 4929SOL     OW15685   1.143   4.214   5.314
 4929SOL    HW115686   1.141   4.201   5.413
 4929SOL    HW215687   1.181   4.304   5.293
 4930SOL     OW15688   0.716   1.333   0.049
 4930SOL    HW115689   0.653   1.352   6.994
 4930SOL    HW215690   0.673   1.360   0.136
 4931SOL     OW15691   0.750   0.366   6.467
 4931SOL    HW115692   0.653   0.352   6.443
 4931SOL    HW215693   0.778   0.298   6.535
 4932SOL     OW15694   2.261   3.219   1.758
 4932SOL    HW115695   2.291   3.306   1.798
 4932SOL    HW215696   2.333   3.183   1.698
 4933SOL     OW15697   1.969   0.804   4.121
 4933SOL    HW115698   1.905   0.852   4.181
 4933SOL    HW215699   2.053   0.783   4.170
 4934SOL     OW15700   0.952   5.162   4.358
 4934SOL    HW115701   0.991   5.077   4.323
 4934SOL    HW215702   0.900   5.208   4.286
 4935SOL     OW15703   1.765   0.950   6.926
 4935SOL    HW115704   1.687   0.910   6.975
 4935SOL    HW215705   1.841   0.963   6.990
 4936SOL     OW15706   2.336   6.091   1.727
 4936SOL    HW115707   2.332   6.080   1.628
 4936SOL    HW215708   2.250   6.059   1.767
 4937SOL     OW15709   1.251   4.235   6.015
 4937SOL    HW115710   1.287   4.219   6.106
 4937SOL    HW215711   1.172   4.174   5.999
 4938SOL     OW15712   3.381   4.959   2.081
 4938SOL    HW115713   3.437   4.878   2.060
 4938SOL    HW215714   3.396   5.028   2.010
 4939SOL     OW15715   1.132   2.348   1.913
 4939SOL    HW115716   1.098   2.272   1.969
 4939SOL    HW215717   1.207   2.394   1.961
 4940SOL     OW15718   0.060   1.703   4.931
 4940SOL    HW115719   7.004   1.641   4.914
 4940SOL    HW215720   0.042   1.791   4.887
 4941SOL     OW15721   4.056   2.663   5.360
 4941SOL    HW115722   3.994   2.735   5.328
 4941SOL    HW215723   4.069   2.595   5.288
 4942SOL     OW15724   5.699   3.118   3.446
 4942SOL    HW115725   5.626   3.187   3.441
 4942SOL    HW215726   5.666   3.033   3.403
 4943SOL     OW15727   5.417   4.008   6.066
 4943SOL    HW115728   5.411   4.067   6.147
 4943SOL    HW215729   5.452   3.919   6.094
 4944SOL     OW15730   2.213   4.455   1.088
 4944SOL    HW115731   2.202   4.428   1.184
 4944SOL    HW215732   2.267   4.386   1.040
 4945SOL     OW15733   1.235   0.852   4.597
 4945SOL    HW115734   1.228   0.797   4.681
 4945SOL    HW215735   1.146   0.856   4.553
 4946SOL     OW15736   1.224   4.689   0.148
 4946SOL    HW115737   1.311   4.661   0.106
 4946SOL    HW215738   1.228   4.670   0.247
 4947SOL     OW15739   2.776   1.138   2.094
 4947SOL    HW115740   2.758   1.207   2.025
 4947SOL    HW215741   2.823   1.180   2.172
 4948SOL     OW15742   1.552   2.413   2.776
 4948SOL    HW115743   1.549   2.315   2.757
 4948SOL    HW215744   1.515   2.463   2.698
 4949SOL     OW15745   6.272   3.756   5.898
 4949SOL    HW115746   6.201   3.716   5.838
 4949SOL    HW215747   6.271   3.709   5.986
 4950SOL     OW15748   1.937   3.999   5.476
 4950SOL    HW115749   2.024   4.028   5.436
 4950SOL    HW215750   1.885   4.079   5.505
 4951SOL     OW15751   6.133   6.141   4.831
 4951SOL    HW115752   6.209   6.152   4.767
 4951SOL    HW215753   6.151   6.198   4.912
 4952SOL     OW15754   6.939   0.549   6.713
 4952SOL    HW115755   0.007   0.502   6.724
 4952SOL    HW215756   6.954   0.638   6.670
 4953SOL     OW15757   2.160   1.623   4.090
 4953SOL    HW115758   2.123   1.539   4.130
 4953SOL    HW215759   2.144   1.700   4.152
 4954SOL     OW15760   2.189   4.141   6.319
 4954SOL    HW115761   2.118   4.142   6.249
 4954SOL    HW215762   2.278   4.123   6.276
 4955SOL     OW15763   3.408   5.566   0.246
 4955SOL    HW115764   3.399   5.665   0.244
 4955SOL    HW215765   3.477   5.537   0.180
 4956SOL     OW15766   3.088   0.541   5.994
 4956SOL    HW115767   3.066   0.444   5.995
 4956SOL    HW215768   3.039   0.585   5.918
 4957SOL     OW15769   6.139   3.384   0.069
 4957SOL    HW115770   6.066   3.317   0.053
 4957SOL    HW215771   6.157   3.390   0.167
 4958SOL     OW15772   1.946   6.124   5.556
 4958SOL    HW115773   1.959   6.062   5.479
 4958SOL    HW215774   1.858   6.105   5.600
 4959SOL     OW15775   6.615   1.650   1.251
 4959SOL    HW115776   6.529   1.675   1.297
 4959SOL    HW215777   6.596   1.621   1.157
 4960SOL     OW15778   4.069   4.864   3.450
 4960SOL    HW115779   4.006   4.857   3.373
 4960SOL    HW215780   4.150   4.808   3.431
 4961SOL     OW15781   3.416   0.592   6.583
 4961SOL    HW115782   3.498   0.604   6.638
 4961SOL    HW215783   3.386   0.681   6.548
 4962SOL     OW15784   5.606   2.691   0.977
 4962SOL    HW115785   5.555   2.613   1.013
 4962SOL    HW215786   5.635   2.749   1.053
 4963SOL     OW15787   1.648   5.706   1.050
 4963SOL    HW115788   1.601   5.629   1.094
 4963SOL    HW215789   1.728   5.672   1.001
 4964SOL     OW15790   1.931   6.368   5.002
 4964SOL    HW115791   1.921   6.464   4.977
 4964SOL    HW215792   2.000   6.325   4.944
 4965SOL     OW15793   0.603   0.040   2.648
 4965SOL    HW115794   0.558   6.972   2.635
 4965SOL    HW215795   0.652   0.040   2.736
 4966SOL     OW15796   1.565   6.463   4.557
 4966SOL    HW115797   1.502   6.484   4.482
 4966SOL    HW215798   1.580   6.364   4.562
 4967SOL     OW15799   3.163   5.468   5.849
 4967SOL    HW115800   3.185   5.556   5.891
 4967SOL    HW215801   3.221   5.397   5.889
 4968SOL     OW15802   7.006   1.061   4.153
 4968SOL    HW115803   6.927   1.000   4.143
 4968SOL    HW215804   0.044   1.054   4.072
 4969SOL     OW15805   0.373   5.563   2.775
 4969SOL    HW115806   0.277   5.564   2.748
 4969SOL    HW215807   0.397   5.472   2.811
 4970SOL     OW15808   2.122   0.762   1.427
 4970SOL    HW115809   2.098   0.666   1.413
 4970SOL    HW215810   2.176   0.794   1.349
 4971SOL     OW15811   6.448   6.174   3.280
 4971SOL    HW115812   6.418   6.140   3.191
 4971SOL    HW215813   6.547   6.171   3.285
 4972SOL     OW15814   1.482   4.393   0.639
 4972SOL    HW115815   1.577   4.383   0.608
 4972SOL    HW215816   1.421   4.382   0.560
 4973SOL     OW15817   0.720   0.462   1.603
 4973SOL    HW115818   0.638   0.502   1.643
 4973SOL    HW215819   0.801   0.502   1.646
 4974SOL     OW15820   5.769   4.462   0.995
 4974SOL    HW115821   5.736   4.422   0.910
 4974SOL    HW215822   5.788   4.560   0.982
 4975SOL     OW15823   5.657   4.139   0.487
 4975SOL    HW115824   5.594   4.061   0.494
 4975SOL    HW215825   5.738   4.121   0.542
 4976SOL     OW15826   1.306   0.265   4.713
 4976SOL    HW115827   1.301   0.271   4.613
 4976SOL    HW215828   1.323   0.356   4.751
 4977SOL     OW15829   3.644   4.009   6.530
 4977SOL    HW115830   3.572   4.067   6.567
 4977SOL    HW215831   3.718   4.067   6.495
 4978SOL     OW15832   5.082   4.874   4.415
 4978SOL    HW115833   5.095   4.828   4.502
 4978SOL    HW215834   5.124   4.821   4.341
 4979SOL     OW15835   0.076   6.664   6.652
 4979SOL    HW115836   0.081   6.568   6.624
 4979SOL    HW215837   7.012   6.704   6.617
 4980SOL     OW15838   5.592   5.006   2.640
 4980SOL    HW115839   5.546   5.031   2.555
 4980SOL    HW215840   5.525   4.998   2.713
 4981SOL     OW15841   3.672   5.745   1.965
 4981SOL    HW115842   3.751   5.748   1.903
 4981SOL    HW215843   3.701   5.707   2.053
 4982SOL     OW15844   3.536   1.890   6.344
 4982SOL    HW115845   3.484   1.917   6.425
 4982SOL    HW215846   3.523   1.958   6.272
 4983SOL     OW15847   6.198   4.654   4.677
 4983SOL    HW115848   6.293   4.686   4.671
 4983SOL    HW215849   6.149   4.711   4.743
 4984SOL     OW15850   4.768   4.103   2.626
 4984SOL    HW115851   4.825   4.160   2.567
 4984SOL    HW215852   4.711   4.043   2.570
 4985SOL     OW15853   5.211   6.284   2.640
 4985SOL    HW115854   5.119   6.265   2.605
 4985SOL    HW215855   5.271   6.206   2.620
 4986SOL     OW15856   6.270   4.935   0.590
 4986SOL    HW115857   6.305   4.952   0.498
 4986SOL    HW215858   6.170   4.932   0.588
 4987SOL     OW15859   1.333   6.220   2.042
 4987SOL    HW115860   1.262   6.159   2.077
 4987SOL    HW215861   1.420   6.196   2.085
 4988SOL     OW15862   5.912   1.294   3.645
 4988SOL    HW115863   5.880   1.217   3.701
 4988SOL    HW215864   5.924   1.375   3.702
 4989SOL     OW15865   4.841   0.365   2.019
 4989SOL    HW115866   4.939   0.351   2.005
 4989SOL    HW215867   4.791   0.288   1.979
 4990SOL     OW15868   3.001   2.306   6.311
 4990SOL    HW115869   3.085   2.254   6.329
 4990SOL    HW215870   2.931   2.244   6.277
 4991SOL     OW15871   6.994   5.184   3.749
 4991SOL    HW115872   6.904   5.145   3.766
 4991SOL    HW215873   0.003   5.236   3.830
 4992SOL     OW15874   5.572   0.970   2.837
 4992SOL    HW115875   5.510   1.046   2.818
 4992SOL    HW215876   5.658   1.007   2.874
 4993SOL     OW15877   3.900   5.838   5.136
 4993SOL    HW115878   3.818   5.794   5.174
 4993SOL    HW215879   3.935   5.784   5.060
 4994SOL     OW15880   2.637   5.743   4.954
 4994SOL    HW115881   2.668   5.743   4.859
 4994SOL    HW215882   2.546   5.785   4.960
 4995SOL     OW15883   1.253   1.055   5.212
 4995SOL    HW115884   1.239   0.975   5.271
 4995SOL    HW215885   1.270   1.136   5.268
 4996SOL     OW15886   6.437   1.045   3.348
 4996SOL    HW115887   6.492   1.058   3.430
 4996SOL    HW215888   6.430   1.131   3.299
 4997SOL     OW15889   3.894   2.473   1.251
 4997SOL    HW115890   3.863   2.565   1.274
 4997SOL    HW215891   3.925   2.427   1.335
 4998SOL     OW15892   1.894   3.311   4.326
 4998SOL    HW115893   1.914   3.249   4.401
 4998SOL    HW215894   1.835   3.265   4.260
 4999SOL     OW15895   0.071   3.472   4.528
 4999SOL    HW115896   0.100   3.378   4.514
 4999SOL    HW215897   6.992   3.475   4.541
 5000SOL     OW15898   3.101   6.990   3.324
 5000SOL    HW115899   3.184   6.973   3.272
 5000SOL    HW215900   3.123   0.022   3.406
 5001SOL     OW15901   0.794   5.845   2.360
 5001SOL    HW115902   0.879   5.800   2.334
 5001SOL    HW215903   0.800   5.943   2.339
 5002SOL     OW15904   0.113   4.959   2.180
 5002SOL    HW115905   0.128   4.930   2.085
 5002SOL    HW215906   0.053   5.039   2.182
 5003SOL     OW15907   4.688   6.579   2.780
 5003SOL    HW115908   4.638   6.565   2.865
 5003SOL    HW215909   4.758   6.508   2.770
 5004SOL     OW15910   2.305   4.824   5.520
 5004SOL    HW115911   2.207   4.824   5.540
 5004SOL    HW215912   2.328   4.743   5.465
 5005SOL     OW15913   2.859   2.777   6.411
 5005SOL    HW115914   2.928   2.791   6.340
 5005SOL    HW215915   2.849   2.679   6.429
 5006SOL     OW15916   6.165   0.940   2.166
 5006SOL    HW115917   6.121   0.992   2.092
 5006SOL    HW215918   6.265   0.947   2.156
 5007SOL     OW15919   0.001   0.129   1.215
 5007SOL    HW115920   6.942   0.156   1.268
 5007SOL    HW215921   0.050   0.056   1.262
 5008SOL     OW15922   5.820   5.794   1.549
 5008SOL    HW115923   5.727   5.757   1.548
 5008SOL    HW215924   5.882   5.730   1.594
 5009SOL     OW15925   0.219   2.648   0.422
 5009SOL    HW115926   0.290   2.583   0.393
 5009SOL    HW215927   0.189   2.625   0.514
 5010SOL     OW15928   4.315   2.107   0.770
 5010SOL    HW115929   4.313   2.187   0.830
 5010SOL    HW215930   4.410   2.086   0.745
 5011SOL     OW15931   2.146   4.367   1.386
 5011SOL    HW115932   2.123   4.460   1.415
 5011SOL    HW215933   2.071   4.305   1.412
 5012SOL     OW15934   6.232   2.235   5.244
 5012SOL    HW115935   6.287   2.258   5.163
 5012SOL    HW215936   6.219   2.317   5.300
 5013SOL     OW15937   5.315   1.063   6.436
 5013SOL    HW115938   5.360   0.989   6.486
 5013SOL    HW215939   5.261   1.118   6.499
 5014SOL     OW15940   6.531   4.286   6.926
 5014SOL    HW115941   6.597   4.288   6.851
 5014SOL    HW215942   6.514   4.380   6.958
 5015SOL     OW15943   4.470   0.856   4.803
 5015SOL    HW115944   4.372   0.850   4.786
 5015SOL    HW215945   4.517   0.885   4.719
 5016SOL     OW15946   0.999   2.941   4.977
 5016SOL    HW115947   1.062   2.986   5.040
 5016SOL    HW215948   1.041   2.858   4.940
 5017SOL     OW15949   1.785   2.371   1.118
 5017SOL    HW115950   1.867   2.392   1.171
 5017SOL    HW215951   1.781   2.272   1.102
 5018SOL     OW15952   1.499   5.216   2.781
 5018SOL    HW115953   1.515   5.217   2.880
 5018SOL    HW215954   1.434   5.143   2.759
 5019SOL     OW15955   2.416   6.338   5.604
 5019SOL    HW115956   2.496   6.282   5.625
 5019SOL    HW215957   2.334   6.291   5.635
 5020SOL     OW15958   6.802   0.231   6.016
 5020SOL    HW115959   6.712   0.259   5.983
 5020SOL    HW215960   6.795   0.202   6.112
 5021SOL     OW15961   1.212   1.220   1.173
 5021SOL    HW115962   1.195   1.294   1.107
 5021SOL    HW215963   1.129   1.164   1.182
 5022SOL     OW15964   1.486   2.385   1.707
 5022SOL    HW115965   1.414   2.453   1.688
 5022SOL    HW215966   1.486   2.362   1.804
 5023SOL     OW15967   0.289   4.212   1.525
 5023SOL    HW115968   0.302   4.285   1.458
 5023SOL    HW215969   0.359   4.219   1.595
 5024SOL     OW15970   5.943   5.446   1.250
 5024SOL    HW115971   6.005   5.369   1.239
 5024SOL    HW215972   5.856   5.426   1.206
 5025SOL     OW15973   4.175   2.295   4.052
 5025SOL    HW115974   4.143   2.272   3.960
 5025SOL    HW215975   4.104   2.271   4.119
 5026SOL     OW15976   6.854   5.712   5.617
 5026SOL    HW115977   6.846   5.698   5.715
 5026SOL    HW215978   6.934   5.770   5.598
 5027SOL     OW15979   6.102   0.149   1.820
 5027SOL    HW115980   6.176   0.093   1.784
 5027SOL    HW215981   6.135   0.242   1.837
 5028SOL     OW15982   6.602   1.758   2.994
 5028SOL    HW115983   6.553   1.791   3.075
 5028SOL    HW215984   6.536   1.730   2.925
 5029SOL     OW15985   6.105   2.276   2.562
 5029SOL    HW115986   6.122   2.208   2.490
 5029SOL    HW215987   6.115   2.232   2.651
 5030SOL     OW15988   6.562   6.413   6.858
 5030SOL    HW115989   6.593   6.343   6.794
 5030SOL    HW215990   6.614   6.497   6.842
 5031SOL     OW15991   6.592   1.233   5.924
 5031SOL    HW115992   6.674   1.275   5.964
 5031SOL    HW215993   6.550   1.298   5.860
 5032SOL     OW15994   3.198   1.523   6.080
 5032SOL    HW115995   3.259   1.445   6.062
 5032SOL    HW215996   3.253   1.606   6.088
 5033SOL     OW15997   2.132   0.297   6.435
 5033SOL    HW115998   2.212   0.246   6.465
 5033SOL    HW215999   2.153   0.395   6.435
 5034SOL     OW16000   5.841   0.236   3.655
 5034SOL    HW116001   5.743   0.237   3.637
 5034SOL    HW216002   5.872   0.143   3.675
 5035SOL     OW16003   0.138   4.158   5.656
 5035SOL    HW116004   0.154   4.061   5.676
 5035SOL    HW216005   0.128   4.208   5.742
 5036SOL     OW16006   0.143   4.864   0.029
 5036SOL    HW116007   0.137   4.777   0.077
 5036SOL    HW216008   0.184   4.933   0.088
 5037SOL     OW16009   5.362   4.713   1.889
 5037SOL    HW116010   5.313   4.626   1.878
 5037SOL    HW216011   5.460   4.695   1.897
 5038SOL     OW16012   3.482   3.025   5.321
 5038SOL    HW116013   3.476   2.940   5.267
 5038SOL    HW216014   3.517   3.004   5.412
 5039SOL     OW16015   2.192   3.312   5.425
 5039SOL    HW116016   2.233   3.368   5.353
 5039SOL    HW216017   2.240   3.225   5.432
 5040SOL     OW16018   0.726   6.682   5.906
 5040SOL    HW116019   0.792   6.672   5.831
 5040SOL    HW216020   0.763   6.640   5.989
 5041SOL     OW16021   1.918   1.603   1.899
 5041SOL    HW116022   1.818   1.607   1.908
 5041SOL    HW216023   1.942   1.551   1.817
 5042SOL     OW16024   6.626   3.545   0.505
 5042SOL    HW116025   6.654   3.495   0.587
 5042SOL    HW216026   6.541   3.595   0.525
 5043SOL     OW16027   4.065   0.302   6.822
 5043SOL    HW116028   4.027   0.355   6.746
 5043SOL    HW216029   4.141   0.353   6.862
 5044SOL     OW16030   0.539   6.115   1.071
 5044SOL    HW116031   0.451   6.133   1.115
 5044SOL    HW216032   0.612   6.123   1.139
 5045SOL     OW16033   5.901   6.033   6.476
 5045SOL    HW116034   5.893   5.987   6.564
 5045SOL    HW216035   5.872   6.128   6.485
 5046SOL     OW16036   4.141   3.607   3.204
 5046SOL    HW116037   4.101   3.609   3.295
 5046SOL    HW216038   4.189   3.693   3.186
 5047SOL     OW16039   1.625   4.198   3.052
 5047SOL    HW116040   1.709   4.146   3.041
 5047SOL    HW216041   1.646   4.291   3.080
 5048SOL     OW16042   1.439   0.939   3.166
 5048SOL    HW116043   1.444   0.869   3.238
 5048SOL    HW216044   1.435   0.894   3.077
 5049SOL     OW16045   4.890   1.739   0.115
 5049SOL    HW116046   4.922   1.676   0.045
 5049SOL    HW216047   4.931   1.715   0.203
 5050SOL     OW16048   1.380   0.754   0.220
 5050SOL    HW116049   1.281   0.741   0.231
 5050SOL    HW216050   1.428   0.697   0.287
 5051SOL     OW16051   4.763   4.363   1.294
 5051SOL    HW116052   4.743   4.311   1.377
 5051SOL    HW216053   4.838   4.319   1.245
 5052SOL     OW16054   2.895   1.461   5.588
 5052SOL    HW116055   2.833   1.394   5.548
 5052SOL    HW216056   2.861   1.553   5.569
 5053SOL     OW16057   1.386   4.686   3.486
 5053SOL    HW116058   1.315   4.696   3.556
 5053SOL    HW216059   1.473   4.721   3.521
 5054SOL     OW16060   2.304   4.826   4.430
 5054SOL    HW116061   2.271   4.887   4.358
 5054SOL    HW216062   2.372   4.763   4.392
 5055SOL     OW16063   0.763   2.481   6.213
 5055SOL    HW116064   0.805   2.390   6.222
 5055SOL    HW216065   0.745   2.500   6.116
 5056SOL     OW16066   5.942   4.271   6.152
 5056SOL    HW116067   5.882   4.332   6.101
 5056SOL    HW216068   5.927   4.285   6.250
 5057SOL     OW16069   0.295   6.957   3.365
 5057SOL    HW116070   0.217   6.926   3.310
 5057SOL    HW216071   0.263   6.996   3.451
 5058SOL     OW16072   3.593   3.722   5.571
 5058SOL    HW116073   3.547   3.738   5.658
 5058SOL    HW216074   3.542   3.653   5.519
 5059SOL     OW16075   6.323   0.798   3.158
 5059SOL    HW116076   6.357   0.738   3.231
 5059SOL    HW216077   6.266   0.870   3.199
 5060SOL     OW16078   0.401   2.363   6.412
 5060SOL    HW116079   0.406   2.460   6.435
 5060SOL    HW216080   0.481   2.315   6.449
 5061SOL     OW16081   5.007   2.704   0.681
 5061SOL    HW116082   4.976   2.769   0.751
 5061SOL    HW216083   5.030   2.755   0.598
 5062SOL     OW16084   6.126   6.390   2.963
 5062SOL    HW116085   6.151   6.473   2.913
 5062SOL    HW216086   6.209   6.343   2.993
 5063SOL     OW16087   0.470   0.282   2.667
 5063SOL    HW116088   0.517   0.209   2.617
 5063SOL    HW216089   0.382   0.248   2.701
 5064SOL     OW16090   4.877   3.112   0.818
 5064SOL    HW116091   4.931   3.187   0.781
 5064SOL    HW216092   4.787   3.145   0.844
 5065SOL     OW16093   2.978   0.784   5.648
 5065SOL    HW116094   2.981   0.740   5.558
 5065SOL    HW216095   3.066   0.828   5.667
 5066SOL     OW16096   5.082   4.439   2.209
 5066SOL    HW116097   5.151   4.432   2.137
 5066SOL    HW216098   5.125   4.425   2.298
 5067SOL     OW16099   4.783   1.083   1.400
 5067SOL    HW116100   4.882   1.076   1.384
 5067SOL    HW216101   4.734   1.051   1.320
 5068SOL     OW16102   2.875   4.602   0.842
 5068SOL    HW116103   2.776   4.588   0.846
 5068SOL    HW216104   2.922   4.515   0.856
 5069SOL     OW16105   1.268   3.913   3.990
 5069SOL    HW116106   1.272   3.994   3.932
 5069SOL    HW216107   1.204   3.929   4.065
 5070SOL     OW16108   5.198   3.852   4.009
 5070SOL    HW116109   5.109   3.831   3.968
 5070SOL    HW216110   5.248   3.767   4.026
 5071SOL     OW16111   4.923   2.092   4.784
 5071SOL    HW116112   5.016   2.055   4.795
 5071SOL    HW216113   4.881   2.053   4.702
 5072SOL     OW16114   0.666   6.747   0.176
 5072SOL    HW116115   0.646   6.845   0.183
 5072SOL    HW216116   0.581   6.696   0.190
 5073SOL     OW16117   6.794   6.819   3.139
 5073SOL    HW116118   6.843   6.906   3.149
 5073SOL    HW216119   6.700   6.831   3.172
 5074SOL     OW16120   3.300   3.350   6.776
 5074SOL    HW116121   3.360   3.404   6.717
 5074SOL    HW216122   3.245   3.288   6.719
 5075SOL     OW16123   0.617   2.146   6.337
 5075SOL    HW116124   0.685   2.159   6.264
 5075SOL    HW216125   0.650   2.188   6.421
 5076SOL     OW16126   3.528   0.832   1.049
 5076SOL    HW116127   3.536   0.898   0.974
 5076SOL    HW216128   3.619   0.807   1.081
 5077SOL     OW16129   0.565   2.586   4.623
 5077SOL    HW116130   0.559   2.499   4.574
 5077SOL    HW216131   0.609   2.570   4.712
 5078SOL     OW16132   0.951   1.907   3.609
 5078SOL    HW116133   1.023   1.973   3.627
 5078SOL    HW216134   0.875   1.951   3.561
 5079SOL     OW16135   2.329   5.052   6.113
 5079SOL    HW116136   2.427   5.058   6.093
 5079SOL    HW216137   2.306   4.959   6.141
 5080SOL     OW16138   5.995   6.170   5.803
 5080SOL    HW116139   6.002   6.081   5.848
 5080SOL    HW216140   5.921   6.167   5.735
 5081SOL     OW16141   3.607   2.925   4.008
 5081SOL    HW116142   3.676   2.998   4.005
 5081SOL    HW216143   3.572   2.916   4.101
 5082SOL     OW16144   6.036   5.396   5.584
 5082SOL    HW116145   6.096   5.327   5.543
 5082SOL    HW216146   5.954   5.351   5.620
 5083SOL     OW16147   2.222   6.686   2.956
 5083SOL    HW116148   2.315   6.722   2.949
 5083SOL    HW216149   2.225   6.588   2.972
 5084SOL     OW16150   1.049   5.045   4.615
 5084SOL    HW116151   1.034   4.953   4.653
 5084SOL    HW216152   0.976   5.067   4.551
 5085SOL     OW16153   5.382   2.501   6.858
 5085SOL    HW116154   5.368   2.596   6.829
 5085SOL    HW216155   5.419   2.448   6.781
 5086SOL     OW16156   6.497   5.635   3.807
 5086SOL    HW116157   6.412   5.659   3.852
 5086SOL    HW216158   6.515   5.538   3.820
 5087SOL     OW16159   6.241   5.704   3.942
 5087SOL    HW116160   6.197   5.714   4.032
 5087SOL    HW216161   6.239   5.792   3.894
 5088SOL     OW16162   5.266   1.663   4.555
 5088SOL    HW116163   5.171   1.676   4.528
 5088SOL    HW216164   5.323   1.652   4.474
 5089SOL     OW16165   6.051   3.158   3.180
 5089SOL    HW116166   6.047   3.155   3.280
 5089SOL    HW216167   6.121   3.095   3.147
 5090SOL     OW16168   1.969   3.711   2.631
 5090SOL    HW116169   1.873   3.733   2.617
 5090SOL    HW216170   2.011   3.684   2.544
 5091SOL     OW16171   1.862   6.656   2.681
 5091SOL    HW116172   1.875   6.558   2.692
 5091SOL    HW216173   1.830   6.675   2.589
 5092SOL     OW16174   3.075   2.978   1.332
 5092SOL    HW116175   3.090   3.006   1.237
 5092SOL    HW216176   3.000   3.031   1.371
 5093SOL     OW16177   2.951   1.149   1.690
 5093SOL    HW116178   2.925   1.178   1.782
 5093SOL    HW216179   2.931   1.223   1.626
 5094SOL     OW16180   0.718   6.535   4.068
 5094SOL    HW116181   0.712   6.436   4.069
 5094SOL    HW216182   0.814   6.563   4.061
 5095SOL     OW16183   1.007   1.639   4.014
 5095SOL    HW116184   1.044   1.714   4.068
 5095SOL    HW216185   1.055   1.634   3.926
 5096SOL     OW16186   4.352   3.969   0.204
 5096SOL    HW116187   4.255   3.992   0.192
 5096SOL    HW216188   4.360   3.879   0.246
 5097SOL     OW16189   1.857   0.342   6.774
 5097SOL    HW116190   1.886   0.310   6.684
 5097SOL    HW216191   1.773   0.295   6.801
 5098SOL     OW16192   0.773   0.638   1.198
 5098SOL    HW116193   0.696   0.700   1.184
 5098SOL    HW216194   0.833   0.675   1.269
 5099SOL     OW16195   0.500   0.262   6.487
 5099SOL    HW116196   0.476   0.179   6.537
 5099SOL    HW216197   0.537   0.237   6.398
 5100SOL     OW16198   4.508   6.619   5.570
 5100SOL    HW116199   4.472   6.610   5.477
 5100SOL    HW216200   4.436   6.594   5.635
 5101SOL     OW16201   4.598   6.602   0.341
 5101SOL    HW116202   4.573   6.664   0.415
 5101SOL    HW216203   4.548   6.627   0.258
 5102SOL     OW16204   5.699   0.600   5.983
 5102SOL    HW116205   5.680   0.694   5.953
 5102SOL    HW216206   5.676   0.537   5.909
 5103SOL     OW16207   0.227   0.849   4.135
 5103SOL    HW116208   0.298   0.800   4.186
 5103SOL    HW216209   0.140   0.842   4.184
 5104SOL     OW16210   2.013   6.368   2.110
 5104SOL    HW116211   1.995   6.304   2.185
 5104SOL    HW216212   2.107   6.401   2.117
 5105SOL     OW16213   3.994   3.397   0.137
 5105SOL    HW116214   4.031   3.319   0.086
 5105SOL    HW216215   4.008   3.381   0.235
 5106SOL     OW16216   3.558   0.205   1.826
 5106SOL    HW116217   3.605   0.182   1.912
 5106SOL    HW216218   3.546   0.304   1.820
 5107SOL     OW16219   3.382   1.104   0.592
 5107SOL    HW116220   3.303   1.052   0.559
 5107SOL    HW216221   3.364   1.202   0.581
 5108SOL     OW16222   3.071   3.071   3.444
 5108SOL    HW116223   3.003   3.085   3.516
 5108SOL    HW216224   3.156   3.038   3.485
 5109SOL     OW16225   0.790   1.181   1.051
 5109SOL    HW116226   0.710   1.121   1.041
 5109SOL    HW216227   0.765   1.262   1.104
 5110SOL     OW16228   0.475   6.820   6.435
 5110SOL    HW116229   0.552   6.804   6.495
 5110SOL    HW216230   0.489   6.773   6.348
 5111SOL     OW16231   0.884   1.435   5.711
 5111SOL    HW116232   0.960   1.410   5.651
 5111SOL    HW216233   0.800   1.442   5.658
 5112SOL     OW16234   0.179   0.101   2.994
 5112SOL    HW116235   0.160   0.172   3.062
 5112SOL    HW216236   0.259   0.048   3.023
 5113SOL     OW16237   1.863   6.937   1.315
 5113SOL    HW116238   1.924   6.999   1.364
 5113SOL    HW216239   1.863   6.847   1.360
 5114SOL     OW16240   3.613   2.821   0.651
 5114SOL    HW116241   3.519   2.854   0.661
 5114SOL    HW216242   3.621   2.767   0.567
 5115SOL     OW16243   2.134   4.288   5.228
 5115SOL    HW116244   2.219   4.304   5.278
 5115SOL    HW216245   2.069   4.361   5.251
 5116SOL     OW16246   5.716   6.576   6.291
 5116SOL    HW116247   5.690   6.524   6.373
 5116SOL    HW216248   5.651   6.558   6.218
 5117SOL     OW16249   1.828   4.846   4.054
 5117SOL    HW116250   1.770   4.786   4.109
 5117SOL    HW216251   1.772   4.918   4.012
 5118SOL     OW16252   4.606   6.078   0.895
 5118SOL    HW116253   4.588   6.060   0.798
 5118SOL    HW216254   4.694   6.038   0.920
 5119SOL     OW16255   5.139   0.690   1.659
 5119SOL    HW116256   5.114   0.686   1.562
 5119SOL    HW216257   5.130   0.599   1.700
 5120SOL     OW16258   5.368   1.571   3.812
 5120SOL    HW116259   5.361   1.620   3.725
 5120SOL    HW216260   5.415   1.484   3.798
 5121SOL     OW16261   1.725   2.273   6.862
 5121SOL    HW116262   1.707   2.261   6.960
 5121SOL    HW216263   1.822   2.256   6.844
 5122SOL     OW16264   3.050   0.759   4.403
 5122SOL    HW116265   3.087   0.732   4.314
 5122SOL    HW216266   2.979   0.694   4.430
 5123SOL     OW16267   6.113   3.441   4.545
 5123SOL    HW116268   6.022   3.476   4.571
 5123SOL    HW216269   6.146   3.492   4.466
 5124SOL     OW16270   2.678   5.224   6.233
 5124SOL    HW116271   2.608   5.274   6.283
 5124SOL    HW216272   2.745   5.289   6.196
 5125SOL     OW16273   6.992   3.617   4.785
 5125SOL    HW116274   0.067   3.610   4.756
 5125SOL    HW216275   6.932   3.581   4.714
 5126SOL     OW16276   6.397   4.623   5.714
 5126SOL    HW116277   6.306   4.582   5.706
 5126SOL    HW216278   6.465   4.551   5.729
 5127SOL     OW16279   6.059   3.674   0.091
 5127SOL    HW116280   6.066   3.723   0.004
 5127SOL    HW216281   6.033   3.579   0.074
 5128SOL     OW16282   1.100   0.386   0.120
 5128SOL    HW116283   1.053   0.385   0.209
 5128SOL    HW216284   1.114   0.481   0.092
 5129SOL     OW16285   5.013   1.030   2.738
 5129SOL    HW116286   4.940   0.962   2.728
 5129SOL    HW216287   5.011   1.093   2.661
 5130SOL     OW16288   1.329   5.782   4.845
 5130SOL    HW116289   1.392   5.859   4.858
 5130SOL    HW216290   1.374   5.698   4.874
 5131SOL     OW16291   2.758   4.753   3.358
 5131SOL    HW116292   2.843   4.755   3.410
 5131SOL    HW216293   2.701   4.831   3.382
 5132SOL     OW16294   3.226   0.918   6.030
 5132SOL    HW116295   3.311   0.926   6.083
 5132SOL    HW216296   3.161   0.861   6.079
 5133SOL     OW16297   2.732   5.647   6.158
 5133SOL    HW116298   2.645   5.658   6.110
 5133SOL    HW216299   2.804   5.628   6.092
 5134SOL     OW16300   6.607   0.142   2.698
 5134SOL    HW116301   6.690   0.182   2.736
 5134SOL    HW216302   6.575   0.199   2.622
 5135SOL     OW16303   6.414   4.074   3.197
 5135SOL    HW116304   6.390   4.102   3.290
 5135SOL    HW216305   6.350   4.005   3.165
 5136SOL     OW16306   6.588   1.650   5.907
 5136SOL    HW116307   6.635   1.691   5.829
 5136SOL    HW216308   6.526   1.578   5.875
 5137SOL     OW16309   5.044   3.217   5.604
 5137SOL    HW116310   5.143   3.227   5.610
 5137SOL    HW216311   5.014   3.242   5.512
 5138SOL     OW16312   3.810   3.800   3.816
 5138SOL    HW116313   3.742   3.861   3.776
 5138SOL    HW216314   3.863   3.757   3.743
 5139SOL     OW16315   1.184   0.018   4.789
 5139SOL    HW116316   1.196   0.093   4.724
 5139SOL    HW216317   1.187   0.053   4.882
 5140SOL     OW16318   3.795   1.866   6.198
 5140SOL    HW116319   3.709   1.880   6.248
 5140SOL    HW216320   3.867   1.841   6.263
 5141SOL     OW16321   6.398   2.571   1.362
 5141SOL    HW116322   6.424   2.475   1.347
 5141SOL    HW216323   6.378   2.614   1.274
 5142SOL     OW16324   6.102   7.006   5.401
 5142SOL    HW116325   6.028   6.942   5.422
 5142SOL    HW216326   6.065   0.066   5.355
 5143SOL     OW16327   1.168   4.244   5.012
 5143SOL    HW116328   1.195   4.201   5.098
 5143SOL    HW216329   1.080   4.291   5.024
 5144SOL     OW16330   1.927   3.848   6.522
 5144SOL    HW116331   1.916   3.786   6.445
 5144SOL    HW216332   1.853   3.916   6.522
 5145SOL     OW16333   3.449   6.561   6.619
 5145SOL    HW116334   3.481   6.483   6.672
 5145SOL    HW216335   3.518   6.633   6.619
 5146SOL     OW16336   3.795   4.010   5.270
 5146SOL    HW116337   3.746   4.097   5.276
 5146SOL    HW216338   3.838   4.002   5.180
 5147SOL     OW16339   5.697   4.880   3.707
 5147SOL    HW116340   5.650   4.855   3.791
 5147SOL    HW216341   5.783   4.927   3.729
 5148SOL     OW16342   0.297   0.548   2.570
 5148SOL    HW116343   0.293   0.469   2.510
 5148SOL    HW216344   0.368   0.611   2.539
 5149SOL     OW16345   5.656   5.015   4.404
 5149SOL    HW116346   5.744   5.059   4.384
 5149SOL    HW216347   5.642   5.012   4.503
 5150SOL     OW16348   1.999   4.496   3.704
 5150SOL    HW116349   2.020   4.463   3.612
 5150SOL    HW216350   2.052   4.444   3.771
 5151SOL     OW16351   5.834   3.812   1.610
 5151SOL    HW116352   5.803   3.821   1.704
 5151SOL    HW216353   5.757   3.823   1.548
 5152SOL     OW16354   0.921   5.882   6.842
 5152SOL    HW116355   0.911   5.941   6.922
 5152SOL    HW216356   0.831   5.853   6.810
 5153SOL     OW16357   1.148   1.412   1.007
 5153SOL    HW116358   1.221   1.446   0.947
 5153SOL    HW216359   1.124   1.483   1.073
 5154SOL     OW16360   1.605   2.873   6.536
 5154SOL    HW116361   1.687   2.840   6.582
 5154SOL    HW216362   1.625   2.958   6.488
 5155SOL     OW16363   2.985   1.807   1.085
 5155SOL    HW116364   2.985   1.820   0.986
 5155SOL    HW216365   3.051   1.869   1.127
 5156SOL     OW16366   5.544   4.590   4.605
 5156SOL    HW116367   5.531   4.569   4.702
 5156SOL    HW216368   5.615   4.531   4.567
 5157SOL     OW16369   2.997   1.572   2.098
 5157SOL    HW116370   2.948   1.488   2.078
 5157SOL    HW216371   2.932   1.643   2.126
 5158SOL     OW16372   3.038   2.441   1.416
 5158SOL    HW116373   2.981   2.397   1.485
 5158SOL    HW216374   3.035   2.540   1.429
 5159SOL     OW16375   6.200   4.234   6.116
 5159SOL    HW116376   6.243   4.313   6.073
 5159SOL    HW216377   6.101   4.242   6.108
 5160SOL     OW16378   6.431   6.430   3.433
 5160SOL    HW116379   6.465   6.418   3.526
 5160SOL    HW216380   6.421   6.340   3.390
 5161SOL     OW16381   1.318   3.400   0.235
 5161SOL    HW116382   1.223   3.430   0.233
 5161SOL    HW216383   1.377   3.478   0.256
 5162SOL     OW16384   0.656   5.441   2.415
 5162SOL    HW116385   0.609   5.525   2.442
 5162SOL    HW216386   0.710   5.407   2.493
 5163SOL     OW16387   3.913   6.712   0.970
 5163SOL    HW116388   3.866   6.645   0.913
 5163SOL    HW216389   3.895   6.804   0.937
 5164SOL     OW16390   2.537   3.163   0.342
 5164SOL    HW116391   2.588   3.141   0.259
 5164SOL    HW216392   2.462   3.097   0.354
 5165SOL     OW16393   1.314   4.099   6.597
 5165SOL    HW116394   1.322   4.179   6.656
 5165SOL    HW216395   1.369   4.112   6.515
 5166SOL     OW16396   1.696   5.111   2.396
 5166SOL    HW116397   1.637   5.189   2.376
 5166SOL    HW216398   1.644   5.026   2.388
 5167SOL     OW16399   6.247   4.186   5.091
 5167SOL    HW116400   6.246   4.256   5.164
 5167SOL    HW216401   6.334   4.192   5.042
 5168SOL     OW16402   4.642   2.100   2.215
 5168SOL    HW116403   4.647   2.171   2.144
 5168SOL    HW216404   4.701   2.024   2.190
 5169SOL     OW16405   4.789   2.009   3.805
 5169SOL    HW116406   4.880   2.019   3.844
 5169SOL    HW216407   4.797   1.983   3.708
 5170SOL     OW16408   1.112   3.825   5.790
 5170SOL    HW116409   1.141   3.735   5.821
 5170SOL    HW216410   1.158   3.847   5.704
 5171SOL     OW16411   0.822   4.945   5.562
 5171SOL    HW116412   0.837   4.848   5.545
 5171SOL    HW216413   0.910   4.991   5.573
 5172SOL     OW16414   1.331   4.869   3.851
 5172SOL    HW116415   1.419   4.917   3.848
 5172SOL    HW216416   1.322   4.822   3.940
 5173SOL     OW16417   4.272   4.160   6.438
 5173SOL    HW116418   4.212   4.226   6.392
 5173SOL    HW216419   4.360   4.156   6.389
 5174SOL     OW16420   1.931   6.593   3.858
 5174SOL    HW116421   1.999   6.535   3.903
 5174SOL    HW216422   1.930   6.683   3.900
 5175SOL     OW16423   2.398   4.095   6.564
 5175SOL    HW116424   2.317   4.078   6.508
 5175SOL    HW216425   2.479   4.059   6.518
 5176SOL     OW16426   5.092   5.016   6.269
 5176SOL    HW116427   5.159   4.980   6.203
 5176SOL    HW216428   5.000   4.989   6.240
 5177SOL     OW16429   5.307   6.267   1.223
 5177SOL    HW116430   5.289   6.180   1.267
 5177SOL    HW216431   5.267   6.267   1.131
 5178SOL     OW16432   0.523   4.744   1.686
 5178SOL    HW116433   0.608   4.796   1.691
 5178SOL    HW216434   0.501   4.724   1.591
 5179SOL     OW16435   4.922   4.452   3.208
 5179SOL    HW116436   4.925   4.436   3.307
 5179SOL    HW216437   4.833   4.423   3.172
 5180SOL     OW16438   3.549   0.152   1.188
 5180SOL    HW116439   3.601   0.237   1.191
 5180SOL    HW216440   3.566   0.099   1.272
 5181SOL     OW16441   0.205   0.493   0.014
 5181SOL    HW116442   0.272   0.558   7.000
 5181SOL    HW216443   0.152   0.536   0.088
 5182SOL     OW16444   4.480   4.544   2.166
 5182SOL    HW116445   4.474   4.457   2.117
 5182SOL    HW216446   4.400   4.600   2.145
 5183SOL     OW16447   4.086   1.689   2.656
 5183SOL    HW116448   4.055   1.717   2.746
 5183SOL    HW216449   4.177   1.729   2.638
 5184SOL     OW16450   2.246   2.292   3.462
 5184SOL    HW116451   2.210   2.275   3.370
 5184SOL    HW216452   2.299   2.213   3.492
 5185SOL     OW16453   4.957   0.317   3.157
 5185SOL    HW116454   4.995   0.311   3.065
 5185SOL    HW216455   5.018   0.371   3.215
 5186SOL     OW16456   5.987   2.789   5.475
 5186SOL    HW116457   6.060   2.783   5.408
 5186SOL    HW216458   5.943   2.700   5.486
 5187SOL     OW16459   2.157   5.521   4.557
 5187SOL    HW116460   2.134   5.499   4.462
 5187SOL    HW216461   2.256   5.534   4.564
 5188SOL     OW16462   6.700   6.107   1.617
 5188SOL    HW116463   6.654   6.195   1.606
 5188SOL    HW216464   6.794   6.122   1.646
 5189SOL     OW16465   5.162   6.002   6.859
 5189SOL    HW116466   5.160   6.072   6.788
 5189SOL    HW216467   5.143   6.043   6.948
 5190SOL     OW16468   1.624   3.120   2.531
 5190SOL    HW116469   1.657   3.179   2.458
 5190SOL    HW216470   1.636   3.166   2.619
 5191SOL     OW16471   2.966   5.760   3.064
 5191SOL    HW116472   2.953   5.664   3.039
 5191SOL    HW216473   2.914   5.780   3.147
 5192SOL     OW16474   2.047   5.817   1.616
 5192SOL    HW116475   1.948   5.806   1.604
 5192SOL    HW216476   2.085   5.735   1.657
 5193SOL     OW16477   4.783   6.773   6.167
 5193SOL    HW116478   4.838   6.856   6.178
 5193SOL    HW216479   4.735   6.775   6.080
 5194SOL     OW16480   2.560   1.985   6.723
 5194SOL    HW116481   2.590   2.067   6.674
 5194SOL    HW216482   2.566   1.906   6.662
 5195SOL     OW16483   0.233   0.375   3.643
 5195SOL    HW116484   0.155   0.435   3.661
 5195SOL    HW216485   0.240   0.358   3.545
 5196SOL     OW16486   4.425   6.705   2.050
 5196SOL    HW116487   4.445   6.611   2.023
 5196SOL    HW216488   4.499   6.740   2.107
 5197SOL     OW16489   1.444   3.830   6.613
 5197SOL    HW116490   1.413   3.925   6.608
 5197SOL    HW216491   1.527   3.819   6.558
 5198SOL     OW16492   4.247   5.554   3.212
 5198SOL    HW116493   4.256   5.485   3.284
 5198SOL    HW216494   4.184   5.521   3.142
 5199SOL     OW16495   0.139   5.513   0.870
 5199SOL    HW116496   0.072   5.445   0.902
 5199SOL    HW216497   0.175   5.564   0.949
 5200SOL     OW16498   6.644   3.310   4.894
 5200SOL    HW116499   6.619   3.406   4.905
 5200SOL    HW216500   6.625   3.261   4.979
 5201SOL     OW16501   0.588   6.682   3.163
 5201SOL    HW116502   0.534   6.733   3.097
 5201SOL    HW216503   0.538   6.675   3.249
 5202SOL     OW16504   6.390   2.730   5.998
 5202SOL    HW116505   6.461   2.798   5.982
 5202SOL    HW216506   6.384   2.669   5.919
 5203SOL     OW16507   1.963   2.423   6.618
 5203SOL    HW116508   1.966   2.519   6.591
 5203SOL    HW216509   2.001   2.414   6.711
 5204SOL     OW16510   3.786   4.992   0.491
 5204SOL    HW116511   3.705   4.952   0.449
 5204SOL    HW216512   3.776   5.091   0.497
 5205SOL     OW16513   1.649   0.238   0.637
 5205SOL    HW116514   1.615   0.323   0.677
 5205SOL    HW216515   1.644   0.165   0.705
 5206SOL     OW16516   0.472   3.695   6.394
 5206SOL    HW116517   0.512   3.614   6.436
 5206SOL    HW216518   0.466   3.682   6.295
 5207SOL     OW16519   0.796   5.307   4.157
 5207SOL    HW116520   0.843   5.379   4.106
 5207SOL    HW216521   0.734   5.258   4.096
 5208SOL     OW16522   3.493   1.321   0.312
 5208SOL    HW116523   3.417   1.348   0.371
 5208SOL    HW216524   3.579   1.336   0.360
 5209SOL     OW16525   5.705   5.396   4.517
 5209SOL    HW116526   5.676   5.425   4.608
 5209SOL    HW216527   5.767   5.318   4.525
 5210SOL     OW16528   5.805   3.030   5.567
 5210SOL    HW116529   5.745   2.963   5.524
 5210SOL    HW216530   5.780   3.040   5.664
 5211SOL     OW16531   3.817   2.933   4.416
 5211SOL    HW116532   3.747   3.005   4.420
 5211SOL    HW216533   3.788   2.862   4.352
 5212SOL     OW16534   6.893   2.044   1.351
 5212SOL    HW116535   6.955   2.071   1.424
 5212SOL    HW216536   6.874   2.123   1.292
 5213SOL     OW16537   4.985   1.952   6.977
 5213SOL    HW116538   4.936   1.917   0.036
 5213SOL    HW216539   5.030   2.038   7.000
 5214SOL     OW16540   5.405   1.351   6.643
 5214SOL    HW116541   5.468   1.366   6.567
 5214SOL    HW216542   5.457   1.332   6.726
 5215SOL     OW16543   5.092   5.459   3.566
 5215SOL    HW116544   5.140   5.544   3.540
 5215SOL    HW216545   5.152   5.381   3.548
 5216SOL     OW16546   4.959   6.233   1.159
 5216SOL    HW116547   4.977   6.135   1.152
 5216SOL    HW216548   5.029   6.283   1.108
 5217SOL     OW16549   3.474   5.053   4.134
 5217SOL    HW116550   3.376   5.039   4.120
 5217SOL    HW216551   3.501   5.014   4.223
 5218SOL     OW16552   1.744   0.049   3.258
 5218SOL    HW116553   1.710   6.977   3.244
 5218SOL    HW216554   1.805   0.051   3.337
 5219SOL     OW16555   3.662   0.583   6.724
 5219SOL    HW116556   3.680   0.495   6.680
 5219SOL    HW216557   3.684   0.576   6.822
 5220SOL     OW16558   1.790   5.403   2.953
 5220SOL    HW116559   1.724   5.450   2.895
 5220SOL    HW216560   1.817   5.463   3.028
 5221SOL     OW16561   5.608   2.331   4.621
 5221SOL    HW116562   5.661   2.252   4.651
 5221SOL    HW216563   5.511   2.315   4.639
 5222SOL     OW16564   2.449   0.394   4.110
 5222SOL    HW116565   2.439   0.355   4.201
 5222SOL    HW216566   2.489   0.485   4.116
 5223SOL     OW16567   4.853   0.750   1.606
 5223SOL    HW116568   4.755   0.734   1.602
 5223SOL    HW216569   4.902   0.670   1.573
 5224SOL     OW16570   0.316   1.523   3.308
 5224SOL    HW116571   0.274   1.538   3.398
 5224SOL    HW216572   0.316   1.609   3.257
 5225SOL     OW16573   6.706   1.006   2.909
 5225SOL    HW116574   6.614   0.997   2.946
 5225SOL    HW216575   6.709   1.082   2.844
 5226SOL     OW16576   0.325   6.201   5.473
 5226SOL    HW116577   0.339   6.124   5.411
 5226SOL    HW216578   0.381   6.189   5.555
 5227SOL     OW16579   1.749   4.590   3.926
 5227SOL    HW116580   1.832   4.536   3.913
 5227SOL    HW216581   1.770   4.687   3.916
 5228SOL     OW16582   6.656   2.666   0.929
 5228SOL    HW116583   6.586   2.738   0.939
 5228SOL    HW216584   6.628   2.602   0.858
 5229SOL     OW16585   1.570   4.219   6.848
 5229SOL    HW116586   1.556   4.295   6.784
 5229SOL    HW216587   1.641   4.158   6.812
 5230SOL     OW16588   0.072   0.156   0.859
 5230SOL    HW116589   0.168   0.130   0.845
 5230SOL    HW216590   0.013   0.087   0.815
 5231SOL     OW16591   2.933   3.491   4.524
 5231SOL    HW116592   2.896   3.563   4.465
 5231SOL    HW216593   2.928   3.520   4.619
 5232SOL     OW16594   2.880   2.053   6.226
 5232SOL    HW116595   2.896   1.976   6.164
 5232SOL    HW216596   2.894   2.022   6.321
 5233SOL     OW16597   6.735   7.004   1.274
 5233SOL    HW116598   6.779   0.073   1.285
 5233SOL    HW216599   6.765   6.962   1.188
 5234SOL     OW16600   3.112   0.325   6.561
 5234SOL    HW116601   3.093   0.240   6.510
 5234SOL    HW216602   3.195   0.312   6.616
 5235SOL     OW16603   1.686   3.072   1.399
 5235SOL    HW116604   1.611   3.028   1.449
 5235SOL    HW216605   1.649   3.146   1.343
 5236SOL     OW16606   5.672   2.970   2.291
 5236SOL    HW116607   5.654   2.887   2.239
 5236SOL    HW216608   5.677   2.947   2.389
 5237SOL     OW16609   2.646   1.582   5.301
 5237SOL    HW116610   2.635   1.484   5.282
 5237SOL    HW216611   2.743   1.604   5.304
 5238SOL     OW16612   2.147   5.032   0.677
 5238SOL    HW116613   2.117   5.003   0.586
 5238SOL    HW216614   2.090   4.988   0.746
 5239SOL     OW16615   4.043   3.607   3.718
 5239SOL    HW116616   4.056   3.508   3.715
 5239SOL    HW216617   4.064   3.641   3.809
 5240SOL     OW16618   3.122   1.812   5.683
 5240SOL    HW116619   3.108   1.736   5.747
 5240SOL    HW216620   3.116   1.899   5.731
 5241SOL     OW16621   1.698   5.822   6.249
 5241SOL    HW116622   1.609   5.780   6.232
 5241SOL    HW216623   1.705   5.908   6.199
 5242SOL     OW16624   6.486   6.362   5.667
 5242SOL    HW116625   6.467   6.346   5.764
 5242SOL    HW216626   6.568   6.311   5.641
 5243SOL     OW16627   2.021   6.289   1.601
 5243SOL    HW116628   2.086   6.361   1.574
 5243SOL    HW216629   1.989   6.307   1.694
 5244SOL     OW16630   4.219   3.646   6.220
 5244SOL    HW116631   4.266   3.567   6.182
 5244SOL    HW216632   4.196   3.710   6.146
 5245SOL     OW16633   4.562   4.357   6.744
 5245SOL    HW116634   4.645   4.363   6.689
 5245SOL    HW216635   4.499   4.291   6.703
 5246SOL     OW16636   5.537   4.258   2.826
 5246SOL    HW116637   5.538   4.272   2.727
 5246SOL    HW216638   5.502   4.340   2.871
 5247SOL     OW16639   1.564   6.140   0.313
 5247SOL    HW116640   1.473   6.131   0.352
 5247SOL    HW216641   1.606   6.050   0.304
 5248SOL     OW16642   5.909   0.807   6.073
 5248SOL    HW116643   5.871   0.727   6.119
 5248SOL    HW216644   5.853   0.888   6.095
 5249SOL     OW16645   0.632   5.561   5.043
 5249SOL    HW116646   0.645   5.543   5.140
 5249SOL    HW216647   0.545   5.521   5.013
 5250SOL     OW16648   7.014   1.662   5.957
 5250SOL    HW116649   6.992   1.622   5.868
 5250SOL    HW216650   7.004   1.592   6.028
 5251SOL     OW16651   0.578   2.874   1.376
 5251SOL    HW116652   0.547   2.779   1.370
 5251SOL    HW216653   0.499   2.935   1.384
 5252SOL     OW16654   1.790   5.779   0.581
 5252SOL    HW116655   1.778   5.680   0.574
 5252SOL    HW216656   1.888   5.800   0.581
 5253SOL     OW16657   5.178   3.483   5.666
 5253SOL    HW116658   5.110   3.526   5.607
 5253SOL    HW216659   5.134   3.448   5.748
 5254SOL     OW16660   5.456   1.722   3.607
 5254SOL    HW116661   5.540   1.679   3.572
 5254SOL    HW216662   5.471   1.821   3.615
 5255SOL     OW16663   4.176   0.011   4.927
 5255SOL    HW116664   4.274   0.016   4.907
 5255SOL    HW216665   4.162   7.009   5.023
 5256SOL     OW16666   4.679   1.226   3.434
 5256SOL    HW116667   4.639   1.246   3.345
 5256SOL    HW216668   4.753   1.159   3.423
 5257SOL     OW16669   4.109   0.523   2.104
 5257SOL    HW116670   4.062   0.497   2.019
 5257SOL    HW216671   4.206   0.505   2.095
 5258SOL     OW16672   4.961   3.659   1.546
 5258SOL    HW116673   4.867   3.682   1.568
 5258SOL    HW216674   4.994   3.587   1.607
 5259SOL     OW16675   4.554   6.280   1.174
 5259SOL    HW116676   4.633   6.288   1.235
 5259SOL    HW216677   4.570   6.336   1.092
 5260SOL     OW16678   5.622   3.059   0.753
 5260SOL    HW116679   5.544   3.015   0.796
 5260SOL    HW216680   5.617   3.158   0.766
 5261SOL     OW16681   1.142   2.857   5.923
 5261SOL    HW116682   1.153   2.767   5.881
 5261SOL    HW216683   1.054   2.862   5.969
 5262SOL     OW16684   2.792   0.172   2.578
 5262SOL    HW116685   2.701   0.133   2.595
 5262SOL    HW216686   2.860   0.121   2.630
 5263SOL     OW16687   0.868   0.528   5.867
 5263SOL    HW116688   0.917   0.503   5.783
 5263SOL    HW216689   0.775   0.556   5.844
 5264SOL     OW16690   5.882   0.822   1.882
 5264SOL    HW116691   5.909   0.836   1.978
 5264SOL    HW216692   5.958   0.779   1.832
 5265SOL     OW16693   5.135   4.365   2.726
 5265SOL    HW116694   5.065   4.426   2.687
 5265SOL    HW216695   5.153   4.291   2.662
 5266SOL     OW16696   2.370   6.660   1.627
 5266SOL    HW116697   2.288   6.711   1.601
 5266SOL    HW216698   2.391   6.676   1.723
 5267SOL     OW16699   4.792   4.525   5.882
 5267SOL    HW116700   4.761   4.620   5.892
 5267SOL    HW216701   4.738   4.479   5.813
 5268SOL     OW16702   6.808   5.699   5.870
 5268SOL    HW116703   6.831   5.667   5.962
 5268SOL    HW216704   6.718   5.743   5.872
 5269SOL     OW16705   2.647   5.922   3.927
 5269SOL    HW116706   2.620   6.012   3.894
 5269SOL    HW216707   2.745   5.908   3.911
 5270SOL     OW16708   4.337   2.131   1.677
 5270SOL    HW116709   4.343   2.229   1.656
 5270SOL    HW216710   4.289   2.119   1.764
 5271SOL     OW16711   4.578   5.244   4.488
 5271SOL    HW116712   4.623   5.167   4.442
 5271SOL    HW216713   4.481   5.246   4.463
 5272SOL     OW16714   1.826   5.585   3.602
 5272SOL    HW116715   1.818   5.640   3.686
 5272SOL    HW216716   1.922   5.565   3.584
 5273SOL     OW16717   0.413   3.151   2.913
 5273SOL    HW116718   0.474   3.139   2.835
 5273SOL    HW216719   0.455   3.213   2.979
 5274SOL     OW16720   6.040   4.753   2.387
 5274SOL    HW116721   5.993   4.833   2.424
 5274SOL    HW216722   5.987   4.714   2.312
 5275SOL     OW16723   3.054   1.561   6.630
 5275SOL    HW116724   3.089   1.641   6.581
 5275SOL    HW216725   3.105   1.548   6.715
 5276SOL     OW16726   0.632   5.909   0.815
 5276SOL    HW116727   0.608   5.916   0.718
 5276SOL    HW216728   0.622   5.998   0.859
 5277SOL     OW16729   1.475   2.742   2.684
 5277SOL    HW116730   1.553   2.772   2.628
 5277SOL    HW216731   1.487   2.775   2.778
 5278SOL     OW16732   5.510   6.812   5.191
 5278SOL    HW116733   5.515   6.837   5.288
 5278SOL    HW216734   5.601   6.822   5.151
 5279SOL     OW16735   1.648   6.347   6.862
 5279SOL    HW116736   1.641   6.277   6.932
 5279SOL    HW216737   1.657   6.437   6.905
 5280SOL     OW16738   3.341   5.141   5.616
 5280SOL    HW116739   3.371   5.161   5.523
 5280SOL    HW216740   3.274   5.068   5.615
 5281SOL     OW16741   1.922   1.298   3.887
 5281SOL    HW116742   1.987   1.331   3.819
 5281SOL    HW216743   1.933   1.200   3.899
 5282SOL     OW16744   1.754   0.453   1.689
 5282SOL    HW116745   1.716   0.402   1.766
 5282SOL    HW216746   1.725   0.548   1.694
 5283SOL     OW16747   1.933   0.454   2.969
 5283SOL    HW116748   2.033   0.451   2.969
 5283SOL    HW216749   1.898   0.394   2.897
 5284SOL     OW16750   4.811   3.131   3.546
 5284SOL    HW116751   4.811   3.045   3.597
 5284SOL    HW216752   4.784   3.113   3.451
 5285SOL     OW16753   0.430   3.319   4.499
 5285SOL    HW116754   0.383   3.311   4.587
 5285SOL    HW216755   0.484   3.403   4.498
 5286SOL     OW16756   6.483   3.327   1.049
 5286SOL    HW116757   6.393   3.371   1.057
 5286SOL    HW216758   6.549   3.375   1.107
 5287SOL     OW16759   3.060   5.527   1.403
 5287SOL    HW116760   3.040   5.505   1.498
 5287SOL    HW216761   3.120   5.457   1.364
 5288SOL     OW16762   3.653   0.618   2.476
 5288SOL    HW116763   3.700   0.554   2.416
 5288SOL    HW216764   3.654   0.709   2.435
 5289SOL     OW16765   2.000   5.562   5.322
 5289SOL    HW116766   2.021   5.464   5.324
 5289SOL    HW216767   1.901   5.575   5.332
 5290SOL     OW16768   1.419   3.716   5.735
 5290SOL    HW116769   1.449   3.623   5.756
 5290SOL    HW216770   1.489   3.763   5.682
 5291SOL     OW16771   2.824   4.564   6.619
 5291SOL    HW116772   2.771   4.526   6.543
 5291SOL    HW216773   2.857   4.655   6.595
 5292SOL     OW16774   5.824   4.769   6.264
 5292SOL    HW116775   5.728   4.792   6.249
 5292SOL    HW216776   5.844   4.766   6.362
 5293SOL     OW16777   2.131   6.759   4.895
 5293SOL    HW116778   2.116   6.850   4.855
 5293SOL    HW216779   2.229   6.740   4.899
 5294SOL     OW16780   5.429   2.381   5.763
 5294SOL    HW116781   5.422   2.481   5.769
 5294SOL    HW216782   5.348   2.341   5.806
 5295SOL     OW16783   4.073   1.280   2.822
 5295SOL    HW116784   4.037   1.238   2.904
 5295SOL    HW216785   4.120   1.365   2.846
 5296SOL     OW16786   3.144   4.547   6.826
 5296SOL    HW116787   3.176   4.557   6.732
 5296SOL    HW216788   3.098   4.459   6.837
 5297SOL     OW16789   1.682   3.411   0.479
 5297SOL    HW116790   1.775   3.433   0.449
 5297SOL    HW216791   1.665   3.313   0.466
 5298SOL     OW16792   1.061   6.053   0.073
 5298SOL    HW116793   1.142   5.995   0.069
 5298SOL    HW216794   1.063   6.119   7.018
 5299SOL     OW16795   2.648   3.180   0.837
 5299SOL    HW116796   2.738   3.209   0.870
 5299SOL    HW216797   2.577   3.230   0.886
 5300SOL     OW16798   0.352   5.882   1.246
 5300SOL    HW116799   0.297   5.964   1.230
 5300SOL    HW216800   0.377   5.878   1.343
 5301SOL     OW16801   4.148   1.556   6.728
 5301SOL    HW116802   4.223   1.563   6.663
 5301SOL    HW216803   4.183   1.570   6.821
 5302SOL     OW16804   6.127   5.567   3.704
 5302SOL    HW116805   6.099   5.660   3.726
 5302SOL    HW216806   6.156   5.520   3.787
 5303SOL     OW16807   0.207   5.153   4.658
 5303SOL    HW116808   0.196   5.058   4.630
 5303SOL    HW216809   0.121   5.202   4.645
 5304SOL     OW16810   5.905   0.747   0.964
 5304SOL    HW116811   5.996   0.717   0.991
 5304SOL    HW216812   5.902   0.764   0.866
 5305SOL     OW16813   0.724   4.252   3.680
 5305SOL    HW116814   0.754   4.324   3.618
 5305SOL    HW216815   0.793   4.240   3.752
 5306SOL     OW16816   0.661   4.391   4.976
 5306SOL    HW116817   0.714   4.308   4.955
 5306SOL    HW216818   0.724   4.466   4.993
 5307SOL     OW16819   3.997   1.780   0.262
 5307SOL    HW116820   3.960   1.827   0.182
 5307SOL    HW216821   4.089   1.815   0.282
 5308SOL     OW16822   1.066   4.359   3.251
 5308SOL    HW116823   1.060   4.457   3.233
 5308SOL    HW216824   1.161   4.334   3.271
 5309SOL     OW16825   4.034   4.690   1.862
 5309SOL    HW116826   3.947   4.735   1.880
 5309SOL    HW216827   4.021   4.619   1.792
 5310SOL     OW16828   5.854   3.293   1.705
 5310SOL    HW116829   5.797   3.373   1.726
 5310SOL    HW216830   5.907   3.268   1.787
 5311SOL     OW16831   6.793   6.984   0.089
 5311SOL    HW116832   6.708   6.945   0.055
 5311SOL    HW216833   6.836   0.017   0.016
 5312SOL     OW16834   0.912   5.754   1.206
 5312SOL    HW116835   0.816   5.727   1.218
 5312SOL    HW216836   0.924   5.849   1.236
 5313SOL     OW16837   1.401   2.917   6.025
 5313SOL    HW116838   1.456   2.963   5.955
 5313SOL    HW216839   1.305   2.941   6.013
 5314SOL     OW16840   3.716   6.609   0.386
 5314SOL    HW116841   3.741   6.518   0.350
 5314SOL    HW216842   3.670   6.661   0.314
 5315SOL     OW16843   4.807   3.608   1.906
 5315SOL    HW116844   4.794   3.707   1.912
 5315SOL    HW216845   4.844   3.574   1.993
 5316SOL     OW16846   0.980   3.326   4.988
 5316SOL    HW116847   0.955   3.421   5.007
 5316SOL    HW216848   1.033   3.321   4.904
 5317SOL     OW16849   5.860   1.248   4.954
 5317SOL    HW116850   5.766   1.220   4.936
 5317SOL    HW216851   5.913   1.169   4.985
 5318SOL     OW16852   0.758   2.775   0.288
 5318SOL    HW116853   0.786   2.795   0.382
 5318SOL    HW216854   0.658   2.775   0.282
 5319SOL     OW16855   3.808   5.869   7.011
 5319SOL    HW116856   3.812   5.895   0.087
 5319SOL    HW216857   3.835   5.946   6.954
 5320SOL     OW16858   4.801   4.718   0.619
 5320SOL    HW116859   4.782   4.802   0.568
 5320SOL    HW216860   4.717   4.686   0.661
 5321SOL     OW16861   1.993   4.759   4.523
 5321SOL    HW116862   2.023   4.832   4.584
 5321SOL    HW216863   2.001   4.789   4.428
 5322SOL     OW16864   5.377   6.367   6.588
 5322SOL    HW116865   5.361   6.307   6.667
 5322SOL    HW216866   5.471   6.356   6.556
 5323SOL     OW16867   3.955   1.893   0.021
 5323SOL    HW116868   4.036   1.869   6.989
 5323SOL    HW216869   3.928   1.987   0.000
 5324SOL     OW16870   3.014   2.174   0.784
 5324SOL    HW116871   2.917   2.197   0.792
 5324SOL    HW216872   3.026   2.075   0.795
 5325SOL     OW16873   4.157   0.432   4.379
 5325SOL    HW116874   4.159   0.338   4.343
 5325SOL    HW216875   4.235   0.445   4.440
 5326SOL     OW16876   6.315   4.889   2.989
 5326SOL    HW116877   6.387   4.905   2.920
 5326SOL    HW216878   6.232   4.937   2.961
 5327SOL     OW16879   5.371   2.680   5.488
 5327SOL    HW116880   5.406   2.586   5.488
 5327SOL    HW216881   5.271   2.679   5.491
 5328SOL     OW16882   3.901   3.127   5.039
 5328SOL    HW116883   3.881   3.213   4.992
 5328SOL    HW216884   3.850   3.053   4.996
 5329SOL     OW16885   0.318   4.339   0.263
 5329SOL    HW116886   0.262   4.267   0.303
 5329SOL    HW216887   0.408   4.303   0.241
 5330SOL     OW16888   3.956   4.005   6.155
 5330SOL    HW116889   3.909   4.093   6.142
 5330SOL    HW216890   3.950   3.952   6.071
 5331SOL     OW16891   5.313   1.133   0.887
 5331SOL    HW116892   5.346   1.220   0.851
 5331SOL    HW216893   5.319   1.062   0.817
 5332SOL     OW16894   0.697   2.960   1.134
 5332SOL    HW116895   0.678   3.057   1.120
 5332SOL    HW216896   0.661   2.931   1.222
 5333SOL     OW16897   0.557   0.447   3.319
 5333SOL    HW116898   0.656   0.430   3.314
 5333SOL    HW216899   0.522   0.469   3.228
 5334SOL     OW16900   3.242   0.139   4.344
 5334SOL    HW116901   3.173   0.075   4.378
 5334SOL    HW216902   3.222   0.161   4.249
 5335SOL     OW16903   6.905   6.117   2.136
 5335SOL    HW116904   6.972   6.125   2.210
 5335SOL    HW216905   6.948   6.077   2.056
 5336SOL     OW16906   1.856   2.905   3.436
 5336SOL    HW116907   1.776   2.860   3.477
 5336SOL    HW216908   1.866   2.876   3.341
 5337SOL     OW16909   4.974   4.151   1.239
 5337SOL    HW116910   5.006   4.173   1.147
 5337SOL    HW216911   4.938   4.058   1.241
 5338SOL     OW16912   6.093   1.902   6.659
 5338SOL    HW116913   6.010   1.854   6.629
 5338SOL    HW216914   6.132   1.855   6.738
 5339SOL     OW16915   6.463   2.382   3.830
 5339SOL    HW116916   6.532   2.400   3.761
 5339SOL    HW216917   6.506   2.383   3.921
 5340SOL     OW16918   4.836   3.733   0.627
 5340SOL    HW116919   4.803   3.669   0.697
 5340SOL    HW216920   4.770   3.739   0.553
 5341SOL     OW16921   3.194   2.600   6.356
 5341SOL    HW116922   3.241   2.653   6.426
 5341SOL    HW216923   3.121   2.547   6.399
 5342SOL     OW16924   2.943   0.023   4.075
 5342SOL    HW116925   3.038   0.051   4.064
 5342SOL    HW216926   2.928   7.013   4.170
 5343SOL     OW16927   3.882   3.499   4.342
 5343SOL    HW116928   3.920   3.561   4.274
 5343SOL    HW216929   3.785   3.518   4.355
 5344SOL     OW16930   2.175   2.961   2.605
 5344SOL    HW116931   2.122   2.899   2.663
 5344SOL    HW216932   2.173   3.053   2.643
 5345SOL     OW16933   3.298   6.605   1.302
 5345SOL    HW116934   3.336   6.521   1.341
 5345SOL    HW216935   3.339   6.620   1.212
 5346SOL     OW16936   3.709   6.058   4.102
 5346SOL    HW116937   3.674   6.140   4.147
 5346SOL    HW216938   3.687   6.061   4.005
 5347SOL     OW16939   0.751   2.293   1.698
 5347SOL    HW116940   0.780   2.199   1.681
 5347SOL    HW216941   0.761   2.314   1.796
 5348SOL     OW16942   0.341   2.371   1.184
 5348SOL    HW116943   0.379   2.459   1.154
 5348SOL    HW216944   0.251   2.386   1.224
 5349SOL     OW16945   2.061   2.808   0.376
 5349SOL    HW116946   2.066   2.905   0.353
 5349SOL    HW216947   2.028   2.756   0.298
 5350SOL     OW16948   2.436   0.271   5.485
 5350SOL    HW116949   2.518   0.221   5.456
 5350SOL    HW216950   2.367   0.206   5.516
 5351SOL     OW16951   6.283   5.789   2.229
 5351SOL    HW116952   6.311   5.694   2.245
 5351SOL    HW216953   6.241   5.826   2.312
 5352SOL     OW16954   2.435   4.735   3.500
 5352SOL    HW116955   2.470   4.819   3.459
 5352SOL    HW216956   2.376   4.758   3.577
 5353SOL     OW16957   3.832   5.218   3.509
 5353SOL    HW116958   3.755   5.272   3.544
 5353SOL    HW216959   3.799   5.126   3.485
 5354SOL     OW16960   2.869   5.537   1.844
 5354SOL    HW116961   2.840   5.583   1.928
 5354SOL    HW216962   2.798   5.545   1.775
 5355SOL     OW16963   5.761   3.596   3.776
 5355SOL    HW116964   5.739   3.693   3.788
 5355SOL    HW216965   5.826   3.586   3.701
 5356SOL     OW16966   5.576   4.446   1.842
 5356SOL    HW116967   5.559   4.485   1.752
 5356SOL    HW216968   5.584   4.520   1.909
 5357SOL     OW16969   4.538   6.852   0.831
 5357SOL    HW116970   4.565   6.900   0.914
 5357SOL    HW216971   4.579   6.895   0.751
 5358SOL     OW16972   4.547   1.717   0.345
 5358SOL    HW116973   4.628   1.658   0.353
 5358SOL    HW216974   4.567   1.791   0.281
 5359SOL     OW16975   0.977   1.903   6.443
 5359SOL    HW116976   0.946   1.952   6.525
 5359SOL    HW216977   0.920   1.822   6.429
 5360SOL     OW16978   4.081   6.469   5.375
 5360SOL    HW116979   4.074   6.474   5.474
 5360SOL    HW216980   3.994   6.437   5.337
 5361SOL     OW16981   2.370   1.035   4.970
 5361SOL    HW116982   2.289   0.990   4.932
 5361SOL    HW216983   2.366   1.133   4.950
 5362SOL     OW16984   5.955   5.166   3.559
 5362SOL    HW116985   5.942   5.265   3.550
 5362SOL    HW216986   5.955   5.124   3.468
 5363SOL     OW16987   0.346   0.018   6.536
 5363SOL    HW116988   0.253   0.019   6.574
 5363SOL    HW216989   0.369   6.945   6.509
 5364SOL     OW16990   6.287   6.481   1.668
 5364SOL    HW116991   6.257   6.392   1.632
 5364SOL    HW216992   6.206   6.535   1.693
 5365SOL     OW16993   3.597   3.733   6.829
 5365SOL    HW116994   3.610   3.634   6.842
 5365SOL    HW216995   3.676   3.782   6.866
 5366SOL     OW16996   5.206   6.012   1.767
 5366SOL    HW116997   5.204   6.091   1.828
 5366SOL    HW216998   5.113   5.987   1.740
 5367SOL     OW16999   0.664   6.528   0.395
 5367SOL    HW117000   0.570   6.506   0.370
 5367SOL    HW217001   0.727   6.479   0.334
 5368SOL     OW17002   5.293   0.196   3.243
 5368SOL    HW117003   5.277   0.283   3.196
 5368SOL    HW217004   5.384   0.161   3.219
 5369SOL     OW17005   2.976   6.488   2.333
 5369SOL    HW117006   3.043   6.560   2.350
 5369SOL    HW217007   2.926   6.508   2.248
 5370SOL     OW17008   4.483   2.804   1.740
 5370SOL    HW117009   4.555   2.752   1.786
 5370SOL    HW217010   4.484   2.898   1.774
 5371SOL     OW17011   1.391   4.072   4.915
 5371SOL    HW117012   1.414   4.050   5.009
 5371SOL    HW217013   1.312   4.133   4.913
 5372SOL     OW17014   2.534   5.708   3.725
 5372SOL    HW117015   2.528   5.681   3.822
 5372SOL    HW217016   2.515   5.806   3.717
 5373SOL     OW17017   3.740   6.725   4.245
 5373SOL    HW117018   3.808   6.723   4.318
 5373SOL    HW217019   3.672   6.653   4.261
 5374SOL     OW17020   1.376   3.882   0.016
 5374SOL    HW117021   1.287   3.845   0.042
 5374SOL    HW217022   1.363   3.967   6.985
 5375SOL     OW17023   1.701   4.841   4.756
 5375SOL    HW117024   1.719   4.940   4.753
 5375SOL    HW217025   1.786   4.792   4.772
 5376SOL     OW17026   1.405   3.002   0.765
 5376SOL    HW117027   1.469   2.944   0.815
 5376SOL    HW217028   1.360   2.949   0.694
 5377SOL     OW17029   0.273   6.903   2.287
 5377SOL    HW117030   0.175   6.899   2.270
 5377SOL    HW217031   0.321   6.931   2.204
 5378SOL     OW17032   0.074   0.707   1.669
 5378SOL    HW117033   0.054   0.628   1.726
 5378SOL    HW217034   0.040   0.691   1.576
 5379SOL     OW17035   1.713   5.138   4.735
 5379SOL    HW117036   1.749   5.230   4.745
 5379SOL    HW217037   1.613   5.140   4.736
 5380SOL     OW17038   2.081   2.225   3.235
 5380SOL    HW117039   2.078   2.244   3.137
 5380SOL    HW217040   1.991   2.198   3.267
 5381SOL     OW17041   6.582   3.750   1.543
 5381SOL    HW117042   6.599   3.711   1.634
 5381SOL    HW217043   6.497   3.714   1.506
 5382SOL     OW17044   2.887   0.394   1.717
 5382SOL    HW117045   2.986   0.395   1.711
 5382SOL    HW217046   2.859   0.324   1.783
 5383SOL     OW17047   2.265   2.619   5.603
 5383SOL    HW117048   2.332   2.593   5.672
 5383SOL    HW217049   2.200   2.544   5.589
 5384SOL     OW17050   6.002   0.055   5.034
 5384SOL    HW117051   5.913   0.098   5.049
 5384SOL    HW217052   6.017   0.040   4.937
 5385SOL     OW17053   2.881   3.380   3.914
 5385SOL    HW117054   2.880   3.478   3.929
 5385SOL    HW217055   2.827   3.334   3.985
 5386SOL     OW17056   4.783   0.045   4.393
 5386SOL    HW117057   4.820   7.019   4.312
 5386SOL    HW217058   4.685   0.030   4.398
 5387SOL     OW17059   2.359   6.512   3.871
 5387SOL    HW117060   2.328   6.563   3.790
 5387SOL    HW217061   2.284   6.507   3.937
 5388SOL     OW17062   6.909   0.536   4.251
 5388SOL    HW117063   6.894   0.509   4.156
 5388SOL    HW217064   6.993   0.494   4.285
 5389SOL     OW17065   4.467   1.128   2.075
 5389SOL    HW117066   4.425   1.218   2.062
 5389SOL    HW217067   4.479   1.111   2.172
 5390SOL     OW17068   4.711   4.370   3.072
 5390SOL    HW117069   4.634   4.394   3.131
 5390SOL    HW217070   4.681   4.371   2.977
 5391SOL     OW17071   2.003   2.390   1.272
 5391SOL    HW117072   2.032   2.485   1.282
 5391SOL    HW217073   2.062   2.331   1.328
 5392SOL     OW17074   5.519   3.035   1.357
 5392SOL    HW117075   5.535   3.072   1.266
 5392SOL    HW217076   5.436   2.978   1.356
 5393SOL     OW17077   4.915   6.990   6.263
 5393SOL    HW117078   5.014   6.974   6.264
 5393SOL    HW217079   4.883   7.011   6.355
 5394SOL     OW17080   6.714   4.977   6.875
 5394SOL    HW117081   6.715   4.923   6.791
 5394SOL    HW217082   6.802   5.023   6.886
 5395SOL     OW17083   4.884   0.997   1.766
 5395SOL    HW117084   4.925   0.963   1.851
 5395SOL    HW217085   4.881   0.923   1.699
 5396SOL     OW17086   4.423   4.734   2.572
 5396SOL    HW117087   4.464   4.813   2.526
 5396SOL    HW217088   4.445   4.651   2.520
 5397SOL     OW17089   0.189   2.556   1.540
 5397SOL    HW117090   0.144   2.582   1.625
 5397SOL    HW217091   0.224   2.637   1.494
 5398SOL     OW17092   3.515   2.114   3.068
 5398SOL    HW117093   3.445   2.090   3.134
 5398SOL    HW217094   3.483   2.191   3.012
 5399SOL     OW17095   2.464   5.891   0.472
 5399SOL    HW117096   2.487   5.969   0.414
 5399SOL    HW217097   2.527   5.887   0.549
 5400SOL     OW17098   2.717   4.057   0.857
 5400SOL    HW117099   2.757   3.966   0.848
 5400SOL    HW217100   2.743   4.097   0.945
 5401SOL     OW17101   5.778   3.430   0.994
 5401SOL    HW117102   5.789   3.449   0.896
 5401SOL    HW217103   5.770   3.332   1.008
 5402SOL     OW17104   2.350   5.002   1.505
 5402SOL    HW117105   2.276   5.054   1.461
 5402SOL    HW217106   2.350   5.021   1.603
 5403SOL     OW17107   5.992   2.422   6.272
 5403SOL    HW117108   6.081   2.468   6.273
 5403SOL    HW217109   6.002   2.330   6.312
 5404SOL     OW17110   0.723   0.741   2.639
 5404SOL    HW117111   0.795   0.771   2.577
 5404SOL    HW217112   0.757   0.737   2.732
 5405SOL     OW17113   6.058   6.035   0.509
 5405SOL    HW117114   6.056   5.967   0.582
 5405SOL    HW217115   5.967   6.045   0.469
 5406SOL     OW17116   2.552   0.206   6.339
 5406SOL    HW117117   2.641   0.234   6.304
 5406SOL    HW217118   2.561   0.119   6.388
 5407SOL     OW17119   4.788   2.576   1.485
 5407SOL    HW117120   4.861   2.576   1.416
 5407SOL    HW217121   4.716   2.639   1.458
 5408SOL     OW17122   3.470   1.143   6.264
 5408SOL    HW117123   3.373   1.147   6.285
 5408SOL    HW217124   3.494   1.052   6.229
 5409SOL     OW17125   5.694   1.283   3.988
 5409SOL    HW117126   5.606   1.263   4.031
 5409SOL    HW217127   5.689   1.372   3.942
 5410SOL     OW17128   1.924   3.214   1.120
 5410SOL    HW117129   1.945   3.117   1.127
 5410SOL    HW217130   1.930   3.257   1.210
 5411SOL     OW17131   6.715   4.878   6.313
 5411SOL    HW117132   6.643   4.900   6.380
 5411SOL    HW217133   6.674   4.863   6.223
 5412SOL     OW17134   4.287   0.746   6.869
 5412SOL    HW117135   4.313   0.769   6.776
 5412SOL    HW217136   4.216   0.809   6.900
 5413SOL     OW17137   1.847   0.587   0.790
 5413SOL    HW117138   1.878   0.648   0.863
 5413SOL    HW217139   1.847   0.492   0.823
 5414SOL     OW17140   6.231   3.028   5.103
 5414SOL    HW117141   6.170   3.089   5.052
 5414SOL    HW217142   6.290   2.979   5.039
 5415SOL     OW17143   1.389   6.478   1.605
 5415SOL    HW117144   1.485   6.500   1.588
 5415SOL    HW217145   1.384   6.407   1.676
 5416SOL     OW17146   3.986   4.493   6.377
 5416SOL    HW117147   4.053   4.499   6.451
 5416SOL    HW217148   3.894   4.486   6.416
 5417SOL     OW17149   3.905   6.588   5.058
 5417SOL    HW117150   3.811   6.555   5.047
 5417SOL    HW217151   3.935   6.574   5.153
 5418SOL     OW17152   4.142   6.542   4.478
 5418SOL    HW117153   4.063   6.496   4.437
 5418SOL    HW217154   4.130   6.546   4.577
 5419SOL     OW17155   3.302   5.225   0.373
 5419SOL    HW117156   3.234   5.158   0.345
 5419SOL    HW217157   3.339   5.271   0.293
 5420SOL     OW17158   1.767   2.300   1.961
 5420SOL    HW117159   1.829   2.353   2.018
 5420SOL    HW217160   1.813   2.275   1.876
 5421SOL     OW17161   2.210   3.980   2.426
 5421SOL    HW117162   2.281   4.008   2.362
 5421SOL    HW217163   2.132   3.942   2.375
 5422SOL     OW17164   0.516   5.838   6.529
 5422SOL    HW117165   0.437   5.900   6.532
 5422SOL    HW217166   0.512   5.784   6.445
 5423SOL     OW17167   5.250   2.806   0.053
 5423SOL    HW117168   5.265   2.837   0.147
 5423SOL    HW217169   5.189   2.726   0.053
 5424SOL     OW17170   5.065   2.853   4.228
 5424SOL    HW117171   5.102   2.938   4.191
 5424SOL    HW217172   5.035   2.795   4.152
 5425SOL     OW17173   4.416   1.505   4.204
 5425SOL    HW117174   4.480   1.445   4.155
 5425SOL    HW217175   4.467   1.570   4.260
 5426SOL     OW17176   6.502   5.145   3.914
 5426SOL    HW117177   6.506   5.176   4.009
 5426SOL    HW217178   6.416   5.098   3.898
 5427SOL     OW17179   5.344   4.907   0.877
 5427SOL    HW117180   5.423   4.962   0.848
 5427SOL    HW217181   5.270   4.968   0.905
 5428SOL     OW17182   0.001   0.292   1.857
 5428SOL    HW117183   6.951   0.242   1.908
 5428SOL    HW217184   6.988   0.309   1.764
 5429SOL     OW17185   0.956   1.822   5.652
 5429SOL    HW117186   1.015   1.828   5.733
 5429SOL    HW217187   1.009   1.785   5.575
 5430SOL     OW17188   0.864   3.406   5.353
 5430SOL    HW117189   0.817   3.370   5.272
 5430SOL    HW217190   0.796   3.431   5.422
 5431SOL     OW17191   3.429   6.065   6.813
 5431SOL    HW117192   3.351   6.010   6.784
 5431SOL    HW217193   3.412   6.100   6.905
 5432SOL     OW17194   4.066   6.712   6.721
 5432SOL    HW117195   4.052   6.684   6.626
 5432SOL    HW217196   4.164   6.726   6.737
 5433SOL     OW17197   0.159   1.478   4.015
 5433SOL    HW117198   0.252   1.442   4.018
 5433SOL    HW217199   0.105   1.436   4.087
 5434SOL     OW17200   3.891   1.162   4.379
 5434SOL    HW117201   3.857   1.231   4.315
 5434SOL    HW217202   3.847   1.176   4.468
 5435SOL     OW17203   5.374   1.460   1.714
 5435SOL    HW117204   5.338   1.430   1.802
 5435SOL    HW217205   5.376   1.560   1.710
 5436SOL     OW17206   4.891   3.989   4.296
 5436SOL    HW117207   4.823   4.059   4.314
 5436SOL    HW217208   4.972   4.006   4.353
 5437SOL     OW17209   2.860   5.320   6.020
 5437SOL    HW117210   2.945   5.290   6.062
 5437SOL    HW217211   2.873   5.409   5.976
 5438SOL     OW17212   5.530   4.009   2.574
 5438SOL    HW117213   5.568   3.982   2.662
 5438SOL    HW217214   5.484   3.931   2.532
 5439SOL     OW17215   0.964   2.268   0.853
 5439SOL    HW117216   0.987   2.350   0.906
 5439SOL    HW217217   0.993   2.186   0.903
 5440SOL     OW17218   0.720   0.334   2.090
 5440SOL    HW117219   0.803   0.322   2.145
 5440SOL    HW217220   0.727   0.279   2.007
 5441SOL     OW17221   4.771   2.733   3.433
 5441SOL    HW117222   4.768   2.814   3.491
 5441SOL    HW217223   4.734   2.755   3.343
 5442SOL     OW17224   3.533   6.197   3.452
 5442SOL    HW117225   3.449   6.243   3.483
 5442SOL    HW217226   3.609   6.262   3.454
 5443SOL     OW17227   2.437   0.784   3.467
 5443SOL    HW117228   2.414   0.835   3.384
 5443SOL    HW217229   2.416   0.838   3.548
 5444SOL     OW17230   1.718   0.383   3.495
 5444SOL    HW117231   1.739   0.300   3.546
 5444SOL    HW217232   1.802   0.426   3.464
 5445SOL     OW17233   6.157   4.049   4.460
 5445SOL    HW117234   6.237   4.019   4.408
 5445SOL    HW217235   6.074   4.016   4.416
 5446SOL     OW17236   6.641   5.183   5.402
 5446SOL    HW117237   6.590   5.244   5.462
 5446SOL    HW217238   6.605   5.090   5.408
 5447SOL     OW17239   1.572   1.846   6.783
 5447SOL    HW117240   1.480   1.870   6.813
 5447SOL    HW217241   1.605   1.914   6.718
 5448SOL     OW17242   5.543   3.265   4.653
 5448SOL    HW117243   5.475   3.249   4.724
 5448SOL    HW217244   5.530   3.199   4.579
 5449SOL     OW17245   1.505   2.118   6.983
 5449SOL    HW117246   1.508   2.192   6.915
 5449SOL    HW217247   1.562   2.043   6.953
 5450SOL     OW17248   1.673   0.719   2.028
 5450SOL    HW117249   1.711   0.628   2.044
 5450SOL    HW217250   1.580   0.723   2.064
 5451SOL     OW17251   1.802   5.577   4.069
 5451SOL    HW117252   1.860   5.627   4.133
 5451SOL    HW217253   1.775   5.638   3.994
 5452SOL     OW17254   1.985   4.493   0.151
 5452SOL    HW117255   2.029   4.518   0.065
 5452SOL    HW217256   2.041   4.426   0.199
 5453SOL     OW17257   5.357   4.260   1.872
 5453SOL    HW117258   5.434   4.305   1.827
 5453SOL    HW217259   5.385   4.231   1.964
 5454SOL     OW17260   6.931   4.234   5.967
 5454SOL    HW117261   0.002   4.233   5.927
 5454SOL    HW217262   6.930   4.296   6.046
 5455SOL     OW17263   6.141   3.007   1.294
 5455SOL    HW117264   6.151   2.907   1.300
 5455SOL    HW217265   6.227   3.047   1.261
 5456SOL     OW17266   2.685   0.475   6.478
 5456SOL    HW117267   2.668   0.466   6.576
 5456SOL    HW217268   2.736   0.395   6.446
 5457SOL     OW17269   6.583   2.579   0.458
 5457SOL    HW117270   6.558   2.633   0.378
 5457SOL    HW217271   6.638   2.635   0.520
 5458SOL     OW17272   0.737   4.053   0.654
 5458SOL    HW117273   0.813   4.012   0.705
 5458SOL    HW217274   0.773   4.108   0.579
 5459SOL     OW17275   1.781   4.285   0.076
 5459SOL    HW117276   1.845   4.355   0.108
 5459SOL    HW217277   1.692   4.327   0.059
 5460SOL     OW17278   4.092   0.439   3.164
 5460SOL    HW117279   4.027   0.382   3.114
 5460SOL    HW217280   4.044   0.513   3.210
 5461SOL     OW17281   5.849   7.020   5.948
 5461SOL    HW117282   5.901   0.085   5.943
 5461SOL    HW217283   5.865   6.977   6.037
 5462SOL     OW17284   0.311   0.097   0.377
 5462SOL    HW117285   0.343   0.184   0.338
 5462SOL    HW217286   0.291   0.033   0.302
 5463SOL     OW17287   6.874   1.829   0.832
 5463SOL    HW117288   6.817   1.894   0.781
 5463SOL    HW217289   6.879   1.856   0.928
 5464SOL     OW17290   0.870   1.232   4.365
 5464SOL    HW117291   0.883   1.300   4.294
 5464SOL    HW217292   0.776   1.199   4.363
 5465SOL     OW17293   3.720   0.211   3.737
 5465SOL    HW117294   3.783   0.166   3.675
 5465SOL    HW217295   3.627   0.180   3.719
 5466SOL     OW17296   5.477   2.562   4.825
 5466SOL    HW117297   5.535   2.606   4.755
 5466SOL    HW217298   5.447   2.630   4.891
 5467SOL     OW17299   5.128   3.112   3.088
 5467SOL    HW117300   5.181   3.142   3.009
 5467SOL    HW217301   5.178   3.133   3.172
 5468SOL     OW17302   5.992   2.901   4.205
 5468SOL    HW117303   6.015   2.994   4.175
 5468SOL    HW217304   5.973   2.844   4.124
 5469SOL     OW17305   3.268   6.289   6.376
 5469SOL    HW117306   3.330   6.213   6.362
 5469SOL    HW217307   3.306   6.372   6.335
 5470SOL     OW17308   3.139   5.961   3.126
 5470SOL    HW117309   3.147   5.967   3.226
 5470SOL    HW217310   3.074   5.888   3.102
 5471SOL     OW17311   5.264   0.073   2.824
 5471SOL    HW117312   5.185   0.067   2.885
 5471SOL    HW217313   5.295   7.001   2.800
 5472SOL     OW17314   4.477   3.759   5.937
 5472SOL    HW117315   4.567   3.721   5.958
 5472SOL    HW217316   4.444   3.812   6.014
 5473SOL     OW17317   0.282   2.796   2.126
 5473SOL    HW117318   0.186   2.823   2.129
 5473SOL    HW217319   0.289   2.698   2.148
 5474SOL     OW17320   0.933   4.889   4.060
 5474SOL    HW117321   0.994   4.919   4.133
 5474SOL    HW217322   0.970   4.916   3.971
 5475SOL     OW17323   2.462   3.138   1.625
 5475SOL    HW117324   2.540   3.199   1.643
 5475SOL    HW217325   2.494   3.058   1.575
 5476SOL     OW17326   2.029   4.768   5.577
 5476SOL    HW117327   1.957   4.807   5.519
 5476SOL    HW217328   2.017   4.669   5.582
 5477SOL     OW17329   2.559   4.540   3.357
 5477SOL    HW117330   2.653   4.575   3.350
 5477SOL    HW217331   2.500   4.612   3.393
 5478SOL     OW17332   3.578   4.914   5.056
 5478SOL    HW117333   3.504   4.925   4.989
 5478SOL    HW217334   3.651   4.860   5.014
 5479SOL     OW17335   4.983   1.732   6.596
 5479SOL    HW117336   5.075   1.700   6.619
 5479SOL    HW217337   4.921   1.653   6.590
 5480SOL     OW17338   6.070   4.461   2.789
 5480SOL    HW117339   5.994   4.433   2.848
 5480SOL    HW217340   6.155   4.420   2.824
 5481SOL     OW17341   4.361   1.286   4.352
 5481SOL    HW117342   4.427   1.226   4.306
 5481SOL    HW217343   4.364   1.377   4.311
 5482SOL     OW17344   3.380   4.580   1.702
 5482SOL    HW117345   3.474   4.607   1.723
 5482SOL    HW217346   3.320   4.660   1.709
 5483SOL     OW17347   0.268   1.875   5.455
 5483SOL    HW117348   0.334   1.807   5.487
 5483SOL    HW217349   0.316   1.955   5.420
 5484SOL     OW17350   4.020   1.420   4.135
 5484SOL    HW117351   4.067   1.351   4.080
 5484SOL    HW217352   4.087   1.482   4.176
 5485SOL     OW17353   3.870   0.098   5.572
 5485SOL    HW117354   3.906   0.096   5.665
 5485SOL    HW217355   3.771   0.083   5.574
 5486SOL     OW17356   2.617   5.685   5.205
 5486SOL    HW117357   2.637   5.720   5.113
 5486SOL    HW217358   2.545   5.617   5.200
 5487SOL     OW17359   4.209   2.830   6.665
 5487SOL    HW117360   4.304   2.828   6.634
 5487SOL    HW217361   4.202   2.891   6.744
 5488SOL     OW17362   6.459   0.112   1.164
 5488SOL    HW117363   6.386   0.133   1.229
 5488SOL    HW217364   6.537   0.072   1.213
 5489SOL     OW17365   0.569   3.861   1.619
 5489SOL    HW117366   0.652   3.852   1.564
 5489SOL    HW217367   0.488   3.850   1.562
 5490SOL     OW17368   3.216   0.784   2.440
 5490SOL    HW117369   3.238   0.832   2.525
 5490SOL    HW217370   3.196   0.688   2.459
 5491SOL     OW17371   1.208   2.965   0.318
 5491SOL    HW117372   1.198   2.877   0.271
 5491SOL    HW217373   1.149   2.966   0.398
 5492SOL     OW17374   1.110   3.818   6.845
 5492SOL    HW117375   1.119   3.860   6.755
 5492SOL    HW217376   1.149   3.726   6.844
 5493SOL     OW17377   3.230   2.991   4.432
 5493SOL    HW117378   3.173   3.062   4.390
 5493SOL    HW217379   3.180   2.905   4.432
 5494SOL     OW17380   6.945   3.411   5.664
 5494SOL    HW117381   0.015   3.419   5.622
 5494SOL    HW217382   6.884   3.481   5.626
 5495SOL     OW17383   5.978   0.948   1.196
 5495SOL    HW117384   5.934   0.890   1.128
 5495SOL    HW217385   6.034   1.017   1.150
 5496SOL     OW17386   3.895   0.581   3.329
 5496SOL    HW117387   3.849   0.608   3.244
 5496SOL    HW217388   3.830   0.582   3.404
 5497SOL     OW17389   0.905   1.114   5.206
 5497SOL    HW117390   0.828   1.159   5.160
 5497SOL    HW217391   0.934   1.035   5.153
 5498SOL     OW17392   6.951   5.168   2.138
 5498SOL    HW117393   6.885   5.224   2.189
 5498SOL    HW217394   7.012   5.228   2.086
 5499SOL     OW17395   1.054   0.275   4.508
 5499SOL    HW117396   1.137   0.229   4.476
 5499SOL    HW217397   1.054   0.370   4.476
 5500SOL     OW17398   1.010   0.803   6.789
 5500SOL    HW117399   1.049   0.801   6.881
 5500SOL    HW217400   0.911   0.790   6.794
 5501SOL     OW17401   3.659   2.270   0.298
 5501SOL    HW117402   3.630   2.290   0.391
 5501SOL    HW217403   3.736   2.205   0.300
 5502SOL     OW17404   5.389   3.967   6.620
 5502SOL    HW117405   5.294   3.935   6.625
 5502SOL    HW217406   5.440   3.911   6.554
 5503SOL     OW17407   0.097   4.701   0.724
 5503SOL    HW117408   0.137   4.792   0.713
 5503SOL    HW217409   0.161   4.642   0.774
 5504SOL     OW17410   4.485   1.131   4.954
 5504SOL    HW117411   4.519   1.201   4.891
 5504SOL    HW217412   4.481   1.043   4.907
 5505SOL     OW17413   1.951   4.353   3.218
 5505SOL    HW117414   1.883   4.404   3.165
 5505SOL    HW217415   1.909   4.269   3.253
 5506SOL     OW17416   0.224   3.404   0.963
 5506SOL    HW117417   0.129   3.384   0.939
 5506SOL    HW217418   0.271   3.442   0.883
 5507SOL     OW17419   3.653   0.782   4.788
 5507SOL    HW117420   3.559   0.773   4.755
 5507SOL    HW217421   3.715   0.735   4.726
 5508SOL     OW17422   1.292   1.460   0.414
 5508SOL    HW117423   1.337   1.383   0.458
 5508SOL    HW217424   1.274   1.439   0.318
 5509SOL     OW17425   0.806   6.010   0.183
 5509SOL    HW117426   0.773   6.098   0.216
 5509SOL    HW217427   0.899   6.020   0.149
 5510SOL     OW17428   4.204   5.385   6.804
 5510SOL    HW117429   4.277   5.317   6.802
 5510SOL    HW217430   4.229   5.459   6.866
 5511SOL     OW17431   1.535   0.886   4.613
 5511SOL    HW117432   1.530   0.984   4.634
 5511SOL    HW217433   1.446   0.854   4.581
 5512SOL     OW17434   4.056   1.518   0.924
 5512SOL    HW117435   4.076   1.490   0.830
 5512SOL    HW217436   4.071   1.617   0.933
 5513SOL     OW17437   3.764   5.459   6.270
 5513SOL    HW117438   3.711   5.494   6.347
 5513SOL    HW217439   3.809   5.374   6.295
 5514SOL     OW17440   3.211   0.957   4.530
 5514SOL    HW117441   3.166   0.879   4.486
 5514SOL    HW217442   3.169   1.042   4.500
 5515SOL     OW17443   1.116   5.698   1.641
 5515SOL    HW117444   1.099   5.797   1.642
 5515SOL    HW217445   1.185   5.678   1.571
 5516SOL     OW17446   1.849   2.377   4.684
 5516SOL    HW117447   1.908   2.330   4.750
 5516SOL    HW217448   1.873   2.349   4.592
 5517SOL     OW17449   2.102   3.707   2.118
 5517SOL    HW117450   2.155   3.767   2.178
 5517SOL    HW217451   2.160   3.633   2.085
 5518SOL     OW17452   6.156   5.340   6.463
 5518SOL    HW117453   6.151   5.369   6.558
 5518SOL    HW217454   6.252   5.336   6.434
 5519SOL     OW17455   6.211   2.856   3.120
 5519SOL    HW117456   6.257   2.816   3.199
 5519SOL    HW217457   6.166   2.783   3.068
 5520SOL     OW17458   5.536   0.163   2.014
 5520SOL    HW117459   5.495   0.249   1.983
 5520SOL    HW217460   5.606   0.182   2.083
 5521SOL     OW17461   5.540   6.333   2.069
 5521SOL    HW117462   5.617   6.328   2.132
 5521SOL    HW217463   5.514   6.429   2.056
 5522SOL     OW17464   6.542   5.453   1.345
 5522SOL    HW117465   6.556   5.390   1.268
 5522SOL    HW217466   6.627   5.502   1.365
 5523SOL     OW17467   4.426   0.693   1.965
 5523SOL    HW117468   4.383   0.642   1.890
 5523SOL    HW217469   4.524   0.671   1.968
 5524SOL     OW17470   3.465   0.021   4.711
 5524SOL    HW117471   3.483   6.951   4.671
 5524SOL    HW217472   3.520   0.090   4.664
 5525SOL     OW17473   1.704   2.278   0.132
 5525SOL    HW117474   1.722   2.340   0.208
 5525SOL    HW217475   1.684   2.187   0.167
 5526SOL     OW17476   5.043   4.943   2.715
 5526SOL    HW117477   4.956   4.914   2.677
 5526SOL    HW217478   5.039   4.937   2.815
 5527SOL     OW17479   5.071   3.830   3.516
 5527SOL    HW117480   5.009   3.830   3.437
 5527SOL    HW217481   5.019   3.810   3.599
 5528SOL     OW17482   1.894   1.019   0.982
 5528SOL    HW117483   1.912   0.922   0.964
 5528SOL    HW217484   1.799   1.039   0.959
 5529SOL     OW17485   3.268   6.728   4.427
 5529SOL    HW117486   3.322   6.801   4.386
 5529SOL    HW217487   3.206   6.767   4.496
 5530SOL     OW17488   6.223   2.013   1.264
 5530SOL    HW117489   6.205   2.026   1.361
 5530SOL    HW217490   6.312   1.969   1.252
 5531SOL     OW17491   3.907   3.527   1.409
 5531SOL    HW117492   3.875   3.554   1.500
 5531SOL    HW217493   3.834   3.541   1.342
 5532SOL     OW17494   1.408   3.271   0.964
 5532SOL    HW117495   1.322   3.319   0.977
 5532SOL    HW217496   1.434   3.273   0.867
 5533SOL     OW17497   5.048   1.246   3.581
 5533SOL    HW117498   5.124   1.279   3.526
 5533SOL    HW217499   4.981   1.318   3.594
 5534SOL     OW17500   1.086   1.484   6.912
 5534SOL    HW117501   1.041   1.564   6.952
 5534SOL    HW217502   1.020   1.435   6.854
 5535SOL     OW17503   1.211   1.111   3.090
 5535SOL    HW117504   1.261   1.161   3.019
 5535SOL    HW217505   1.266   1.032   3.119
 5536SOL     OW17506   3.852   0.456   3.944
 5536SOL    HW117507   3.829   0.414   4.032
 5536SOL    HW217508   3.905   0.391   3.890
 5537SOL     OW17509   3.283   1.163   2.574
 5537SOL    HW117510   3.330   1.139   2.489
 5537SOL    HW217511   3.310   1.256   2.601
 5538SOL     OW17512   3.914   5.501   5.162
 5538SOL    HW117513   3.965   5.583   5.136
 5538SOL    HW217514   3.979   5.429   5.189
 5539SOL     OW17515   1.432   3.890   1.612
 5539SOL    HW117516   1.522   3.867   1.647
 5539SOL    HW217517   1.401   3.817   1.551
 5540SOL     OW17518   4.784   4.640   4.006
 5540SOL    HW117519   4.708   4.693   3.970
 5540SOL    HW217520   4.868   4.663   3.955
 5541SOL     OW17521   5.021   0.257   6.436
 5541SOL    HW117522   4.965   0.340   6.437
 5541SOL    HW217523   4.962   0.177   6.449
 5542SOL     OW17524   4.009   3.456   6.067
 5542SOL    HW117525   4.109   3.458   6.060
 5542SOL    HW217526   3.978   3.360   6.070
 5543SOL     OW17527   5.157   3.793   6.242
 5543SOL    HW117528   5.126   3.709   6.286
 5543SOL    HW217529   5.181   3.773   6.146
 5544SOL     OW17530   4.809   6.488   6.579
 5544SOL    HW117531   4.859   6.460   6.661
 5544SOL    HW217532   4.861   6.462   6.498
 5545SOL     OW17533   4.405   1.410   2.875
 5545SOL    HW117534   4.456   1.327   2.852
 5545SOL    HW217535   4.345   1.392   2.952
 5546SOL     OW17536   0.849   5.029   5.144
 5546SOL    HW117537   0.801   5.075   5.219
 5546SOL    HW217538   0.798   5.043   5.059
 5547SOL     OW17539   2.526   6.366   4.964
 5547SOL    HW117540   2.504   6.326   4.875
 5547SOL    HW217541   2.455   6.342   5.030
 5548SOL     OW17542   6.287   3.593   5.460
 5548SOL    HW117543   6.206   3.647   5.439
 5548SOL    HW217544   6.350   3.648   5.514
 5549SOL     OW17545   3.567   4.747   0.053
 5549SOL    HW117546   3.631   4.671   0.040
 5549SOL    HW217547   3.473   4.712   0.049
 5550SOL     OW17548   2.835   5.731   2.050
 5550SOL    HW117549   2.741   5.707   2.075
 5550SOL    HW217550   2.896   5.712   2.127
 5551SOL     OW17551   2.035   0.741   2.752
 5551SOL    HW117552   1.965   0.704   2.691
 5551SOL    HW217553   1.994   0.762   2.841
 5552SOL     OW17554   0.100   1.623   0.191
 5552SOL    HW117555   0.035   1.625   0.267
 5552SOL    HW217556   0.050   1.620   0.104
 5553SOL     OW17557   3.971   6.683   0.144
 5553SOL    HW117558   3.966   6.640   0.054
 5553SOL    HW217559   3.938   6.619   0.214
 5554SOL     OW17560   2.848   2.086   5.765
 5554SOL    HW117561   2.840   2.173   5.718
 5554SOL    HW217562   2.944   2.059   5.771
 5555SOL     OW17563   0.719   5.597   3.645
 5555SOL    HW117564   0.672   5.620   3.730
 5555SOL    HW217565   0.652   5.573   3.575
 5556SOL     OW17566   0.815   2.194   4.418
 5556SOL    HW117567   0.725   2.187   4.376
 5556SOL    HW217568   0.805   2.227   4.512
 5557SOL     OW17569   3.100   5.730   4.114
 5557SOL    HW117570   3.179   5.747   4.173
 5557SOL    HW217571   3.084   5.632   4.106
 5558SOL     OW17572   5.057   3.281   5.067
 5558SOL    HW117573   5.035   3.345   4.994
 5558SOL    HW217574   5.110   3.205   5.030
 5559SOL     OW17575   2.414   6.982   1.744
 5559SOL    HW117576   2.449   6.892   1.771
 5559SOL    HW217577   2.440   0.029   1.813
 5560SOL     OW17578   6.771   0.024   3.400
 5560SOL    HW117579   6.705   6.985   3.447
 5560SOL    HW217580   6.763   0.010   3.301
 5561SOL     OW17581   1.095   2.757   4.337
 5561SOL    HW117582   0.996   2.760   4.353
 5561SOL    HW217583   1.113   2.776   4.240
 5562SOL     OW17584   1.803   2.740   6.692
 5562SOL    HW117585   1.795   2.818   6.755
 5562SOL    HW217586   1.764   2.659   6.734
 5563SOL     OW17587   4.595   6.426   2.144
 5563SOL    HW117588   4.691   6.430   2.116
 5563SOL    HW217589   4.589   6.433   2.244
 5564SOL     OW17590   5.223   3.172   1.540
 5564SOL    HW117591   5.225   3.104   1.467
 5564SOL    HW217592   5.166   3.139   1.615
 5565SOL     OW17593   4.053   2.618   5.616
 5565SOL    HW117594   4.041   2.614   5.517
 5565SOL    HW217595   4.142   2.581   5.641
 5566SOL     OW17596   1.493   5.867   0.779
 5566SOL    HW117597   1.457   5.950   0.737
 5566SOL    HW217598   1.590   5.858   0.756
 5567SOL     OW17599   1.578   5.250   1.018
 5567SOL    HW117600   1.480   5.273   1.019
 5567SOL    HW217601   1.628   5.312   1.077
 5568SOL     OW17602   4.549   2.330   0.818
 5568SOL    HW117603   4.533   2.262   0.746
 5568SOL    HW217604   4.486   2.313   0.894
 5569SOL     OW17605   4.185   1.497   1.937
 5569SOL    HW117606   4.122   1.489   1.860
 5569SOL    HW217607   4.136   1.474   2.022
 5570SOL     OW17608   5.952   4.728   4.845
 5570SOL    HW117609   5.940   4.743   4.943
 5570SOL    HW217610   5.943   4.631   4.824
 5571SOL     OW17611   0.292   5.886   0.962
 5571SOL    HW117612   0.342   5.935   1.034
 5571SOL    HW217613   0.355   5.826   0.913
 5572SOL     OW17614   3.753   2.530   6.787
 5572SOL    HW117615   3.786   2.608   6.735
 5572SOL    HW217616   3.819   2.507   6.858
 5573SOL     OW17617   1.498   3.576   0.652
 5573SOL    HW117618   1.460   3.658   0.609
 5573SOL    HW217619   1.556   3.528   0.585
 5574SOL     OW17620   0.224   6.760   4.249
 5574SOL    HW117621   0.216   6.802   4.339
 5574SOL    HW217622   0.251   6.829   4.182
 5575SOL     OW17623   1.648   1.140   1.299
 5575SOL    HW117624   1.743   1.166   1.317
 5575SOL    HW217625   1.632   1.046   1.331
 5576SOL     OW17626   6.467   5.181   1.239
 5576SOL    HW117627   6.518   5.095   1.230
 5576SOL    HW217628   6.431   5.208   1.149
 5577SOL     OW17629   2.094   3.427   5.671
 5577SOL    HW117630   2.032   3.504   5.655
 5577SOL    HW217631   2.111   3.380   5.584
 5578SOL     OW17632   3.272   2.506   6.922
 5578SOL    HW117633   3.274   2.452   7.006
 5578SOL    HW217634   3.305   2.598   6.942
 5579SOL     OW17635   5.129   3.878   6.635
 5579SOL    HW117636   5.181   3.793   6.623
 5579SOL    HW217637   5.035   3.865   6.604
 5580SOL     OW17638   4.787   2.111   0.457
 5580SOL    HW117639   4.767   2.042   0.388
 5580SOL    HW217640   4.847   2.071   0.527
 5581SOL     OW17641   2.193   0.564   6.437
 5581SOL    HW117642   2.174   0.600   6.528
 5581SOL    HW217643   2.262   0.621   6.392
 5582SOL     OW17644   3.332   3.847   3.533
 5582SOL    HW117645   3.416   3.800   3.557
 5582SOL    HW217646   3.324   3.932   3.585
 5583SOL     OW17647   3.865   6.430   1.998
 5583SOL    HW117648   3.804   6.500   1.960
 5583SOL    HW217649   3.907   6.464   2.082
 5584SOL     OW17650   5.738   4.412   3.416
 5584SOL    HW117651   5.765   4.420   3.320
 5584SOL    HW217652   5.707   4.502   3.449
 5585SOL     OW17653   5.913   0.743   3.811
 5585SOL    HW117654   5.915   0.643   3.818
 5585SOL    HW217655   5.836   0.778   3.865
 5586SOL     OW17656   1.571   1.866   6.318
 5586SOL    HW117657   1.587   1.964   6.316
 5586SOL    HW217658   1.487   1.847   6.369
 5587SOL     OW17659   3.216   0.701   3.298
 5587SOL    HW117660   3.300   0.737   3.256
 5587SOL    HW217661   3.239   0.643   3.376
 5588SOL     OW17662   2.238   0.085   5.033
 5588SOL    HW117663   2.191   0.052   4.951
 5588SOL    HW217664   2.251   0.009   5.097
 5589SOL     OW17665   5.008   2.757   6.194
 5589SOL    HW117666   5.086   2.803   6.236
 5589SOL    HW217667   5.041   2.680   6.139
 5590SOL     OW17668   6.330   5.766   4.520
 5590SOL    HW117669   6.292   5.675   4.540
 5590SOL    HW217670   6.322   5.824   4.601
 5591SOL     OW17671   6.235   0.502   0.079
 5591SOL    HW117672   6.295   0.505   0.160
 5591SOL    HW217673   6.194   0.592   0.066
 5592SOL     OW17674   1.353   3.940   3.434
 5592SOL    HW117675   1.426   4.007   3.448
 5592SOL    HW217676   1.267   3.988   3.417
 5593SOL     OW17677   0.469   2.709   6.031
 5593SOL    HW117678   0.404   2.700   6.107
 5593SOL    HW217679   0.448   2.640   5.961
 5594SOL     OW17680   2.194   0.540   7.014
 5594SOL    HW117681   2.114   0.508   6.964
 5594SOL    HW217682   2.186   0.513   0.090
 5595SOL     OW17683   6.208   0.938   5.908
 5595SOL    HW117684   6.215   0.904   5.814
 5595SOL    HW217685   6.180   0.863   5.968
 5596SOL     OW17686   5.560   0.498   2.740
 5596SOL    HW117687   5.625   0.505   2.664
 5596SOL    HW217688   5.541   0.402   2.759
 5597SOL     OW17689   5.844   1.775   6.599
 5597SOL    HW117690   5.840   1.690   6.546
 5597SOL    HW217691   5.755   1.792   6.642
 5598SOL     OW17692   5.266   2.013   4.258
 5598SOL    HW117693   5.336   1.942   4.257
 5598SOL    HW217694   5.251   2.046   4.165
 5599SOL     OW17695   5.052   3.895   1.413
 5599SOL    HW117696   5.086   3.808   1.446
 5599SOL    HW217697   5.038   3.957   1.490
 5600SOL     OW17698   1.975   0.888   2.997
 5600SOL    HW117699   1.907   0.931   3.058
 5600SOL    HW217700   2.009   0.805   3.040
 5601SOL     OW17701   5.256   2.851   5.760
 5601SOL    HW117702   5.283   2.934   5.711
 5601SOL    HW217703   5.232   2.874   5.854
 5602SOL     OW17704   0.857   2.284   3.009
 5602SOL    HW117705   0.945   2.324   2.987
 5602SOL    HW217706   0.815   2.335   3.085
 5603SOL     OW17707   4.588   2.540   5.222
 5603SOL    HW117708   4.598   2.621   5.164
 5603SOL    HW217709   4.504   2.548   5.276
 5604SOL     OW17710   1.484   0.239   4.252
 5604SOL    HW117711   1.580   0.211   4.261
 5604SOL    HW217712   1.445   0.196   4.170
 5605SOL     OW17713   1.987   0.063   4.332
 5605SOL    HW117714   1.960   0.149   4.289
 5605SOL    HW217715   2.034   0.005   4.265
 5606SOL     OW17716   5.017   1.236   0.877
 5606SOL    HW117717   5.113   1.257   0.894
 5606SOL    HW217718   4.960   1.312   0.907
 5607SOL     OW17719   6.216   2.464   3.000
 5607SOL    HW117720   6.169   2.551   2.987
 5607SOL    HW217721   6.311   2.473   2.972
 5608SOL     OW17722   5.457   0.938   4.191
 5608SOL    HW117723   5.454   0.983   4.280
 5608SOL    HW217724   5.393   0.861   4.191
 5609SOL     OW17725   5.661   6.636   0.472
 5609SOL    HW117726   5.621   6.546   0.489
 5609SOL    HW217727   5.759   6.632   0.492
 5610SOL     OW17728   5.487   3.763   0.007
 5610SOL    HW117729   5.465   3.854   6.993
 5610SOL    HW217730   5.409   3.702   7.014
 5611SOL     OW17731   0.523   5.171   1.769
 5611SOL    HW117732   0.533   5.210   1.861
 5611SOL    HW217733   0.560   5.236   1.702
 5612SOL     OW17734   2.814   1.989   0.279
 5612SOL    HW117735   2.852   1.983   0.187
 5612SOL    HW217736   2.733   1.931   0.286
 5613SOL     OW17737   0.127   5.312   5.054
 5613SOL    HW117738   0.197   5.366   5.007
 5613SOL    HW217739   0.140   5.319   5.153
 5614SOL     OW17740   5.843   1.962   4.926
 5614SOL    HW117741   5.911   1.890   4.940
 5614SOL    HW217742   5.873   2.045   4.971
 5615SOL     OW17743   0.177   2.260   2.321
 5615SOL    HW117744   0.088   2.293   2.290
 5615SOL    HW217745   0.183   2.267   2.421
 5616SOL     OW17746   1.652   2.762   4.141
 5616SOL    HW117747   1.697   2.851   4.138
 5616SOL    HW217748   1.617   2.745   4.234
 5617SOL     OW17749   1.699   5.212   5.820
 5617SOL    HW117750   1.709   5.138   5.754
 5617SOL    HW217751   1.782   5.220   5.874
 5618SOL     OW17752   6.717   5.027   4.381
 5618SOL    HW117753   6.770   5.109   4.401
 5618SOL    HW217754   6.754   4.950   4.435
 5619SOL     OW17755   3.608   3.143   3.790
 5619SOL    HW117756   3.627   3.240   3.802
 5619SOL    HW217757   3.527   3.118   3.843
 5620SOL     OW17758   4.467   4.205   5.965
 5620SOL    HW117759   4.380   4.184   6.010
 5620SOL    HW217760   4.458   4.193   5.866
 5621SOL     OW17761   1.497   2.725   5.368
 5621SOL    HW117762   1.567   2.773   5.420
 5621SOL    HW217763   1.502   2.752   5.272
 5622SOL     OW17764   4.485   5.385   4.912
 5622SOL    HW117765   4.559   5.435   4.957
 5622SOL    HW217766   4.522   5.307   4.862
 5623SOL     OW17767   4.759   6.133   4.276
 5623SOL    HW117768   4.669   6.171   4.252
 5623SOL    HW217769   4.747   6.055   4.338
 5624SOL     OW17770   6.768   5.417   3.835
 5624SOL    HW117771   6.801   5.495   3.782
 5624SOL    HW217772   6.679   5.387   3.800
 5625SOL     OW17773   1.444   5.184   4.765
 5625SOL    HW117774   1.398   5.102   4.729
 5625SOL    HW217775   1.411   5.203   4.857
 5626SOL     OW17776   2.171   4.205   4.529
 5626SOL    HW117777   2.121   4.217   4.615
 5626SOL    HW217778   2.259   4.252   4.535
 5627SOL     OW17779   1.371   5.736   0.348
 5627SOL    HW117780   1.432   5.808   0.379
 5627SOL    HW217781   1.389   5.715   0.252
 5628SOL     OW17782   3.022   3.191   0.695
 5628SOL    HW117783   3.037   3.225   0.602
 5628SOL    HW217784   3.027   3.267   0.759
 5629SOL     OW17785   4.577   3.561   0.947
 5629SOL    HW117786   4.576   3.518   1.037
 5629SOL    HW217787   4.670   3.555   0.909
 5630SOL     OW17788   1.382   4.421   6.467
 5630SOL    HW117789   1.481   4.431   6.461
 5630SOL    HW217790   1.343   4.500   6.515
 5631SOL     OW17791   4.586   0.710   1.677
 5631SOL    HW117792   4.619   0.629   1.725
 5631SOL    HW217793   4.609   0.791   1.730
 5632SOL     OW17794   5.532   0.600   6.217
 5632SOL    HW117795   5.584   0.600   6.132
 5632SOL    HW217796   5.588   0.635   6.292
 5633SOL     OW17797   0.360   4.605   5.546
 5633SOL    HW117798   0.386   4.573   5.455
 5633SOL    HW217799   0.380   4.702   5.554
 5634SOL     OW17800   3.110   5.414   5.563
 5634SOL    HW117801   3.112   5.399   5.662
 5634SOL    HW217802   3.197   5.385   5.524
 5635SOL     OW17803   2.606   6.921   6.693
 5635SOL    HW117804   2.573   7.001   6.743
 5635SOL    HW217805   2.578   6.838   6.740
 5636SOL     OW17806   5.936   0.811   5.801
 5636SOL    HW117807   5.905   0.905   5.788
 5636SOL    HW217808   5.954   0.795   5.898
 5637SOL     OW17809   5.316   6.124   5.080
 5637SOL    HW117810   5.267   6.120   5.166
 5637SOL    HW217811   5.413   6.103   5.096
 5638SOL     OW17812   5.018   5.965   1.068
 5638SOL    HW117813   5.079   5.965   0.989
 5638SOL    HW217814   4.975   5.875   1.076
 5639SOL     OW17815   1.989   0.120   1.419
 5639SOL    HW117816   2.085   0.147   1.427
 5639SOL    HW217817   1.939   0.187   1.365
 5640SOL     OW17818   2.498   6.649   3.207
 5640SOL    HW117819   2.487   6.731   3.151
 5640SOL    HW217820   2.591   6.614   3.198
 5641SOL     OW17821   1.309   4.913   4.969
 5641SOL    HW117822   1.294   4.852   5.046
 5641SOL    HW217823   1.381   4.877   4.910
 5642SOL     OW17824   0.621   4.783   6.004
 5642SOL    HW117825   0.680   4.713   5.964
 5642SOL    HW217826   0.591   4.846   5.932
 5643SOL     OW17827   3.792   2.101   4.810
 5643SOL    HW117828   3.787   2.177   4.744
 5643SOL    HW217829   3.877   2.106   4.861
 5644SOL     OW17830   4.979   1.654   4.433
 5644SOL    HW117831   4.945   1.643   4.527
 5644SOL    HW217832   5.036   1.576   4.409
 5645SOL     OW17833   5.399   4.729   2.443
 5645SOL    HW117834   5.498   4.736   2.430
 5645SOL    HW217835   5.353   4.757   2.359
 5646SOL     OW17836   0.522   5.577   3.304
 5646SOL    HW117837   0.570   5.507   3.356
 5646SOL    HW217838   0.536   5.666   3.346
 5647SOL     OW17839   0.119   5.827   0.331
 5647SOL    HW117840   0.028   5.844   0.369
 5647SOL    HW217841   0.187   5.875   0.386
 5648SOL     OW17842   1.884   1.309   3.478
 5648SOL    HW117843   1.807   1.368   3.458
 5648SOL    HW217844   1.925   1.276   3.393
 5649SOL     OW17845   2.212   0.366   4.846
 5649SOL    HW117846   2.135   0.389   4.905
 5649SOL    HW217847   2.288   0.429   4.863
 5650SOL     OW17848   0.036   5.064   0.966
 5650SOL    HW117849   0.048   5.008   1.048
 5650SOL    HW217850   0.118   5.058   0.909
 5651SOL     OW17851   0.890   1.815   1.771
 5651SOL    HW117852   0.801   1.777   1.798
 5651SOL    HW217853   0.951   1.815   1.849
 5652SOL     OW17854   5.484   5.909   1.843
 5652SOL    HW117855   5.386   5.930   1.837
 5652SOL    HW217856   5.536   5.994   1.851
 5653SOL     OW17857   6.936   6.348   6.095
 5653SOL    HW117858   0.008   6.357   6.133
 5653SOL    HW217859   6.868   6.371   6.165
 5654SOL     OW17860   0.142   0.543   5.927
 5654SOL    HW117861   0.153   0.583   5.837
 5654SOL    HW217862   0.110   0.448   5.918
 5655SOL     OW17863   1.102   3.014   4.213
 5655SOL    HW117864   1.050   2.944   4.165
 5655SOL    HW217865   1.199   2.991   4.211
 5656SOL     OW17866   3.198   4.523   0.826
 5656SOL    HW117867   3.111   4.491   0.866
 5656SOL    HW217868   3.224   4.462   0.752
 5657SOL     OW17869   5.130   6.477   1.578
 5657SOL    HW117870   5.119   6.401   1.513
 5657SOL    HW217871   5.090   6.560   1.540
 5658SOL     OW17872   3.306   6.634   5.548
 5658SOL    HW117873   3.221   6.634   5.602
 5658SOL    HW217874   3.311   6.718   5.494
 5659SOL     OW17875   3.138   3.064   2.764
 5659SOL    HW117876   3.153   3.087   2.668
 5659SOL    HW217877   3.067   3.122   2.802
 5660SOL     OW17878   5.670   0.339   0.510
 5660SOL    HW117879   5.736   0.374   0.443
 5660SOL    HW217880   5.628   0.416   0.558
 5661SOL     OW17881   6.813   5.662   5.353
 5661SOL    HW117882   6.807   5.564   5.335
 5661SOL    HW217883   6.834   5.678   5.449
 5662SOL     OW17884   2.466   4.667   4.066
 5662SOL    HW117885   2.460   4.750   4.011
 5662SOL    HW217886   2.500   4.592   4.009
 5663SOL     OW17887   0.779   4.173   0.394
 5663SOL    HW117888   0.829   4.209   0.316
 5663SOL    HW217889   0.791   4.073   0.399
 5664SOL     OW17890   0.557   4.784   3.445
 5664SOL    HW117891   0.604   4.697   3.430
 5664SOL    HW217892   0.471   4.784   3.393
 5665SOL     OW17893   1.500   2.287   6.542
 5665SOL    HW117894   1.590   2.328   6.528
 5665SOL    HW217895   1.432   2.359   6.557
 5666SOL     OW17896   4.793   5.509   0.766
 5666SOL    HW117897   4.782   5.413   0.740
 5666SOL    HW217898   4.747   5.525   0.853
 5667SOL     OW17899   0.942   4.613   3.136
 5667SOL    HW117900   0.853   4.569   3.123
 5667SOL    HW217901   0.935   4.681   3.208
 5668SOL     OW17902   5.598   1.632   6.820
 5668SOL    HW117903   5.592   1.597   6.726
 5668SOL    HW217904   5.682   1.598   6.863
 5669SOL     OW17905   0.150   4.704   6.287
 5669SOL    HW117906   0.083   4.773   6.313
 5669SOL    HW217907   0.205   4.679   6.366
 5670SOL     OW17908   0.045   3.142   3.760
 5670SOL    HW117909   0.093   3.055   3.769
 5670SOL    HW217910   6.969   3.129   3.782
 5671SOL     OW17911   2.007   6.433   6.396
 5671SOL    HW117912   1.973   6.350   6.440
 5671SOL    HW217913   1.939   6.468   6.332
 5672SOL     OW17914   4.696   3.562   6.042
 5672SOL    HW117915   4.688   3.512   5.956
 5672SOL    HW217916   4.668   3.501   6.117
 5673SOL     OW17917   0.146   0.411   2.140
 5673SOL    HW117918   0.171   0.321   2.105
 5673SOL    HW217919   0.056   0.406   2.184
 5674SOL     OW17920   0.053   3.854   1.673
 5674SOL    HW117921   0.006   3.770   1.642
 5674SOL    HW217922   0.046   3.861   1.772
 5675SOL     OW17923   4.228   2.218   5.419
 5675SOL    HW117924   4.243   2.156   5.496
 5675SOL    HW217925   4.292   2.294   5.424
 5676SOL     OW17926   2.180   1.179   0.987
 5676SOL    HW117927   2.248   1.217   1.050
 5676SOL    HW217928   2.097   1.234   0.990
 5677SOL     OW17929   0.061   1.369   3.292
 5677SOL    HW117930   0.143   1.311   3.297
 5677SOL    HW217931   7.016   1.329   3.229
 5678SOL     OW17932   3.407   6.305   3.164
 5678SOL    HW117933   3.489   6.325   3.218
 5678SOL    HW217934   3.431   6.302   3.067
 5679SOL     OW17935   1.546   6.657   4.737
 5679SOL    HW117936   1.521   6.600   4.815
 5679SOL    HW217937   1.558   6.599   4.656
 5680SOL     OW17938   1.864   5.700   0.063
 5680SOL    HW117939   1.884   5.636   7.009
 5680SOL    HW217940   1.794   5.661   0.123
 5681SOL     OW17941   0.874   3.099   6.716
 5681SOL    HW117942   0.940   3.167   6.748
 5681SOL    HW217943   0.782   3.139   6.718
 5682SOL     OW17944   1.838   3.117   5.753
 5682SOL    HW117945   1.841   3.022   5.782
 5682SOL    HW217946   1.814   3.121   5.655
 5683SOL     OW17947   3.763   2.527   6.279
 5683SOL    HW117948   3.691   2.597   6.285
 5683SOL    HW217949   3.746   2.468   6.200
 5684SOL     OW17950   4.066   3.186   4.231
 5684SOL    HW117951   4.092   3.207   4.326
 5684SOL    HW217952   4.147   3.158   4.180
 5685SOL     OW17953   0.515   4.853   1.951
 5685SOL    HW117954   0.460   4.773   1.974
 5685SOL    HW217955   0.523   4.861   1.852
 5686SOL     OW17956   3.415   0.741   0.406
 5686SOL    HW117957   3.352   0.784   0.471
 5686SOL    HW217958   3.472   0.675   0.455
 5687SOL     OW17959   6.748   4.379   4.462
 5687SOL    HW117960   6.722   4.427   4.378
 5687SOL    HW217961   6.847   4.366   4.464
 5688SOL     OW17962   6.499   2.062   0.882
 5688SOL    HW117963   6.584   2.010   0.872
 5688SOL    HW217964   6.422   2.004   0.860
 5689SOL     OW17965   3.701   1.600   1.054
 5689SOL    HW117966   3.789   1.647   1.057
 5689SOL    HW217967   3.705   1.516   1.107
 5690SOL     OW17968   3.582   5.800   0.707
 5690SOL    HW117969   3.640   5.745   0.647
 5690SOL    HW217970   3.635   5.877   0.742
 5691SOL     OW17971   2.791   6.249   2.189
 5691SOL    HW117972   2.821   6.263   2.284
 5691SOL    HW217973   2.768   6.153   2.175
 5692SOL     OW17974   6.544   2.006   6.336
 5692SOL    HW117975   6.524   1.985   6.241
 5692SOL    HW217976   6.496   2.090   6.363
 5693SOL     OW17977   5.086   2.544   2.535
 5693SOL    HW117978   5.095   2.446   2.552
 5693SOL    HW217979   5.084   2.593   2.622
 5694SOL     OW17980   0.805   1.275   3.419
 5694SOL    HW117981   0.768   1.351   3.365
 5694SOL    HW217982   0.895   1.249   3.383
 5695SOL     OW17983   1.136   2.053   3.209
 5695SOL    HW117984   1.067   2.112   3.251
 5695SOL    HW217985   1.120   1.958   3.237
 5696SOL     OW17986   2.780   0.826   4.200
 5696SOL    HW117987   2.784   0.867   4.291
 5696SOL    HW217988   2.788   0.727   4.207
 5697SOL     OW17989   6.882   2.561   1.536
 5697SOL    HW117990   6.857   2.602   1.624
 5697SOL    HW217991   6.849   2.619   1.462
 5698SOL     OW17992   0.103   2.097   2.131
 5698SOL    HW117993   0.141   2.152   2.206
 5698SOL    HW217994   0.178   2.061   2.075
 5699SOL     OW17995   6.044   1.784   3.886
 5699SOL    HW117996   6.128   1.810   3.933
 5699SOL    HW217997   5.980   1.861   3.885
 5700SOL     OW17998   0.026   6.294   4.857
 5700SOL    HW117999   0.045   6.299   4.759
 5700SOL    HW218000   0.083   6.360   4.905
 5701SOL     OW18001   1.007   5.658   3.114
 5701SOL    HW118002   0.909   5.641   3.104
 5701SOL    HW218003   1.058   5.588   3.064
 5702SOL     OW18004   2.083   0.185   6.177
 5702SOL    HW118005   2.096   0.208   6.273
 5702SOL    HW218006   2.145   0.240   6.121
 5703SOL     OW18007   4.316   4.648   6.991
 5703SOL    HW118008   4.235   4.700   6.963
 5703SOL    HW218009   4.377   4.708   0.022
 5704SOL     OW18010   4.257   5.746   2.521
 5704SOL    HW118011   4.205   5.762   2.437
 5704SOL    HW218012   4.236   5.818   2.587
 5705SOL     OW18013   6.167   1.136   0.631
 5705SOL    HW118014   6.223   1.197   0.686
 5705SOL    HW218015   6.140   1.056   0.685
 5706SOL     OW18016   1.705   1.783   0.233
 5706SOL    HW118017   1.657   1.723   0.297
 5706SOL    HW218018   1.693   1.749   0.140
 5707SOL     OW18019   0.979   7.005   6.810
 5707SOL    HW118020   0.899   6.975   6.861
 5707SOL    HW218021   1.035   6.926   6.785
 5708SOL     OW18022   5.459   0.412   1.928
 5708SOL    HW118023   5.369   0.430   1.889
 5708SOL    HW218024   5.519   0.490   1.909
 5709SOL     OW18025   0.652   6.082   3.345
 5709SOL    HW118026   0.608   6.083   3.256
 5709SOL    HW218027   0.655   5.988   3.380
 5710SOL     OW18028   2.733   3.599   5.347
 5710SOL    HW118029   2.725   3.613   5.445
 5710SOL    HW218030   2.764   3.683   5.303
 5711SOL     OW18031   4.830   0.363   3.582
 5711SOL    HW118032   4.845   0.268   3.554
 5711SOL    HW218033   4.740   0.394   3.551
 5712SOL     OW18034   1.069   6.854   5.596
 5712SOL    HW118035   1.134   6.927   5.617
 5712SOL    HW218036   1.003   6.886   5.528
 5713SOL     OW18037   1.118   2.338   1.208
 5713SOL    HW118038   1.052   2.312   1.278
 5713SOL    HW218039   1.158   2.256   1.167
 5714SOL     OW18040   1.428   6.673   6.659
 5714SOL    HW118041   1.462   6.622   6.580
 5714SOL    HW218042   1.443   6.771   6.645
 5715SOL     OW18043   1.149   5.917   3.108
 5715SOL    HW118044   1.187   5.941   3.018
 5715SOL    HW218045   1.167   5.821   3.128
 5716SOL     OW18046   0.731   4.059   5.462
 5716SOL    HW118047   0.643   4.104   5.476
 5716SOL    HW218048   0.767   4.084   5.372
 5717SOL     OW18049   1.749   5.102   0.510
 5717SOL    HW118050   1.766   5.009   0.477
 5717SOL    HW218051   1.761   5.105   0.610
 5718SOL     OW18052   1.845   4.507   6.708
 5718SOL    HW118053   1.759   4.478   6.667
 5718SOL    HW218054   1.900   4.427   6.732
 5719SOL     OW18055   3.209   0.927   5.738
 5719SOL    HW118056   3.192   0.942   5.836
 5719SOL    HW218057   3.168   1.002   5.686
 5720SOL     OW18058   0.527   5.236   4.961
 5720SOL    HW118059   0.478   5.188   5.034
 5720SOL    HW218060   0.616   5.192   4.948
 5721SOL     OW18061   1.016   3.456   0.219
 5721SOL    HW118062   0.991   3.486   0.127
 5721SOL    HW218063   0.997   3.358   0.228
 5722SOL     OW18064   5.093   1.384   4.911
 5722SOL    HW118065   4.994   1.370   4.912
 5722SOL    HW218066   5.135   1.312   4.856
 5723SOL     OW18067   4.573   4.601   0.691
 5723SOL    HW118068   4.574   4.503   0.711
 5723SOL    HW218069   4.504   4.621   0.622
 5724SOL     OW18070   3.899   2.362   5.304
 5724SOL    HW118071   3.984   2.396   5.265
 5724SOL    HW218072   3.919   2.292   5.373
 5725SOL     OW18073   4.825   5.809   3.659
 5725SOL    HW118074   4.831   5.716   3.695
 5725SOL    HW218075   4.764   5.811   3.580
 5726SOL     OW18076   6.818   3.083   3.880
 5726SOL    HW118077   6.849   3.029   3.958
 5726SOL    HW218078   6.775   3.167   3.913
 5727SOL     OW18079   6.003   3.496   2.815
 5727SOL    HW118080   5.937   3.570   2.826
 5727SOL    HW218081   6.046   3.475   2.903
 5728SOL     OW18082   5.072   1.693   6.919
 5728SOL    HW118083   5.062   1.792   6.917
 5728SOL    HW218084   5.163   1.668   6.887
 5729SOL     OW18085   1.195   1.652   1.237
 5729SOL    HW118086   1.265   1.723   1.227
 5729SOL    HW218087   1.237   1.569   1.275
 5730SOL     OW18088   4.223   5.421   5.577
 5730SOL    HW118089   4.322   5.423   5.560
 5730SOL    HW218090   4.185   5.512   5.561
 5731SOL     OW18091   1.733   6.541   3.458
 5731SOL    HW118092   1.746   6.517   3.555
 5731SOL    HW218093   1.818   6.580   3.423
 5732SOL     OW18094   5.909   5.017   5.126
 5732SOL    HW118095   5.912   5.036   5.224
 5732SOL    HW218096   5.999   5.035   5.086
 5733SOL     OW18097   3.687   1.204   6.019
 5733SOL    HW118098   3.720   1.110   6.018
 5733SOL    HW218099   3.623   1.218   5.944
 5734SOL     OW18100   0.944   0.056   5.427
 5734SOL    HW118101   0.845   0.071   5.430
 5734SOL    HW218102   0.974   0.056   5.331
 5735SOL     OW18103   3.974   0.984   2.253
 5735SOL    HW118104   3.981   1.032   2.341
 5735SOL    HW218105   4.033   0.904   2.254
 5736SOL     OW18106   5.436   4.661   6.744
 5736SOL    HW118107   5.435   4.663   6.844
 5736SOL    HW218108   5.515   4.609   6.712
 5737SOL     OW18109   5.203   6.009   0.878
 5737SOL    HW118110   5.187   6.077   0.807
 5737SOL    HW218111   5.297   5.977   0.873
 5738SOL     OW18112   3.862   1.614   6.849
 5738SOL    HW118113   3.945   1.569   6.818
 5738SOL    HW218114   3.864   1.711   6.822
 5739SOL     OW18115   1.854   6.570   5.451
 5739SOL    HW118116   1.824   6.636   5.383
 5739SOL    HW218117   1.915   6.503   5.407
 5740SOL     OW18118   4.813   3.475   0.809
 5740SOL    HW118119   4.849   3.424   0.887
 5740SOL    HW218120   4.779   3.411   0.740
 5741SOL     OW18121   0.141   3.465   3.866
 5741SOL    HW118122   0.176   3.441   3.775
 5741SOL    HW218123   0.050   3.506   3.856
 5742SOL     OW18124   3.921   0.137   3.561
 5742SOL    HW118125   3.863   0.132   3.479
 5742SOL    HW218126   4.008   0.091   3.543
 5743SOL     OW18127   3.264   4.942   6.041
 5743SOL    HW118128   3.363   4.950   6.037
 5743SOL    HW218129   3.229   5.001   6.114
 5744SOL     OW18130   5.979   1.009   2.701
 5744SOL    HW118131   5.951   0.929   2.647
 5744SOL    HW218132   5.970   1.091   2.644
 5745SOL     OW18133   2.828   1.681   3.698
 5745SOL    HW118134   2.747   1.711   3.749
 5745SOL    HW218135   2.886   1.626   3.757
 5746SOL     OW18136   4.750   0.186   3.074
 5746SOL    HW118137   4.772   0.089   3.079
 5746SOL    HW218138   4.816   0.238   3.128
 5747SOL     OW18139   0.416   6.293   1.848
 5747SOL    HW118140   0.462   6.370   1.893
 5747SOL    HW218141   0.331   6.325   1.806
 5748SOL     OW18142   0.866   0.122   0.798
 5748SOL    HW118143   0.780   0.134   0.749
 5748SOL    HW218144   0.846   0.101   0.894
 5749SOL     OW18145   1.800   6.307   4.714
 5749SOL    HW118146   1.753   6.353   4.790
 5749SOL    HW218147   1.737   6.246   4.667
 5750SOL     OW18148   5.848   5.273   5.738
 5750SOL    HW118149   5.908   5.218   5.796
 5750SOL    HW218150   5.780   5.319   5.794
 5751SOL     OW18151   1.671   3.576   4.667
 5751SOL    HW118152   1.646   3.658   4.720
 5751SOL    HW218153   1.738   3.600   4.598
 5752SOL     OW18154   6.100   0.014   1.311
 5752SOL    HW118155   6.065   6.942   1.298
 5752SOL    HW218156   6.070   0.072   1.235
 5753SOL     OW18157   3.126   3.411   5.067
 5753SOL    HW118158   3.068   3.336   5.035
 5753SOL    HW218159   3.205   3.420   5.006
 5754SOL     OW18160   0.922   6.002   1.742
 5754SOL    HW118161   0.876   6.045   1.820
 5754SOL    HW218162   0.860   5.938   1.698
 5755SOL     OW18163   1.435   2.189   5.483
 5755SOL    HW118164   1.349   2.173   5.433
 5755SOL    HW218165   1.476   2.275   5.452
 5756SOL     OW18166   6.657   0.308   3.301
 5756SOL    HW118167   6.715   0.260   3.366
 5756SOL    HW218168   6.572   0.336   3.345
 5757SOL     OW18169   0.370   5.557   3.861
 5757SOL    HW118170   0.293   5.551   3.798
 5757SOL    HW218171   0.344   5.519   3.950
 5758SOL     OW18172   2.329   0.961   3.301
 5758SOL    HW118173   2.231   0.957   3.284
 5758SOL    HW218174   2.362   1.054   3.285
 5759SOL     OW18175   4.521   0.599   0.975
 5759SOL    HW118176   4.562   0.540   0.906
 5759SOL    HW218177   4.569   0.587   1.062
 5760SOL     OW18178   6.726   2.503   2.310
 5760SOL    HW118179   6.675   2.538   2.389
 5760SOL    HW218180   6.692   2.546   2.227
 5761SOL     OW18181   5.211   5.372   5.588
 5761SOL    HW118182   5.311   5.368   5.597
 5761SOL    HW218183   5.187   5.426   5.508
 5762SOL     OW18184   4.845   4.099   0.395
 5762SOL    HW118185   4.863   4.013   0.347
 5762SOL    HW218186   4.850   4.175   0.329
 5763SOL     OW18187   5.452   6.150   0.552
 5763SOL    HW118188   5.494   6.142   0.462
 5763SOL    HW218189   5.516   6.119   0.622
 5764SOL     OW18190   4.282   5.225   4.125
 5764SOL    HW118191   4.322   5.303   4.076
 5764SOL    HW218192   4.328   5.141   4.097
 5765SOL     OW18193   6.657   3.392   0.735
 5765SOL    HW118194   6.670   3.293   0.742
 5765SOL    HW218195   6.603   3.424   0.812
 5766SOL     OW18196   2.086   1.778   4.661
 5766SOL    HW118197   2.152   1.803   4.731
 5766SOL    HW218198   2.105   1.830   4.577
 5767SOL     OW18199   2.325   0.106   6.898
 5767SOL    HW118200   2.240   0.156   6.913
 5767SOL    HW218201   2.304   0.009   6.887
 5768SOL     OW18202   0.595   6.985   3.469
 5768SOL    HW118203   0.627   6.890   3.463
 5768SOL    HW218204   0.497   6.988   3.451
 5769SOL     OW18205   3.072   5.662   4.976
 5769SOL    HW118206   3.099   5.614   4.892
 5769SOL    HW218207   3.023   5.598   5.035
 5770SOL     OW18208   6.891   6.346   6.960
 5770SOL    HW118209   6.823   6.292   6.910
 5770SOL    HW218210   6.873   6.443   6.947
 5771SOL     OW18211   1.911   0.397   4.261
 5771SOL    HW118212   1.898   0.469   4.330
 5771SOL    HW218213   1.977   0.427   4.193
 5772SOL     OW18214   5.170   1.333   1.416
 5772SOL    HW118215   5.128   1.324   1.506
 5772SOL    HW218216   5.240   1.404   1.419
 5773SOL     OW18217   4.559   0.958   2.886
 5773SOL    HW118218   4.558   0.886   2.817
 5773SOL    HW218219   4.466   0.973   2.920
 5774SOL     OW18220   1.876   0.390   4.568
 5774SOL    HW118221   1.857   0.472   4.515
 5774SOL    HW218222   1.791   0.340   4.584
 5775SOL     OW18223   0.963   6.747   2.714
 5775SOL    HW118224   1.061   6.730   2.709
 5775SOL    HW218225   0.931   6.784   2.627
 5776SOL     OW18226   1.173   0.173   3.476
 5776SOL    HW118227   1.237   0.099   3.455
 5776SOL    HW218228   1.213   0.233   3.545
 5777SOL     OW18229   0.720   6.711   3.467
 5777SOL    HW118230   0.732   6.722   3.566
 5777SOL    HW218231   0.639   6.656   3.449
 5778SOL     OW18232   1.388   0.931   0.609
 5778SOL    HW118233   1.484   0.925   0.582
 5778SOL    HW218234   1.357   0.842   0.643
 5779SOL     OW18235   4.366   2.541   0.456
 5779SOL    HW118236   4.304   2.590   0.517
 5779SOL    HW218237   4.323   2.456   0.427
 5780SOL     OW18238   5.522   5.970   4.764
 5780SOL    HW118239   5.434   5.935   4.797
 5780SOL    HW218240   5.568   5.900   4.709
 5781SOL     OW18241   6.443   4.729   4.662
 5781SOL    HW118242   6.501   4.649   4.644
 5781SOL    HW218243   6.466   4.802   4.596
 5782SOL     OW18244   1.429   1.741   0.549
 5782SOL    HW118245   1.461   1.699   0.464
 5782SOL    HW218246   1.507   1.779   0.600
 5783SOL     OW18247   0.877   0.763   2.403
 5783SOL    HW118248   0.793   0.789   2.357
 5783SOL    HW218249   0.924   0.845   2.436
 5784SOL     OW18250   0.677   6.611   5.211
 5784SOL    HW118251   0.650   6.677   5.140
 5784SOL    HW218252   0.671   6.655   5.300
 5785SOL     OW18253   1.971   2.194   0.562
 5785SOL    HW118254   1.961   2.151   0.472
 5785SOL    HW218255   2.067   2.215   0.577
 5786SOL     OW18256   6.745   4.108   0.502
 5786SOL    HW118257   6.646   4.109   0.488
 5786SOL    HW218258   6.775   4.014   0.521
 5787SOL     OW18259   2.144   2.345   5.246
 5787SOL    HW118260   2.068   2.406   5.224
 5787SOL    HW218261   2.198   2.329   5.163
 5788SOL     OW18262   2.888   1.295   2.288
 5788SOL    HW118263   2.978   1.302   2.332
 5788SOL    HW218264   2.831   1.372   2.317
 5789SOL     OW18265   3.589   5.019   0.100
 5789SOL    HW118266   3.666   5.064   0.055
 5789SOL    HW218267   3.584   4.924   0.070
 5790SOL     OW18268   1.714   4.060   4.175
 5790SOL    HW118269   1.708   4.146   4.226
 5790SOL    HW218270   1.807   4.025   4.179
 5791SOL     OW18271   4.124   0.767   2.243
 5791SOL    HW118272   4.114   0.683   2.190
 5791SOL    HW218273   4.187   0.829   2.196
 5792SOL     OW18274   6.928   2.464   2.858
 5792SOL    HW118275   6.999   2.407   2.900
 5792SOL    HW218276   6.907   2.541   2.918
 5793SOL     OW18277   5.220   0.618   4.322
 5793SOL    HW118278   5.230   0.674   4.240
 5793SOL    HW218279   5.232   0.522   4.298
 5794SOL     OW18280   3.640   1.916   0.813
 5794SOL    HW118281   3.547   1.899   0.846
 5794SOL    HW218282   3.637   1.936   0.715
 5795SOL     OW18283   6.621   6.023   6.953
 5795SOL    HW118284   6.577   5.934   6.936
 5795SOL    HW218285   6.581   6.092   6.892
 5796SOL     OW18286   3.688   1.110   0.195
 5796SOL    HW118287   3.680   1.129   0.293
 5796SOL    HW218288   3.601   1.075   0.161
 5797SOL     OW18289   4.588   1.922   5.828
 5797SOL    HW118290   4.654   1.852   5.799
 5797SOL    HW218291   4.610   2.009   5.785
 5798SOL     OW18292   0.836   4.593   5.006
 5798SOL    HW118293   0.871   4.619   4.916
 5798SOL    HW218294   0.902   4.533   5.052
 5799SOL     OW18295   5.496   1.325   3.745
 5799SOL    HW118296   5.559   1.317   3.668
 5799SOL    HW218297   5.449   1.237   3.758
 5800SOL     OW18298   6.043   6.045   1.159
 5800SOL    HW118299   6.064   5.960   1.111
 5800SOL    HW218300   5.975   6.028   1.230
 5801SOL     OW18301   2.003   2.099   4.167
 5801SOL    HW118302   2.025   2.176   4.107
 5801SOL    HW218303   2.086   2.047   4.186
 5802SOL     OW18304   1.287   4.804   1.133
 5802SOL    HW118305   1.194   4.769   1.142
 5802SOL    HW218306   1.312   4.853   1.217
 5803SOL     OW18307   1.535   4.863   2.347
 5803SOL    HW118308   1.545   4.862   2.248
 5803SOL    HW218309   1.577   4.781   2.385
 5804SOL     OW18310   0.288   5.373   4.089
 5804SOL    HW118311   0.257   5.449   4.145
 5804SOL    HW218312   0.341   5.309   4.145
 5805SOL     OW18313   2.899   3.610   5.982
 5805SOL    HW118314   2.949   3.595   5.896
 5805SOL    HW218315   2.801   3.616   5.963
 5806SOL     OW18316   6.927   6.106   5.942
 5806SOL    HW118317   6.921   6.185   6.002
 5806SOL    HW218318   6.835   6.073   5.920
 5807SOL     OW18319   0.778   3.680   1.945
 5807SOL    HW118320   0.695   3.735   1.946
 5807SOL    HW218321   0.766   3.601   1.883
 5808SOL     OW18322   5.946   4.633   4.450
 5808SOL    HW118323   5.955   4.732   4.449
 5808SOL    HW218324   5.983   4.596   4.535
 5809SOL     OW18325   6.536   2.095   4.675
 5809SOL    HW118326   6.579   2.009   4.645
 5809SOL    HW218327   6.604   2.168   4.677
 5810SOL     OW18328   3.784   1.883   4.036
 5810SOL    HW118329   3.714   1.952   4.020
 5810SOL    HW218330   3.847   1.880   3.959
 5811SOL     OW18331   3.082   0.476   5.617
 5811SOL    HW118332   2.993   0.469   5.662
 5811SOL    HW218333   3.106   0.388   5.577
 5812SOL     OW18334   6.316   1.602   4.086
 5812SOL    HW118335   6.385   1.606   4.159
 5812SOL    HW218336   6.298   1.695   4.053
 5813SOL     OW18337   1.875   1.607   0.901
 5813SOL    HW118338   1.796   1.600   0.962
 5813SOL    HW218339   1.870   1.534   0.833
 5814SOL     OW18340   6.427   4.605   1.232
 5814SOL    HW118341   6.399   4.579   1.139
 5814SOL    HW218342   6.524   4.584   1.245
 5815SOL     OW18343   4.631   2.685   4.149
 5815SOL    HW118344   4.587   2.642   4.228
 5815SOL    HW218345   4.660   2.777   4.173
 5816SOL     OW18346   4.283   6.067   0.055
 5816SOL    HW118347   4.231   6.136   0.004
 5816SOL    HW218348   4.295   5.986   7.019
 5817SOL     OW18349   5.416   3.502   6.252
 5817SOL    HW118350   5.369   3.436   6.311
 5817SOL    HW218351   5.514   3.501   6.271
 5818SOL     OW18352   6.667   5.560   5.083
 5818SOL    HW118353   6.728   5.589   5.156
 5818SOL    HW218354   6.700   5.595   4.996
 5819SOL     OW18355   4.241   6.710   0.079
 5819SOL    HW118356   4.233   6.784   0.012
 5819SOL    HW218357   4.157   6.706   0.134
 5820SOL     OW18358   4.153   5.623   4.429
 5820SOL    HW118359   4.141   5.693   4.499
 5820SOL    HW218360   4.239   5.574   4.445
 5821SOL     OW18361   6.979   0.376   2.373
 5821SOL    HW118362   6.889   0.399   2.338
 5821SOL    HW218363   6.973   0.293   2.430
 5822SOL     OW18364   0.894   2.355   2.196
 5822SOL    HW118365   0.963   2.424   2.214
 5822SOL    HW218366   0.938   2.272   2.162
 5823SOL     OW18367   1.314   1.278   5.401
 5823SOL    HW118368   1.365   1.315   5.324
 5823SOL    HW218369   1.314   1.344   5.476
 5824SOL     OW18370   6.354   4.610   2.486
 5824SOL    HW118371   6.347   4.513   2.466
 5824SOL    HW218372   6.288   4.634   2.558
 5825SOL     OW18373   2.294   2.321   5.007
 5825SOL    HW118374   2.356   2.277   4.942
 5825SOL    HW218375   2.336   2.405   5.041
 5826SOL     OW18376   0.011   5.344   5.568
 5826SOL    HW118377   0.105   5.326   5.596
 5826SOL    HW218378   6.968   5.292   5.627
 5827SOL     OW18379   2.229   4.315   4.817
 5827SOL    HW118380   2.180   4.374   4.882
 5827SOL    HW218381   2.288   4.371   4.760
 5828SOL     OW18382   6.972   2.819   1.902
 5828SOL    HW118383   0.036   2.812   1.848
 5828SOL    HW218384   6.980   2.893   1.968
 5829SOL     OW18385   1.911   1.346   2.968
 5829SOL    HW118386   1.946   1.425   2.918
 5829SOL    HW218387   1.984   1.278   2.977
 5830SOL     OW18388   4.627   0.080   5.561
 5830SOL    HW118389   4.563   0.007   5.538
 5830SOL    HW218390   4.638   0.141   5.482
 5831SOL     OW18391   0.198   0.868   4.623
 5831SOL    HW118392   0.293   0.901   4.618
 5831SOL    HW218393   0.138   0.933   4.576
 5832SOL     OW18394   3.889   4.498   6.070
 5832SOL    HW118395   3.814   4.556   6.100
 5832SOL    HW218396   3.944   4.547   6.002
 5833SOL     OW18397   3.911   3.336   5.303
 5833SOL    HW118398   3.828   3.281   5.294
 5833SOL    HW218399   3.887   3.432   5.307
 5834SOL     OW18400   6.464   3.175   0.173
 5834SOL    HW118401   6.552   3.219   0.155
 5834SOL    HW218402   6.472   3.076   0.159
 5835SOL     OW18403   4.982   3.480   3.806
 5835SOL    HW118404   4.925   3.552   3.846
 5835SOL    HW218405   4.952   3.391   3.840
 5836SOL     OW18406   2.981   6.219   2.706
 5836SOL    HW118407   2.991   6.134   2.759
 5836SOL    HW218408   2.888   6.254   2.718
 5837SOL     OW18409   3.958   5.014   5.929
 5837SOL    HW118410   4.005   5.040   6.013
 5837SOL    HW218411   4.017   5.031   5.850
 5838SOL     OW18412   2.704   1.582   6.235
 5838SOL    HW118413   2.782   1.524   6.209
 5838SOL    HW218414   2.677   1.637   6.156
 5839SOL     OW18415   0.414   2.150   2.803
 5839SOL    HW118416   0.330   2.140   2.750
 5839SOL    HW218417   0.488   2.100   2.757
 5840SOL     OW18418   0.773   5.523   6.752
 5840SOL    HW118419   0.854   5.521   6.811
 5840SOL    HW218420   0.692   5.545   6.806
 5841SOL     OW18421   5.116   1.782   2.376
 5841SOL    HW118422   5.024   1.819   2.384
 5841SOL    HW218423   5.113   1.682   2.388
 5842SOL     OW18424   4.641   3.269   0.932
 5842SOL    HW118425   4.583   3.325   0.873
 5842SOL    HW218426   4.584   3.219   0.997
 5843SOL     OW18427   2.128   3.968   2.688
 5843SOL    HW118428   2.180   3.977   2.604
 5843SOL    HW218429   2.070   3.886   2.682
 5844SOL     OW18430   0.996   6.775   6.017
 5844SOL    HW118431   1.023   6.702   6.079
 5844SOL    HW218432   0.958   6.736   5.933
 5845SOL     OW18433   1.039   0.340   2.772
 5845SOL    HW118434   1.058   0.426   2.723
 5845SOL    HW218435   0.950   0.306   2.744
 5846SOL     OW18436   6.933   2.853   3.294
 5846SOL    HW118437   7.017   2.812   3.258
 5846SOL    HW218438   6.902   2.801   3.374
 5847SOL     OW18439   2.219   2.338   1.802
 5847SOL    HW118440   2.194   2.432   1.778
 5847SOL    HW218441   2.302   2.339   1.858
 5848SOL     OW18442   2.667   5.068   2.846
 5848SOL    HW118443   2.602   5.037   2.777
 5848SOL    HW218444   2.741   5.118   2.802
 5849SOL     OW18445   0.229   6.870   6.751
 5849SOL    HW118446   0.191   6.788   6.708
 5849SOL    HW218447   0.154   6.928   6.784
 5850SOL     OW18448   0.220   4.268   2.203
 5850SOL    HW118449   0.319   4.260   2.213
 5850SOL    HW218450   0.184   4.183   2.164
 5851SOL     OW18451   5.589   3.262   2.881
 5851SOL    HW118452   5.545   3.186   2.833
 5851SOL    HW218453   5.551   3.268   2.974
 5852SOL     OW18454   5.509   6.400   3.275
 5852SOL    HW118455   5.594   6.353   3.301
 5852SOL    HW218456   5.432   6.335   3.283
 5853SOL     OW18457   3.386   5.533   4.183
 5853SOL    HW118458   3.354   5.519   4.089
 5853SOL    HW218459   3.378   5.630   4.206
 5854SOL     OW18460   6.007   4.604   5.483
 5854SOL    HW118461   5.937   4.549   5.436
 5854SOL    HW218462   5.997   4.592   5.582
 5855SOL     OW18463   0.546   0.556   4.865
 5855SOL    HW118464   0.622   0.497   4.838
 5855SOL    HW218465   0.572   0.610   4.944
 5856SOL     OW18466   1.881   6.181   3.773
 5856SOL    HW118467   1.919   6.110   3.834
 5856SOL    HW218468   1.801   6.222   3.816
 5857SOL     OW18469   6.570   2.130   5.759
 5857SOL    HW118470   6.493   2.192   5.743
 5857SOL    HW218471   6.537   2.038   5.775
 5858SOL     OW18472   2.452   2.571   1.997
 5858SOL    HW118473   2.417   2.647   1.943
 5858SOL    HW218474   2.483   2.605   2.086
 5859SOL     OW18475   5.617   6.594   1.724
 5859SOL    HW118476   5.532   6.541   1.723
 5859SOL    HW218477   5.692   6.535   1.753
 5860SOL     OW18478   2.116   3.839   1.871
 5860SOL    HW118479   2.099   3.758   1.816
 5860SOL    HW218480   2.120   3.813   1.968
 5861SOL     OW18481   4.693   1.716   4.695
 5861SOL    HW118482   4.633   1.704   4.615
 5861SOL    HW218483   4.653   1.671   4.774
 5862SOL     OW18484   4.593   5.184   2.825
 5862SOL    HW118485   4.652   5.128   2.883
 5862SOL    HW218486   4.501   5.143   2.821
 5863SOL     OW18487   2.582   0.460   4.529
 5863SOL    HW118488   2.615   0.551   4.552
 5863SOL    HW218489   2.561   0.410   4.613
 5864SOL     OW18490   3.780   3.662   1.604
 5864SOL    HW118491   3.729   3.702   1.527
 5864SOL    HW218492   3.721   3.658   1.685
 5865SOL     OW18493   5.744   0.226   5.668
 5865SOL    HW118494   5.777   0.315   5.637
 5865SOL    HW218495   5.789   0.201   5.754
 5866SOL     OW18496   4.368   5.705   0.232
 5866SOL    HW118497   4.420   5.731   0.314
 5866SOL    HW218498   4.278   5.748   0.235
 5867SOL     OW18499   0.370   3.858   0.943
 5867SOL    HW118500   0.460   3.897   0.923
 5867SOL    HW218501   0.299   3.920   0.910
 5868SOL     OW18502   0.291   0.972   5.354
 5868SOL    HW118503   0.242   1.009   5.275
 5868SOL    HW218504   0.389   0.976   5.338
 5869SOL     OW18505   2.875   5.850   3.324
 5869SOL    HW118506   2.837   5.922   3.381
 5869SOL    HW218507   2.853   5.761   3.364
 5870SOL     OW18508   5.313   5.858   4.937
 5870SOL    HW118509   5.292   5.782   5.000
 5870SOL    HW218510   5.295   5.945   4.982
 5871SOL     OW18511   4.380   2.879   0.306
 5871SOL    HW118512   4.432   2.833   0.234
 5871SOL    HW218513   4.285   2.849   0.302
 5872SOL     OW18514   4.112   5.098   0.500
 5872SOL    HW118515   4.060   5.171   0.544
 5872SOL    HW218516   4.102   5.013   0.552
 5873SOL     OW18517   2.318   2.714   1.398
 5873SOL    HW118518   2.398   2.668   1.437
 5873SOL    HW218519   2.278   2.776   1.465
 5874SOL     OW18520   3.329   3.490   0.493
 5874SOL    HW118521   3.263   3.564   0.480
 5874SOL    HW218522   3.411   3.509   0.439
 5875SOL     OW18523   3.883   1.104   1.017
 5875SOL    HW118524   3.791   1.114   0.980
 5875SOL    HW218525   3.937   1.045   0.957
 5876SOL     OW18526   2.763   3.304   6.966
 5876SOL    HW118527   2.744   3.223   0.001
 5876SOL    HW218528   2.694   3.313   6.895
 5877SOL     OW18529   0.498   6.610   1.195
 5877SOL    HW118530   0.477   6.699   1.154
 5877SOL    HW218531   0.413   6.563   1.220
 5878SOL     OW18532   5.126   5.160   3.278
 5878SOL    HW118533   5.104   5.102   3.356
 5878SOL    HW218534   5.049   5.220   3.258
 5879SOL     OW18535   2.201   3.376   6.333
 5879SOL    HW118536   2.227   3.325   6.251
 5879SOL    HW218537   2.215   3.474   6.316
 5880SOL     OW18538   4.742   4.380   6.543
 5880SOL    HW118539   4.694   4.430   6.471
 5880SOL    HW218540   4.816   4.327   6.503
 5881SOL     OW18541   1.244   0.067   1.715
 5881SOL    HW118542   1.284   0.039   1.628
 5881SOL    HW218543   1.152   0.104   1.699
 5882SOL     OW18544   1.396   6.930   6.035
 5882SOL    HW118545   1.395   6.885   6.124
 5882SOL    HW218546   1.484   6.976   6.023
 5883SOL     OW18547   0.705   1.088   0.541
 5883SOL    HW118548   0.778   1.127   0.484
 5883SOL    HW218549   0.735   1.083   0.636
 5884SOL     OW18550   5.616   1.144   4.901
 5884SOL    HW118551   5.608   1.117   4.805
 5884SOL    HW218552   5.530   1.123   4.948
 5885SOL     OW18553   0.855   5.583   1.872
 5885SOL    HW118554   0.936   5.525   1.874
 5885SOL    HW218555   0.776   5.532   1.906
 5886SOL     OW18556   1.196   2.783   3.727
 5886SOL    HW118557   1.270   2.847   3.746
 5886SOL    HW218558   1.225   2.690   3.749
 5887SOL     OW18559   2.791   2.106   1.991
 5887SOL    HW118560   2.700   2.103   1.951
 5887SOL    HW218561   2.824   2.200   1.993
 5888SOL     OW18562   1.965   6.657   1.376
 5888SOL    HW118563   1.903   6.580   1.358
 5888SOL    HW218564   2.012   6.681   1.291
 5889SOL     OW18565   6.901   1.124   0.401
 5889SOL    HW118566   6.876   1.096   0.494
 5889SOL    HW218567   6.939   1.217   0.403
 5890SOL     OW18568   1.683   6.697   2.489
 5890SOL    HW118569   1.601   6.675   2.541
 5890SOL    HW218570   1.711   6.791   2.510
 5891SOL     OW18571   2.235   4.326   0.513
 5891SOL    HW118572   2.169   4.259   0.549
 5891SOL    HW218573   2.251   4.397   0.581
 5892SOL     OW18574   6.615   5.216   2.038
 5892SOL    HW118575   6.624   5.122   2.004
 5892SOL    HW218576   6.647   5.280   1.969
 5893SOL     OW18577   2.287   4.800   1.850
 5893SOL    HW118578   2.211   4.749   1.810
 5893SOL    HW218579   2.361   4.737   1.873
 5894SOL     OW18580   0.329   5.698   5.596
 5894SOL    HW118581   0.376   5.761   5.534
 5894SOL    HW218582   0.395   5.661   5.662
 5895SOL     OW18583   5.999   4.133   3.477
 5895SOL    HW118584   6.011   4.176   3.388
 5895SOL    HW218585   6.055   4.049   3.481
 5896SOL     OW18586   5.358   1.624   0.871
 5896SOL    HW118587   5.276   1.628   0.928
 5896SOL    HW218588   5.423   1.694   0.901
 5897SOL     OW18589   3.586   1.007   2.098
 5897SOL    HW118590   3.605   1.105   2.092
 5897SOL    HW218591   3.669   0.955   2.077
 5898SOL     OW18592   2.417   1.600   5.430
 5898SOL    HW118593   2.503   1.582   5.382
 5898SOL    HW218594   2.434   1.666   5.504
 5899SOL     OW18595   6.610   5.998   6.519
 5899SOL    HW118596   6.519   6.008   6.559
 5899SOL    HW218597   6.648   5.908   6.543
 5900SOL     OW18598   6.665   5.178   2.776
 5900SOL    HW118599   6.697   5.196   2.682
 5900SOL    HW218600   6.704   5.092   2.809
 5901SOL     OW18601   2.606   1.410   0.337
 5901SOL    HW118602   2.663   1.429   0.257
 5901SOL    HW218603   2.619   1.314   0.364
 5902SOL     OW18604   5.475   3.715   5.212
 5902SOL    HW118605   5.402   3.675   5.267
 5902SOL    HW218606   5.454   3.810   5.192
 5903SOL     OW18607   4.891   2.978   6.857
 5903SOL    HW118608   4.867   3.026   6.772
 5903SOL    HW218609   4.971   2.920   6.841
 5904SOL     OW18610   0.994   4.369   1.026
 5904SOL    HW118611   0.959   4.435   0.959
 5904SOL    HW218612   1.057   4.306   0.980
 5905SOL     OW18613   5.533   1.053   4.411
 5905SOL    HW118614   5.508   1.150   4.416
 5905SOL    HW218615   5.632   1.045   4.401
 5906SOL     OW18616   4.735   1.877   5.425
 5906SOL    HW118617   4.764   1.854   5.518
 5906SOL    HW218618   4.814   1.871   5.364
 5907SOL     OW18619   1.475   0.166   0.210
 5907SOL    HW118620   1.385   0.140   0.245
 5907SOL    HW218621   1.464   0.211   0.121
 5908SOL     OW18622   6.058   4.231   6.885
 5908SOL    HW118623   6.127   4.303   6.898
 5908SOL    HW218624   6.083   4.151   6.939
 5909SOL     OW18625   0.192   5.433   6.612
 5909SOL    HW118626   0.161   5.475   6.527
 5909SOL    HW218627   0.112   5.406   6.667
 5910SOL     OW18628   0.833   5.318   0.445
 5910SOL    HW118629   0.769   5.260   0.393
 5910SOL    HW218630   0.876   5.383   0.383
 5911SOL     OW18631   0.106   5.691   6.139
 5911SOL    HW118632   0.164   5.632   6.195
 5911SOL    HW218633   0.095   5.650   6.048
 5912SOL     OW18634   5.868   3.535   6.513
 5912SOL    HW118635   5.835   3.446   6.544
 5912SOL    HW218636   5.930   3.522   6.435
 5913SOL     OW18637   2.653   2.814   6.035
 5913SOL    HW118638   2.635   2.825   5.937
 5913SOL    HW218639   2.572   2.775   6.079
 5914SOL     OW18640   2.533   5.725   6.672
 5914SOL    HW118641   2.443   5.751   6.636
 5914SOL    HW218642   2.573   5.653   6.615
 5915SOL     OW18643   6.234   3.452   1.467
 5915SOL    HW118644   6.138   3.481   1.467
 5915SOL    HW218645   6.288   3.517   1.413
 5916SOL     OW18646   4.122   6.808   5.811
 5916SOL    HW118647   4.175   6.863   5.746
 5916SOL    HW218648   4.113   6.859   5.897
 5917SOL     OW18649   3.838   3.383   4.008
 5917SOL    HW118650   3.781   3.434   4.072
 5917SOL    HW218651   3.935   3.403   4.026
 5918SOL     OW18652   2.159   3.733   5.054
 5918SOL    HW118653   2.205   3.688   4.977
 5918SOL    HW218654   2.202   3.822   5.070
 5919SOL     OW18655   2.838   2.283   6.943
 5919SOL    HW118656   2.745   2.246   6.942
 5919SOL    HW218657   2.876   2.275   0.015
 5920SOL     OW18658   3.316   6.960   0.188
 5920SOL    HW118659   3.298   0.023   0.135
 5920SOL    HW218660   3.354   6.890   0.127
 5921SOL     OW18661   3.446   5.244   5.359
 5921SOL    HW118662   3.401   5.330   5.335
 5921SOL    HW218663   3.428   5.177   5.287
 5922SOL     OW18664   5.803   5.081   4.121
 5922SOL    HW118665   5.709   5.077   4.086
 5922SOL    HW218666   5.816   5.166   4.171
 5923SOL     OW18667   5.752   1.024   2.415
 5923SOL    HW118668   5.717   0.971   2.492
 5923SOL    HW218669   5.688   1.018   2.339
 5924SOL     OW18670   6.369   2.328   5.015
 5924SOL    HW118671   6.451   2.368   4.974
 5924SOL    HW218672   6.297   2.397   5.021
 5925SOL     OW18673   4.417   6.341   3.037
 5925SOL    HW118674   4.468   6.373   2.957
 5925SOL    HW218675   4.319   6.353   3.020
 5926SOL     OW18676   3.874   5.154   1.870
 5926SOL    HW118677   3.921   5.077   1.914
 5926SOL    HW218678   3.792   5.177   1.924
 5927SOL     OW18679   1.827   4.477   2.883
 5927SOL    HW118680   1.921   4.447   2.863
 5927SOL    HW218681   1.818   4.574   2.861
 5928SOL     OW18682   3.063   0.171   1.799
 5928SOL    HW118683   3.112   0.251   1.833
 5928SOL    HW218684   3.088   0.091   1.854
 5929SOL     OW18685   0.920   0.088   5.789
 5929SOL    HW118686   0.981   0.029   5.842
 5929SOL    HW218687   0.972   0.129   5.714
 5930SOL     OW18688   6.695   1.364   3.631
 5930SOL    HW118689   6.724   1.369   3.727
 5930SOL    HW218690   6.646   1.279   3.615
 5931SOL     OW18691   6.096   4.997   2.896
 5931SOL    HW118692   6.124   5.023   2.804
 5931SOL    HW218693   6.026   4.926   2.891
 5932SOL     OW18694   2.549   6.245   0.862
 5932SOL    HW118695   2.450   6.232   0.857
 5932SOL    HW218696   2.584   6.262   0.770
 5933SOL     OW18697   0.126   4.938   3.134
 5933SOL    HW118698   0.102   4.848   3.171
 5933SOL    HW218699   0.125   5.005   3.208
 5934SOL     OW18700   3.904   3.993   4.047
 5934SOL    HW118701   3.866   3.948   3.966
 5934SOL    HW218702   3.989   4.038   4.023
 5935SOL     OW18703   4.037   3.287   4.501
 5935SOL    HW118704   3.973   3.351   4.460
 5935SOL    HW218705   4.091   3.334   4.571
 5936SOL     OW18706   4.250   3.248   6.706
 5936SOL    HW118707   4.340   3.242   6.749
 5936SOL    HW218708   4.242   3.334   6.656
 5937SOL     OW18709   0.957   4.546   2.085
 5937SOL    HW118710   0.912   4.457   2.094
 5937SOL    HW218711   0.910   4.613   2.142
 5938SOL     OW18712   1.507   5.672   4.399
 5938SOL    HW118713   1.430   5.647   4.457
 5938SOL    HW218714   1.483   5.752   4.344
 5939SOL     OW18715   3.150   0.337   3.261
 5939SOL    HW118716   3.053   0.346   3.236
 5939SOL    HW218717   3.204   0.322   3.179
 5940SOL     OW18718   4.215   6.540   2.467
 5940SOL    HW118719   4.235   6.451   2.508
 5940SOL    HW218720   4.253   6.544   2.375
 5941SOL     OW18721   6.634   3.811   2.215
 5941SOL    HW118722   6.596   3.827   2.306
 5941SOL    HW218723   6.610   3.718   2.185
 5942SOL     OW18724   4.865   2.645   0.154
 5942SOL    HW118725   4.828   2.722   0.102
 5942SOL    HW218726   4.839   2.655   0.250
 5943SOL     OW18727   3.965   4.878   0.662
 5943SOL    HW118728   4.009   4.943   0.724
 5943SOL    HW218729   3.901   4.926   0.602
 5944SOL     OW18730   5.178   1.742   1.486
 5944SOL    HW118731   5.212   1.707   1.398
 5944SOL    HW218732   5.112   1.678   1.524
 5945SOL     OW18733   0.118   5.395   5.314
 5945SOL    HW118734   0.197   5.441   5.355
 5945SOL    HW218735   0.065   5.350   5.386
 5946SOL     OW18736   3.312   3.119   5.734
 5946SOL    HW118737   3.391   3.060   5.716
 5946SOL    HW218738   3.297   3.125   5.832
 5947SOL     OW18739   3.635   3.114   1.814
 5947SOL    HW118740   3.646   3.196   1.757
 5947SOL    HW218741   3.616   3.142   1.908
 5948SOL     OW18742   3.967   5.192   3.830
 5948SOL    HW118743   3.972   5.105   3.880
 5948SOL    HW218744   3.959   5.173   3.732
 5949SOL     OW18745   4.093   3.747   1.356
 5949SOL    HW118746   4.187   3.772   1.383
 5949SOL    HW218747   4.075   3.653   1.383
 5950SOL     OW18748   5.215   2.922   5.139
 5950SOL    HW118749   5.306   2.946   5.175
 5950SOL    HW218750   5.146   2.936   5.209
 5951SOL     OW18751   0.593   5.943   4.690
 5951SOL    HW118752   0.542   5.936   4.776
 5951SOL    HW218753   0.690   5.959   4.709
 5952SOL     OW18754   5.575   5.494   4.083
 5952SOL    HW118755   5.642   5.480   4.011
 5952SOL    HW218756   5.484   5.470   4.049
 5953SOL     OW18757   6.982   2.938   5.523
 5953SOL    HW118758   6.894   2.900   5.552
 5953SOL    HW218759   7.018   2.884   5.447
 5954SOL     OW18760   6.992   4.972   6.109
 5954SOL    HW118761   0.031   5.046   6.077
 5954SOL    HW218762   6.997   4.965   6.208
 5955SOL     OW18763   5.699   6.257   2.258
 5955SOL    HW118764   5.763   6.192   2.217
 5955SOL    HW218765   5.748   6.341   2.281
 5956SOL     OW18766   3.299   1.991   0.677
 5956SOL    HW118767   3.318   1.980   0.775
 5956SOL    HW218768   3.313   2.087   0.652
 5957SOL     OW18769   4.832   0.453   5.362
 5957SOL    HW118770   4.896   0.473   5.288
 5957SOL    HW218771   4.883   0.434   5.446
 5958SOL     OW18772   5.894   6.633   2.792
 5958SOL    HW118773   5.954   6.624   2.712
 5958SOL    HW218774   5.949   6.650   2.873
 5959SOL     OW18775   3.405   1.535   5.713
 5959SOL    HW118776   3.429   1.615   5.767
 5959SOL    HW218777   3.470   1.524   5.638
 5960SOL     OW18778   3.527   6.161   4.714
 5960SOL    HW118779   3.428   6.154   4.711
 5960SOL    HW218780   3.567   6.107   4.640
 5961SOL     OW18781   4.698   0.709   4.194
 5961SOL    HW118782   4.757   0.709   4.114
 5961SOL    HW218783   4.665   0.617   4.212
 5962SOL     OW18784   4.919   5.981   1.938
 5962SOL    HW118785   4.901   6.018   1.847
 5962SOL    HW218786   4.884   5.888   1.943
 5963SOL     OW18787   3.462   2.832   4.856
 5963SOL    HW118788   3.530   2.758   4.862
 5963SOL    HW218789   3.452   2.861   4.761
 5964SOL     OW18790   0.377   4.964   6.085
 5964SOL    HW118791   0.474   4.966   6.106
 5964SOL    HW218792   0.327   5.023   6.149
 5965SOL     OW18793   1.761   2.046   5.741
 5965SOL    HW118794   1.821   2.031   5.820
 5965SOL    HW218795   1.676   2.090   5.771
 5966SOL     OW18796   3.069   5.190   5.377
 5966SOL    HW118797   3.153   5.196   5.323
 5966SOL    HW218798   3.045   5.281   5.411
 5967SOL     OW18799   4.122   6.302   1.547
 5967SOL    HW118800   4.213   6.297   1.505
 5967SOL    HW218801   4.131   6.306   1.646
 5968SOL     OW18802   5.524   1.378   3.033
 5968SOL    HW118803   5.430   1.362   3.002
 5968SOL    HW218804   5.543   1.323   3.113
 5969SOL     OW18805   6.888   1.262   5.325
 5969SOL    HW118806   6.965   1.260   5.262
 5969SOL    HW218807   6.821   1.331   5.295
 5970SOL     OW18808   0.666   4.870   2.471
 5970SOL    HW118809   0.606   4.840   2.397
 5970SOL    HW218810   0.719   4.949   2.441
 5971SOL     OW18811   2.048   0.718   3.223
 5971SOL    HW118812   2.146   0.710   3.205
 5971SOL    HW218813   2.030   0.805   3.268
 5972SOL     OW18814   4.380   6.287   0.536
 5972SOL    HW118815   4.473   6.265   0.563
 5972SOL    HW218816   4.379   6.375   0.487
 5973SOL     OW18817   1.925   5.145   2.900
 5973SOL    HW118818   2.019   5.163   2.929
 5973SOL    HW218819   1.874   5.231   2.894
 5974SOL     OW18820   5.773   4.495   6.168
 5974SOL    HW118821   5.806   4.585   6.194
 5974SOL    HW218822   5.684   4.479   6.211
 5975SOL     OW18823   3.060   2.481   0.716
 5975SOL    HW118824   3.054   2.469   0.815
 5975SOL    HW218825   3.055   2.392   0.671
 5976SOL     OW18826   3.034   3.219   4.851
 5976SOL    HW118827   3.095   3.141   4.840
 5976SOL    HW218828   2.955   3.192   4.907
 5977SOL     OW18829   1.738   4.870   1.329
 5977SOL    HW118830   1.805   4.806   1.291
 5977SOL    HW218831   1.675   4.899   1.258
 5978SOL     OW18832   5.388   4.789   3.273
 5978SOL    HW118833   5.389   4.889   3.278
 5978SOL    HW218834   5.468   4.757   3.222
 5979SOL     OW18835   6.464   0.872   2.955
 5979SOL    HW118836   6.430   0.864   2.862
 5979SOL    HW218837   6.395   0.838   3.019
 5980SOL     OW18838   4.243   3.556   6.773
 5980SOL    HW118839   4.168   3.493   6.795
 5980SOL    HW218840   4.231   3.641   6.825
 5981SOL     OW18841   6.450   0.988   2.130
 5981SOL    HW118842   6.536   0.987   2.077
 5981SOL    HW218843   6.436   1.078   2.169
 5982SOL     OW18844   6.534   2.556   0.062
 5982SOL    HW118845   6.533   2.567   6.984
 5982SOL    HW218846   6.590   2.628   0.104
 5983SOL     OW18847   2.071   1.506   4.803
 5983SOL    HW118848   2.119   1.555   4.730
 5983SOL    HW218849   1.974   1.495   4.778
 5984SOL     OW18850   6.528   0.020   5.196
 5984SOL    HW118851   6.545   0.029   5.294
 5984SOL    HW218852   6.430   0.032   5.178
 5985SOL     OW18853   5.686   3.232   4.219
 5985SOL    HW118854   5.625   3.304   4.184
 5985SOL    HW218855   5.780   3.264   4.216
 5986SOL     OW18856   3.022   3.456   3.474
 5986SOL    HW118857   2.983   3.423   3.388
 5986SOL    HW218858   3.067   3.544   3.458
 5987SOL     OW18859   4.085   1.562   4.517
 5987SOL    HW118860   4.151   1.614   4.571
 5987SOL    HW218861   4.072   1.472   4.559
 5988SOL     OW18862   4.274   6.307   5.229
 5988SOL    HW118863   4.328   6.337   5.150
 5988SOL    HW218864   4.209   6.379   5.254
 5989SOL     OW18865   2.780   5.873   6.662
 5989SOL    HW118866   2.704   5.811   6.682
 5989SOL    HW218867   2.788   5.940   6.736
 5990SOL     OW18868   4.336   4.307   0.730
 5990SOL    HW118869   4.295   4.390   0.693
 5990SOL    HW218870   4.265   4.240   0.751
 5991SOL     OW18871   4.723   4.767   5.007
 5991SOL    HW118872   4.724   4.750   4.909
 5991SOL    HW218873   4.660   4.843   5.027
 5992SOL     OW18874   3.731   0.757   4.134
 5992SOL    HW118875   3.726   0.832   4.200
 5992SOL    HW218876   3.808   0.697   4.157
 5993SOL     OW18877   3.385   6.762   6.010
 5993SOL    HW118878   3.390   6.677   5.956
 5993SOL    HW218879   3.436   6.834   5.963
 5994SOL     OW18880   6.376   2.083   2.307
 5994SOL    HW118881   6.425   2.085   2.219
 5994SOL    HW218882   6.438   2.050   2.378
 5995SOL     OW18883   6.380   4.328   2.470
 5995SOL    HW118884   6.382   4.274   2.386
 5995SOL    HW218885   6.378   4.267   2.549
 5996SOL     OW18886   0.560   5.613   0.556
 5996SOL    HW118887   0.627   5.572   0.618
 5996SOL    HW218888   0.482   5.646   0.609
 5997SOL     OW18889   0.894   6.896   2.487
 5997SOL    HW118890   0.871   6.892   2.389
 5997SOL    HW218891   0.909   6.991   2.514
 5998SOL     OW18892   5.729   2.937   1.605
 5998SOL    HW118893   5.798   2.867   1.623
 5998SOL    HW218894   5.763   3.001   1.536
 5999SOL     OW18895   1.027   2.137   2.089
 5999SOL    HW118896   1.043   2.095   2.179
 5999SOL    HW218897   1.055   2.073   2.017
 6000SOL     OW18898   3.868   6.233   1.536
 6000SOL    HW118899   3.799   6.271   1.474
 6000SOL    HW218900   3.959   6.262   1.506
 6001SOL     OW18901   0.332   3.937   6.426
 6001SOL    HW118902   0.234   3.930   6.407
 6001SOL    HW218903   0.373   3.845   6.424
 6002SOL     OW18904   0.564   6.909   1.294
 6002SOL    HW118905   0.524   6.903   1.202
 6002SOL    HW218906   0.632   6.837   1.306
 6003SOL     OW18907   6.350   2.253   4.564
 6003SOL    HW118908   6.374   2.156   4.562
 6003SOL    HW218909   6.319   2.281   4.473
 6004SOL     OW18910   0.214   4.625   3.043
 6004SOL    HW118911   0.126   4.656   3.008
 6004SOL    HW218912   0.268   4.586   2.968
 6005SOL     OW18913   4.221   5.110   4.844
 6005SOL    HW118914   4.177   5.020   4.850
 6005SOL    HW218915   4.318   5.098   4.821
 6006SOL     OW18916   3.553   6.665   0.165
 6006SOL    HW118917   3.493   6.611   0.224
 6006SOL    HW218918   3.497   6.727   0.109
 6007SOL     OW18919   4.866   3.254   3.871
 6007SOL    HW118920   4.834   3.253   3.776
 6007SOL    HW218921   4.876   3.160   3.904
 6008SOL     OW18922   2.166   5.194   6.558
 6008SOL    HW118923   2.251   5.155   6.594
 6008SOL    HW218924   2.163   5.181   6.459
 6009SOL     OW18925   2.694   1.048   4.417
 6009SOL    HW118926   2.714   1.128   4.475
 6009SOL    HW218927   2.639   1.077   4.339
 6010SOL     OW18928   2.007   4.325   2.125
 6010SOL    HW118929   2.097   4.324   2.168
 6010SOL    HW218930   2.017   4.338   2.026
 6011SOL     OW18931   4.547   2.358   2.392
 6011SOL    HW118932   4.595   2.421   2.454
 6011SOL    HW218933   4.568   2.382   2.298
 6012SOL     OW18934   6.504   1.966   0.515
 6012SOL    HW118935   6.429   2.011   0.562
 6012SOL    HW218936   6.500   1.988   0.417
 6013SOL     OW18937   5.220   2.112   2.960
 6013SOL    HW118938   5.170   2.027   2.948
 6013SOL    HW218939   5.316   2.097   2.936
 6014SOL     OW18940   4.209   1.406   0.611
 6014SOL    HW118941   4.219   1.385   0.514
 6014SOL    HW218942   4.277   1.356   0.664
 6015SOL     OW18943   5.561   2.081   5.837
 6015SOL    HW118944   5.591   2.177   5.837
 6015SOL    HW218945   5.611   2.031   5.766
 6016SOL     OW18946   0.257   1.399   0.230
 6016SOL    HW118947   0.211   1.487   0.239
 6016SOL    HW218948   0.356   1.413   0.218
 6017SOL     OW18949   6.521   4.856   2.548
 6017SOL    HW118950   6.448   4.924   2.548
 6017SOL    HW218951   6.488   4.772   2.506
 6018SOL     OW18952   3.389   2.235   0.678
 6018SOL    HW118953   3.353   2.328   0.676
 6018SOL    HW218954   3.489   2.238   0.670
 6019SOL     OW18955   5.065   1.400   4.081
 6019SOL    HW118956   5.155   1.440   4.065
 6019SOL    HW218957   5.008   1.465   4.133
 6020SOL     OW18958   1.254   5.878   2.354
 6020SOL    HW118959   1.284   5.871   2.258
 6020SOL    HW218960   1.303   5.811   2.409
 6021SOL     OW18961   3.895   0.030   2.587
 6021SOL    HW118962   3.889   6.965   2.639
 6021SOL    HW218963   3.934   0.102   2.645
 6022SOL     OW18964   4.211   0.848   4.784
 6022SOL    HW118965   4.202   0.843   4.685
 6022SOL    HW218966   4.174   0.765   4.826
 6023SOL     OW18967   6.193   1.593   2.649
 6023SOL    HW118968   6.170   1.529   2.722
 6023SOL    HW218969   6.291   1.615   2.653
 6024SOL     OW18970   0.689   4.300   2.857
 6024SOL    HW118971   0.609   4.263   2.810
 6024SOL    HW218972   0.764   4.233   2.854
 6025SOL     OW18973   3.675   0.342   2.375
 6025SOL    HW118974   3.601   0.308   2.317
 6025SOL    HW218975   3.681   0.286   2.458
 6026SOL     OW18976   0.062   4.112   4.356
 6026SOL    HW118977   0.003   4.187   4.327
 6026SOL    HW218978   0.005   4.036   4.388
 6027SOL     OW18979   2.209   3.924   5.740
 6027SOL    HW118980   2.267   3.861   5.690
 6027SOL    HW218981   2.113   3.906   5.718
 6028SOL     OW18982   1.175   3.823   0.503
 6028SOL    HW118983   1.154   3.767   0.583
 6028SOL    HW218984   1.119   3.793   0.426
 6029SOL     OW18985   2.314   6.272   6.039
 6029SOL    HW118986   2.289   6.198   5.976
 6029SOL    HW218987   2.381   6.238   6.105
 6030SOL     OW18988   2.572   0.170   2.851
 6030SOL    HW118989   2.595   0.260   2.889
 6030SOL    HW218990   2.653   0.112   2.850
 6031SOL     OW18991   4.074   4.831   4.272
 6031SOL    HW118992   3.991   4.828   4.328
 6031SOL    HW218993   4.051   4.858   4.179
 6032SOL     OW18994   1.830   3.438   2.864
 6032SOL    HW118995   1.781   3.490   2.933
 6032SOL    HW218996   1.912   3.488   2.836
 6033SOL     OW18997   2.770   2.263   2.707
 6033SOL    HW118998   2.781   2.164   2.697
 6033SOL    HW218999   2.712   2.297   2.632
 6034SOL     OW19000   1.735   6.022   5.056
 6034SOL    HW119001   1.810   6.021   4.989
 6034SOL    HW219002   1.711   5.928   5.080
 6035SOL     OW19003   5.942   1.557   3.751
 6035SOL    HW119004   5.994   1.629   3.796
 6035SOL    HW219005   5.848   1.556   3.785
 6036SOL     OW19006   0.280   6.506   4.284
 6036SOL    HW119007   0.299   6.446   4.206
 6036SOL    HW219008   0.271   6.600   4.252
 6037SOL     OW19009   4.839   5.156   6.610
 6037SOL    HW119010   4.880   5.159   6.519
 6037SOL    HW219011   4.787   5.240   6.625
 6038SOL     OW19012   1.329   3.903   6.277
 6038SOL    HW119013   1.354   3.823   6.333
 6038SOL    HW219014   1.348   3.883   6.181
 6039SOL     OW19015   3.272   3.306   3.305
 6039SOL    HW119016   3.206   3.336   3.237
 6039SOL    HW219017   3.225   3.287   3.391
 6040SOL     OW19018   0.381   2.130   6.722
 6040SOL    HW119019   0.312   2.147   6.792
 6040SOL    HW219020   0.343   2.072   6.650
 6041SOL     OW19021   1.751   1.367   5.457
 6041SOL    HW119022   1.682   1.319   5.402
 6041SOL    HW219023   1.705   1.433   5.517
 6042SOL     OW19024   5.328   5.424   1.708
 6042SOL    HW119025   5.299   5.519   1.694
 6042SOL    HW219026   5.271   5.383   1.780
 6043SOL     OW19027   1.032   4.856   5.175
 6043SOL    HW119028   1.049   4.835   5.079
 6043SOL    HW219029   0.964   4.929   5.181
 6044SOL     OW19030   1.420   2.205   1.242
 6044SOL    HW119031   1.430   2.304   1.247
 6044SOL    HW219032   1.384   2.170   1.328
 6045SOL     OW19033   5.754   5.847   0.931
 6045SOL    HW119034   5.706   5.870   1.016
 6045SOL    HW219035   5.697   5.871   0.853
 6046SOL     OW19036   2.762   2.210   0.875
 6046SOL    HW119037   2.724   2.269   0.804
 6046SOL    HW219038   2.706   2.128   0.883
 6047SOL     OW19039   6.527   1.376   2.919
 6047SOL    HW119040   6.453   1.440   2.941
 6047SOL    HW219041   6.496   1.310   2.851
 6048SOL     OW19042   4.807   6.281   3.218
 6048SOL    HW119043   4.809   6.181   3.213
 6048SOL    HW219044   4.714   6.312   3.238
 6049SOL     OW19045   5.142   3.723   5.863
 6049SOL    HW119046   5.138   3.626   5.888
 6049SOL    HW219047   5.051   3.763   5.871
 6050SOL     OW19048   3.711   3.957   5.789
 6050SOL    HW119049   3.629   3.935   5.736
 6050SOL    HW219050   3.762   4.030   5.743
 6051SOL     OW19051   3.059   1.990   3.904
 6051SOL    HW119052   3.005   2.045   3.840
 6051SOL    HW219053   3.151   2.029   3.912
 6052SOL     OW19054   6.599   6.863   6.941
 6052SOL    HW119055   6.658   6.818   6.875
 6052SOL    HW219056   6.558   6.795   7.001
 6053SOL     OW19057   3.722   0.606   0.030
 6053SOL    HW119058   3.760   0.647   0.112
 6053SOL    HW219059   3.652   0.666   7.012
 6054SOL     OW19060   2.580   4.250   0.706
 6054SOL    HW119061   2.533   4.204   0.631
 6054SOL    HW219062   2.658   4.195   0.735
 6055SOL     OW19063   5.761   0.692   6.363
 6055SOL    HW119064   5.858   0.710   6.347
 6055SOL    HW219065   5.751   0.631   6.442
 6056SOL     OW19066   5.526   3.145   4.959
 6056SOL    HW119067   5.547   3.242   4.951
 6056SOL    HW219068   5.431   3.128   4.931
 6057SOL     OW19069   5.220   2.813   4.458
 6057SOL    HW119070   5.284   2.762   4.401
 6057SOL    HW219071   5.158   2.866   4.400
 6058SOL     OW19072   5.447   2.576   2.815
 6058SOL    HW119073   5.434   2.562   2.716
 6058SOL    HW219074   5.510   2.507   2.850
 6059SOL     OW19075   4.339   5.633   5.826
 6059SOL    HW119076   4.432   5.659   5.850
 6059SOL    HW219077   4.288   5.611   5.909
 6060SOL     OW19078   3.237   4.083   5.895
 6060SOL    HW119079   3.304   4.070   5.822
 6060SOL    HW219080   3.156   4.130   5.859
 6061SOL     OW19081   4.235   2.491   6.927
 6061SOL    HW119082   4.220   2.528   6.835
 6061SOL    HW219083   4.226   2.565   6.994
 6062SOL     OW19084   2.190   0.734   4.271
 6062SOL    HW119085   2.216   0.684   4.353
 6062SOL    HW219086   2.243   0.818   4.265
 6063SOL     OW19087   3.932   1.347   6.927
 6063SOL    HW119088   3.858   1.318   6.866
 6063SOL    HW219089   3.919   1.304   7.017
 6064SOL     OW19090   2.892   5.968   2.401
 6064SOL    HW119091   2.972   6.027   2.390
 6064SOL    HW219092   2.845   5.959   2.313
 6065SOL     OW19093   5.425   0.030   2.284
 6065SOL    HW119094   5.330   0.041   2.254
 6065SOL    HW219095   5.487   0.043   2.207
 6066SOL     OW19096   4.257   1.339   0.337
 6066SOL    HW119097   4.205   1.408   0.286
 6066SOL    HW219098   4.348   1.331   0.297
 6067SOL     OW19099   5.391   1.789   6.996
 6067SOL    HW119100   5.317   1.729   0.007
 6067SOL    HW219101   5.469   1.734   6.966
 6068SOL     OW19102   6.378   3.034   4.650
 6068SOL    HW119103   6.364   2.985   4.564
 6068SOL    HW219104   6.344   3.127   4.641
 6069SOL     OW19105   0.762   3.803   5.551
 6069SOL    HW119106   0.788   3.798   5.648
 6069SOL    HW219107   0.755   3.898   5.523
 6070SOL     OW19108   2.343   1.718   5.683
 6070SOL    HW119109   2.440   1.738   5.695
 6070SOL    HW219110   2.318   1.638   5.738
 6071SOL     OW19111   4.725   6.105   5.269
 6071SOL    HW119112   4.665   6.079   5.193
 6071SOL    HW219113   4.688   6.185   5.315
 6072SOL     OW19114   0.768   0.888   1.726
 6072SOL    HW119115   0.761   0.918   1.631
 6072SOL    HW219116   0.775   0.968   1.786
 6073SOL     OW19117   6.618   3.761   0.712
 6073SOL    HW119118   6.534   3.788   0.759
 6073SOL    HW219119   6.674   3.705   0.773
 6074SOL     OW19120   0.877   6.674   4.487
 6074SOL    HW119121   0.879   6.725   4.401
 6074SOL    HW219122   0.943   6.713   4.551
 6075SOL     OW19123   0.205   2.223   6.224
 6075SOL    HW119124   0.268   2.238   6.301
 6075SOL    HW219125   0.111   2.218   6.259
 6076SOL     OW19126   2.521   6.096   5.111
 6076SOL    HW119127   2.544   6.123   5.204
 6076SOL    HW219128   2.604   6.065   5.064
 6077SOL     OW19129   5.127   5.449   1.950
 6077SOL    HW119130   5.049   5.392   1.925
 6077SOL    HW219131   5.144   5.440   2.048
 6078SOL     OW19132   4.042   4.966   1.982
 6078SOL    HW119133   4.015   4.950   2.077
 6078SOL    HW219134   4.059   4.878   1.937
 6079SOL     OW19135   3.151   3.485   6.523
 6079SOL    HW119136   3.145   3.553   6.596
 6079SOL    HW219137   3.059   3.459   6.494
 6080SOL     OW19138   0.602   1.387   1.964
 6080SOL    HW119139   0.543   1.329   1.907
 6080SOL    HW219140   0.610   1.345   2.055
 6081SOL     OW19141   6.189   3.819   4.833
 6081SOL    HW119142   6.115   3.841   4.770
 6081SOL    HW219143   6.277   3.841   4.790
 6082SOL     OW19144   3.930   1.648   3.700
 6082SOL    HW119145   3.854   1.602   3.655
 6082SOL    HW219146   3.982   1.581   3.753
 6083SOL     OW19147   0.956   5.664   6.285
 6083SOL    HW119148   0.911   5.652   6.373
 6083SOL    HW219149   1.035   5.724   6.296
 6084SOL     OW19150   6.898   5.613   4.024
 6084SOL    HW119151   6.889   5.533   3.965
 6084SOL    HW219152   6.809   5.635   4.064
 6085SOL     OW19153   0.186   4.337   0.571
 6085SOL    HW119154   0.088   4.355   0.565
 6085SOL    HW219155   0.219   4.302   0.483
 6086SOL     OW19156   3.380   1.426   5.339
 6086SOL    HW119157   3.436   1.500   5.300
 6086SOL    HW219158   3.303   1.465   5.388
 6087SOL     OW19159   5.200   6.718   6.990
 6087SOL    HW119160   5.289   6.746   0.005
 6087SOL    HW219161   5.211   6.638   6.932
 6088SOL     OW19162   6.538   6.076   4.884
 6088SOL    HW119163   6.552   5.979   4.863
 6088SOL    HW219164   6.487   6.119   4.810
 6089SOL     OW19165   0.317   3.789   1.538
 6089SOL    HW119166   0.287   3.695   1.520
 6089SOL    HW219167   0.244   3.838   1.586
 6090SOL     OW19168   1.635   6.302   6.071
 6090SOL    HW119169   1.687   6.322   5.988
 6090SOL    HW219170   1.540   6.281   6.047
 6091SOL     OW19171   1.041   1.443   2.380
 6091SOL    HW119172   1.005   1.451   2.287
 6091SOL    HW219173   1.017   1.354   2.417
 6092SOL     OW19174   2.615   0.397   3.193
 6092SOL    HW119175   2.541   0.456   3.225
 6092SOL    HW219176   2.586   0.302   3.197
 6093SOL     OW19177   1.215   2.756   2.643
 6093SOL    HW119178   1.296   2.708   2.679
 6093SOL    HW219179   1.235   2.853   2.636
 6094SOL     OW19180   3.288   1.271   1.104
 6094SOL    HW119181   3.345   1.268   1.186
 6094SOL    HW219182   3.207   1.327   1.122
 6095SOL     OW19183   4.793   2.262   7.012
 6095SOL    HW119184   4.832   2.241   6.922
 6095SOL    HW219185   4.782   2.361   0.001
 6096SOL     OW19186   5.703   0.270   4.443
 6096SOL    HW119187   5.626   0.294   4.383
 6096SOL    HW219188   5.753   0.353   4.468
 6097SOL     OW19189   1.373   0.490   2.149
 6097SOL    HW119190   1.453   0.433   2.169
 6097SOL    HW219191   1.336   0.466   2.060
 6098SOL     OW19192   1.013   2.404   5.641
 6098SOL    HW119193   1.011   2.313   5.600
 6098SOL    HW219194   0.976   2.471   5.576
 6099SOL     OW19195   5.890   5.858   6.702
 6099SOL    HW119196   5.956   5.800   6.655
 6099SOL    HW219197   5.809   5.804   6.725
 6100SOL     OW19198   5.659   2.934   6.492
 6100SOL    HW119199   5.680   2.933   6.589
 6100SOL    HW219200   5.743   2.938   6.439
 6101SOL     OW19201   6.398   1.651   5.608
 6101SOL    HW119202   6.465   1.643   5.534
 6101SOL    HW219203   6.313   1.606   5.581
 6102SOL     OW19204   4.140   0.705   3.863
 6102SOL    HW119205   4.099   0.779   3.915
 6102SOL    HW219206   4.198   0.743   3.791
 6103SOL     OW19207   0.050   1.218   3.907
 6103SOL    HW119208   0.108   1.240   3.828
 6103SOL    HW219209   0.076   1.275   3.985
 6104SOL     OW19210   6.541   2.091   6.066
 6104SOL    HW119211   6.469   2.076   5.999
 6104SOL    HW219212   6.598   2.009   6.074
 6105SOL     OW19213   3.008   6.919   5.712
 6105SOL    HW119214   2.932   6.952   5.769
 6105SOL    HW219215   3.082   6.987   5.713
 6106SOL     OW19216   1.381   5.081   5.635
 6106SOL    HW119217   1.417   5.171   5.611
 6106SOL    HW219218   1.441   5.010   5.596
 6107SOL     OW19219   2.649   5.311   4.466
 6107SOL    HW119220   2.555   5.317   4.433
 6107SOL    HW219221   2.651   5.322   4.565
 6108SOL     OW19222   0.982   2.327   3.418
 6108SOL    HW119223   1.020   2.283   3.499
 6108SOL    HW219224   1.053   2.382   3.374
 6109SOL     OW19225   5.350   2.966   6.890
 6109SOL    HW119226   5.372   2.910   6.810
 6109SOL    HW219227   5.306   2.909   6.959
 6110SOL     OW19228   3.299   2.985   6.857
 6110SOL    HW119229   3.384   3.008   6.809
 6110SOL    HW219230   3.227   2.965   6.791
 6111SOL     OW19231   1.957   4.813   2.573
 6111SOL    HW119232   1.884   4.752   2.542
 6111SOL    HW219233   1.980   4.878   2.500
 6112SOL     OW19234   3.160   1.574   3.102
 6112SOL    HW119235   3.187   1.508   3.172
 6112SOL    HW219236   3.062   1.568   3.085
 6113SOL     OW19237   0.286   0.952   6.263
 6113SOL    HW119238   0.338   1.038   6.255
 6113SOL    HW219239   0.237   0.935   6.178
 6114SOL     OW19240   5.247   4.370   0.960
 6114SOL    HW119241   5.184   4.325   0.897
 6114SOL    HW219242   5.334   4.321   0.961
 6115SOL     OW19243   5.369   6.053   2.582
 6115SOL    HW119244   5.456   6.094   2.611
 6115SOL    HW219245   5.387   5.965   2.540
 6116SOL     OW19246   2.783   1.277   1.452
 6116SOL    HW119247   2.781   1.359   1.395
 6116SOL    HW219248   2.859   1.218   1.423
 6117SOL     OW19249   6.995   0.478   5.547
 6117SOL    HW119250   6.918   0.444   5.601
 6117SOL    HW219251   6.969   0.481   5.451
 6118SOL     OW19252   6.817   1.467   1.979
 6118SOL    HW119253   6.784   1.409   2.053
 6118SOL    HW219254   6.905   1.508   2.006
 6119SOL     OW19255   0.241   3.955   4.148
 6119SOL    HW119256   0.278   3.978   4.058
 6119SOL    HW219257   0.141   3.951   4.143
 6120SOL     OW19258   3.368   6.951   3.291
 6120SOL    HW119259   3.432   6.902   3.350
 6120SOL    HW219260   3.391   6.936   3.196
 6121SOL     OW19261   6.957   2.518   4.109
 6121SOL    HW119262   6.902   2.582   4.055
 6121SOL    HW219263   6.977   2.437   4.053
 6122SOL     OW19264   3.013   6.535   2.012
 6122SOL    HW119265   2.927   6.516   1.963
 6122SOL    HW219266   3.063   6.450   2.025
 6123SOL     OW19267   6.641   0.629   0.616
 6123SOL    HW119268   6.729   0.666   0.644
 6123SOL    HW219269   6.649   0.590   0.523
 6124SOL     OW19270   3.352   0.298   5.362
 6124SOL    HW119271   3.374   0.331   5.454
 6124SOL    HW219272   3.301   0.368   5.313
 6125SOL     OW19273   2.372   5.969   0.829
 6125SOL    HW119274   2.425   5.897   0.783
 6125SOL    HW219275   2.342   6.037   0.761
 6126SOL     OW19276   5.855   6.252   4.167
 6126SOL    HW119277   5.911   6.198   4.230
 6126SOL    HW219278   5.762   6.257   4.201
 6127SOL     OW19279   2.094   7.006   1.844
 6127SOL    HW119280   2.077   0.062   1.906
 6127SOL    HW219281   2.192   6.998   1.825
 6128SOL     OW19282   6.750   3.394   0.328
 6128SOL    HW119283   6.701   3.454   0.390
 6128SOL    HW219284   6.831   3.441   0.292
 6129SOL     OW19285   6.200   4.604   3.632
 6129SOL    HW119286   6.284   4.653   3.610
 6129SOL    HW219287   6.178   4.541   3.557
 6130SOL     OW19288   6.233   2.306   4.140
 6130SOL    HW119289   6.332   2.295   4.133
 6130SOL    HW219290   6.207   2.399   4.114
 6131SOL     OW19291   6.967   1.596   5.706
 6131SOL    HW119292   0.005   1.636   5.635
 6131SOL    HW219293   6.956   1.498   5.690
 6132SOL     OW19294   4.598   0.732   0.615
 6132SOL    HW119295   4.602   0.691   0.706
 6132SOL    HW219296   4.690   0.742   0.578
 6133SOL     OW19297   0.749   2.547   2.510
 6133SOL    HW119298   0.727   2.516   2.602
 6133SOL    HW219299   0.835   2.597   2.512
 6134SOL     OW19300   4.036   3.425   6.875
 6134SOL    HW119301   4.048   3.421   6.974
 6134SOL    HW219302   3.954   3.374   6.849
 6135SOL     OW19303   6.570   6.630   2.609
 6135SOL    HW119304   6.626   6.647   2.528
 6135SOL    HW219305   6.546   6.717   2.651
 6136SOL     OW19306   0.591   2.022   2.641
 6136SOL    HW119307   0.678   2.067   2.660
 6136SOL    HW219308   0.580   2.012   2.542
 6137SOL     OW19309   4.196   0.833   5.283
 6137SOL    HW119310   4.277   0.867   5.331
 6137SOL    HW219311   4.157   0.908   5.229
 6138SOL     OW19312   3.647   6.460   2.752
 6138SOL    HW119313   3.608   6.372   2.779
 6138SOL    HW219314   3.654   6.464   2.653
 6139SOL     OW19315   2.157   3.407   4.518
 6139SOL    HW119316   2.172   3.505   4.527
 6139SOL    HW219317   2.174   3.378   4.424
 6140SOL     OW19318   0.678   6.112   1.324
 6140SOL    HW119319   0.631   6.039   1.373
 6140SOL    HW219320   0.708   6.182   1.389
 6141SOL     OW19321   5.599   5.833   5.235
 6141SOL    HW119322   5.585   5.918   5.184
 6141SOL    HW219323   5.670   5.778   5.189
 6142SOL     OW19324   0.007   5.257   0.689
 6142SOL    HW119325   7.002   5.302   0.774
 6142SOL    HW219326   0.064   5.177   0.709
 6143SOL     OW19327   6.153   5.358   6.789
 6143SOL    HW119328   6.091   5.372   6.866
 6143SOL    HW219329   6.247   5.377   6.817
 6144SOL     OW19330   6.747   4.751   2.224
 6144SOL    HW119331   6.781   4.723   2.135
 6144SOL    HW219332   6.647   4.751   2.223
 6145SOL     OW19333   4.584   6.309   3.800
 6145SOL    HW119334   4.554   6.289   3.894
 6145SOL    HW219335   4.679   6.280   3.789
 6146SOL     OW19336   4.246   1.132   3.365
 6146SOL    HW119337   4.266   1.043   3.324
 6146SOL    HW219338   4.150   1.135   3.393
 6147SOL     OW19339   1.909   4.017   3.668
 6147SOL    HW119340   1.870   4.107   3.689
 6147SOL    HW219341   2.006   4.028   3.647
 6148SOL     OW19342   6.915   0.456   5.044
 6148SOL    HW119343   6.894   0.505   4.960
 6148SOL    HW219344   6.854   0.377   5.052
 6149SOL     OW19345   3.687   4.934   3.142
 6149SOL    HW119346   3.729   4.927   3.052
 6149SOL    HW219347   3.589   4.915   3.135
 6150SOL     OW19348   4.106   4.969   6.687
 6150SOL    HW119349   4.120   4.885   6.740
 6150SOL    HW219350   4.192   5.020   6.683
 6151SOL     OW19351   6.610   4.074   4.319
 6151SOL    HW119352   6.597   4.032   4.229
 6151SOL    HW219353   6.546   4.150   4.330
 6152SOL     OW19354   5.443   4.425   5.238
 6152SOL    HW119355   5.359   4.379   5.268
 6152SOL    HW219356   5.469   4.390   5.148
 6153SOL     OW19357   4.715   3.767   1.628
 6153SOL    HW119358   4.632   3.758   1.684
 6153SOL    HW219359   4.688   3.791   1.534
 6154SOL     OW19360   5.026   1.474   2.107
 6154SOL    HW119361   4.951   1.407   2.109
 6154SOL    HW219362   5.011   1.538   2.031
 6155SOL     OW19363   1.702   2.523   4.008
 6155SOL    HW119364   1.683   2.604   4.063
 6155SOL    HW219365   1.729   2.551   3.916
 6156SOL     OW19366   4.489   5.348   2.354
 6156SOL    HW119367   4.520   5.341   2.259
 6156SOL    HW219368   4.560   5.313   2.415
 6157SOL     OW19369   1.386   1.535   4.256
 6157SOL    HW119370   1.296   1.571   4.278
 6157SOL    HW219371   1.454   1.574   4.319
 6158SOL     OW19372   4.597   0.617   6.518
 6158SOL    HW119373   4.523   0.681   6.497
 6158SOL    HW219374   4.676   0.667   6.555
 6159SOL     OW19375   4.451   1.819   0.604
 6159SOL    HW119376   4.469   1.749   0.536
 6159SOL    HW219377   4.352   1.836   0.609
 6160SOL     OW19378   5.577   5.869   0.685
 6160SOL    HW119379   5.512   5.837   0.616
 6160SOL    HW219380   5.670   5.846   0.657
 6161SOL     OW19381   5.825   1.858   6.094
 6161SOL    HW119382   5.726   1.870   6.089
 6161SOL    HW219383   5.847   1.795   6.169
 6162SOL     OW19384   0.953   5.393   4.454
 6162SOL    HW119385   0.968   5.297   4.427
 6162SOL    HW219386   0.856   5.408   4.469
 6163SOL     OW19387   5.591   5.626   1.538
 6163SOL    HW119388   5.635   5.563   1.474
 6163SOL    HW219389   5.539   5.574   1.606
 6164SOL     OW19390   2.134   3.405   1.585
 6164SOL    HW119391   2.177   3.410   1.495
 6164SOL    HW219392   2.168   3.325   1.635
 6165SOL     OW19393   3.381   6.979   6.700
 6165SOL    HW119394   3.333   0.037   6.740
 6165SOL    HW219395   3.475   6.977   6.733
 6166SOL     OW19396   3.580   0.698   5.043
 6166SOL    HW119397   3.638   0.740   5.113
 6166SOL    HW219398   3.607   0.731   4.953
 6167SOL     OW19399   0.048   4.533   1.928
 6167SOL    HW119400   0.111   4.557   1.853
 6167SOL    HW219401   7.003   4.465   1.895
 6168SOL     OW19402   0.181   3.729   0.777
 6168SOL    HW119403   0.161   3.641   0.819
 6168SOL    HW219404   0.277   3.753   0.793
 6169SOL     OW19405   0.911   3.319   2.462
 6169SOL    HW119406   0.909   3.362   2.371
 6169SOL    HW219407   0.822   3.277   2.480
 6170SOL     OW19408   0.743   3.329   5.121
 6170SOL    HW119409   0.823   3.313   5.062
 6170SOL    HW219410   0.718   3.425   5.118
 6171SOL     OW19411   0.641   1.574   0.454
 6171SOL    HW119412   0.652   1.669   0.483
 6171SOL    HW219413   0.720   1.520   0.484
 6172SOL     OW19414   1.418   2.568   2.293
 6172SOL    HW119415   1.450   2.505   2.364
 6172SOL    HW219416   1.434   2.662   2.322
 6173SOL     OW19417   6.476   5.572   3.159
 6173SOL    HW119418   6.525   5.657   3.179
 6173SOL    HW219419   6.541   5.496   3.153
 6174SOL     OW19420   4.324   5.127   3.648
 6174SOL    HW119421   4.231   5.131   3.610
 6174SOL    HW219422   4.375   5.208   3.618
 6175SOL     OW19423   3.647   0.901   4.407
 6175SOL    HW119424   3.616   0.982   4.358
 6175SOL    HW219425   3.623   0.909   4.503
 6176SOL     OW19426   4.338   3.611   5.244
 6176SOL    HW119427   4.435   3.606   5.220
 6176SOL    HW219428   4.285   3.561   5.175
 6177SOL     OW19429   4.840   2.034   1.709
 6177SOL    HW119430   4.919   2.058   1.765
 6177SOL    HW219431   4.768   2.102   1.721
 6178SOL     OW19432   4.857   3.845   2.127
 6178SOL    HW119433   4.826   3.755   2.157
 6178SOL    HW219434   4.881   3.842   2.030
 6179SOL     OW19435   6.636   4.838   1.477
 6179SOL    HW119436   6.645   4.891   1.392
 6179SOL    HW219437   6.658   4.743   1.460
 6180SOL     OW19438   3.439   4.665   0.295
 6180SOL    HW119439   3.387   4.745   0.265
 6180SOL    HW219440   3.530   4.667   0.252
 6181SOL     OW19441   4.711   6.505   5.955
 6181SOL    HW119442   4.794   6.468   5.914
 6181SOL    HW219443   4.683   6.449   6.033
 6182SOL     OW19444   4.607   2.334   6.662
 6182SOL    HW119445   4.565   2.245   6.647
 6182SOL    HW219446   4.685   2.346   6.600
 6183SOL     OW19447   1.880   2.322   1.694
 6183SOL    HW119448   1.824   2.329   1.612
 6183SOL    HW219449   1.963   2.270   1.674
 6184SOL     OW19450   3.016   0.244   6.189
 6184SOL    HW119451   3.085   0.296   6.240
 6184SOL    HW219452   3.060   0.166   6.144
 6185SOL     OW19453   2.410   4.250   5.651
 6185SOL    HW119454   2.417   4.280   5.746
 6185SOL    HW219455   2.333   4.186   5.642
 6186SOL     OW19456   6.745   1.193   1.577
 6186SOL    HW119457   6.838   1.224   1.559
 6186SOL    HW219458   6.723   1.206   1.673
 6187SOL     OW19459   4.616   2.834   5.136
 6187SOL    HW119460   4.610   2.795   5.044
 6187SOL    HW219461   4.712   2.835   5.165
 6188SOL     OW19462   1.554   1.946   5.405
 6188SOL    HW119463   1.645   1.949   5.446
 6188SOL    HW219464   1.501   2.026   5.435
 6189SOL     OW19465   3.874   5.629   2.670
 6189SOL    HW119466   3.893   5.599   2.577
 6189SOL    HW219467   3.883   5.551   2.733
 6190SOL     OW19468   6.387   2.798   5.435
 6190SOL    HW119469   6.482   2.831   5.434
 6190SOL    HW219470   6.330   2.860   5.488
 6191SOL     OW19471   2.473   2.901   5.620
 6191SOL    HW119472   2.379   2.900   5.656
 6191SOL    HW219473   2.477   2.957   5.537
 6192SOL     OW19474   2.246   2.265   6.383
 6192SOL    HW119475   2.320   2.205   6.351
 6192SOL    HW219476   2.158   2.226   6.357
 6193SOL     OW19477   4.775   5.824   0.768
 6193SOL    HW119478   4.821   5.868   0.692
 6193SOL    HW219479   4.800   5.727   0.771
 6194SOL     OW19480   6.537   0.407   6.235
 6194SOL    HW119481   6.587   0.482   6.278
 6194SOL    HW219482   6.530   0.331   6.300
 6195SOL     OW19483   5.953   6.641   5.029
 6195SOL    HW119484   5.870   6.644   4.974
 6195SOL    HW219485   6.025   6.595   4.977
 6196SOL     OW19486   4.538   4.852   2.878
 6196SOL    HW119487   4.471   4.913   2.921
 6196SOL    HW219488   4.495   4.763   2.861
 6197SOL     OW19489   2.386   4.973   2.631
 6197SOL    HW119490   2.409   4.915   2.553
 6197SOL    HW219491   2.378   5.068   2.600
 6198SOL     OW19492   5.337   6.406   6.918
 6198SOL    HW119493   5.381   6.327   6.876
 6198SOL    HW219494   5.370   6.418   7.011
 6199SOL     OW19495   0.311   0.825   0.282
 6199SOL    HW119496   0.241   0.896   0.266
 6199SOL    HW219497   0.402   0.867   0.279
 6200SOL     OW19498   0.691   1.253   2.863
 6200SOL    HW119499   0.691   1.161   2.824
 6200SOL    HW219500   0.613   1.263   2.925
 6201SOL     OW19501   0.600   3.882   4.183
 6201SOL    HW119502   0.500   3.874   4.193
 6201SOL    HW219503   0.645   3.832   4.256
 6202SOL     OW19504   5.979   1.571   3.052
 6202SOL    HW119505   6.006   1.665   3.076
 6202SOL    HW219506   5.892   1.573   3.003
 6203SOL     OW19507   6.224   5.306   2.122
 6203SOL    HW119508   6.240   5.348   2.033
 6203SOL    HW219509   6.269   5.217   2.125
 6204SOL     OW19510   0.908   6.213   5.054
 6204SOL    HW119511   0.908   6.307   5.089
 6204SOL    HW219512   0.965   6.156   5.113
 6205SOL     OW19513   5.197   4.497   1.800
 6205SOL    HW119514   5.250   4.419   1.833
 6205SOL    HW219515   5.104   4.492   1.838
 6206SOL     OW19516   4.977   2.203   3.406
 6206SOL    HW119517   4.924   2.240   3.482
 6206SOL    HW219518   5.074   2.208   3.428
 6207SOL     OW19519   1.499   5.995   4.887
 6207SOL    HW119520   1.581   6.011   4.941
 6207SOL    HW219521   1.432   6.068   4.904
 6208SOL     OW19522   3.155   2.064   5.782
 6208SOL    HW119523   3.129   2.094   5.874
 6208SOL    HW219524   3.224   2.127   5.745
 6209SOL     OW19525   3.385   4.657   0.961
 6209SOL    HW119526   3.387   4.746   0.915
 6209SOL    HW219527   3.325   4.595   0.912
 6210SOL     OW19528   5.242   3.628   2.801
 6210SOL    HW119529   5.297   3.688   2.859
 6210SOL    HW219530   5.224   3.542   2.849
 6211SOL     OW19531   4.274   5.962   6.094
 6211SOL    HW119532   4.233   5.924   6.011
 6211SOL    HW219533   4.217   5.937   6.173
 6212SOL     OW19534   2.489   4.651   4.332
 6212SOL    HW119535   2.491   4.658   4.233
 6212SOL    HW219536   2.491   4.555   4.359
 6213SOL     OW19537   4.879   6.367   0.709
 6213SOL    HW119538   4.849   6.368   0.613
 6213SOL    HW219539   4.955   6.302   0.719
 6214SOL     OW19540   5.347   5.641   6.083
 6214SOL    HW119541   5.276   5.666   6.149
 6214SOL    HW219542   5.434   5.682   6.110
 6215SOL     OW19543   4.558   3.192   6.542
 6215SOL    HW119544   4.488   3.168   6.476
 6215SOL    HW219545   4.532   3.275   6.591
 6216SOL     OW19546   6.290   2.798   3.380
 6216SOL    HW119547   6.266   2.720   3.438
 6216SOL    HW219548   6.357   2.855   3.428
 6217SOL     OW19549   0.749   4.936   2.078
 6217SOL    HW119550   0.680   4.872   2.046
 6217SOL    HW219551   0.812   4.889   2.139
 6218SOL     OW19552   4.269   6.488   0.378
 6218SOL    HW119553   4.192   6.531   0.425
 6218SOL    HW219554   4.332   6.558   0.345
 6219SOL     OW19555   1.799   0.602   5.203
 6219SOL    HW119556   1.811   0.699   5.223
 6219SOL    HW219557   1.838   0.581   5.113
 6220SOL     OW19558   3.206   1.102   0.013
 6220SOL    HW119559   3.149   1.020   0.015
 6220SOL    HW219560   3.148   1.183   0.001
 6221SOL     OW19561   6.252   6.649   6.773
 6221SOL    HW119562   6.212   6.713   6.838
 6221SOL    HW219563   6.249   6.556   6.811
 6222SOL     OW19564   5.699   0.562   2.377
 6222SOL    HW119565   5.754   0.642   2.355
 6222SOL    HW219566   5.729   0.523   2.465
 6223SOL     OW19567   0.573   4.880   3.741
 6223SOL    HW119568   0.558   4.830   3.656
 6223SOL    HW219569   0.636   4.827   3.799
 6224SOL     OW19570   4.367   1.054   6.004
 6224SOL    HW119571   4.392   1.044   6.101
 6224SOL    HW219572   4.392   0.972   5.954
 6225SOL     OW19573   3.929   1.362   6.229
 6225SOL    HW119574   3.966   1.446   6.189
 6225SOL    HW219575   4.002   1.293   6.234
 6226SOL     OW19576   1.470   1.482   3.996
 6226SOL    HW119577   1.444   1.499   4.091
 6226SOL    HW219578   1.419   1.544   3.936
 6227SOL     OW19579   3.068   4.461   5.318
 6227SOL    HW119580   2.991   4.487   5.260
 6227SOL    HW219581   3.110   4.378   5.283
 6228SOL     OW19582   1.374   2.190   4.030
 6228SOL    HW119583   1.386   2.093   4.008
 6228SOL    HW219584   1.464   2.232   4.046
 6229SOL     OW19585   0.028   2.980   5.123
 6229SOL    HW119586   0.099   2.934   5.069
 6229SOL    HW219587   0.046   3.079   5.123
 6230SOL     OW19588   1.022   1.674   3.113
 6230SOL    HW119589   0.952   1.662   3.042
 6230SOL    HW219590   0.983   1.651   3.202
 6231SOL     OW19591   5.328   4.891   0.254
 6231SOL    HW119592   5.327   4.978   0.204
 6231SOL    HW219593   5.279   4.822   0.201
 6232SOL     OW19594   6.128   0.905   0.750
 6232SOL    HW119595   6.054   0.869   0.807
 6232SOL    HW219596   6.167   0.831   0.696
 6233SOL     OW19597   0.208   3.243   1.895
 6233SOL    HW119598   0.195   3.305   1.817
 6233SOL    HW219599   0.279   3.177   1.873
 6234SOL     OW19600   0.178   0.425   5.040
 6234SOL    HW119601   0.081   0.424   5.065
 6234SOL    HW219602   0.186   0.443   4.942
 6235SOL     OW19603   7.016   0.555   1.924
 6235SOL    HW119604   0.000   0.460   1.894
 6235SOL    HW219605   0.069   0.572   1.990
 6236SOL     OW19606   6.906   4.254   0.686
 6236SOL    HW119607   6.878   4.204   0.604
 6236SOL    HW219608   6.946   4.191   0.752
 6237SOL     OW19609   3.670   6.937   0.664
 6237SOL    HW119610   3.622   6.928   0.577
 6237SOL    HW219611   3.692   0.013   0.680
 6238SOL     OW19612   3.528   6.811   3.454
 6238SOL    HW119613   3.619   6.803   3.495
 6238SOL    HW219614   3.459   6.777   3.518
 6239SOL     OW19615   3.484   6.722   1.602
 6239SOL    HW119616   3.424   6.774   1.541
 6239SOL    HW219617   3.430   6.661   1.659
 6240SOL     OW19618   3.183   4.062   4.769
 6240SOL    HW119619   3.272   4.080   4.729
 6240SOL    HW219620   3.119   4.134   4.741
 6241SOL     OW19621   3.664   0.485   3.753
 6241SOL    HW119622   3.729   0.490   3.830
 6241SOL    HW219623   3.670   0.394   3.711
 6242SOL     OW19624   2.322   1.912   3.134
 6242SOL    HW119625   2.245   1.935   3.194
 6242SOL    HW219626   2.398   1.973   3.152
 6243SOL     OW19627   6.488   0.734   5.556
 6243SOL    HW119628   6.557   0.675   5.514
 6243SOL    HW219629   6.425   0.766   5.485
 6244SOL     OW19630   5.245   4.084   2.643
 6244SOL    HW119631   5.338   4.069   2.608
 6244SOL    HW219632   5.242   4.059   2.740
 6245SOL     OW19633   1.020   5.214   1.785
 6245SOL    HW119634   0.933   5.208   1.834
 6245SOL    HW219635   1.054   5.308   1.788
 6246SOL     OW19636   1.302   6.890   4.279
 6246SOL    HW119637   1.273   6.809   4.329
 6246SOL    HW219638   1.226   6.926   4.225
 6247SOL     OW19639   1.408   5.470   3.509
 6247SOL    HW119640   1.507   5.459   3.522
 6247SOL    HW219641   1.376   5.403   3.441
 6248SOL     OW19642   3.633   3.456   6.843
 6248SOL    HW119643   3.580   3.465   6.759
 6248SOL    HW219644   3.696   3.378   6.835
 6249SOL     OW19645   0.259   2.811   1.470
 6249SOL    HW119646   0.305   2.899   1.474
 6249SOL    HW219647   0.160   2.826   1.462
 6250SOL     OW19648   0.148   6.813   0.841
 6250SOL    HW119649   0.058   6.771   0.834
 6250SOL    HW219650   0.180   6.839   0.750
 6251SOL     OW19651   3.703   5.989   4.546
 6251SOL    HW119652   3.701   5.942   4.458
 6251SOL    HW219653   3.693   5.922   4.619
 6252SOL     OW19654   2.531   5.293   0.224
 6252SOL    HW119655   2.434   5.266   0.222
 6252SOL    HW219656   2.570   5.284   0.132
 6253SOL     OW19657   2.555   5.022   4.514
 6253SOL    HW119658   2.514   5.113   4.519
 6253SOL    HW219659   2.647   5.030   4.474
 6254SOL     OW19660   1.126   6.155   1.030
 6254SOL    HW119661   1.115   6.145   0.931
 6254SOL    HW219662   1.041   6.127   1.075
 6255SOL     OW19663   1.749   2.749   1.120
 6255SOL    HW119664   1.704   2.685   1.057
 6255SOL    HW219665   1.744   2.714   1.213
 6256SOL     OW19666   4.489   5.638   2.401
 6256SOL    HW119667   4.423   5.689   2.456
 6256SOL    HW219668   4.485   5.541   2.424
 6257SOL     OW19669   4.171   3.337   0.591
 6257SOL    HW119670   4.227   3.275   0.536
 6257SOL    HW219671   4.140   3.413   0.534
 6258SOL     OW19672   3.987   6.938   5.393
 6258SOL    HW119673   3.903   6.887   5.375
 6258SOL    HW219674   3.966   7.019   5.447
 6259SOL     OW19675   1.405   1.653   5.749
 6259SOL    HW119676   1.329   1.621   5.806
 6259SOL    HW219677   1.449   1.732   5.793
 6260SOL     OW19678   1.524   0.587   0.704
 6260SOL    HW119679   1.618   0.585   0.739
 6260SOL    HW219680   1.523   0.626   0.612
 6261SOL     OW19681   5.080   0.150   1.560
 6261SOL    HW119682   5.120   0.235   1.593
 6261SOL    HW219683   5.114   0.131   1.467
 6262SOL     OW19684   6.989   6.116   2.891
 6262SOL    HW119685   0.012   6.030   2.916
 6262SOL    HW219686   6.964   6.115   2.794
 6263SOL     OW19687   6.904   6.915   4.632
 6263SOL    HW119688   6.910   6.940   4.729
 6263SOL    HW219689   6.834   6.845   4.620
 6264SOL     OW19690   1.264   6.864   1.114
 6264SOL    HW119691   1.313   6.810   1.183
 6264SOL    HW219692   1.329   6.906   1.051
 6265SOL     OW19693   3.769   2.710   0.842
 6265SOL    HW119694   3.707   2.755   0.777
 6265SOL    HW219695   3.740   2.615   0.854
 6266SOL     OW19696   3.637   6.465   3.182
 6266SOL    HW119697   3.668   6.529   3.112
 6266SOL    HW219698   3.702   6.389   3.189
 6267SOL     OW19699   0.886   6.761   4.877
 6267SOL    HW119700   0.846   6.823   4.809
 6267SOL    HW219701   0.817   6.696   4.908
 6268SOL     OW19702   3.608   6.983   2.034
 6268SOL    HW119703   3.702   7.003   2.060
 6268SOL    HW219704   3.607   6.943   1.942
 6269SOL     OW19705   5.879   5.985   1.375
 6269SOL    HW119706   5.792   6.034   1.376
 6269SOL    HW219707   5.874   5.906   1.436
 6270SOL     OW19708   0.328   6.739   0.091
 6270SOL    HW119709   0.361   6.674   0.159
 6270SOL    HW219710   0.276   6.690   0.021
 6271SOL     OW19711   5.579   2.631   6.562
 6271SOL    HW119712   5.524   2.549   6.576
 6271SOL    HW219713   5.623   2.626   6.472
 6272SOL     OW19714   6.766   0.404   6.871
 6272SOL    HW119715   6.703   0.354   6.811
 6272SOL    HW219716   6.833   0.454   6.815
 6273SOL     OW19717   0.489   6.106   3.132
 6273SOL    HW119718   0.406   6.118   3.187
 6273SOL    HW219719   0.519   6.195   3.098
 6274SOL     OW19720   2.932   6.617   4.600
 6274SOL    HW119721   2.839   6.622   4.563
 6274SOL    HW219722   2.945   6.687   4.669
 6275SOL     OW19723   2.570   6.095   0.342
 6275SOL    HW119724   2.651   6.088   0.401
 6275SOL    HW219725   2.593   6.066   0.249
 6276SOL     OW19726   3.882   5.866   3.708
 6276SOL    HW119727   3.912   5.793   3.770
 6276SOL    HW219728   3.963   5.910   3.668
 6277SOL     OW19729   4.833   1.907   1.347
 6277SOL    HW119730   4.825   2.006   1.355
 6277SOL    HW219731   4.807   1.865   1.434
 6278SOL     OW19732   3.450   0.386   5.597
 6278SOL    HW119733   3.382   0.458   5.615
 6278SOL    HW219734   3.532   0.404   5.650
 6279SOL     OW19735   3.542   5.505   0.489
 6279SOL    HW119736   3.476   5.490   0.563
 6279SOL    HW219737   3.493   5.524   0.404
 6280SOL     OW19738   6.967   1.582   6.981
 6280SOL    HW119739   6.902   1.507   6.988
 6280SOL    HW219740   6.938   1.645   6.908
 6281SOL     OW19741   6.031   4.422   4.302
 6281SOL    HW119742   6.047   4.348   4.367
 6281SOL    HW219743   6.017   4.508   4.351
 6282SOL     OW19744   6.589   3.574   4.886
 6282SOL    HW119745   6.610   3.669   4.908
 6282SOL    HW219746   6.496   3.568   4.850
 6283SOL     OW19747   0.817   5.540   4.833
 6283SOL    HW119748   0.797   5.602   4.757
 6283SOL    HW219749   0.757   5.562   4.910
 6284SOL     OW19750   0.817   4.844   6.624
 6284SOL    HW119751   0.799   4.941   6.611
 6284SOL    HW219752   0.737   4.800   6.665
 6285SOL     OW19753   2.032   3.753   3.630
 6285SOL    HW119754   1.945   3.766   3.584
 6285SOL    HW219755   2.039   3.659   3.663
 6286SOL     OW19756   6.763   3.604   5.209
 6286SOL    HW119757   6.739   3.516   5.250
 6286SOL    HW219758   6.680   3.657   5.195
 6287SOL     OW19759   4.352   4.241   5.656
 6287SOL    HW119760   4.361   4.178   5.578
 6287SOL    HW219761   4.390   4.330   5.631
 6288SOL     OW19762   4.087   3.567   0.464
 6288SOL    HW119763   4.060   3.613   0.379
 6288SOL    HW219764   4.138   3.631   0.522
 6289SOL     OW19765   2.460   4.070   6.938
 6289SOL    HW119766   2.534   4.071   6.871
 6289SOL    HW219767   2.376   4.104   6.897
 6290SOL     OW19768   6.416   5.395   6.821
 6290SOL    HW119769   6.499   5.386   6.876
 6290SOL    HW219770   6.431   5.356   6.731
 6291SOL     OW19771   3.423   3.140   3.016
 6291SOL    HW119772   3.462   3.155   3.107
 6291SOL    HW219773   3.485   3.176   2.946
 6292SOL     OW19774   1.543   2.533   4.736
 6292SOL    HW119775   1.497   2.512   4.650
 6292SOL    HW219776   1.627   2.584   4.718
 6293SOL     OW19777   4.717   1.716   0.660
 6293SOL    HW119778   4.715   1.668   0.748
 6293SOL    HW219779   4.632   1.768   0.649
 6294SOL     OW19780   3.418   0.542   3.399
 6294SOL    HW119781   3.472   0.598   3.461
 6294SOL    HW219782   3.435   0.570   3.305
 6295SOL     OW19783   5.124   5.118   4.810
 6295SOL    HW119784   5.113   5.109   4.711
 6295SOL    HW219785   5.166   5.035   4.847
 6296SOL     OW19786   0.777   4.164   6.088
 6296SOL    HW119787   0.876   4.168   6.100
 6296SOL    HW219788   0.755   4.093   6.020
 6297SOL     OW19789   6.120   0.356   5.090
 6297SOL    HW119790   6.203   0.307   5.065
 6297SOL    HW219791   6.083   0.318   5.175
 6298SOL     OW19792   5.955   4.488   6.693
 6298SOL    HW119793   5.967   4.530   6.783
 6298SOL    HW219794   5.957   4.389   6.702
 6299SOL     OW19795   5.421   2.367   2.531
 6299SOL    HW119796   5.426   2.449   2.475
 6299SOL    HW219797   5.325   2.341   2.544
 6300SOL     OW19798   4.458   0.997   6.308
 6300SOL    HW119799   4.395   1.071   6.329
 6300SOL    HW219800   4.449   0.925   6.377
 6301SOL     OW19801   3.123   6.909   6.655
 6301SOL    HW119802   3.217   6.923   6.687
 6301SOL    HW219803   3.108   6.813   6.635
 6302SOL     OW19804   2.016   1.777   5.478
 6302SOL    HW119805   2.072   1.709   5.524
 6302SOL    HW219806   1.936   1.733   5.436
 6303SOL     OW19807   0.942   6.670   5.745
 6303SOL    HW119808   0.993   6.739   5.693
 6303SOL    HW219809   0.966   6.579   5.712
 6304SOL     OW19810   4.052   1.679   3.468
 6304SOL    HW119811   4.004   1.645   3.388
 6304SOL    HW219812   4.005   1.647   3.551
 6305SOL     OW19813   6.309   5.992   6.521
 6305SOL    HW119814   6.255   6.073   6.501
 6305SOL    HW219815   6.258   5.932   6.582
 6306SOL     OW19816   0.404   3.739   3.620
 6306SOL    HW119817   0.349   3.731   3.703
 6306SOL    HW219818   0.389   3.658   3.562
 6307SOL     OW19819   3.728   3.675   4.077
 6307SOL    HW119820   3.634   3.653   4.102
 6307SOL    HW219821   3.728   3.746   4.006
 6308SOL     OW19822   0.344   2.014   5.730
 6308SOL    HW119823   0.400   2.030   5.649
 6308SOL    HW219824   0.248   2.000   5.702
 6309SOL     OW19825   0.509   6.634   3.891
 6309SOL    HW119826   0.490   6.556   3.832
 6309SOL    HW219827   0.573   6.607   3.963
 6310SOL     OW19828   1.678   6.829   3.144
 6310SOL    HW119829   1.623   6.889   3.085
 6310SOL    HW219830   1.713   6.753   3.090
 6311SOL     OW19831   5.243   0.656   6.728
 6311SOL    HW119832   5.164   0.684   6.673
 6311SOL    HW219833   5.242   0.556   6.738
 6312SOL     OW19834   2.569   6.979   6.446
 6312SOL    HW119835   2.593   6.934   6.532
 6312SOL    HW219836   2.610   6.928   6.370
 6313SOL     OW19837   5.581   6.784   3.581
 6313SOL    HW119838   5.661   6.784   3.521
 6313SOL    HW219839   5.535   6.873   3.575
 6314SOL     OW19840   3.161   6.849   1.286
 6314SOL    HW119841   3.198   6.926   1.337
 6314SOL    HW219842   3.198   6.763   1.323
 6315SOL     OW19843   1.809   2.662   4.683
 6315SOL    HW119844   1.830   2.564   4.677
 6315SOL    HW219845   1.886   2.715   4.647
 6316SOL     OW19846   4.984   2.082   5.905
 6316SOL    HW119847   4.906   2.093   5.967
 6316SOL    HW219848   5.066   2.062   5.959
 6317SOL     OW19849   5.358   4.482   2.856
 6317SOL    HW119850   5.359   4.568   2.806
 6317SOL    HW219851   5.283   4.425   2.824
 6318SOL     OW19852   6.278   0.348   6.864
 6318SOL    HW119853   6.276   0.249   6.859
 6318SOL    HW219854   6.264   0.378   6.958
 6319SOL     OW19855   5.629   2.279   4.921
 6319SOL    HW119856   5.577   2.349   4.872
 6319SOL    HW219857   5.671   2.217   4.855
 6320SOL     OW19858   0.045   0.550   3.643
 6320SOL    HW119859   0.020   0.536   3.547
 6320SOL    HW219860   0.025   0.645   3.669
 6321SOL     OW19861   5.267   3.168   0.559
 6321SOL    HW119862   5.291   3.195   0.465
 6321SOL    HW219863   5.251   3.070   0.562
 6322SOL     OW19864   2.652   1.980   0.613
 6322SOL    HW119865   2.607   2.068   0.628
 6322SOL    HW219866   2.636   1.950   0.519
 6323SOL     OW19867   2.434   3.511   1.025
 6323SOL    HW119868   2.409   3.414   1.022
 6323SOL    HW219869   2.375   3.563   0.963
 6324SOL     OW19870   4.406   1.318   0.778
 6324SOL    HW119871   4.413   1.223   0.808
 6324SOL    HW219872   4.389   1.377   0.857
 6325SOL     OW19873   1.903   2.774   2.388
 6325SOL    HW119874   1.991   2.783   2.342
 6325SOL    HW219875   1.832   2.817   2.332
 6326SOL     OW19876   4.741   4.789   5.392
 6326SOL    HW119877   4.801   4.842   5.452
 6326SOL    HW219878   4.660   4.843   5.371
 6327SOL     OW19879   0.454   1.744   3.546
 6327SOL    HW119880   0.390   1.667   3.556
 6327SOL    HW219881   0.437   1.810   3.619
 6328SOL     OW19882   5.278   4.203   6.469
 6328SOL    HW119883   5.338   4.145   6.525
 6328SOL    HW219884   5.303   4.299   6.482
 6329SOL     OW19885   1.304   3.074   4.722
 6329SOL    HW119886   1.280   3.035   4.633
 6329SOL    HW219887   1.307   3.001   4.791
 6330SOL     OW19888   5.655   0.718   3.343
 6330SOL    HW119889   5.652   0.744   3.247
 6330SOL    HW219890   5.564   0.725   3.382
 6331SOL     OW19891   6.629   3.077   4.764
 6331SOL    HW119892   6.542   3.081   4.715
 6331SOL    HW219893   6.629   3.143   4.839
 6332SOL     OW19894   1.736   1.845   1.678
 6332SOL    HW119895   1.828   1.874   1.704
 6332SOL    HW219896   1.721   1.864   1.581
 6333SOL     OW19897   4.743   6.950   0.116
 6333SOL    HW119898   4.770   7.000   0.198
 6333SOL    HW219899   4.825   6.913   0.071
 6334SOL     OW19900   2.447   1.716   1.981
 6334SOL    HW119901   2.385   1.743   1.908
 6334SOL    HW219902   2.542   1.725   1.949
 6335SOL     OW19903   4.929   1.045   1.062
 6335SOL    HW119904   5.015   1.001   1.091
 6335SOL    HW219905   4.949   1.113   0.991
 6336SOL     OW19906   0.008   5.019   6.626
 6336SOL    HW119907   0.058   4.949   6.677
 6336SOL    HW219908   0.031   5.109   6.662
 6337SOL     OW19909   4.231   5.345   4.990
 6337SOL    HW119910   4.208   5.257   4.947
 6337SOL    HW219911   4.329   5.362   4.982
 6338SOL     OW19912   3.221   1.811   4.463
 6338SOL    HW119913   3.269   1.885   4.508
 6338SOL    HW219914   3.257   1.799   4.370
 6339SOL     OW19915   0.891   3.391   2.750
 6339SOL    HW119916   0.879   3.365   2.654
 6339SOL    HW219917   0.914   3.310   2.804
 6340SOL     OW19918   2.695   4.049   1.457
 6340SOL    HW119919   2.615   4.106   1.476
 6340SOL    HW219920   2.685   4.006   1.367
 6341SOL     OW19921   0.643   3.352   3.436
 6341SOL    HW119922   0.684   3.272   3.392
 6341SOL    HW219923   0.566   3.323   3.493
 6342SOL     OW19924   2.993   1.121   1.399
 6342SOL    HW119925   2.976   1.085   1.490
 6342SOL    HW219926   3.092   1.123   1.382
 6343SOL     OW19927   3.442   6.834   6.990
 6343SOL    HW119928   3.513   6.879   6.935
 6343SOL    HW219929   3.391   6.770   6.934
 6344SOL     OW19930   6.076   2.496   3.776
 6344SOL    HW119931   6.110   2.525   3.687
 6344SOL    HW219932   6.013   2.419   3.765
 6345SOL     OW19933   4.968   3.274   1.476
 6345SOL    HW119934   4.895   3.272   1.544
 6345SOL    HW219935   5.053   3.242   1.518
 6346SOL     OW19936   6.905   4.275   5.378
 6346SOL    HW119937   7.003   4.279   5.398
 6346SOL    HW219938   6.869   4.184   5.400
 6347SOL     OW19939   2.671   2.323   2.213
 6347SOL    HW119940   2.584   2.302   2.168
 6347SOL    HW219941   2.738   2.348   2.144
 6348SOL     OW19942   0.604   1.855   5.918
 6348SOL    HW119943   0.660   1.779   5.885
 6348SOL    HW219944   0.625   1.937   5.864
 6349SOL     OW19945   1.415   0.314   7.007
 6349SOL    HW119946   1.479   0.387   6.979
 6349SOL    HW219947   1.342   0.306   6.939
 6350SOL     OW19948   0.868   5.143   2.769
 6350SOL    HW119949   0.868   5.213   2.841
 6350SOL    HW219950   0.884   5.187   2.680
 6351SOL     OW19951   5.963   4.564   3.774
 6351SOL    HW119952   6.038   4.604   3.722
 6351SOL    HW219953   5.970   4.464   3.771
 6352SOL     OW19954   2.826   1.051   3.828
 6352SOL    HW119955   2.763   1.120   3.791
 6352SOL    HW219956   2.856   0.991   3.754
 6353SOL     OW19957   2.142   4.839   0.166
 6353SOL    HW119958   2.211   4.771   0.138
 6353SOL    HW219959   2.158   4.924   0.117
 6354SOL     OW19960   4.563   5.445   2.718
 6354SOL    HW119961   4.582   5.353   2.754
 6354SOL    HW219962   4.477   5.478   2.758
 6355SOL     OW19963   3.255   5.525   0.713
 6355SOL    HW119964   3.205   5.592   0.768
 6355SOL    HW219965   3.192   5.482   0.648
 6356SOL     OW19966   5.022   5.008   0.073
 6356SOL    HW119967   5.013   4.913   0.045
 6356SOL    HW219968   4.973   5.067   0.008
 6357SOL     OW19969   5.976   2.497   1.312
 6357SOL    HW119970   5.992   2.415   1.256
 6357SOL    HW219971   5.880   2.500   1.339
 6358SOL     OW19972   0.960   1.714   0.000
 6358SOL    HW119973   0.875   1.760   6.993
 6358SOL    HW219974   0.980   1.734   0.096
 6359SOL     OW19975   6.272   6.936   0.659
 6359SOL    HW119976   6.286   6.855   0.603
 6359SOL    HW219977   6.342   6.940   0.730
 6360SOL     OW19978   0.027   2.764   3.883
 6360SOL    HW119979   0.086   2.811   3.816
 6360SOL    HW219980   0.076   2.754   3.969
 6361SOL     OW19981   0.360   0.364   0.303
 6361SOL    HW119982   0.347   0.347   0.206
 6361SOL    HW219983   0.299   0.436   0.334
 6362SOL     OW19984   1.351   6.179   6.416
 6362SOL    HW119985   1.449   6.199   6.415
 6362SOL    HW219986   1.306   6.227   6.342
 6363SOL     OW19987   2.665   5.270   3.636
 6363SOL    HW119988   2.744   5.320   3.599
 6363SOL    HW219989   2.692   5.224   3.721
 6364SOL     OW19990   2.092   2.583   4.845
 6364SOL    HW119991   2.190   2.588   4.861
 6364SOL    HW219992   2.062   2.488   4.848
 6365SOL     OW19993   6.242   5.261   5.238
 6365SOL    HW119994   6.300   5.337   5.211
 6365SOL    HW219995   6.191   5.228   5.158
 6366SOL     OW19996   6.432   6.507   4.703
 6366SOL    HW119997   6.469   6.513   4.796
 6366SOL    HW219998   6.425   6.599   4.664
 6367SOL     OW19999   2.854   1.998   2.777
 6367SOL    HW120000   2.877   2.005   2.874
 6367SOL    HW220001   2.937   1.980   2.724
 6368SOL     OW20002   4.545   4.502   4.239
 6368SOL    HW120003   4.602   4.425   4.212
 6368SOL    HW220004   4.533   4.502   4.338
 6369SOL     OW20005   2.208   6.179   5.631
 6369SOL    HW120006   2.119   6.148   5.599
 6369SOL    HW220007   2.227   6.139   5.721
 6370SOL     OW20008   4.900   3.808   3.222
 6370SOL    HW120009   4.983   3.815   3.166
 6370SOL    HW220010   4.836   3.745   3.178
 6371SOL     OW20011   5.472   3.428   1.769
 6371SOL    HW120012   5.476   3.361   1.695
 6371SOL    HW220013   5.564   3.466   1.784
 6372SOL     OW20014   0.599   0.908   2.990
 6372SOL    HW120015   0.622   0.918   2.893
 6372SOL    HW220016   0.652   0.974   3.044
 6373SOL     OW20017   5.676   4.139   1.766
 6373SOL    HW120018   5.604   4.081   1.728
 6373SOL    HW220019   5.667   4.142   1.866
 6374SOL     OW20020   4.551   3.185   0.313
 6374SOL    HW120021   4.472   3.246   0.302
 6374SOL    HW220022   4.524   3.091   0.292
 6375SOL     OW20023   1.079   2.742   2.113
 6375SOL    HW120024   1.154   2.730   2.049
 6375SOL    HW220025   1.082   2.670   2.182
 6376SOL     OW20026   4.368   1.362   5.727
 6376SOL    HW120027   4.440   1.429   5.743
 6376SOL    HW220028   4.325   1.337   5.814
 6377SOL     OW20029   6.923   0.760   5.976
 6377SOL    HW120030   6.902   0.676   6.026
 6377SOL    HW220031   7.019   0.785   5.990
 6378SOL     OW20032   4.968   5.994   3.089
 6378SOL    HW120033   4.926   5.914   3.047
 6378SOL    HW220034   5.011   6.051   3.019
 6379SOL     OW20035   1.506   4.871   5.470
 6379SOL    HW120036   1.578   4.815   5.429
 6379SOL    HW220037   1.417   4.828   5.453
 6380SOL     OW20038   0.944   2.887   4.660
 6380SOL    HW120039   0.927   2.969   4.715
 6380SOL    HW220040   0.856   2.844   4.636
 6381SOL     OW20041   4.102   2.920   0.713
 6381SOL    HW120042   4.126   2.980   0.637
 6381SOL    HW220043   4.006   2.933   0.737
 6382SOL     OW20044   2.849   1.798   1.631
 6382SOL    HW120045   2.831   1.893   1.655
 6382SOL    HW220046   2.790   1.770   1.556
 6383SOL     OW20047   1.679   2.861   2.564
 6383SOL    HW120048   1.669   2.960   2.547
 6383SOL    HW220049   1.759   2.827   2.514
 6384SOL     OW20050   5.870   2.098   2.363
 6384SOL    HW120051   5.966   2.094   2.337
 6384SOL    HW220052   5.828   2.180   2.325
 6385SOL     OW20053   6.853   3.876   0.993
 6385SOL    HW120054   6.908   3.910   1.069
 6385SOL    HW220055   6.904   3.887   0.908
 6386SOL     OW20056   1.879   4.060   0.356
 6386SOL    HW120057   1.979   4.072   0.362
 6386SOL    HW220058   1.834   4.132   0.409
 6387SOL     OW20059   6.141   1.350   0.450
 6387SOL    HW120060   6.063   1.328   0.392
 6387SOL    HW220061   6.130   1.306   0.539
 6388SOL     OW20062   6.551   4.860   2.834
 6388SOL    HW120063   6.571   4.861   2.736
 6388SOL    HW220064   6.600   4.784   2.877
 6389SOL     OW20065   1.543   6.684   0.298
 6389SOL    HW120066   1.570   6.767   0.249
 6389SOL    HW220067   1.501   6.620   0.234
 6390SOL     OW20068   6.720   0.465   0.128
 6390SOL    HW120069   6.759   0.447   0.038
 6390SOL    HW220070   6.747   0.556   0.159
 6391SOL     OW20071   1.238   1.418   5.752
 6391SOL    HW120072   1.270   1.464   5.670
 6391SOL    HW220073   1.199   1.329   5.727
 6392SOL     OW20074   3.501   5.792   3.822
 6392SOL    HW120075   3.472   5.877   3.777
 6392SOL    HW220076   3.532   5.812   3.915
 6393SOL     OW20077   5.466   6.624   2.055
 6393SOL    HW120078   5.368   6.637   2.068
 6393SOL    HW220079   5.502   6.694   1.994
 6394SOL     OW20080   1.013   4.708   1.130
 6394SOL    HW120081   0.963   4.793   1.145
 6394SOL    HW220082   0.951   4.631   1.139
 6395SOL     OW20083   0.010   3.969   2.690
 6395SOL    HW120084   0.002   3.942   2.785
 6395SOL    HW220085   0.043   4.063   2.684
 6396SOL     OW20086   6.935   3.382   6.237
 6396SOL    HW120087   6.975   3.332   6.314
 6396SOL    HW220088   6.979   3.471   6.228
 6397SOL     OW20089   6.410   1.170   2.779
 6397SOL    HW120090   6.393   1.104   2.852
 6397SOL    HW220091   6.326   1.183   2.726
 6398SOL     OW20092   1.791   6.455   1.315
 6398SOL    HW120093   1.774   6.417   1.225
 6398SOL    HW220094   1.722   6.423   1.380
 6399SOL     OW20095   1.730   0.100   6.775
 6399SOL    HW120096   1.670   0.027   6.807
 6399SOL    HW220097   1.728   0.104   6.675
 6400SOL     OW20098   1.846   5.708   2.821
 6400SOL    HW120099   1.823   5.739   2.914
 6400SOL    HW220100   1.770   5.657   2.783
 6401SOL     OW20101   4.406   4.642   3.121
 6401SOL    HW120102   4.431   4.596   3.036
 6401SOL    HW220103   4.489   4.670   3.169
 6402SOL     OW20104   1.158   3.241   3.266
 6402SOL    HW120105   1.159   3.218   3.363
 6402SOL    HW220106   1.244   3.213   3.224
 6403SOL     OW20107   5.599   6.086   5.097
 6403SOL    HW120108   5.672   6.120   5.155
 6403SOL    HW220109   5.627   6.090   5.001
 6404SOL     OW20110   3.734   1.105   2.690
 6404SOL    HW120111   3.797   1.029   2.708
 6404SOL    HW220112   3.786   1.187   2.669
 6405SOL     OW20113   4.823   1.661   3.767
 6405SOL    HW120114   4.854   1.711   3.686
 6405SOL    HW220115   4.836   1.718   3.848
 6406SOL     OW20116   1.238   2.927   2.316
 6406SOL    HW120117   1.253   2.934   2.218
 6406SOL    HW220118   1.212   2.833   2.339
 6407SOL     OW20119   2.017   6.547   3.175
 6407SOL    HW120120   2.023   6.577   3.271
 6407SOL    HW220121   2.011   6.447   3.172
 6408SOL     OW20122   6.766   0.736   1.392
 6408SOL    HW120123   6.757   0.830   1.357
 6408SOL    HW220124   6.694   0.679   1.352
 6409SOL     OW20125   6.053   4.998   3.984
 6409SOL    HW120126   5.961   5.011   4.021
 6409SOL    HW220127   6.118   5.048   4.041
 6410SOL     OW20128   2.439   1.581   5.929
 6410SOL    HW120129   2.534   1.609   5.944
 6410SOL    HW220130   2.433   1.526   5.846
 6411SOL     OW20131   0.098   3.044   1.667
 6411SOL    HW120132   0.033   3.087   1.729
 6411SOL    HW220133   0.057   2.961   1.629
 6412SOL     OW20134   3.298   0.997   6.665
 6412SOL    HW120135   3.278   1.072   6.727
 6412SOL    HW220136   3.216   0.942   6.651
 6413SOL     OW20137   4.159   5.015   4.451
 6413SOL    HW120138   4.083   5.014   4.515
 6413SOL    HW220139   4.145   4.945   4.381
 6414SOL     OW20140   0.657   6.446   6.484
 6414SOL    HW120141   0.614   6.477   6.399
 6414SOL    HW220142   0.617   6.494   6.562
 6415SOL     OW20143   1.222   3.478   2.800
 6415SOL    HW120144   1.133   3.510   2.770
 6415SOL    HW220145   1.216   3.448   2.896
 6416SOL     OW20146   2.879   0.040   6.645
 6416SOL    HW120147   2.952   6.995   6.665
 6416SOL    HW220148   2.791   7.014   6.653
 6417SOL     OW20149   5.129   2.339   1.061
 6417SOL    HW120150   5.176   2.383   1.137
 6417SOL    HW220151   5.033   2.369   1.059
 6418SOL     OW20152   4.815   4.530   2.236
 6418SOL    HW120153   4.733   4.472   2.225
 6418SOL    HW220154   4.896   4.477   2.210
 6419SOL     OW20155   0.681   6.886   5.688
 6419SOL    HW120156   0.747   6.954   5.719
 6419SOL    HW220157   0.678   6.810   5.753
 6420SOL     OW20158   1.320   2.546   3.772
 6420SOL    HW120159   1.386   2.616   3.799
 6420SOL    HW220160   1.368   2.459   3.756
 6421SOL     OW20161   5.758   0.271   1.226
 6421SOL    HW120162   5.741   0.184   1.272
 6421SOL    HW220163   5.781   0.341   1.293
 6422SOL     OW20164   0.059   2.000   5.636
 6422SOL    HW120165   0.113   1.957   5.564
 6422SOL    HW220166   6.982   1.981   5.622
 6423SOL     OW20167   3.429   5.876   4.491
 6423SOL    HW120168   3.429   5.877   4.591
 6423SOL    HW220169   3.468   5.961   4.456
 6424SOL     OW20170   0.646   3.336   4.844
 6424SOL    HW120171   0.548   3.345   4.861
 6424SOL    HW220172   0.683   3.263   4.902
 6425SOL     OW20173   0.073   5.415   2.988
 6425SOL    HW120174   0.173   5.415   2.998
 6425SOL    HW220175   0.050   5.411   2.891
 6426SOL     OW20176   5.201   5.034   4.192
 6426SOL    HW120177   5.205   5.008   4.289
 6426SOL    HW220178   5.276   5.096   4.171
 6427SOL     OW20179   3.209   4.083   2.822
 6427SOL    HW120180   3.144   4.072   2.746
 6427SOL    HW220181   3.289   4.135   2.790
 6428SOL     OW20182   5.245   2.333   0.612
 6428SOL    HW120183   5.207   2.390   0.685
 6428SOL    HW220184   5.342   2.352   0.601
 6429SOL     OW20185   1.577   0.513   5.354
 6429SOL    HW120186   1.659   0.549   5.308
 6429SOL    HW220187   1.500   0.513   5.290
 6430SOL     OW20188   6.758   0.733   5.730
 6430SOL    HW120189   6.782   0.830   5.720
 6430SOL    HW220190   6.784   0.702   5.821
 6431SOL     OW20191   4.755   5.108   3.253
 6431SOL    HW120192   4.759   5.064   3.163
 6431SOL    HW220193   4.827   5.177   3.259
 6432SOL     OW20194   3.547   3.874   6.243
 6432SOL    HW120195   3.624   3.883   6.307
 6432SOL    HW220196   3.463   3.908   6.288
 6433SOL     OW20197   2.826   5.473   6.981
 6433SOL    HW120198   2.841   5.386   0.007
 6433SOL    HW220199   2.746   5.465   6.922
 6434SOL     OW20200   2.837   6.612   6.278
 6434SOL    HW120201   2.792   6.531   6.240
 6434SOL    HW220202   2.780   6.693   6.260
 6435SOL     OW20203   5.936   6.975   0.629
 6435SOL    HW120204   6.034   6.979   0.650
 6435SOL    HW220205   5.894   0.041   0.655
 6436SOL     OW20206   0.771   3.076   3.635
 6436SOL    HW120207   0.779   3.171   3.666
 6436SOL    HW220208   0.843   3.022   3.677
 6437SOL     OW20209   0.547   1.820   5.180
 6437SOL    HW120210   0.520   1.905   5.136
 6437SOL    HW220211   0.522   1.823   5.277
 6438SOL     OW20212   1.060   5.414   6.353
 6438SOL    HW120213   0.983   5.352   6.368
 6438SOL    HW220214   1.038   5.479   6.280
 6439SOL     OW20215   6.319   0.867   3.526
 6439SOL    HW120216   6.321   0.770   3.499
 6439SOL    HW220217   6.371   0.920   3.459
 6440SOL     OW20218   2.335   0.851   6.781
 6440SOL    HW120219   2.431   0.824   6.782
 6440SOL    HW220220   2.329   0.951   6.787
 6441SOL     OW20221   0.109   1.013   3.014
 6441SOL    HW120222   0.160   1.058   3.087
 6441SOL    HW220223   0.016   1.049   3.011
 6442SOL     OW20224   2.521   2.210   4.873
 6442SOL    HW120225   2.571   2.287   4.912
 6442SOL    HW220226   2.526   2.132   4.936
 6443SOL     OW20227   3.916   1.907   6.494
 6443SOL    HW120228   3.876   1.816   6.493
 6443SOL    HW220229   4.007   1.904   6.452
 6444SOL     OW20230   0.474   2.370   5.031
 6444SOL    HW120231   0.490   2.315   5.113
 6444SOL    HW220232   0.471   2.467   5.055
 6445SOL     OW20233   3.480   3.701   3.021
 6445SOL    HW120234   3.397   3.735   2.978
 6445SOL    HW220235   3.548   3.678   2.951
 6446SOL     OW20236   1.416   1.644   6.586
 6446SOL    HW120237   1.472   1.617   6.507
 6446SOL    HW220238   1.347   1.710   6.557
 6447SOL     OW20239   0.102   4.030   1.476
 6447SOL    HW120240   0.084   3.963   1.548
 6447SOL    HW220241   0.166   4.100   1.511
 6448SOL     OW20242   5.047   5.341   1.487
 6448SOL    HW120243   4.971   5.293   1.443
 6448SOL    HW220244   5.011   5.410   1.550
 6449SOL     OW20245   2.011   5.658   1.299
 6449SOL    HW120246   2.019   5.569   1.254
 6449SOL    HW220247   2.096   5.678   1.348
 6450SOL     OW20248   0.694   4.380   0.721
 6450SOL    HW120249   0.777   4.426   0.752
 6450SOL    HW220250   0.677   4.402   0.625
 6451SOL     OW20251   3.576   1.764   6.798
 6451SOL    HW120252   3.584   1.697   6.872
 6451SOL    HW220253   3.539   1.720   6.716
 6452SOL     OW20254   5.182   3.726   2.552
 6452SOL    HW120255   5.085   3.746   2.535
 6452SOL    HW220256   5.192   3.681   2.640
 6453SOL     OW20257   3.815   6.978   0.897
 6453SOL    HW120258   3.807   6.943   0.803
 6453SOL    HW220259   3.724   7.001   0.932
 6454SOL     OW20260   7.018   1.663   2.564
 6454SOL    HW120261   0.081   1.616   2.594
 6454SOL    HW220262   6.939   1.606   2.584
 6455SOL     OW20263   6.525   4.285   3.102
 6455SOL    HW120264   6.474   4.205   3.134
 6455SOL    HW220265   6.577   4.325   3.177
 6456SOL     OW20266   0.681   0.465   2.671
 6456SOL    HW120267   0.681   0.565   2.670
 6456SOL    HW220268   0.588   0.433   2.690
 6457SOL     OW20269   4.861   0.130   1.840
 6457SOL    HW120270   4.828   0.165   1.753
 6457SOL    HW220271   4.950   0.085   1.826
 6458SOL     OW20272   1.282   5.294   4.256
 6458SOL    HW120273   1.210   5.226   4.271
 6458SOL    HW220274   1.241   5.383   4.238
 6459SOL     OW20275   6.474   2.489   2.785
 6459SOL    HW120276   6.491   2.575   2.833
 6459SOL    HW220277   6.532   2.417   2.823
 6460SOL     OW20278   6.437   5.408   5.623
 6460SOL    HW120279   6.534   5.405   5.646
 6460SOL    HW220280   6.422   5.475   5.550
 6461SOL     OW20281   3.697   4.410   0.226
 6461SOL    HW120282   3.729   4.503   0.205
 6461SOL    HW220283   3.622   4.386   0.165
 6462SOL     OW20284   1.481   3.654   4.304
 6462SOL    HW120285   1.396   3.704   4.318
 6462SOL    HW220286   1.558   3.718   4.308
 6463SOL     OW20287   5.806   0.185   0.686
 6463SOL    HW120288   5.763   0.236   0.612
 6463SOL    HW220289   5.747   0.189   0.767
 6464SOL     OW20290   0.894   6.054   4.780
 6464SOL    HW120291   0.965   5.985   4.796
 6464SOL    HW220292   0.886   6.113   4.860
 6465SOL     OW20293   5.856   2.390   1.968
 6465SOL    HW120294   5.838   2.410   1.872
 6465SOL    HW220295   5.942   2.433   1.996
 6466SOL     OW20296   6.836   2.865   6.389
 6466SOL    HW120297   6.903   2.918   6.440
 6466SOL    HW220298   6.880   2.786   6.347
 6467SOL     OW20299   3.832   1.026   1.271
 6467SOL    HW120300   3.818   1.125   1.265
 6467SOL    HW220301   3.873   0.992   1.186
 6468SOL     OW20302   3.672   6.494   1.014
 6468SOL    HW120303   3.733   6.520   1.089
 6468SOL    HW220304   3.718   6.509   0.927
 6469SOL     OW20305   2.956   2.168   4.228
 6469SOL    HW120306   3.053   2.154   4.208
 6469SOL    HW220307   2.926   2.100   4.295
 6470SOL     OW20308   5.850   2.300   0.573
 6470SOL    HW120309   5.936   2.250   0.584
 6470SOL    HW220310   5.802   2.268   0.492
 6471SOL     OW20311   0.613   6.651   4.543
 6471SOL    HW120312   0.710   6.648   4.518
 6471SOL    HW220313   0.559   6.682   4.465
 6472SOL     OW20314   6.624   6.366   2.602
 6472SOL    HW120315   6.616   6.465   2.601
 6472SOL    HW220316   6.714   6.339   2.568
 6473SOL     OW20317   1.695   1.532   4.405
 6473SOL    HW120318   1.787   1.535   4.443
 6473SOL    HW220319   1.701   1.522   4.306
 6474SOL     OW20320   4.222   5.166   5.521
 6474SOL    HW120321   4.203   5.263   5.533
 6474SOL    HW220322   4.196   5.117   5.604
 6475SOL     OW20323   5.396   5.055   3.269
 6475SOL    HW120324   5.428   5.083   3.360
 6475SOL    HW220325   5.299   5.077   3.259
 6476SOL     OW20326   3.260   2.255   6.436
 6476SOL    HW120327   3.352   2.293   6.426
 6476SOL    HW220328   3.227   2.269   6.529
 6477SOL     OW20329   6.540   5.356   0.752
 6477SOL    HW120330   6.480   5.307   0.689
 6477SOL    HW220331   6.527   5.455   0.742
 6478SOL     OW20332   2.715   5.901   1.375
 6478SOL    HW120333   2.807   5.862   1.379
 6478SOL    HW220334   2.687   5.929   1.466
 6479SOL     OW20335   3.020   5.185   4.535
 6479SOL    HW120336   3.114   5.197   4.501
 6479SOL    HW220337   3.003   5.249   4.610
 6480SOL     OW20338   2.150   1.538   0.307
 6480SOL    HW120339   2.082   1.466   0.319
 6480SOL    HW220340   2.105   1.624   0.282
 6481SOL     OW20341   3.330   2.526   1.733
 6481SOL    HW120342   3.245   2.579   1.733
 6481SOL    HW220343   3.405   2.583   1.768
 6482SOL     OW20344   6.792   2.582   5.697
 6482SOL    HW120345   6.795   2.496   5.646
 6482SOL    HW220346   6.864   2.643   5.664
 6483SOL     OW20347   1.241   5.872   4.271
 6483SOL    HW120348   1.264   5.919   4.356
 6483SOL    HW220349   1.142   5.859   4.266
 6484SOL     OW20350   2.935   1.661   2.558
 6484SOL    HW120351   3.002   1.589   2.539
 6484SOL    HW220352   2.981   1.741   2.596
 6485SOL     OW20353   1.999   6.099   4.749
 6485SOL    HW120354   1.923   6.164   4.741
 6485SOL    HW220355   2.074   6.140   4.800
 6486SOL     OW20356   1.010   4.673   2.890
 6486SOL    HW120357   0.950   4.616   2.834
 6486SOL    HW220358   0.985   4.664   2.986
 6487SOL     OW20359   0.852   5.785   4.247
 6487SOL    HW120360   0.918   5.727   4.296
 6487SOL    HW220361   0.884   5.879   4.247
 6488SOL     OW20362   4.523   6.012   5.115
 6488SOL    HW120363   4.543   5.977   5.023
 6488SOL    HW220364   4.438   5.972   5.148
 6489SOL     OW20365   3.356   2.717   6.032
 6489SOL    HW120366   3.322   2.623   6.039
 6489SOL    HW220367   3.396   2.730   5.941
 6490SOL     OW20368   2.410   1.562   6.400
 6490SOL    HW120369   2.473   1.563   6.478
 6490SOL    HW220370   2.401   1.655   6.363
 6491SOL     OW20371   2.167   0.490   1.486
 6491SOL    HW120372   2.262   0.519   1.499
 6491SOL    HW220373   2.131   0.454   1.572
 6492SOL     OW20374   3.901   3.917   4.344
 6492SOL    HW120375   3.900   3.950   4.249
 6492SOL    HW220376   3.892   3.995   4.406
 6493SOL     OW20377   1.363   4.754   6.335
 6493SOL    HW120378   1.400   4.733   6.245
 6493SOL    HW220379   1.438   4.757   6.402
 6494SOL     OW20380   5.863   6.361   2.697
 6494SOL    HW120381   5.800   6.320   2.631
 6494SOL    HW220382   5.819   6.441   2.739
 6495SOL     OW20383   6.538   6.841   4.801
 6495SOL    HW120384   6.508   6.935   4.786
 6495SOL    HW220385   6.588   6.835   4.888
 6496SOL     OW20386   5.003   6.676   1.443
 6496SOL    HW120387   4.994   6.757   1.502
 6496SOL    HW220388   4.919   6.665   1.390
 6497SOL     OW20389   0.958   1.707   1.076
 6497SOL    HW120390   1.035   1.683   1.135
 6497SOL    HW220391   0.881   1.738   1.132
 6498SOL     OW20392   0.699   4.101   4.039
 6498SOL    HW120393   0.763   4.080   3.965
 6498SOL    HW220394   0.653   4.017   4.069
 6499SOL     OW20395   5.456   3.725   4.353
 6499SOL    HW120396   5.490   3.658   4.418
 6499SOL    HW220397   5.413   3.801   4.402
 6500SOL     OW20398   0.555   3.546   2.318
 6500SOL    HW120399   0.488   3.620   2.321
 6500SOL    HW220400   0.642   3.581   2.285
 6501SOL     OW20401   0.154   1.600   0.963
 6501SOL    HW120402   0.167   1.696   0.939
 6501SOL    HW220403   0.154   1.544   0.880
 6502SOL     OW20404   6.326   3.706   1.390
 6502SOL    HW120405   6.385   3.767   1.338
 6502SOL    HW220406   6.244   3.756   1.419
 6503SOL     OW20407   6.803   1.825   5.208
 6503SOL    HW120408   6.722   1.863   5.164
 6503SOL    HW220409   6.867   1.900   5.229
 6504SOL     OW20410   4.677   6.765   6.669
 6504SOL    HW120411   4.644   6.677   6.634
 6504SOL    HW220412   4.673   6.764   6.769
 6505SOL     OW20413   5.447   6.727   0.094
 6505SOL    HW120414   5.490   6.759   0.178
 6505SOL    HW220415   5.516   6.693   0.031
 6506SOL     OW20416   0.158   3.342   3.595
 6506SOL    HW120417   0.085   3.410   3.596
 6506SOL    HW220418   0.130   3.262   3.648
 6507SOL     OW20419   3.072   5.466   6.252
 6507SOL    HW120420   3.082   5.401   6.177
 6507SOL    HW220421   2.985   5.449   6.299
 6508SOL     OW20422   1.798   6.457   2.414
 6508SOL    HW120423   1.737   6.534   2.430
 6508SOL    HW220424   1.743   6.376   2.391
 6509SOL     OW20425   4.378   1.275   5.268
 6509SOL    HW120426   4.350   1.278   5.364
 6509SOL    HW220427   4.470   1.237   5.262
 6510SOL     OW20428   4.526   6.040   6.359
 6510SOL    HW120429   4.456   6.102   6.325
 6510SOL    HW220430   4.551   6.065   6.453
 6511SOL     OW20431   4.111   0.889   5.667
 6511SOL    HW120432   4.059   0.832   5.604
 6511SOL    HW220433   4.204   0.853   5.675
 6512SOL     OW20434   3.129   6.669   2.481
 6512SOL    HW120435   3.207   6.628   2.528
 6512SOL    HW220436   3.157   6.754   2.436
 6513SOL     OW20437   2.636   5.997   4.192
 6513SOL    HW120438   2.641   5.972   4.095
 6513SOL    HW220439   2.722   5.971   4.237
 6514SOL     OW20440   5.692   0.420   5.079
 6514SOL    HW120441   5.620   0.457   5.022
 6514SOL    HW220442   5.772   0.399   5.022
 6515SOL     OW20443   1.882   4.452   2.325
 6515SOL    HW120444   1.903   4.417   2.234
 6515SOL    HW220445   1.966   4.482   2.370
 6516SOL     OW20446   6.910   3.124   1.807
 6516SOL    HW120447   6.931   3.180   1.886
 6516SOL    HW220448   6.895   3.183   1.727
 6517SOL     OW20449   0.346   2.252   0.698
 6517SOL    HW120450   0.440   2.287   0.701
 6517SOL    HW220451   0.310   2.247   0.791
 6518SOL     OW20452   6.759   0.709   1.931
 6518SOL    HW120453   6.830   0.641   1.951
 6518SOL    HW220454   6.761   0.732   1.834
 6519SOL     OW20455   0.458   0.568   3.079
 6519SOL    HW120456   0.411   0.554   2.992
 6519SOL    HW220457   0.429   0.656   3.118
 6520SOL     OW20458   0.084   5.769   6.682
 6520SOL    HW120459   0.111   5.819   6.599
 6520SOL    HW220460   0.154   5.782   6.752
 6521SOL     OW20461   1.494   2.913   2.906
 6521SOL    HW120462   1.523   2.928   3.001
 6521SOL    HW220463   1.446   2.994   2.873
 6522SOL     OW20464   2.654   4.641   5.493
 6522SOL    HW120465   2.739   4.689   5.470
 6522SOL    HW220466   2.654   4.551   5.451
 6523SOL     OW20467   4.969   6.898   7.003
 6523SOL    HW120468   5.057   6.854   0.003
 6523SOL    HW220469   4.983   6.969   6.934
 6524SOL     OW20470   3.098   2.679   1.725
 6524SOL    HW120471   3.039   2.606   1.759
 6524SOL    HW220472   3.043   2.759   1.703
 6525SOL     OW20473   2.234   5.699   3.067
 6525SOL    HW120474   2.180   5.722   3.148
 6525SOL    HW220475   2.327   5.735   3.077
 6526SOL     OW20476   0.472   6.883   1.023
 6526SOL    HW120477   0.390   6.940   1.009
 6526SOL    HW220478   0.504   6.848   0.936
 6527SOL     OW20479   0.261   2.010   0.359
 6527SOL    HW120480   0.241   1.943   0.431
 6527SOL    HW220481   0.313   2.086   0.397
 6528SOL     OW20482   6.773   1.656   6.367
 6528SOL    HW120483   6.778   1.755   6.379
 6528SOL    HW220484   6.680   1.625   6.388
 6529SOL     OW20485   0.449   0.664   2.803
 6529SOL    HW120486   0.399   0.597   2.747
 6529SOL    HW220487   0.438   0.755   2.762
 6530SOL     OW20488   0.492   2.196   1.654
 6530SOL    HW120489   0.581   2.242   1.657
 6530SOL    HW220490   0.443   2.215   1.739
 6531SOL     OW20491   4.146   3.350   5.524
 6531SOL    HW120492   4.188   3.435   5.554
 6531SOL    HW220493   4.152   3.343   5.425
 6532SOL     OW20494   1.771   1.486   0.669
 6532SOL    HW120495   1.745   1.477   0.573
 6532SOL    HW220496   1.711   1.429   0.725
 6533SOL     OW20497   4.101   5.787   0.173
 6533SOL    HW120498   4.029   5.847   0.208
 6533SOL    HW220499   4.108   5.797   0.073
 6534SOL     OW20500   5.187   4.788   1.681
 6534SOL    HW120501   5.212   4.692   1.683
 6534SOL    HW220502   5.239   4.835   1.609
 6535SOL     OW20503   5.798   4.170   4.504
 6535SOL    HW120504   5.765   4.132   4.417
 6535SOL    HW220505   5.752   4.257   4.521
 6536SOL     OW20506   0.329   2.164   5.469
 6536SOL    HW120507   0.247   2.199   5.424
 6536SOL    HW220508   0.353   2.223   5.546
 6537SOL     OW20509   6.791   4.798   4.534
 6537SOL    HW120510   6.819   4.752   4.618
 6537SOL    HW220511   6.816   4.742   4.455
 6538SOL     OW20512   1.677   3.793   5.604
 6538SOL    HW120513   1.652   3.748   5.518
 6538SOL    HW220514   1.741   3.734   5.654
 6539SOL     OW20515   5.154   0.441   6.913
 6539SOL    HW120516   5.151   0.362   6.852
 6539SOL    HW220517   5.068   0.492   6.905
 6540SOL     OW20518   1.933   2.797   6.284
 6540SOL    HW120519   1.951   2.895   6.294
 6540SOL    HW220520   1.835   2.783   6.264
 6541SOL     OW20521   4.908   2.408   5.685
 6541SOL    HW120522   4.829   2.433   5.742
 6541SOL    HW220523   4.976   2.362   5.742
 6542SOL     OW20524   1.028   3.494   4.599
 6542SOL    HW120525   0.973   3.576   4.586
 6542SOL    HW220526   1.124   3.519   4.615
 6543SOL     OW20527   3.683   2.478   5.422
 6543SOL    HW120528   3.752   2.415   5.385
 6543SOL    HW220529   3.593   2.434   5.418
 6544SOL     OW20530   0.348   6.493   2.379
 6544SOL    HW120531   0.303   6.490   2.290
 6544SOL    HW220532   0.289   6.450   2.448
 6545SOL     OW20533   4.321   6.738   0.651
 6545SOL    HW120534   4.402   6.763   0.704
 6545SOL    HW220535   4.294   6.645   0.674
 6546SOL     OW20536   4.194   4.423   0.065
 6546SOL    HW120537   4.097   4.428   0.087
 6546SOL    HW220538   4.225   4.511   0.028
 6547SOL     OW20539   4.349   0.417   5.788
 6547SOL    HW120540   4.318   0.325   5.811
 6547SOL    HW220541   4.315   0.443   5.698
 6548SOL     OW20542   0.912   2.880   6.558
 6548SOL    HW120543   0.911   2.946   6.633
 6548SOL    HW220544   0.870   2.921   6.477
 6549SOL     OW20545   4.556   0.386   2.026
 6549SOL    HW120546   4.620   0.359   2.098
 6549SOL    HW220547   4.482   0.319   2.020
 6550SOL     OW20548   6.930   0.050   3.824
 6550SOL    HW120549   6.995   0.071   3.897
 6550SOL    HW220550   6.898   6.976   3.835
 6551SOL     OW20551   2.740   3.537   1.628
 6551SOL    HW120552   2.703   3.630   1.631
 6551SOL    HW220553   2.840   3.541   1.626
 6552SOL     OW20554   2.236   0.118   0.435
 6552SOL    HW120555   2.330   0.084   0.434
 6552SOL    HW220556   2.235   0.210   0.474
 6553SOL     OW20557   1.168   1.480   2.837
 6553SOL    HW120558   1.215   1.548   2.892
 6553SOL    HW220559   1.183   1.389   2.877
 6554SOL     OW20560   2.595   0.953   5.262
 6554SOL    HW120561   2.613   0.874   5.320
 6554SOL    HW220562   2.568   1.031   5.319
 6555SOL     OW20563   5.871   1.986   3.946
 6555SOL    HW120564   5.875   2.078   3.985
 6555SOL    HW220565   5.816   1.927   4.005
 6556SOL     OW20566   6.215   3.377   2.472
 6556SOL    HW120567   6.128   3.395   2.425
 6556SOL    HW220568   6.291   3.397   2.410
 6557SOL     OW20569   2.253   0.414   2.307
 6557SOL    HW120570   2.229   0.509   2.288
 6557SOL    HW220571   2.348   0.410   2.339
 6558SOL     OW20572   5.718   5.528   0.185
 6558SOL    HW120573   5.782   5.505   0.258
 6558SOL    HW220574   5.717   5.455   0.117
 6559SOL     OW20575   0.081   3.638   6.235
 6559SOL    HW120576   0.048   3.721   6.191
 6559SOL    HW220577   0.134   3.584   6.169
 6560SOL     OW20578   3.888   4.630   0.538
 6560SOL    HW120579   3.914   4.692   0.613
 6560SOL    HW220580   3.788   4.624   0.534
 6561SOL     OW20581   4.132   4.477   0.988
 6561SOL    HW120582   4.032   4.479   0.993
 6561SOL    HW220583   4.164   4.387   1.017
 6562SOL     OW20584   5.301   2.426   1.249
 6562SOL    HW120585   5.329   2.363   1.321
 6562SOL    HW220586   5.334   2.518   1.271
 6563SOL     OW20587   5.012   0.654   5.874
 6563SOL    HW120588   5.084   0.602   5.921
 6563SOL    HW220589   4.937   0.592   5.850
 6564SOL     OW20590   6.156   3.462   1.943
 6564SOL    HW120591   6.067   3.418   1.931
 6564SOL    HW220592   6.165   3.538   1.878
 6565SOL     OW20593   6.374   6.297   2.998
 6565SOL    HW120594   6.369   6.371   3.065
 6565SOL    HW220595   6.460   6.305   2.946
 6566SOL     OW20596   3.348   5.279   2.018
 6566SOL    HW120597   3.289   5.254   1.941
 6566SOL    HW220598   3.443   5.259   1.994
 6567SOL     OW20599   4.382   0.839   1.559
 6567SOL    HW120600   4.397   0.918   1.500
 6567SOL    HW220601   4.469   0.806   1.595
 6568SOL     OW20602   3.941   2.198   2.880
 6568SOL    HW120603   3.974   2.207   2.974
 6568SOL    HW220604   3.931   2.289   2.840
 6569SOL     OW20605   1.045   3.515   6.336
 6569SOL    HW120606   1.032   3.432   6.391
 6569SOL    HW220607   1.117   3.498   6.269
 6570SOL     OW20608   4.163   1.052   2.712
 6570SOL    HW120609   4.100   0.975   2.721
 6570SOL    HW220610   4.116   1.137   2.738
 6571SOL     OW20611   2.995   4.819   2.520
 6571SOL    HW120612   3.004   4.828   2.421
 6571SOL    HW220613   2.899   4.802   2.543
 6572SOL     OW20614   0.525   3.587   4.534
 6572SOL    HW120615   0.575   3.578   4.620
 6572SOL    HW220616   0.580   3.638   4.468
 6573SOL     OW20617   1.137   1.355   3.326
 6573SOL    HW120618   1.088   1.322   3.245
 6573SOL    HW220619   1.225   1.395   3.298
 6574SOL     OW20620   2.566   6.395   3.685
 6574SOL    HW120621   2.519   6.439   3.608
 6574SOL    HW220622   2.523   6.424   3.770
 6575SOL     OW20623   0.622   6.416   3.050
 6575SOL    HW120624   0.719   6.395   3.054
 6575SOL    HW220625   0.608   6.514   3.069
 6576SOL     OW20626   3.116   5.385   0.525
 6576SOL    HW120627   3.032   5.335   0.547
 6576SOL    HW220628   3.174   5.328   0.467
 6577SOL     OW20629   1.850   2.075   3.848
 6577SOL    HW120630   1.820   2.095   3.754
 6577SOL    HW220631   1.901   2.153   3.884
 6578SOL     OW20632   0.638   5.886   1.899
 6578SOL    HW120633   0.700   5.956   1.935
 6578SOL    HW220634   0.667   5.860   1.807
 6579SOL     OW20635   6.933   2.006   3.926
 6579SOL    HW120636   0.010   1.990   3.941
 6579SOL    HW220637   6.896   2.059   4.002
 6580SOL     OW20638   0.937   1.327   0.854
 6580SOL    HW120639   1.013   1.356   0.913
 6580SOL    HW220640   0.863   1.290   0.911
 6581SOL     OW20641   1.638   0.888   0.488
 6581SOL    HW120642   1.648   0.880   0.389
 6581SOL    HW220643   1.705   0.953   0.523
 6582SOL     OW20644   6.434   0.397   3.017
 6582SOL    HW120645   6.523   0.425   2.982
 6582SOL    HW220646   6.417   0.301   2.992
 6583SOL     OW20647   5.123   6.382   5.231
 6583SOL    HW120648   5.188   6.458   5.227
 6583SOL    HW220649   5.070   6.388   5.315
 6584SOL     OW20650   3.403   2.518   0.660
 6584SOL    HW120651   3.346   2.573   0.599
 6584SOL    HW220652   3.398   2.554   0.753
 6585SOL     OW20653   0.000   6.661   0.115
 6585SOL    HW120654   7.008   6.743   0.170
 6585SOL    HW220655   6.940   6.646   0.058
 6586SOL     OW20656   6.620   1.798   6.124
 6586SOL    HW120657   6.591   1.748   6.043
 6586SOL    HW220658   6.678   1.739   6.180
 6587SOL     OW20659   1.148   4.957   6.374
 6587SOL    HW120660   1.232   4.910   6.349
 6587SOL    HW220661   1.069   4.898   6.354
 6588SOL     OW20662   0.682   3.400   1.009
 6588SOL    HW120663   0.709   3.346   0.929
 6588SOL    HW220664   0.651   3.491   0.979
 6589SOL     OW20665   5.018   1.147   2.441
 6589SOL    HW120666   5.109   1.107   2.444
 6589SOL    HW220667   4.976   1.129   2.352
 6590SOL     OW20668   0.241   0.314   5.381
 6590SOL    HW120669   0.238   0.349   5.474
 6590SOL    HW220670   0.302   0.371   5.326
 6591SOL     OW20671   5.221   6.166   3.646
 6591SOL    HW120672   5.198   6.258   3.678
 6591SOL    HW220673   5.161   6.141   3.571
 6592SOL     OW20674   5.260   0.443   3.098
 6592SOL    HW120675   5.193   0.488   3.157
 6592SOL    HW220676   5.351   0.480   3.118
 6593SOL     OW20677   2.855   2.133   2.330
 6593SOL    HW120678   2.901   2.126   2.241
 6593SOL    HW220679   2.777   2.195   2.321
 6594SOL     OW20680   3.711   1.694   5.979
 6594SOL    HW120681   3.794   1.656   5.938
 6594SOL    HW220682   3.736   1.749   6.059
 6595SOL     OW20683   1.216   2.987   5.137
 6595SOL    HW120684   1.219   2.964   5.235
 6595SOL    HW220685   1.291   2.941   5.090
 6596SOL     OW20686   3.678   6.426   3.451
 6596SOL    HW120687   3.644   6.456   3.362
 6596SOL    HW220688   3.679   6.503   3.515
 6597SOL     OW20689   1.584   5.281   1.834
 6597SOL    HW120690   1.599   5.224   1.753
 6597SOL    HW220691   1.584   5.223   1.916
 6598SOL     OW20692   1.852   4.278   3.967
 6598SOL    HW120693   1.952   4.288   3.974
 6598SOL    HW220694   1.823   4.294   3.873
 6599SOL     OW20695   4.873   6.299   0.198
 6599SOL    HW120696   4.827   6.231   0.141
 6599SOL    HW220697   4.968   6.311   0.167
 6600SOL     OW20698   3.958   6.785   4.438
 6600SOL    HW120699   4.049   6.804   4.475
 6600SOL    HW220700   3.892   6.780   4.513
 6601SOL     OW20701   0.442   2.275   3.351
 6601SOL    HW120702   0.527   2.321   3.375
 6601SOL    HW220703   0.427   2.282   3.252
 6602SOL     OW20704   2.414   0.148   1.129
 6602SOL    HW120705   2.483   0.131   1.198
 6602SOL    HW220706   2.408   0.069   1.067
 6603SOL     OW20707   1.011   2.999   3.772
 6603SOL    HW120708   1.063   2.914   3.780
 6603SOL    HW220709   0.957   3.012   3.856
 6604SOL     OW20710   1.750   0.467   1.219
 6604SOL    HW120711   1.724   0.426   1.131
 6604SOL    HW220712   1.736   0.566   1.215
 6605SOL     OW20713   5.750   5.852   2.251
 6605SOL    HW120714   5.704   5.936   2.278
 6605SOL    HW220715   5.840   5.848   2.296
 6606SOL     OW20716   6.994   4.650   2.877
 6606SOL    HW120717   6.926   4.613   2.940
 6606SOL    HW220718   6.954   4.724   2.823
 6607SOL     OW20719   6.482   5.360   3.752
 6607SOL    HW120720   6.446   5.357   3.659
 6607SOL    HW220721   6.483   5.268   3.791
 6608SOL     OW20722   6.743   0.463   0.900
 6608SOL    HW120723   6.662   0.514   0.928
 6608SOL    HW220724   6.721   0.408   0.819
 6609SOL     OW20725   5.092   1.507   6.044
 6609SOL    HW120726   5.074   1.595   6.088
 6609SOL    HW220727   5.074   1.433   6.109
 6610SOL     OW20728   2.661   6.383   0.166
 6610SOL    HW120729   2.605   6.328   0.105
 6610SOL    HW220730   2.636   6.479   0.156
 6611SOL     OW20731   5.261   2.928   3.388
 6611SOL    HW120732   5.223   3.021   3.384
 6611SOL    HW220733   5.264   2.889   3.295
 6612SOL     OW20734   6.648   2.333   6.135
 6612SOL    HW120735   6.620   2.392   6.059
 6612SOL    HW220736   6.632   2.237   6.110
 6613SOL     OW20737   5.584   0.246   5.952
 6613SOL    HW120738   5.630   0.167   5.912
 6613SOL    HW220739   5.593   0.325   5.891
 6614SOL     OW20740   4.945   6.925   0.589
 6614SOL    HW120741   5.028   6.948   0.538
 6614SOL    HW220742   4.946   6.828   0.614
 6615SOL     OW20743   2.343   5.456   0.455
 6615SOL    HW120744   2.337   5.365   0.412
 6615SOL    HW220745   2.374   5.522   0.387
 6616SOL     OW20746   4.553   0.183   6.068
 6616SOL    HW120747   4.642   0.150   6.037
 6616SOL    HW220748   4.489   0.182   5.991
 6617SOL     OW20749   4.284   6.161   3.446
 6617SOL    HW120750   4.354   6.169   3.516
 6617SOL    HW220751   4.268   6.250   3.403
 6618SOL     OW20752   0.958   1.149   2.789
 6618SOL    HW120753   1.007   1.086   2.849
 6618SOL    HW220754   0.884   1.194   2.840
 6619SOL     OW20755   4.430   0.059   3.676
 6619SOL    HW120756   4.442   0.108   3.761
 6619SOL    HW220757   4.494   0.092   3.607
 6620SOL     OW20758   2.099   3.622   4.261
 6620SOL    HW120759   2.090   3.657   4.354
 6620SOL    HW220760   2.156   3.540   4.261
 6621SOL     OW20761   3.899   2.856   5.249
 6621SOL    HW120762   3.829   2.871   5.180
 6621SOL    HW220763   3.952   2.940   5.262
 6622SOL     OW20764   6.382   6.022   2.139
 6622SOL    HW120765   6.364   5.928   2.168
 6622SOL    HW220766   6.475   6.047   2.166
 6623SOL     OW20767   3.557   4.128   4.940
 6623SOL    HW120768   3.582   4.057   5.006
 6623SOL    HW220769   3.511   4.203   4.988
 6624SOL     OW20770   0.853   3.751   5.803
 6624SOL    HW120771   0.851   3.652   5.789
 6624SOL    HW220772   0.948   3.783   5.802
 6625SOL     OW20773   5.525   2.100   5.096
 6625SOL    HW120774   5.430   2.130   5.110
 6625SOL    HW220775   5.577   2.173   5.052
 6626SOL     OW20776   3.072   6.646   5.682
 6626SOL    HW120777   3.030   6.734   5.660
 6626SOL    HW220778   3.012   6.595   5.744
 6627SOL     OW20779   1.726   6.317   3.974
 6627SOL    HW120780   1.741   6.355   4.065
 6627SOL    HW220781   1.631   6.286   3.967
 6628SOL     OW20782   4.994   4.724   3.842
 6628SOL    HW120783   4.969   4.735   3.746
 6628SOL    HW220784   5.043   4.806   3.873
 6629SOL     OW20785   4.284   5.456   6.526
 6629SOL    HW120786   4.381   5.477   6.540
 6629SOL    HW220787   4.237   5.457   6.614
 6630SOL     OW20788   3.317   1.341   2.019
 6630SOL    HW120789   3.244   1.284   1.980
 6630SOL    HW220790   3.296   1.437   2.003
 6631SOL     OW20791   2.177   5.586   4.281
 6631SOL    HW120792   2.220   5.664   4.325
 6631SOL    HW220793   2.154   5.610   4.186
 6632SOL     OW20794   1.522   1.209   1.064
 6632SOL    HW120795   1.591   1.217   1.136
 6632SOL    HW220796   1.431   1.202   1.105
 6633SOL     OW20797   2.668   5.002   6.073
 6633SOL    HW120798   2.729   4.936   6.118
 6633SOL    HW220799   2.672   5.089   6.122
 6634SOL     OW20800   4.740   1.955   4.924
 6634SOL    HW120801   4.815   2.016   4.898
 6634SOL    HW220802   4.747   1.870   4.872
 6635SOL     OW20803   4.895   4.080   3.276
 6635SOL    HW120804   4.890   3.984   3.247
 6635SOL    HW220805   4.979   4.120   3.240
 6636SOL     OW20806   3.236   1.912   1.248
 6636SOL    HW120807   3.289   1.980   1.199
 6636SOL    HW220808   3.297   1.846   1.292
 6637SOL     OW20809   2.836   0.231   6.441
 6637SOL    HW120810   2.842   0.149   6.499
 6637SOL    HW220811   2.893   0.218   6.360
 6638SOL     OW20812   3.220   3.632   2.932
 6638SOL    HW120813   3.217   3.653   3.030
 6638SOL    HW220814   3.235   3.534   2.919
 6639SOL     OW20815   3.560   3.498   6.364
 6639SOL    HW120816   3.616   3.580   6.375
 6639SOL    HW220817   3.525   3.493   6.270
 6640SOL     OW20818   6.815   2.432   5.212
 6640SOL    HW120819   6.811   2.347   5.160
 6640SOL    HW220820   6.840   2.508   5.151
 6641SOL     OW20821   3.689   1.636   0.268
 6641SOL    HW120822   3.780   1.595   0.266
 6641SOL    HW220823   3.627   1.577   0.320
 6642SOL     OW20824   2.181   5.194   6.287
 6642SOL    HW120825   2.084   5.174   6.270
 6642SOL    HW220826   2.238   5.136   6.230
 6643SOL     OW20827   6.550   6.816   0.775
 6643SOL    HW120828   6.583   6.748   0.840
 6643SOL    HW220829   6.508   6.770   0.696
 6644SOL     OW20830   1.754   5.795   3.435
 6644SOL    HW120831   1.724   5.720   3.494
 6644SOL    HW220832   1.776   5.875   3.491
 6645SOL     OW20833   6.104   3.087   0.538
 6645SOL    HW120834   6.088   3.014   0.604
 6645SOL    HW220835   6.036   3.083   0.465
 6646SOL     OW20836   4.656   0.846   5.880
 6646SOL    HW120837   4.608   0.761   5.900
 6646SOL    HW220838   4.708   0.836   5.795
 6647SOL     OW20839   4.361   6.574   1.131
 6647SOL    HW120840   4.292   6.602   1.064
 6647SOL    HW220841   4.382   6.650   1.192
 6648SOL     OW20842   3.091   5.883   4.684
 6648SOL    HW120843   3.034   5.898   4.764
 6648SOL    HW220844   3.188   5.892   4.710
 6649SOL     OW20845   5.879   3.015   6.295
 6649SOL    HW120846   5.951   2.953   6.324
 6649SOL    HW220847   5.919   3.102   6.266
 6650SOL     OW20848   3.961   1.489   4.962
 6650SOL    HW120849   3.950   1.571   4.905
 6650SOL    HW220850   4.009   1.418   4.910
 6651SOL     OW20851   1.703   2.030   6.646
 6651SOL    HW120852   1.661   2.120   6.655
 6651SOL    HW220853   1.798   2.041   6.617
 6652SOL     OW20854   0.680   4.630   7.015
 6652SOL    HW120855   0.750   4.603   0.060
 6652SOL    HW220856   0.662   4.554   6.952
 6653SOL     OW20857   4.918   2.849   0.916
 6653SOL    HW120858   4.833   2.828   0.965
 6653SOL    HW220859   4.913   2.942   0.880
 6654SOL     OW20860   0.334   5.226   2.655
 6654SOL    HW120861   0.304   5.283   2.579
 6654SOL    HW220862   0.428   5.195   2.638
 6655SOL     OW20863   0.084   6.095   2.343
 6655SOL    HW120864   0.067   6.096   2.442
 6655SOL    HW220865   0.181   6.074   2.327
 6656SOL     OW20866   5.322   2.334   3.097
 6656SOL    HW120867   5.261   2.261   3.065
 6656SOL    HW220868   5.417   2.306   3.085
 6657SOL     OW20869   5.886   2.955   4.620
 6657SOL    HW120870   5.825   2.973   4.543
 6657SOL    HW220871   5.831   2.932   4.701
 6658SOL     OW20872   6.290   0.079   5.838
 6658SOL    HW120873   6.316   0.170   5.804
 6658SOL    HW220874   6.251   0.026   5.763
 6659SOL     OW20875   1.008   3.614   1.740
 6659SOL    HW120876   0.957   3.621   1.654
 6659SOL    HW220877   1.053   3.701   1.760
 6660SOL     OW20878   1.860   5.327   1.466
 6660SOL    HW120879   1.945   5.324   1.518
 6660SOL    HW220880   1.815   5.415   1.479
 6661SOL     OW20881   2.743   0.731   4.711
 6661SOL    HW120882   2.836   0.767   4.721
 6661SOL    HW220883   2.684   0.802   4.672
 6662SOL     OW20884   2.018   0.892   0.626
 6662SOL    HW120885   2.000   0.930   0.535
 6662SOL    HW220886   1.982   0.799   0.631
 6663SOL     OW20887   0.557   6.635   4.824
 6663SOL    HW120888   0.581   6.643   4.728
 6663SOL    HW220889   0.611   6.562   4.866
 6664SOL     OW20890   2.227   0.575   0.832
 6664SOL    HW120891   2.190   0.566   0.924
 6664SOL    HW220892   2.269   0.489   0.804
 6665SOL     OW20893   1.609   6.588   5.606
 6665SOL    HW120894   1.605   6.678   5.651
 6665SOL    HW220895   1.695   6.579   5.557
 6666SOL     OW20896   6.256   5.233   5.494
 6666SOL    HW120897   6.250   5.243   5.395
 6666SOL    HW220898   6.335   5.283   5.528
 6667SOL     OW20899   6.732   6.358   5.892
 6667SOL    HW120900   6.750   6.430   5.824
 6667SOL    HW220901   6.811   6.347   5.951
 6668SOL     OW20902   6.735   6.140   1.130
 6668SOL    HW120903   6.756   6.082   1.051
 6668SOL    HW220904   6.815   6.195   1.154
 6669SOL     OW20905   3.888   2.172   1.377
 6669SOL    HW120906   3.806   2.185   1.431
 6669SOL    HW220907   3.867   2.115   1.297
 6670SOL     OW20908   3.659   0.778   6.348
 6670SOL    HW120909   3.570   0.803   6.386
 6670SOL    HW220910   3.724   0.763   6.423
 6671SOL     OW20911   5.769   6.548   0.036
 6671SOL    HW120912   5.720   6.468   0.070
 6671SOL    HW220913   5.841   6.519   6.993
 6672SOL     OW20914   1.240   2.717   0.222
 6672SOL    HW120915   1.336   2.690   0.216
 6672SOL    HW220916   1.188   2.673   0.149
 6673SOL     OW20917   4.733   4.290   3.625
 6673SOL    HW120918   4.664   4.362   3.638
 6673SOL    HW220919   4.733   4.261   3.529
 6674SOL     OW20920   0.498   3.392   6.821
 6674SOL    HW120921   0.528   3.366   6.913
 6674SOL    HW220922   0.479   3.490   6.819
 6675SOL     OW20923   6.256   2.369   0.345
 6675SOL    HW120924   6.213   2.440   0.401
 6675SOL    HW220925   6.352   2.361   0.370
 6676SOL     OW20926   0.538   3.329   3.065
 6676SOL    HW120927   0.618   3.381   3.036
 6676SOL    HW220928   0.467   3.393   3.096
 6677SOL     OW20929   0.717   1.129   6.692
 6677SOL    HW120930   0.626   1.146   6.729
 6677SOL    HW220931   0.710   1.094   6.599
 6678SOL     OW20932   2.410   4.861   0.874
 6678SOL    HW120933   2.404   4.941   0.814
 6678SOL    HW220934   2.412   4.890   0.969
 6679SOL     OW20935   3.795   1.055   3.937
 6679SOL    HW120936   3.861   1.067   3.863
 6679SOL    HW220937   3.837   1.001   4.010
 6680SOL     OW20938   4.542   6.458   6.423
 6680SOL    HW120939   4.511   6.375   6.470
 6680SOL    HW220940   4.627   6.491   6.465
 6681SOL     OW20941   4.922   5.437   1.145
 6681SOL    HW120942   4.911   5.343   1.178
 6681SOL    HW220943   4.833   5.482   1.141
 6682SOL     OW20944   2.324   4.885   6.876
 6682SOL    HW120945   2.375   4.820   6.932
 6682SOL    HW220946   2.276   4.835   6.804
 6683SOL     OW20947   5.871   3.298   5.997
 6683SOL    HW120948   5.915   3.312   5.908
 6683SOL    HW220949   5.799   3.229   5.988
 6684SOL     OW20950   3.931   6.526   2.217
 6684SOL    HW120951   3.881   6.610   2.238
 6684SOL    HW220952   4.025   6.548   2.192
 6685SOL     OW20953   5.093   2.527   6.078
 6685SOL    HW120954   5.192   2.543   6.088
 6685SOL    HW220955   5.072   2.434   6.110
 6686SOL     OW20956   5.947   5.863   3.920
 6686SOL    HW120957   5.981   5.872   4.014
 6686SOL    HW220958   5.858   5.908   3.912
 6687SOL     OW20959   0.707   2.636   1.944
 6687SOL    HW120960   0.686   2.729   1.976
 6687SOL    HW220961   0.806   2.623   1.945
 6688SOL     OW20962   4.087   4.410   0.504
 6688SOL    HW120963   4.043   4.499   0.514
 6688SOL    HW220964   4.143   4.410   0.422
 6689SOL     OW20965   4.282   3.404   6.074
 6689SOL    HW120966   4.298   3.467   5.998
 6689SOL    HW220967   4.345   3.327   6.066
 6690SOL     OW20968   0.962   6.687   0.358
 6690SOL    HW120969   0.895   6.730   0.298
 6690SOL    HW220970   0.966   6.588   0.339
 6691SOL     OW20971   1.978   0.282   2.314
 6691SOL    HW120972   2.076   0.298   2.309
 6691SOL    HW220973   1.944   0.312   2.403
 6692SOL     OW20974   4.182   3.977   1.660
 6692SOL    HW120975   4.281   3.993   1.666
 6692SOL    HW220976   4.164   3.879   1.652
 6693SOL     OW20977   4.255   2.028   4.828
 6693SOL    HW120978   4.235   2.098   4.760
 6693SOL    HW220979   4.349   2.039   4.860
 6694SOL     OW20980   4.494   6.578   1.427
 6694SOL    HW120981   4.444   6.648   1.479
 6694SOL    HW220982   4.430   6.514   1.387
 6695SOL     OW20983   2.535   2.227   6.847
 6695SOL    HW120984   2.463   2.158   6.849
 6695SOL    HW220985   2.548   2.259   6.754
 6696SOL     OW20986   3.757   2.973   3.544
 6696SOL    HW120987   3.662   3.002   3.533
 6696SOL    HW220988   3.778   2.966   3.642
 6697SOL     OW20989   4.721   2.385   3.268
 6697SOL    HW120990   4.801   2.431   3.307
 6697SOL    HW220991   4.732   2.286   3.278
 6698SOL     OW20992   3.625   3.284   0.903
 6698SOL    HW120993   3.590   3.242   0.987
 6698SOL    HW220994   3.579   3.243   0.824
 6699SOL     OW20995   2.181   6.927   5.245
 6699SOL    HW120996   2.103   6.880   5.204
 6699SOL    HW220997   2.148   7.004   5.299
 6700SOL     OW20998   6.349   1.413   1.149
 6700SOL    HW120999   6.409   1.457   1.082
 6700SOL    HW221000   6.287   1.481   1.187
 6701SOL     OW21001   5.455   6.119   1.600
 6701SOL    HW121002   5.376   6.058   1.611
 6701SOL    HW221003   5.491   6.142   1.690
 6702SOL     OW21004   1.995   2.386   2.121
 6702SOL    HW121005   2.053   2.445   2.066
 6702SOL    HW221006   1.934   2.442   2.178
 6703SOL     OW21007   0.889   1.128   0.330
 6703SOL    HW121008   0.883   1.171   0.239
 6703SOL    HW221009   0.973   1.075   0.336
 6704SOL     OW21010   3.922   2.125   4.518
 6704SOL    HW121011   3.903   2.155   4.425
 6704SOL    HW221012   4.016   2.150   4.544
 6705SOL     OW21013   5.954   2.858   0.664
 6705SOL    HW121014   5.883   2.857   0.593
 6705SOL    HW221015   5.928   2.795   0.737
 6706SOL     OW21016   1.624   5.841   0.344
 6706SOL    HW121017   1.686   5.841   0.422
 6706SOL    HW221018   1.646   5.763   0.284
 6707SOL     OW21019   5.163   6.744   3.418
 6707SOL    HW121020   5.085   6.747   3.482
 6707SOL    HW221021   5.245   6.777   3.464
 6708SOL     OW21022   5.650   5.385   1.235
 6708SOL    HW121023   5.664   5.407   1.332
 6708SOL    HW221024   5.686   5.294   1.216
 6709SOL     OW21025   0.303   5.421   3.228
 6709SOL    HW121026   0.308   5.328   3.266
 6709SOL    HW221027   0.348   5.485   3.291
 6710SOL     OW21028   4.475   0.751   0.058
 6710SOL    HW121029   4.452   0.848   0.069
 6710SOL    HW221030   4.417   0.711   7.007
 6711SOL     OW21031   4.953   6.661   5.816
 6711SOL    HW121032   5.033   6.610   5.784
 6711SOL    HW221033   4.883   6.659   5.745
 6712SOL     OW21034   5.968   3.231   1.211
 6712SOL    HW121035   6.030   3.153   1.222
 6712SOL    HW221036   5.930   3.256   1.300
 6713SOL     OW21037   1.094   0.710   3.067
 6713SOL    HW121038   1.050   0.621   3.055
 6713SOL    HW221039   1.029   0.773   3.111
 6714SOL     OW21040   5.749   1.548   0.670
 6714SOL    HW121041   5.662   1.597   0.666
 6714SOL    HW221042   5.816   1.602   0.721
 6715SOL     OW21043   1.823   6.960   1.033
 6715SOL    HW121044   1.814   6.942   1.131
 6715SOL    HW221045   1.889   0.013   1.019
 6716SOL     OW21046   0.213   5.560   2.271
 6716SOL    HW121047   0.262   5.640   2.306
 6716SOL    HW221048   0.237   5.546   2.175
 6717SOL     OW21049   2.052   2.399   6.210
 6717SOL    HW121050   1.982   2.371   6.276
 6717SOL    HW221051   2.142   2.385   6.251
 6718SOL     OW21052   4.659   0.225   1.128
 6718SOL    HW121053   4.617   0.295   1.069
 6718SOL    HW221054   4.656   0.137   1.082
 6719SOL     OW21055   2.304   6.756   0.127
 6719SOL    HW121056   2.270   6.799   0.210
 6719SOL    HW221057   2.281   6.814   0.048
 6720SOL     OW21058   2.373   0.953   4.270
 6720SOL    HW121059   2.452   0.938   4.210
 6720SOL    HW221060   2.331   1.041   4.248
 6721SOL     OW21061   6.910   6.691   0.779
 6721SOL    HW121062   6.847   6.726   0.848
 6721SOL    HW221063   6.904   6.591   0.775
 6722SOL     OW21064   0.027   2.886   6.906
 6722SOL    HW121065   0.030   2.788   6.921
 6722SOL    HW221066   6.957   2.921   6.932
 6723SOL     OW21067   1.429   6.791   5.382
 6723SOL    HW121068   1.410   6.793   5.480
 6723SOL    HW221069   1.528   6.794   5.367
 6724SOL     OW21070   2.191   2.662   6.242
 6724SOL    HW121071   2.135   2.741   6.265
 6724SOL    HW221072   2.132   2.585   6.217
 6725SOL     OW21073   6.720   2.220   2.287
 6725SOL    HW121074   6.667   2.167   2.222
 6725SOL    HW221075   6.698   2.317   2.276
 6726SOL     OW21076   0.349   2.159   3.903
 6726SOL    HW121077   0.433   2.107   3.915
 6726SOL    HW221078   0.318   2.152   3.808
 6727SOL     OW21079   0.145   4.468   6.169
 6727SOL    HW121080   0.154   4.563   6.200
 6727SOL    HW221081   0.049   4.449   6.149
 6728SOL     OW21082   4.218   2.031   2.669
 6728SOL    HW121083   4.151   2.087   2.620
 6728SOL    HW221084   4.223   1.941   2.627
 6729SOL     OW21085   6.966   1.600   0.693
 6729SOL    HW121086   6.939   1.674   0.754
 6729SOL    HW221087   0.034   1.563   0.722
 6730SOL     OW21088   1.972   0.111   0.884
 6730SOL    HW121089   2.043   0.171   0.922
 6730SOL    HW221090   1.997   0.082   0.792
 6731SOL     OW21091   1.277   0.110   0.911
 6731SOL    HW121092   1.223   0.043   0.859
 6731SOL    HW221093   1.357   0.065   0.950
 6732SOL     OW21094   5.236   4.777   4.626
 6732SOL    HW121095   5.298   4.706   4.595
 6732SOL    HW221096   5.255   4.800   4.721
 6733SOL     OW21097   3.839   5.697   5.926
 6733SOL    HW121098   3.815   5.622   5.987
 6733SOL    HW221099   3.787   5.689   5.841
 6734SOL     OW21100   5.381   2.254   6.120
 6734SOL    HW121101   5.462   2.218   6.167
 6734SOL    HW221102   5.334   2.181   6.072
 6735SOL     OW21103   5.893   3.403   4.152
 6735SOL    HW121104   5.959   3.420   4.225
 6735SOL    HW221105   5.844   3.487   4.131
 6736SOL     OW21106   3.486   3.649   6.088
 6736SOL    HW121107   3.389   3.641   6.063
 6736SOL    HW221108   3.501   3.735   6.137
 6737SOL     OW21109   1.607   3.233   1.166
 6737SOL    HW121110   1.702   3.250   1.142
 6737SOL    HW221111   1.551   3.226   1.083
 6738SOL     OW21112   1.773   5.583   4.430
 6738SOL    HW121113   1.686   5.617   4.394
 6738SOL    HW221114   1.846   5.646   4.404
 6739SOL     OW21115   5.971   5.890   4.220
 6739SOL    HW121116   6.030   5.951   4.274
 6739SOL    HW221117   5.878   5.895   4.256
 6740SOL     OW21118   6.278   0.572   5.701
 6740SOL    HW121119   6.353   0.591   5.764
 6740SOL    HW221120   6.261   0.652   5.644
 6741SOL     OW21121   3.397   2.190   5.604
 6741SOL    HW121122   3.376   2.258   5.533
 6741SOL    HW221123   3.439   2.110   5.561
 6742SOL     OW21124   5.216   5.728   3.536
 6742SOL    HW121125   5.308   5.710   3.570
 6742SOL    HW221126   5.196   5.825   3.542
 6743SOL     OW21127   3.830   3.808   6.311
 6743SOL    HW121128   3.864   3.885   6.258
 6743SOL    HW221129   3.800   3.736   6.249
 6744SOL     OW21130   0.456   6.451   5.111
 6744SOL    HW121131   0.415   6.532   5.069
 6744SOL    HW221132   0.549   6.472   5.140
 6745SOL     OW21133   6.624   6.121   3.840
 6745SOL    HW121134   6.690   6.180   3.794
 6745SOL    HW221135   6.658   6.026   3.837
 6746SOL     OW21136   0.967   0.026   3.558
 6746SOL    HW121137   1.039   0.091   3.535
 6746SOL    HW221138   0.974   6.965   3.500
 6747SOL     OW21139   6.115   0.272   0.263
 6747SOL    HW121140   6.022   0.281   0.297
 6747SOL    HW221141   6.132   0.340   0.191
 6748SOL     OW21142   3.582   1.742   3.109
 6748SOL    HW121143   3.649   1.811   3.137
 6748SOL    HW221144   3.571   1.744   3.010
 6749SOL     OW21145   4.226   4.161   1.001
 6749SOL    HW121146   4.285   4.080   1.004
 6749SOL    HW221147   4.161   4.159   1.076
 6750SOL     OW21148   2.915   1.828   4.574
 6750SOL    HW121149   2.877   1.906   4.624
 6750SOL    HW221150   2.984   1.861   4.509
 6751SOL     OW21151   4.540   0.674   3.603
 6751SOL    HW121152   4.485   0.710   3.528
 6751SOL    HW221153   4.549   0.744   3.674
 6752SOL     OW21154   1.948   0.377   2.566
 6752SOL    HW121155   2.043   0.407   2.571
 6752SOL    HW221156   1.923   0.330   2.651
 6753SOL     OW21157   3.690   1.382   6.457
 6753SOL    HW121158   3.714   1.478   6.447
 6753SOL    HW221159   3.634   1.370   6.539
 6754SOL     OW21160   6.678   0.933   1.090
 6754SOL    HW121161   6.753   0.992   1.060
 6754SOL    HW221162   6.626   0.980   1.162
 6755SOL     OW21163   4.392   3.709   1.128
 6755SOL    HW121164   4.395   3.707   1.228
 6755SOL    HW221165   4.462   3.647   1.091
 6756SOL     OW21166   3.606   6.655   5.494
 6756SOL    HW121167   3.577   6.560   5.481
 6756SOL    HW221168   3.698   6.657   5.533
 6757SOL     OW21169   3.597   2.382   0.543
 6757SOL    HW121170   3.674   2.378   0.608
 6757SOL    HW221171   3.519   2.427   0.588
 6758SOL     OW21172   6.293   2.864   1.831
 6758SOL    HW121173   6.355   2.919   1.775
 6758SOL    HW221174   6.209   2.916   1.849
 6759SOL     OW21175   0.578   3.196   2.683
 6759SOL    HW121176   0.598   3.247   2.600
 6759SOL    HW221177   0.558   3.101   2.661
 6760SOL     OW21178   6.582   3.832   2.492
 6760SOL    HW121179   6.592   3.830   2.591
 6760SOL    HW221180   6.489   3.804   2.467
 6761SOL     OW21181   6.396   2.907   4.909
 6761SOL    HW121182   6.444   2.949   4.832
 6761SOL    HW221183   6.453   2.836   4.950
 6762SOL     OW21184   0.441   4.960   4.078
 6762SOL    HW121185   0.382   4.879   4.074
 6762SOL    HW221186   0.528   4.936   4.121
 6763SOL     OW21187   5.598   5.116   3.914
 6763SOL    HW121188   5.587   5.018   3.930
 6763SOL    HW221189   5.509   5.159   3.906
 6764SOL     OW21190   2.751   5.389   1.562
 6764SOL    HW121191   2.686   5.364   1.490
 6764SOL    HW221192   2.770   5.487   1.558
 6765SOL     OW21193   5.770   4.919   3.039
 6765SOL    HW121194   5.719   5.004   3.045
 6765SOL    HW221195   5.779   4.892   2.943
 6766SOL     OW21196   5.455   6.553   5.580
 6766SOL    HW121197   5.534   6.594   5.626
 6766SOL    HW221198   5.473   6.456   5.565
 6767SOL     OW21199   3.108   0.574   1.492
 6767SOL    HW121200   3.191   0.528   1.523
 6767SOL    HW221201   3.029   0.514   1.506
 6768SOL     OW21202   1.998   0.553   5.423
 6768SOL    HW121203   2.052   0.617   5.367
 6768SOL    HW221204   1.915   0.528   5.374
 6769SOL     OW21205   3.219   1.773   0.516
 6769SOL    HW121206   3.143   1.824   0.477
 6769SOL    HW221207   3.273   1.833   0.576
 6770SOL     OW21208   6.957   1.103   2.018
 6770SOL    HW121209   7.008   1.045   1.955
 6770SOL    HW221210   6.966   1.068   2.111
 6771SOL     OW21211   5.009   2.609   3.424
 6771SOL    HW121212   5.074   2.637   3.495
 6771SOL    HW221213   4.919   2.648   3.444
 6772SOL     OW21214   3.761   2.028   3.188
 6772SOL    HW121215   3.757   2.056   3.283
 6772SOL    HW221216   3.677   2.055   3.141
 6773SOL     OW21217   6.596   5.179   2.479
 6773SOL    HW121218   6.569   5.252   2.416
 6773SOL    HW221219   6.686   5.144   2.453
 6774SOL     OW21220   0.663   2.088   5.756
 6774SOL    HW121221   0.570   2.121   5.771
 6774SOL    HW221222   0.674   2.061   5.660
 6775SOL     OW21223   2.416   2.785   1.847
 6775SOL    HW121224   2.507   2.769   1.808
 6775SOL    HW221225   2.376   2.867   1.807
 6776SOL     OW21226   4.343   5.005   0.341
 6776SOL    HW121227   4.423   5.046   0.385
 6776SOL    HW221228   4.261   5.058   0.363
 6777SOL     OW21229   4.513   4.336   7.013
 6777SOL    HW121230   4.420   4.371   7.017
 6777SOL    HW221231   4.547   4.344   6.919
 6778SOL     OW21232   5.944   4.597   2.102
 6778SOL    HW121233   5.935   4.611   2.003
 6778SOL    HW221234   5.868   4.642   2.149
 6779SOL     OW21235   6.323   5.651   6.655
 6779SOL    HW121236   6.381   5.643   6.574
 6779SOL    HW221237   6.359   5.593   6.728
 6780SOL     OW21238   1.220   3.003   2.047
 6780SOL    HW121239   1.200   3.099   2.031
 6780SOL    HW221240   1.192   2.949   1.967
 6781SOL     OW21241   6.482   0.726   4.760
 6781SOL    HW121242   6.510   0.640   4.718
 6781SOL    HW221243   6.383   0.726   4.774
 6782SOL     OW21244   6.937   0.497   3.382
 6782SOL    HW121245   6.974   0.412   3.345
 6782SOL    HW221246   6.945   0.569   3.313
 6783SOL     OW21247   6.204   1.716   5.982
 6783SOL    HW121248   6.175   1.666   6.064
 6783SOL    HW221249   6.125   1.760   5.940
 6784SOL     OW21250   2.422   3.983   0.836
 6784SOL    HW121251   2.480   4.002   0.915
 6784SOL    HW221252   2.469   3.918   0.776
 6785SOL     OW21253   5.472   5.085   3.562
 6785SOL    HW121254   5.504   5.025   3.635
 6785SOL    HW221255   5.447   5.174   3.601
 6786SOL     OW21256   2.032   2.093   6.858
 6786SOL    HW121257   1.989   2.033   6.925
 6786SOL    HW221258   1.978   2.093   6.774
 6787SOL     OW21259   1.870   2.814   1.442
 6787SOL    HW121260   1.811   2.749   1.490
 6787SOL    HW221261   1.817   2.896   1.419
 6788SOL     OW21262   2.215   3.913   1.334
 6788SOL    HW121263   2.240   4.009   1.325
 6788SOL    HW221264   2.192   3.876   1.244
 6789SOL     OW21265   6.858   5.633   3.668
 6789SOL    HW121266   6.813   5.720   3.689
 6789SOL    HW221267   6.864   5.622   3.569
 6790SOL     OW21268   0.777   3.650   1.426
 6790SOL    HW121269   0.795   3.574   1.488
 6790SOL    HW221270   0.826   3.731   1.457
 6791SOL     OW21271   4.042   2.385   1.449
 6791SOL    HW121272   4.071   2.392   1.544
 6791SOL    HW221273   4.005   2.294   1.432
 6792SOL     OW21274   6.370   5.906   5.298
 6792SOL    HW121275   6.412   5.969   5.232
 6792SOL    HW221276   6.442   5.867   5.356
 6793SOL     OW21277   1.225   1.850   0.955
 6793SOL    HW121278   1.179   1.910   0.889
 6793SOL    HW221279   1.158   1.792   1.000
 6794SOL     OW21280   4.969   1.750   6.144
 6794SOL    HW121281   5.054   1.771   6.191
 6794SOL    HW221282   4.907   1.828   6.150
 6795SOL     OW21283   2.203   6.792   1.431
 6795SOL    HW121284   2.250   6.745   1.356
 6795SOL    HW221285   2.106   6.769   1.429
 6796SOL     OW21286   6.253   1.160   1.790
 6796SOL    HW121287   6.352   1.146   1.797
 6796SOL    HW221288   6.210   1.075   1.758
 6797SOL     OW21289   5.465   2.649   1.884
 6797SOL    HW121290   5.420   2.564   1.858
 6797SOL    HW221291   5.400   2.725   1.876
 6798SOL     OW21292   4.868   0.047   2.096
 6798SOL    HW121293   4.866   0.081   2.002
 6798SOL    HW221294   4.832   0.116   2.158
 6799SOL     OW21295   6.105   6.416   1.203
 6799SOL    HW121296   6.016   6.395   1.243
 6799SOL    HW221297   6.128   6.348   1.134
 6800SOL     OW21298   1.976   3.827   1.561
 6800SOL    HW121299   1.977   3.909   1.618
 6800SOL    HW221300   2.069   3.790   1.553
 6801SOL     OW21301   0.508   0.263   3.068
 6801SOL    HW121302   0.462   0.332   3.012
 6801SOL    HW221303   0.603   0.254   3.037
 6802SOL     OW21304   3.496   5.440   0.842
 6802SOL    HW121305   3.489   5.341   0.850
 6802SOL    HW221306   3.410   5.477   0.806
 6803SOL     OW21307   5.136   3.243   6.269
 6803SOL    HW121308   5.196   3.228   6.191
 6803SOL    HW221309   5.042   3.255   6.237
 6804SOL     OW21310   3.640   5.172   3.828
 6804SOL    HW121311   3.732   5.142   3.803
 6804SOL    HW221312   3.618   5.255   3.776
 6805SOL     OW21313   6.634   4.725   6.722
 6805SOL    HW121314   6.586   4.670   6.654
 6805SOL    HW221315   6.676   4.665   6.790
 6806SOL     OW21316   5.916   0.660   4.162
 6806SOL    HW121317   5.820   0.667   4.134
 6806SOL    HW221318   5.946   0.748   4.199
 6807SOL     OW21319   3.310   3.136   0.064
 6807SOL    HW121320   3.365   3.091   0.135
 6807SOL    HW221321   3.310   3.080   7.002
 6808SOL     OW21322   6.999   1.928   4.657
 6808SOL    HW121323   6.937   1.881   4.720
 6808SOL    HW221324   0.001   2.018   4.694
 6809SOL     OW21325   1.410   2.952   1.337
 6809SOL    HW121326   1.312   2.940   1.346
 6809SOL    HW221327   1.430   3.021   1.268
 6810SOL     OW21328   1.838   0.477   2.198
 6810SOL    HW121329   1.901   0.501   2.125
 6810SOL    HW221330   1.883   0.412   2.260
 6811SOL     OW21331   5.658   3.653   0.653
 6811SOL    HW121332   5.708   3.683   0.572
 6811SOL    HW221333   5.629   3.558   0.641
 6812SOL     OW21334   3.323   3.346   2.869
 6812SOL    HW121335   3.318   3.271   2.935
 6812SOL    HW221336   3.408   3.339   2.817
 6813SOL     OW21337   5.210   2.374   2.837
 6813SOL    HW121338   5.217   2.295   2.898
 6813SOL    HW221339   5.283   2.439   2.859
 6814SOL     OW21340   3.306   1.879   5.988
 6814SOL    HW121341   3.372   1.848   5.920
 6814SOL    HW221342   3.317   1.977   6.004
 6815SOL     OW21343   3.093   6.882   1.651
 6815SOL    HW121344   3.120   6.826   1.730
 6815SOL    HW221345   2.994   6.880   1.641
 6816SOL     OW21346   0.539   0.005   6.783
 6816SOL    HW121347   0.465   0.040   6.725
 6816SOL    HW221348   0.523   6.928   6.802
 6817SOL     OW21349   1.705   2.475   3.270
 6817SOL    HW121350   1.718   2.400   3.334
 6817SOL    HW221351   1.794   2.508   3.238
 6818SOL     OW21352   3.162   5.178   1.803
 6818SOL    HW121353   3.119   5.188   1.714
 6818SOL    HW221354   3.092   5.186   1.875
 6819SOL     OW21355   5.066   0.880   4.662
 6819SOL    HW121356   5.012   0.961   4.685
 6819SOL    HW221357   5.038   0.804   4.720
 6820SOL     OW21358   2.006   5.927   2.752
 6820SOL    HW121359   1.959   5.850   2.796
 6820SOL    HW221360   1.979   5.931   2.655
 6821SOL     OW21361   3.350   1.097   4.184
 6821SOL    HW121362   3.446   1.072   4.172
 6821SOL    HW221363   3.339   1.149   4.269
 6822SOL     OW21364   5.859   2.579   6.656
 6822SOL    HW121365   5.872   2.495   6.709
 6822SOL    HW221366   5.769   2.579   6.614
 6823SOL     OW21367   3.970   3.163   4.732
 6823SOL    HW121368   3.996   3.195   4.641
 6823SOL    HW221369   4.050   3.127   4.779
 6824SOL     OW21370   0.748   2.638   6.915
 6824SOL    HW121371   0.831   2.624   6.969
 6824SOL    HW221372   0.694   2.712   6.956
 6825SOL     OW21373   5.137   0.044   2.229
 6825SOL    HW121374   5.054   0.046   2.175
 6825SOL    HW221375   5.117   0.011   2.321
 6826SOL     OW21376   2.095   4.257   2.613
 6826SOL    HW121377   2.109   4.160   2.632
 6826SOL    HW221378   2.003   4.271   2.577
 6827SOL     OW21379   4.563   5.430   6.242
 6827SOL    HW121380   4.651   5.425   6.195
 6827SOL    HW221381   4.502   5.359   6.205
 6828SOL     OW21382   2.850   2.398   1.608
 6828SOL    HW121383   2.758   2.437   1.606
 6828SOL    HW221384   2.884   2.397   1.702
 6829SOL     OW21385   4.589   6.578   4.323
 6829SOL    HW121386   4.518   6.535   4.378
 6829SOL    HW221387   4.677   6.535   4.344
 6830SOL     OW21388   4.766   1.185   4.114
 6830SOL    HW121389   4.832   1.213   4.044
 6830SOL    HW221390   4.703   1.261   4.133
 6831SOL     OW21391   1.452   0.798   6.787
 6831SOL    HW121392   1.428   0.864   6.716
 6831SOL    HW221393   1.469   0.709   6.745
 6832SOL     OW21394   2.364   4.253   1.276
 6832SOL    HW121395   2.302   4.318   1.320
 6832SOL    HW221396   2.446   4.243   1.332
 6833SOL     OW21397   4.030   3.965   6.478
 6833SOL    HW121398   4.014   3.916   6.392
 6833SOL    HW221399   4.127   3.958   6.501
 6834SOL     OW21400   5.153   6.263   0.729
 6834SOL    HW121401   5.171   6.362   0.735
 6834SOL    HW221402   5.182   6.230   0.639
 6835SOL     OW21403   3.417   0.256   4.084
 6835SOL    HW121404   3.477   0.268   4.163
 6835SOL    HW221405   3.432   0.331   4.020
 6836SOL     OW21406   2.712   5.647   0.208
 6836SOL    HW121407   2.778   5.634   0.134
 6836SOL    HW221408   2.730   5.580   0.281
 6837SOL     OW21409   0.999   1.792   2.570
 6837SOL    HW121410   1.011   1.882   2.613
 6837SOL    HW221411   1.089   1.758   2.541
 6838SOL     OW21412   3.008   6.415   0.477
 6838SOL    HW121413   3.022   6.371   0.565
 6838SOL    HW221414   2.910   6.419   0.457
 6839SOL     OW21415   5.245   0.690   0.118
 6839SOL    HW121416   5.200   0.650   0.198
 6839SOL    HW221417   5.313   0.626   0.083
 6840SOL     OW21418   3.175   1.202   4.792
 6840SOL    HW121419   3.275   1.210   4.792
 6840SOL    HW221420   3.147   1.141   4.866
 6841SOL     OW21421   4.982   4.212   6.444
 6841SOL    HW121422   5.060   4.232   6.502
 6841SOL    HW221423   4.989   4.119   6.409
 6842SOL     OW21424   3.038   4.170   1.303
 6842SOL    HW121425   2.990   4.228   1.237
 6842SOL    HW221426   3.135   4.167   1.281
 6843SOL     OW21427   6.054   6.661   0.640
 6843SOL    HW121428   5.959   6.644   0.663
 6843SOL    HW221429   6.060   6.734   0.572
 6844SOL     OW21430   5.445   0.511   4.544
 6844SOL    HW121431   5.450   0.607   4.574
 6844SOL    HW221432   5.487   0.453   4.613
 6845SOL     OW21433   6.143   3.782   3.189
 6845SOL    HW121434   6.048   3.759   3.169
 6845SOL    HW221435   6.179   3.842   3.118
 6846SOL     OW21436   3.679   3.248   0.546
 6846SOL    HW121437   3.586   3.210   0.547
 6846SOL    HW221438   3.675   3.346   0.565
 6847SOL     OW21439   6.989   3.471   5.013
 6847SOL    HW121440   6.921   3.482   5.086
 6847SOL    HW221441   6.967   3.532   4.937
 6848SOL     OW21442   5.332   4.630   3.485
 6848SOL    HW121443   5.287   4.541   3.475
 6848SOL    HW221444   5.352   4.668   3.394
 6849SOL     OW21445   4.634   3.792   5.358
 6849SOL    HW121446   4.610   3.716   5.298
 6849SOL    HW221447   4.723   3.829   5.332
 6850SOL     OW21448   5.314   3.047   2.819
 6850SOL    HW121449   5.380   2.978   2.850
 6850SOL    HW221450   5.284   3.026   2.727
 6851SOL     OW21451   0.156   2.105   3.131
 6851SOL    HW121452   0.141   2.133   3.226
 6851SOL    HW221453   0.092   2.032   3.107
 6852SOL     OW21454   2.667   4.578   1.198
 6852SOL    HW121455   2.641   4.551   1.291
 6852SOL    HW221456   2.687   4.676   1.196
 6853SOL     OW21457   5.669   4.509   6.596
 6853SOL    HW121458   5.730   4.489   6.673
 6853SOL    HW221459   5.676   4.605   6.572
 6854SOL     OW21460   5.134   0.640   5.400
 6854SOL    HW121461   5.068   0.578   5.444
 6854SOL    HW221462   5.202   0.669   5.467
 6855SOL     OW21463   4.323   5.923   3.875
 6855SOL    HW121464   4.281   5.872   3.800
 6855SOL    HW221465   4.304   5.878   3.961
 6856SOL     OW21466   0.408   2.146   4.779
 6856SOL    HW121467   0.487   2.087   4.759
 6856SOL    HW221468   0.432   2.209   4.852
 6857SOL     OW21469   1.466   2.752   6.721
 6857SOL    HW121470   1.515   2.806   6.653
 6857SOL    HW221471   1.526   2.737   6.800
 6858SOL     OW21472   4.105   4.241   1.593
 6858SOL    HW121473   4.191   4.290   1.588
 6858SOL    HW221474   4.122   4.147   1.624
 6859SOL     OW21475   0.973   1.478   1.456
 6859SOL    HW121476   0.914   1.501   1.533
 6859SOL    HW221477   0.947   1.388   1.420
 6860SOL     OW21478   0.098   4.864   1.172
 6860SOL    HW121479   0.067   4.777   1.133
 6860SOL    HW221480   0.188   4.851   1.213
 6861SOL     OW21481   4.858   3.821   6.516
 6861SOL    HW121482   4.767   3.856   6.495
 6861SOL    HW221483   4.867   3.728   6.480
 6862SOL     OW21484   0.510   5.945   5.561
 6862SOL    HW121485   0.488   5.979   5.470
 6862SOL    HW221486   0.600   5.978   5.588
 6863SOL     OW21487   6.353   6.761   5.933
 6863SOL    HW121488   6.287   6.754   5.857
 6863SOL    HW221489   6.434   6.811   5.902
 6864SOL     OW21490   2.894   4.736   5.360
 6864SOL    HW121491   2.866   4.714   5.267
 6864SOL    HW221492   2.969   4.676   5.388
 6865SOL     OW21493   0.548   6.636   4.285
 6865SOL    HW121494   0.606   6.586   4.220
 6865SOL    HW221495   0.452   6.613   4.268
 6866SOL     OW21496   5.841   5.239   2.744
 6866SOL    HW121497   5.905   5.166   2.764
 6866SOL    HW221498   5.790   5.263   2.827
 6867SOL     OW21499   2.077   3.589   1.774
 6867SOL    HW121500   2.129   3.546   1.847
 6867SOL    HW221501   2.101   3.545   1.687
 6868SOL     OW21502   2.050   6.671   6.043
 6868SOL    HW121503   2.011   6.736   6.107
 6868SOL    HW221504   2.007   6.683   5.953
 6869SOL     OW21505   5.181   0.922   5.872
 6869SOL    HW121506   5.151   0.829   5.852
 6869SOL    HW221507   5.249   0.950   5.804
 6870SOL     OW21508   0.260   4.626   1.061
 6870SOL    HW121509   0.320   4.573   1.001
 6870SOL    HW221510   0.316   4.674   1.129
 6871SOL     OW21511   5.967   4.207   3.124
 6871SOL    HW121512   5.891   4.158   3.168
 6871SOL    HW221513   5.936   4.247   3.038
 6872SOL     OW21514   0.445   2.587   1.815
 6872SOL    HW121515   0.380   2.662   1.826
 6872SOL    HW221516   0.537   2.618   1.838
 6873SOL     OW21517   0.347   3.140   4.316
 6873SOL    HW121518   0.383   3.198   4.389
 6873SOL    HW221519   0.361   3.185   4.228
 6874SOL     OW21520   6.738   4.842   3.410
 6874SOL    HW121521   6.688   4.928   3.403
 6874SOL    HW221522   6.803   4.847   3.486
 6875SOL     OW21523   2.270   1.747   2.418
 6875SOL    HW121524   2.214   1.734   2.336
 6875SOL    HW221525   2.366   1.737   2.394
 6876SOL     OW21526   4.156   0.012   3.535
 6876SOL    HW121527   4.202   6.965   3.477
 6876SOL    HW221528   4.223   0.076   3.571
 6877SOL     OW21529   3.140   4.501   1.313
 6877SOL    HW121530   3.226   4.499   1.262
 6877SOL    HW221531   3.151   4.452   1.399
 6878SOL     OW21532   3.043   1.787   4.084
 6878SOL    HW121533   3.045   1.862   4.018
 6878SOL    HW221534   3.119   1.797   4.148
 6879SOL     OW21535   2.234   2.826   0.590
 6879SOL    HW121536   2.236   2.743   0.645
 6879SOL    HW221537   2.173   2.814   0.511
 6880SOL     OW21538   0.781   5.887   5.699
 6880SOL    HW121539   0.711   5.817   5.710
 6880SOL    HW221540   0.777   5.951   5.776
 6881SOL     OW21541   1.265   3.683   1.518
 6881SOL    HW121542   1.226   3.741   1.447
 6881SOL    HW221543   1.254   3.587   1.492
 6882SOL     OW21544   2.606   0.390   0.457
 6882SOL    HW121545   2.581   0.481   0.490
 6882SOL    HW221546   2.690   0.396   0.403
 6883SOL     OW21547   5.028   1.738   0.357
 6883SOL    HW121548   5.119   1.769   0.329
 6883SOL    HW221549   4.999   1.790   0.438
 6884SOL     OW21550   0.938   4.218   3.045
 6884SOL    HW121551   0.965   4.270   3.126
 6884SOL    HW221552   0.962   4.270   2.963
 6885SOL     OW21553   4.412   4.923   3.288
 6885SOL    HW121554   4.366   4.863   3.354
 6885SOL    HW221555   4.504   4.889   3.270
 6886SOL     OW21556   0.045   1.431   4.735
 6886SOL    HW121557   0.129   1.484   4.742
 6886SOL    HW221558   0.066   1.340   4.699
 6887SOL     OW21559   4.534   5.531   6.598
 6887SOL    HW121560   4.535   5.605   6.665
 6887SOL    HW221561   4.563   5.565   6.509
 6888SOL     OW21562   5.162   5.350   6.674
 6888SOL    HW121563   5.228   5.402   6.620
 6888SOL    HW221564   5.155   5.257   6.639
 6889SOL     OW21565   1.610   2.805   6.214
 6889SOL    HW121566   1.545   2.852   6.154
 6889SOL    HW221567   1.614   2.853   6.302
 6890SOL     OW21568   4.321   6.354   2.167
 6890SOL    HW121569   4.414   6.383   2.145
 6890SOL    HW221570   4.324   6.262   2.208
 6891SOL     OW21571   1.802   3.651   1.300
 6891SOL    HW121572   1.709   3.687   1.298
 6891SOL    HW221573   1.846   3.677   1.386
 6892SOL     OW21574   3.698   1.851   4.334
 6892SOL    HW121575   3.735   1.770   4.380
 6892SOL    HW221576   3.742   1.861   4.244
 6893SOL     OW21577   4.830   3.830   6.811
 6893SOL    HW121578   4.846   3.778   6.727
 6893SOL    HW221579   4.843   3.927   6.793
 6894SOL     OW21580   5.823   4.702   1.406
 6894SOL    HW121581   5.895   4.638   1.382
 6894SOL    HW221582   5.769   4.725   1.325
 6895SOL     OW21583   1.971   5.049   1.379
 6895SOL    HW121584   1.936   5.141   1.361
 6895SOL    HW221585   1.897   4.983   1.364
 6896SOL     OW21586   3.173   1.764   3.441
 6896SOL    HW121587   3.200   1.766   3.344
 6896SOL    HW221588   3.209   1.845   3.487
 6897SOL     OW21589   4.986   3.534   4.957
 6897SOL    HW121590   4.947   3.553   4.867
 6897SOL    HW221591   4.920   3.557   5.028
 6898SOL     OW21592   3.946   1.452   1.770
 6898SOL    HW121593   3.857   1.498   1.765
 6898SOL    HW221594   3.933   1.353   1.771
 6899SOL     OW21595   4.629   5.971   2.126
 6899SOL    HW121596   4.576   6.009   2.201
 6899SOL    HW221597   4.727   5.982   2.145
 6900SOL     OW21598   6.829   5.118   4.755
 6900SOL    HW121599   6.730   5.102   4.752
 6900SOL    HW221600   6.854   5.185   4.685
 6901SOL     OW21601   5.972   6.492   6.418
 6901SOL    HW121602   5.876   6.516   6.432
 6901SOL    HW221603   6.007   6.541   6.338
 6902SOL     OW21604   6.441   5.608   6.252
 6902SOL    HW121605   6.475   5.686   6.200
 6902SOL    HW221606   6.362   5.569   6.206
 6903SOL     OW21607   3.526   4.794   5.323
 6903SOL    HW121608   3.542   4.850   5.241
 6903SOL    HW221609   3.443   4.740   5.310
 6904SOL     OW21610   5.889   0.282   5.920
 6904SOL    HW121611   5.975   0.321   5.888
 6904SOL    HW221612   5.834   0.353   5.964
 6905SOL     OW21613   5.321   5.773   6.781
 6905SOL    HW121614   5.265   5.853   6.800
 6905SOL    HW221615   5.416   5.802   6.766
 6906SOL     OW21616   4.050   1.431   3.793
 6906SOL    HW121617   4.108   1.404   3.870
 6906SOL    HW221618   3.966   1.377   3.793
 6907SOL     OW21619   5.946   2.304   1.103
 6907SOL    HW121620   5.851   2.331   1.083
 6907SOL    HW221621   5.949   2.207   1.125
 6908SOL     OW21622   2.100   5.520   6.308
 6908SOL    HW121623   2.077   5.431   6.270
 6908SOL    HW221624   2.090   5.590   6.237
 6909SOL     OW21625   5.199   3.848   0.481
 6909SOL    HW121626   5.287   3.845   0.527
 6909SOL    HW221627   5.153   3.935   0.503
 6910SOL     OW21628   1.139   3.457   3.077
 6910SOL    HW121629   1.140   3.359   3.099
 6910SOL    HW221630   1.104   3.508   3.156
 6911SOL     OW21631   4.081   0.181   4.058
 6911SOL    HW121632   4.073   0.090   4.017
 6911SOL    HW221633   4.155   0.231   4.013
 6912SOL     OW21634   2.981   3.134   6.091
 6912SOL    HW121635   2.911   3.065   6.105
 6912SOL    HW221636   3.059   3.093   6.042
 6913SOL     OW21637   5.593   6.234   4.844
 6913SOL    HW121638   5.577   6.145   4.801
 6913SOL    HW221639   5.507   6.285   4.847
 6914SOL     OW21640   5.693   4.562   4.194
 6914SOL    HW121641   5.719   4.658   4.182
 6914SOL    HW221642   5.774   4.505   4.183
 6915SOL     OW21643   0.107   2.483   1.901
 6915SOL    HW121644   0.032   2.511   1.960
 6915SOL    HW221645   0.173   2.559   1.893
 6916SOL     OW21646   5.642   0.995   0.767
 6916SOL    HW121647   5.716   1.036   0.821
 6916SOL    HW221648   5.593   1.067   0.718
 6917SOL     OW21649   4.004   6.863   1.335
 6917SOL    HW121650   3.910   6.839   1.312
 6917SOL    HW221651   4.026   6.825   1.425
 6918SOL     OW21652   0.043   2.337   3.914
 6918SOL    HW121653   0.078   2.317   3.823
 6918SOL    HW221654   0.043   2.253   3.969
 6919SOL     OW21655   5.883   5.283   4.296
 6919SOL    HW121656   5.873   5.380   4.275
 6919SOL    HW221657   5.952   5.271   4.367
 6920SOL     OW21658   4.802   6.368   5.000
 6920SOL    HW121659   4.836   6.452   5.042
 6920SOL    HW221660   4.826   6.290   5.058
 6921SOL     OW21661   4.557   6.365   3.321
 6921SOL    HW121662   4.545   6.458   3.357
 6921SOL    HW221663   4.576   6.302   3.396
 6922SOL     OW21664   1.700   6.079   5.689
 6922SOL    HW121665   1.603   6.057   5.697
 6922SOL    HW221666   1.713   6.178   5.691
 6923SOL     OW21667   5.075   5.683   2.339
 6923SOL    HW121668   5.116   5.712   2.426
 6923SOL    HW221669   5.147   5.648   2.280
 6924SOL     OW21670   2.269   4.381   0.034
 6924SOL    HW121671   2.176   4.348   0.021
 6924SOL    HW221672   2.291   4.447   6.982
 6925SOL     OW21673   5.201   5.409   4.623
 6925SOL    HW121674   5.204   5.380   4.719
 6925SOL    HW221675   5.272   5.361   4.572
 6926SOL     OW21676   2.731   2.309   0.459
 6926SOL    HW121677   2.708   2.335   0.552
 6926SOL    HW221678   2.831   2.298   0.451
 6927SOL     OW21679   3.901   2.242   5.736
 6927SOL    HW121680   3.940   2.328   5.770
 6927SOL    HW221681   3.856   2.194   5.812
 6928SOL     OW21682   5.547   5.608   1.118
 6928SOL    HW121683   5.584   5.695   1.150
 6928SOL    HW221684   5.582   5.533   1.174
 6929SOL     OW21685   4.905   5.913   2.303
 6929SOL    HW121686   4.967   5.839   2.331
 6929SOL    HW221687   4.825   5.914   2.363
 6930SOL     OW21688   1.316   0.823   1.736
 6930SOL    HW121689   1.225   0.860   1.753
 6930SOL    HW221690   1.384   0.896   1.745
 6931SOL     OW21691   1.728   1.337   2.386
 6931SOL    HW121692   1.791   1.313   2.459
 6931SOL    HW221693   1.677   1.420   2.411
 6932SOL     OW21694   4.649   6.917   0.537
 6932SOL    HW121695   4.596   6.984   0.485
 6932SOL    HW221696   4.744   6.949   0.545
 6933SOL     OW21697   3.555   6.360   5.519
 6933SOL    HW121698   3.496   6.343   5.598
 6933SOL    HW221699   3.629   6.293   5.518
 6934SOL     OW21700   4.881   3.160   6.156
 6934SOL    HW121701   4.846   3.187   6.066
 6934SOL    HW221702   4.862   3.063   6.171
 6935SOL     OW21703   4.680   5.840   2.420
 6935SOL    HW121704   4.616   5.763   2.425
 6935SOL    HW221705   4.629   5.925   2.408
 6936SOL     OW21706   6.497   3.245   4.032
 6936SOL    HW121707   6.512   3.170   4.096
 6936SOL    HW221708   6.579   3.302   4.028
 6937SOL     OW21709   6.138   6.259   0.992
 6937SOL    HW121710   6.105   6.180   1.044
 6937SOL    HW221711   6.231   6.240   0.959
 6938SOL     OW21712   6.941   2.467   4.363
 6938SOL    HW121713   0.016   2.454   4.390
 6938SOL    HW221714   6.934   2.468   4.263
 6939SOL     OW21715   0.134   5.029   2.589
 6939SOL    HW121716   0.202   5.076   2.646
 6939SOL    HW221717   0.176   4.947   2.549
 6940SOL     OW21718   3.844   0.753   0.272
 6940SOL    HW121719   3.840   0.698   0.356
 6940SOL    HW221720   3.800   0.841   0.288
 6941SOL     OW21721   3.413   3.862   1.973
 6941SOL    HW121722   3.496   3.813   1.999
 6941SOL    HW221723   3.404   3.862   1.873
 6942SOL     OW21724   5.733   6.543   2.391
 6942SOL    HW121725   5.759   6.627   2.438
 6942SOL    HW221726   5.815   6.495   2.360
 6943SOL     OW21727   3.914   5.777   1.062
 6943SOL    HW121728   3.912   5.753   1.159
 6943SOL    HW221729   3.872   5.703   1.009
 6944SOL     OW21730   1.079   5.432   6.041
 6944SOL    HW121731   0.991   5.390   6.061
 6944SOL    HW221732   1.150   5.392   6.099
 6945SOL     OW21733   0.096   1.940   1.051
 6945SOL    HW121734   7.016   1.942   1.049
 6945SOL    HW221735   0.128   1.987   1.133
 6946SOL     OW21736   4.247   0.031   1.430
 6946SOL    HW121737   4.201   6.985   1.490
 6946SOL    HW221738   4.185   0.057   1.356
 6947SOL     OW21739   3.624   5.071   6.566
 6947SOL    HW121740   3.660   5.131   6.637
 6947SOL    HW221741   3.670   5.090   6.479
 6948SOL     OW21742   1.016   6.416   0.890
 6948SOL    HW121743   1.070   6.345   0.936
 6948SOL    HW221744   1.035   6.505   0.933
 6949SOL     OW21745   2.768   0.710   3.403
 6949SOL    HW121746   2.788   0.679   3.496
 6949SOL    HW221747   2.693   0.776   3.405
 6950SOL     OW21748   1.221   0.658   4.868
 6950SOL    HW121749   1.242   0.735   4.927
 6950SOL    HW221750   1.150   0.602   4.910
 6951SOL     OW21751   0.669   5.644   6.194
 6951SOL    HW121752   0.613   5.725   6.173
 6951SOL    HW221753   0.764   5.671   6.206
 6952SOL     OW21754   1.377   5.239   3.298
 6952SOL    HW121755   1.324   5.155   3.284
 6952SOL    HW221756   1.407   5.276   3.210
 6953SOL     OW21757   5.226   6.534   0.756
 6953SOL    HW121758   5.295   6.575   0.696
 6953SOL    HW221759   5.230   6.577   0.846
 6954SOL     OW21760   0.906   4.635   1.659
 6954SOL    HW121761   0.943   4.703   1.596
 6954SOL    HW221762   0.938   4.653   1.752
 6955SOL     OW21763   4.854   0.812   2.302
 6955SOL    HW121764   4.856   0.722   2.259
 6955SOL    HW221765   4.938   0.826   2.353
 6956SOL     OW21766   4.638   5.787   3.433
 6956SOL    HW121767   4.547   5.826   3.432
 6956SOL    HW221768   4.660   5.751   3.342
 6957SOL     OW21769   6.246   5.866   0.326
 6957SOL    HW121770   6.184   5.908   0.392
 6957SOL    HW221771   6.195   5.842   0.243
 6958SOL     OW21772   4.142   3.451   4.719
 6958SOL    HW121773   4.203   3.502   4.780
 6958SOL    HW221774   4.050   3.449   4.758
 6959SOL     OW21775   1.851   3.587   3.193
 6959SOL    HW121776   1.926   3.547   3.140
 6959SOL    HW221777   1.787   3.514   3.219
 6960SOL     OW21778   1.791   4.147   0.854
 6960SOL    HW121779   1.793   4.050   0.830
 6960SOL    HW221780   1.697   4.175   0.873
 6961SOL     OW21781   6.336   0.824   5.047
 6961SOL    HW121782   6.282   0.742   5.031
 6961SOL    HW221783   6.385   0.848   4.963
 6962SOL     OW21784   4.366   5.516   0.897
 6962SOL    HW121785   4.405   5.540   0.986
 6962SOL    HW221786   4.440   5.495   0.833
 6963SOL     OW21787   5.325   5.524   0.983
 6963SOL    HW121788   5.251   5.572   1.030
 6963SOL    HW221789   5.412   5.548   1.025
 6964SOL     OW21790   3.758   0.921   6.037
 6964SOL    HW121791   3.808   0.846   6.082
 6964SOL    HW221792   3.693   0.883   5.972
 6965SOL     OW21793   1.692   1.603   6.626
 6965SOL    HW121794   1.611   1.651   6.659
 6965SOL    HW221795   1.669   1.507   6.610
 6966SOL     OW21796   0.280   0.968   2.787
 6966SOL    HW121797   0.358   0.928   2.835
 6966SOL    HW221798   0.204   0.978   2.851
 6967SOL     OW21799   3.537   1.067   5.612
 6967SOL    HW121800   3.624   1.024   5.587
 6967SOL    HW221801   3.515   1.138   5.545
 6968SOL     OW21802   3.023   1.308   3.645
 6968SOL    HW121803   3.096   1.324   3.578
 6968SOL    HW221804   2.935   1.309   3.598
 6969SOL     OW21805   3.262   2.343   1.515
 6969SOL    HW121806   3.190   2.373   1.451
 6969SOL    HW221807   3.289   2.419   1.573
 6970SOL     OW21808   4.052   3.817   5.658
 6970SOL    HW121809   4.004   3.769   5.732
 6970SOL    HW221810   3.990   3.826   5.580
 6971SOL     OW21811   6.098   4.626   1.350
 6971SOL    HW121812   6.079   4.650   1.255
 6971SOL    HW221813   6.045   4.545   1.375
 6972SOL     OW21814   4.919   4.242   2.927
 6972SOL    HW121815   4.956   4.300   2.854
 6972SOL    HW221816   4.831   4.279   2.958
 6973SOL     OW21817   0.726   2.354   3.421
 6973SOL    HW121818   0.707   2.334   3.518
 6973SOL    HW221819   0.824   2.370   3.409
 6974SOL     OW21820   3.052   4.016   2.592
 6974SOL    HW121821   3.040   3.929   2.544
 6974SOL    HW221822   3.070   4.089   2.527
 6975SOL     OW21823   1.514   6.978   4.445
 6975SOL    HW121824   1.613   6.980   4.433
 6975SOL    HW221825   1.470   6.945   4.362
 6976SOL     OW21826   6.526   4.888   6.094
 6976SOL    HW121827   6.433   4.926   6.101
 6976SOL    HW221828   6.520   4.789   6.089
 6977SOL     OW21829   3.679   3.524   0.961
 6977SOL    HW121830   3.651   3.592   0.894
 6977SOL    HW221831   3.659   3.433   0.927
 6978SOL     OW21832   5.250   2.421   1.960
 6978SOL    HW121833   5.158   2.454   1.939
 6978SOL    HW221834   5.278   2.455   2.049
 6979SOL     OW21835   1.064   4.042   1.261
 6979SOL    HW121836   1.162   4.037   1.244
 6979SOL    HW221837   1.031   3.952   1.290
 6980SOL     OW21838   1.836   1.091   3.619
 6980SOL    HW121839   1.873   1.175   3.578
 6980SOL    HW221840   1.912   1.037   3.656
 6981SOL     OW21841   3.694   3.315   5.777
 6981SOL    HW121842   3.765   3.352   5.716
 6981SOL    HW221843   3.604   3.327   5.735
 6982SOL     OW21844   1.062   1.016   4.449
 6982SOL    HW121845   1.033   1.102   4.408
 6982SOL    HW221846   1.124   0.968   4.387
 6983SOL     OW21847   4.492   1.598   4.814
 6983SOL    HW121848   4.426   1.563   4.879
 6983SOL    HW221849   4.449   1.607   4.724
 6984SOL     OW21850   2.517   1.501   3.146
 6984SOL    HW121851   2.551   1.571   3.082
 6984SOL    HW221852   2.431   1.532   3.186
 6985SOL     OW21853   6.049   5.031   0.814
 6985SOL    HW121854   6.069   4.990   0.903
 6985SOL    HW221855   5.953   5.058   0.810
 6986SOL     OW21856   3.198   0.164   6.832
 6986SOL    HW121857   3.102   0.185   6.812
 6986SOL    HW221858   3.256   0.236   6.794
 6987SOL     OW21859   6.785   1.121   6.522
 6987SOL    HW121860   6.755   1.083   6.434
 6987SOL    HW221861   6.726   1.198   6.547
 6988SOL     OW21862   1.388   0.244   6.098
 6988SOL    HW121863   1.304   0.282   6.059
 6988SOL    HW221864   1.365   0.185   6.175
 6989SOL     OW21865   0.544   4.728   2.997
 6989SOL    HW121866   0.623   4.744   2.938
 6989SOL    HW221867   0.472   4.793   2.974
 6990SOL     OW21868   4.358   3.201   0.883
 6990SOL    HW121869   4.306   3.286   0.874
 6990SOL    HW221870   4.350   3.166   0.976
 6991SOL     OW21871   4.659   4.202   3.353
 6991SOL    HW121872   4.612   4.114   3.363
 6991SOL    HW221873   4.741   4.190   3.297
 6992SOL     OW21874   5.967   6.975   6.801
 6992SOL    HW121875   6.010   0.022   6.741
 6992SOL    HW221876   5.983   7.001   6.896
 6993SOL     OW21877   5.766   0.444   2.082
 6993SOL    HW121878   5.735   0.466   2.175
 6993SOL    HW221879   5.721   0.505   2.017
 6994SOL     OW21880   1.076   2.155   4.117
 6994SOL    HW121881   1.153   2.139   4.180
 6994SOL    HW221882   1.021   2.230   4.151
 6995SOL     OW21883   0.603   3.763   6.660
 6995SOL    HW121884   0.555   3.780   6.574
 6995SOL    HW221885   0.537   3.744   6.732
 6996SOL     OW21886   1.943   0.625   0.115
 6996SOL    HW121887   1.956   0.626   0.016
 6996SOL    HW221888   2.015   0.570   0.158
 6997SOL     OW21889   0.503   4.899   4.927
 6997SOL    HW121890   0.497   4.805   4.959
 6997SOL    HW221891   0.414   4.928   4.893
 6998SOL     OW21892   1.866   1.514   1.472
 6998SOL    HW121893   1.935   1.493   1.541
 6998SOL    HW221894   1.776   1.521   1.515
 6999SOL     OW21895   1.688   2.637   5.807
 6999SOL    HW121896   1.590   2.657   5.819
 6999SOL    HW221897   1.698   2.542   5.776
 7000SOL     OW21898   5.998   7.011   2.486
 7000SOL    HW121899   5.998   7.011   2.586
 7000SOL    HW221900   5.915   6.967   2.453
 7001SOL     OW21901   0.816   2.927   5.218
 7001SOL    HW121902   0.877   2.926   5.138
 7001SOL    HW221903   0.844   3.000   5.280
 7002SOL     OW21904   2.102   5.313   4.247
 7002SOL    HW121905   2.140   5.404   4.232
 7002SOL    HW221906   2.006   5.322   4.273
 7003SOL     OW21907   4.568   6.022   1.461
 7003SOL    HW121908   4.640   5.961   1.427
 7003SOL    HW221909   4.596   6.117   1.444
 7004SOL     OW21910   0.283   6.130   1.167
 7004SOL    HW121911   0.307   6.197   1.238
 7004SOL    HW221912   0.189   6.146   1.137
 7005SOL     OW21913   1.186   0.857   0.862
 7005SOL    HW121914   1.123   0.900   0.797
 7005SOL    HW221915   1.280   0.874   0.833
 7006SOL     OW21916   5.762   5.751   3.599
 7006SOL    HW121917   5.780   5.749   3.698
 7006SOL    HW221918   5.788   5.840   3.562
 7007SOL     OW21919   3.983   0.450   4.585
 7007SOL    HW121920   4.042   0.440   4.505
 7007SOL    HW221921   4.010   0.383   4.655
 7008SOL     OW21922   0.423   4.005   4.641
 7008SOL    HW121923   0.360   3.928   4.650
 7008SOL    HW221924   0.404   4.053   4.555
 7009SOL     OW21925   3.952   6.498   2.626
 7009SOL    HW121926   3.857   6.503   2.595
 7009SOL    HW221927   4.013   6.495   2.546
 7010SOL     OW21928   5.173   4.079   3.631
 7010SOL    HW121929   5.270   4.058   3.624
 7010SOL    HW221930   5.120   4.008   3.585
 7011SOL     OW21931   3.649   7.013   0.136
 7011SOL    HW121932   3.656   0.091   0.120
 7011SOL    HW221933   3.602   6.998   0.224
 7012SOL     OW21934   0.718   1.707   1.257
 7012SOL    HW121935   0.619   1.715   1.248
 7012SOL    HW221936   0.751   1.775   1.323
 7013SOL     OW21937   1.145   6.802   6.739
 7013SOL    HW121938   1.223   6.838   6.790
 7013SOL    HW221939   1.144   6.702   6.745
 7014SOL     OW21940   5.545   3.095   0.024
 7014SOL    HW121941   5.501   3.020   6.996
 7014SOL    HW221942   5.604   3.059   0.096
 7015SOL     OW21943   5.921   4.096   1.659
 7015SOL    HW121944   5.981   4.050   1.726
 7015SOL    HW221945   5.831   4.110   1.700
 7016SOL     OW21946   4.092   4.775   1.230
 7016SOL    HW121947   4.151   4.855   1.221
 7016SOL    HW221948   4.086   4.748   1.326
 7017SOL     OW21949   3.095   5.343   3.163
 7017SOL    HW121950   3.029   5.275   3.195
 7017SOL    HW221951   3.054   5.396   3.089
 7018SOL     OW21952   5.085   3.825   4.555
 7018SOL    HW121953   5.173   3.790   4.588
 7018SOL    HW221954   5.098   3.917   4.517
 7019SOL     OW21955   4.020   4.156   0.538
 7019SOL    HW121956   4.084   4.122   0.607
 7019SOL    HW221957   4.022   4.256   0.537
 7020SOL     OW21958   6.788   4.129   5.706
 7020SOL    HW121959   6.742   4.127   5.795
 7020SOL    HW221960   6.847   4.210   5.701
 7021SOL     OW21961   1.837   2.980   4.109
 7021SOL    HW121962   1.843   3.074   4.075
 7021SOL    HW221963   1.900   2.968   4.186
 7022SOL     OW21964   4.992   0.087   6.799
 7022SOL    HW121965   4.934   0.143   6.858
 7022SOL    HW221966   5.082   0.131   6.790
 7023SOL     OW21967   0.614   3.168   1.621
 7023SOL    HW121968   0.607   3.203   1.527
 7023SOL    HW221969   0.701   3.120   1.633
 7024SOL     OW21970   3.288   3.442   4.205
 7024SOL    HW121971   3.233   3.480   4.279
 7024SOL    HW221972   3.227   3.414   4.130
 7025SOL     OW21973   4.015   0.702   1.273
 7025SOL    HW121974   4.080   0.776   1.291
 7025SOL    HW221975   3.923   0.740   1.262
 7026SOL     OW21976   3.423   2.095   2.142
 7026SOL    HW121977   3.512   2.138   2.124
 7026SOL    HW221978   3.375   2.082   2.055
 7027SOL     OW21979   2.448   5.732   4.012
 7027SOL    HW121980   2.493   5.813   3.975
 7027SOL    HW221981   2.441   5.740   4.111
 7028SOL     OW21982   3.807   0.821   3.601
 7028SOL    HW121983   3.903   0.792   3.597
 7028SOL    HW221984   3.769   0.797   3.690
 7029SOL     OW21985   4.536   3.620   5.605
 7029SOL    HW121986   4.439   3.594   5.598
 7029SOL    HW221987   4.555   3.694   5.540
 7030SOL     OW21988   0.466   1.162   4.480
 7030SOL    HW121989   0.450   1.094   4.551
 7030SOL    HW221990   0.446   1.253   4.515
 7031SOL     OW21991   3.846   6.131   6.847
 7031SOL    HW121992   3.942   6.121   6.821
 7031SOL    HW221993   3.790   6.073   6.788
 7032SOL     OW21994   4.259   1.592   3.625
 7032SOL    HW121995   4.178   1.614   3.570
 7032SOL    HW221996   4.336   1.574   3.565
 7033SOL     OW21997   1.237   2.839   3.365
 7033SOL    HW121998   1.239   2.812   3.269
 7033SOL    HW221999   1.317   2.895   3.386
 7034SOL     OW22000   6.774   1.585   2.728
 7034SOL    HW122001   6.749   1.494   2.693
 7034SOL    HW222002   6.771   1.583   2.828
 7035SOL     OW22003   1.774   0.329   0.412
 7035SOL    HW122004   1.714   0.368   0.342
 7035SOL    HW222005   1.718   0.284   0.482
 7036SOL     OW22006   6.841   1.467   2.293
 7036SOL    HW122007   6.930   1.438   2.259
 7036SOL    HW222008   6.832   1.567   2.286
 7037SOL     OW22009   0.878   1.143   6.254
 7037SOL    HW122010   0.827   1.228   6.270
 7037SOL    HW222011   0.952   1.137   6.320
 7038SOL     OW22012   2.603   4.645   4.860
 7038SOL    HW122013   2.696   4.672   4.888
 7038SOL    HW222014   2.564   4.718   4.804
 7039SOL     OW22015   0.321   5.887   3.203
 7039SOL    HW122016   0.318   5.801   3.152
 7039SOL    HW222017   0.386   5.950   3.158
 7040SOL     OW22018   4.566   2.584   5.903
 7040SOL    HW122019   4.549   2.682   5.904
 7040SOL    HW222020   4.657   2.566   5.941
 7041SOL     OW22021   0.056   1.541   2.933
 7041SOL    HW122022   0.071   1.635   2.903
 7041SOL    HW222023   6.984   1.532   2.972
 7042SOL     OW22024   4.127   5.942   4.544
 7042SOL    HW122025   4.126   5.965   4.447
 7042SOL    HW222026   4.216   5.904   4.569
 7043SOL     OW22027   2.619   5.218   3.393
 7043SOL    HW122028   2.630   5.224   3.492
 7043SOL    HW222029   2.625   5.310   3.354
 7044SOL     OW22030   5.317   6.061   5.573
 7044SOL    HW122031   5.285   6.068   5.478
 7044SOL    HW222032   5.251   6.008   5.627
 7045SOL     OW22033   5.203   5.873   2.087
 7045SOL    HW122034   5.275   5.826   2.139
 7045SOL    HW222035   5.173   5.814   2.012
 7046SOL     OW22036   3.379   1.517   3.558
 7046SOL    HW122037   3.328   1.555   3.635
 7046SOL    HW222038   3.429   1.435   3.587
 7047SOL     OW22039   6.830   0.795   1.656
 7047SOL    HW122040   6.813   0.777   1.559
 7047SOL    HW222041   6.926   0.779   1.676
 7048SOL     OW22042   5.840   6.541   4.663
 7048SOL    HW122043   5.811   6.583   4.750
 7048SOL    HW222044   5.892   6.608   4.610
 7049SOL     OW22045   3.633   1.666   1.509
 7049SOL    HW122046   3.689   1.720   1.573
 7049SOL    HW222047   3.588   1.728   1.444
 7050SOL     OW22048   3.848   3.839   1.239
 7050SOL    HW122049   3.941   3.809   1.258
 7050SOL    HW222050   3.793   3.761   1.210
 7051SOL     OW22051   6.783   6.452   1.173
 7051SOL    HW122052   6.706   6.420   1.118
 7051SOL    HW222053   6.865   6.456   1.117
 7052SOL     OW22054   6.201   0.554   4.333
 7052SOL    HW122055   6.115   0.605   4.327
 7052SOL    HW222056   6.266   0.589   4.266
 7053SOL     OW22057   1.426   4.063   4.269
 7053SOL    HW122058   1.372   4.117   4.204
 7053SOL    HW222059   1.515   4.042   4.229
 7054SOL     OW22060   0.117   6.962   1.424
 7054SOL    HW122061   0.183   6.996   1.491
 7054SOL    HW222062   0.144   6.870   1.395
 7055SOL     OW22063   2.875   0.612   0.170
 7055SOL    HW122064   2.932   0.555   0.111
 7055SOL    HW222065   2.874   0.573   0.262
 7056SOL     OW22066   6.902   5.245   1.277
 7056SOL    HW122067   6.893   5.155   1.234
 7056SOL    HW222068   6.965   5.239   1.355
 7057SOL     OW22069   3.017   5.169   3.754
 7057SOL    HW122070   3.016   5.230   3.833
 7057SOL    HW222071   3.106   5.174   3.709
 7058SOL     OW22072   5.389   1.983   6.266
 7058SOL    HW122073   5.362   1.905   6.210
 7058SOL    HW222074   5.474   2.022   6.230
 7059SOL     OW22075   1.387   1.090   4.021
 7059SOL    HW122076   1.396   1.073   3.923
 7059SOL    HW222077   1.290   1.091   4.046
 7060SOL     OW22078   3.728   6.845   1.272
 7060SOL    HW122079   3.680   6.897   1.342
 7060SOL    HW222080   3.695   6.872   1.181
 7061SOL     OW22081   0.192   2.783   3.206
 7061SOL    HW122082   0.236   2.814   3.290
 7061SOL    HW222083   0.256   2.791   3.130
 7062SOL     OW22084   3.756   2.028   5.357
 7062SOL    HW122085   3.830   2.092   5.382
 7062SOL    HW222086   3.796   1.942   5.327
 7063SOL     OW22087   1.295   0.445   1.379
 7063SOL    HW122088   1.321   0.533   1.338
 7063SOL    HW222089   1.376   0.398   1.412
 7064SOL     OW22090   4.415   1.908   6.447
 7064SOL    HW122091   4.320   1.912   6.416
 7064SOL    HW222092   4.445   2.000   6.473
 7065SOL     OW22093   3.272   3.980   5.009
 7065SOL    HW122094   3.240   3.996   4.915
 7065SOL    HW222095   3.366   3.948   5.007
 7066SOL     OW22096   4.280   6.592   5.733
 7066SOL    HW122097   4.326   6.541   5.805
 7066SOL    HW222098   4.231   6.669   5.772
 7067SOL     OW22099   1.338   3.821   6.002
 7067SOL    HW122100   1.364   3.777   5.915
 7067SOL    HW222101   1.252   3.782   6.035
 7068SOL     OW22102   5.707   4.064   4.278
 7068SOL    HW122103   5.710   4.123   4.197
 7068SOL    HW222104   5.772   3.989   4.268
 7069SOL     OW22105   5.357   1.725   5.465
 7069SOL    HW122106   5.352   1.637   5.512
 7069SOL    HW222107   5.267   1.748   5.428
 7070SOL     OW22108   0.954   6.132   4.026
 7070SOL    HW122109   0.860   6.160   4.008
 7070SOL    HW222110   0.967   6.038   3.994
 7071SOL     OW22111   4.306   5.987   6.596
 7071SOL    HW122112   4.365   6.066   6.578
 7071SOL    HW222113   4.360   5.915   6.641
 7072SOL     OW22114   2.599   4.701   0.238
 7072SOL    HW122115   2.506   4.696   0.201
 7072SOL    HW222116   2.665   4.674   0.168
 7073SOL     OW22117   3.342   0.309   3.023
 7073SOL    HW122118   3.367   0.234   2.962
 7073SOL    HW222119   3.353   0.396   2.974
 7074SOL     OW22120   6.318   3.478   3.056
 7074SOL    HW122121   6.399   3.531   3.082
 7074SOL    HW222122   6.346   3.398   3.003
 7075SOL     OW22123   2.795   5.104   4.436
 7075SOL    HW122124   2.887   5.120   4.471
 7075SOL    HW222125   2.744   5.190   4.436
 7076SOL     OW22126   5.763   2.627   0.555
 7076SOL    HW122127   5.788   2.562   0.627
 7076SOL    HW222128   5.805   2.598   0.469
 7077SOL     OW22129   2.272   4.209   3.535
 7077SOL    HW122130   2.316   4.187   3.448
 7077SOL    HW222131   2.241   4.125   3.580
 7078SOL     OW22132   5.939   6.458   0.964
 7078SOL    HW122133   5.928   6.508   1.050
 7078SOL    HW222134   6.015   6.394   0.973
 7079SOL     OW22135   1.450   6.386   3.535
 7079SOL    HW122136   1.510   6.342   3.468
 7079SOL    HW222137   1.386   6.447   3.488
 7080SOL     OW22138   4.001   2.118   4.213
 7080SOL    HW122139   4.084   2.087   4.259
 7080SOL    HW222140   3.945   2.039   4.187
 7081SOL     OW22141   0.912   5.725   0.641
 7081SOL    HW122142   0.971   5.769   0.572
 7081SOL    HW222143   0.826   5.775   0.648
 7082SOL     OW22144   6.806   4.234   0.260
 7082SOL    HW122145   6.783   4.198   0.350
 7082SOL    HW222146   6.755   4.184   0.190
 7083SOL     OW22147   0.260   1.562   2.328
 7083SOL    HW122148   0.290   1.643   2.278
 7083SOL    HW222149   0.252   1.583   2.425
 7084SOL     OW22150   0.620   5.545   5.354
 7084SOL    HW122151   0.525   5.577   5.359
 7084SOL    HW222152   0.632   5.468   5.417
 7085SOL     OW22153   6.475   2.209   2.670
 7085SOL    HW122154   6.445   2.275   2.601
 7085SOL    HW222155   6.557   2.244   2.716
 7086SOL     OW22156   5.513   0.853   6.473
 7086SOL    HW122157   5.506   0.834   6.571
 7086SOL    HW222158   5.584   0.794   6.433
 7087SOL     OW22159   5.397   4.035   2.179
 7087SOL    HW122160   5.313   3.984   2.194
 7087SOL    HW222161   5.475   3.972   2.182
 7088SOL     OW22162   5.070   2.381   5.347
 7088SOL    HW122163   5.080   2.282   5.355
 7088SOL    HW222164   5.027   2.417   5.429
 7089SOL     OW22165   2.196   4.137   3.284
 7089SOL    HW122166   2.231   4.209   3.224
 7089SOL    HW222167   2.172   4.176   3.373
 7090SOL     OW22168   2.516   1.887   0.359
 7090SOL    HW122169   2.517   1.791   0.332
 7090SOL    HW222170   2.497   1.944   0.278
 7091SOL     OW22171   0.802   0.955   1.464
 7091SOL    HW122172   0.842   0.882   1.408
 7091SOL    HW222173   0.707   0.968   1.438
 7092SOL     OW22174   3.995   3.070   5.643
 7092SOL    HW122175   4.052   2.988   5.634
 7092SOL    HW222176   4.051   3.151   5.625
 7093SOL     OW22177   3.359   3.800   1.710
 7093SOL    HW122178   3.278   3.807   1.652
 7093SOL    HW222179   3.374   3.705   1.736
 7094SOL     OW22180   1.537   0.117   5.656
 7094SOL    HW122181   1.446   0.076   5.660
 7094SOL    HW222182   1.589   0.094   5.739
 7095SOL     OW22183   3.556   4.559   6.030
 7095SOL    HW122184   3.581   4.617   5.952
 7095SOL    HW222185   3.526   4.470   5.997
 7096SOL     OW22186   6.238   0.597   2.003
 7096SOL    HW122187   6.247   0.679   1.947
 7096SOL    HW222188   6.288   0.610   2.089
 7097SOL     OW22189   5.152   0.983   1.650
 7097SOL    HW122190   5.244   0.982   1.689
 7097SOL    HW222191   5.098   0.908   1.688
 7098SOL     OW22192   1.438   5.876   5.588
 7098SOL    HW122193   1.506   5.869   5.515
 7098SOL    HW222194   1.347   5.880   5.548
 7099SOL     OW22195   3.648   1.942   4.634
 7099SOL    HW122196   3.709   1.943   4.554
 7099SOL    HW222197   3.691   1.994   4.708
 7100SOL     OW22198   6.354   2.984   0.413
 7100SOL    HW122199   6.349   2.884   0.414
 7100SOL    HW222200   6.268   3.022   0.446
 7101SOL     OW22201   2.677   0.838   5.539
 7101SOL    HW122202   2.687   0.913   5.604
 7101SOL    HW222203   2.746   0.768   5.559
 7102SOL     OW22204   5.883   0.231   1.570
 7102SOL    HW122205   5.890   0.257   1.666
 7102SOL    HW222206   5.916   0.137   1.559
 7103SOL     OW22207   5.350   5.220   1.517
 7103SOL    HW122208   5.331   5.299   1.575
 7103SOL    HW222209   5.365   5.250   1.423
 7104SOL     OW22210   5.993   3.500   2.320
 7104SOL    HW122211   5.985   3.596   2.350
 7104SOL    HW222212   5.981   3.495   2.221
 7105SOL     OW22213   3.725   3.732   4.411
 7105SOL    HW122214   3.638   3.752   4.366
 7105SOL    HW222215   3.791   3.805   4.391
 7106SOL     OW22216   3.586   3.003   1.391
 7106SOL    HW122217   3.541   2.964   1.312
 7106SOL    HW222218   3.560   3.099   1.401
 7107SOL     OW22219   4.163   0.628   0.832
 7107SOL    HW122220   4.235   0.560   0.845
 7107SOL    HW222221   4.089   0.588   0.778
 7108SOL     OW22222   2.677   6.155   2.486
 7108SOL    HW122223   2.653   6.161   2.583
 7108SOL    HW222224   2.753   6.091   2.473
 7109SOL     OW22225   1.672   1.225   6.861
 7109SOL    HW122226   1.706   1.136   6.889
 7109SOL    HW222227   1.736   1.296   6.893
 7110SOL     OW22228   3.333   5.806   4.231
 7110SOL    HW122229   3.301   5.896   4.202
 7110SOL    HW222230   3.358   5.808   4.328
 7111SOL     OW22231   1.649   1.873   3.909
 7111SOL    HW122232   1.709   1.941   3.867
 7111SOL    HW222233   1.683   1.782   3.889
 7112SOL     OW22234   1.903   4.519   4.347
 7112SOL    HW122235   1.924   4.584   4.419
 7112SOL    HW222236   1.848   4.563   4.277
 7113SOL     OW22237   3.456   4.037   5.228
 7113SOL    HW122238   3.393   3.960   5.231
 7113SOL    HW222239   3.488   4.057   5.321
 7114SOL     OW22240   4.745   5.340   1.421
 7114SOL    HW122241   4.656   5.302   1.448
 7114SOL    HW222242   4.780   5.290   1.342
 7115SOL     OW22243   5.277   3.635   6.657
 7115SOL    HW122244   5.258   3.611   6.752
 7115SOL    HW222245   5.372   3.663   6.648
 7116SOL     OW22246   5.498   4.151   3.142
 7116SOL    HW122247   5.427   4.135   3.210
 7116SOL    HW222248   5.500   4.249   3.118
 7117SOL     OW22249   0.193   0.117   4.432
 7117SOL    HW122250   0.281   0.161   4.412
 7117SOL    HW222251   0.207   0.020   4.452
 7118SOL     OW22252   4.049   4.200   5.552
 7118SOL    HW122253   4.140   4.228   5.582
 7118SOL    HW222254   4.040   4.216   5.454
 7119SOL     OW22255   5.301   1.143   5.011
 7119SOL    HW122256   5.295   1.197   4.928
 7119SOL    HW222257   5.308   1.046   4.988
 7120SOL     OW22258   4.431   1.842   2.024
 7120SOL    HW122259   4.423   1.877   1.931
 7120SOL    HW222260   4.515   1.788   2.033
 7121SOL     OW22261   0.324   6.401   3.088
 7121SOL    HW122262   0.421   6.409   3.110
 7121SOL    HW222263   0.287   6.491   3.065
 7122SOL     OW22264   1.779   0.337   5.628
 7122SOL    HW122265   1.765   0.421   5.682
 7122SOL    HW222266   1.869   0.300   5.647
 7123SOL     OW22267   0.281   5.103   3.910
 7123SOL    HW122268   0.333   5.148   3.837
 7123SOL    HW222269   0.343   5.080   3.986
 7124SOL     OW22270   0.735   2.444   1.322
 7124SOL    HW122271   0.811   2.383   1.301
 7124SOL    HW222272   0.671   2.398   1.383
 7125SOL     OW22273   1.548   1.359   1.758
 7125SOL    HW122274   1.526   1.293   1.830
 7125SOL    HW222275   1.533   1.316   1.669
 7126SOL     OW22276   4.348   5.882   0.463
 7126SOL    HW122277   4.292   5.861   0.383
 7126SOL    HW222278   4.290   5.911   0.539
 7127SOL     OW22279   2.579   6.093   5.612
 7127SOL    HW122280   2.671   6.075   5.577
 7127SOL    HW222281   2.514   6.034   5.565
 7128SOL     OW22282   4.037   3.595   6.401
 7128SOL    HW122283   4.113   3.615   6.339
 7128SOL    HW222284   3.957   3.647   6.372
 7129SOL     OW22285   1.507   1.284   1.507
 7129SOL    HW122286   1.552   1.238   1.430
 7129SOL    HW222287   1.422   1.325   1.475
 7130SOL     OW22288   3.696   6.295   4.261
 7130SOL    HW122289   3.782   6.295   4.313
 7130SOL    HW222290   3.696   6.370   4.196
 7131SOL     OW22291   3.302   1.089   1.494
 7131SOL    HW122292   3.368   1.059   1.563
 7131SOL    HW222293   3.265   1.009   1.447
 7132SOL     OW22294   5.235   4.194   0.189
 7132SOL    HW122295   5.247   4.292   0.204
 7132SOL    HW222296   5.320   4.155   0.154
 7133SOL     OW22297   4.314   4.718   4.424
 7133SOL    HW122298   4.240   4.741   4.360
 7133SOL    HW222299   4.390   4.781   4.412
 7134SOL     OW22300   5.138   6.646   2.072
 7134SOL    HW122301   5.174   6.707   2.143
 7134SOL    HW222302   5.085   6.700   2.006
 7135SOL     OW22303   2.145   3.212   2.726
 7135SOL    HW122304   2.132   3.311   2.718
 7135SOL    HW222305   2.067   3.171   2.772
 7136SOL     OW22306   3.249   1.663   1.432
 7136SOL    HW122307   3.184   1.641   1.359
 7136SOL    HW222308   3.206   1.725   1.497
 7137SOL     OW22309   2.995   1.979   0.489
 7137SOL    HW122310   2.929   1.959   0.416
 7137SOL    HW222311   2.952   2.039   0.557
 7138SOL     OW22312   1.921   1.295   0.887
 7138SOL    HW122313   1.966   1.289   0.798
 7138SOL    HW222314   1.895   1.204   0.918
 7139SOL     OW22315   5.616   4.699   1.948
 7139SOL    HW122316   5.688   4.766   1.928
 7139SOL    HW222317   5.590   4.706   2.044
 7140SOL     OW22318   6.330   4.484   1.026
 7140SOL    HW122319   6.289   4.494   0.935
 7140SOL    HW222320   6.282   4.412   1.077
 7141SOL     OW22321   4.636   6.961   1.087
 7141SOL    HW122322   4.550   6.919   1.116
 7141SOL    HW222323   4.709   6.939   1.152
 7142SOL     OW22324   3.122   0.492   3.887
 7142SOL    HW122325   3.219   0.467   3.886
 7142SOL    HW222326   3.068   0.416   3.851
 7143SOL     OW22327   1.752   3.893   0.114
 7143SOL    HW122328   1.775   3.798   0.134
 7143SOL    HW222329   1.740   3.904   0.015
 7144SOL     OW22330   0.458   1.015   3.358
 7144SOL    HW122331   0.554   1.037   3.338
 7144SOL    HW222332   0.434   1.053   3.447
 7145SOL     OW22333   4.046   0.869   6.891
 7145SOL    HW122334   4.029   0.902   6.799
 7145SOL    HW222335   3.970   0.894   6.951
 7146SOL     OW22336   1.770   1.765   6.169
 7146SOL    HW122337   1.727   1.774   6.079
 7146SOL    HW222338   1.721   1.822   6.235
 7147SOL     OW22339   6.202   5.878   3.291
 7147SOL    HW122340   6.263   5.920   3.224
 7147SOL    HW222341   6.108   5.880   3.256
 7148SOL     OW22342   6.048   5.946   1.768
 7148SOL    HW122343   6.107   6.018   1.803
 7148SOL    HW222344   5.978   5.924   1.836
 7149SOL     OW22345   0.594   5.150   3.707
 7149SOL    HW122346   0.501   5.186   3.703
 7149SOL    HW222347   0.591   5.053   3.732
 7150SOL     OW22348   3.429   3.023   0.270
 7150SOL    HW122349   3.508   2.966   0.248
 7150SOL    HW222350   3.460   3.108   0.312
 7151SOL     OW22351   3.103   6.609   0.858
 7151SOL    HW122352   3.045   6.561   0.925
 7151SOL    HW222353   3.112   6.705   0.885
 7152SOL     OW22354   6.189   1.227   6.573
 7152SOL    HW122355   6.240   1.186   6.648
 7152SOL    HW222356   6.201   1.171   6.491
 7153SOL     OW22357   3.792   5.333   2.262
 7153SOL    HW122358   3.790   5.274   2.182
 7153SOL    HW222359   3.808   5.277   2.344
 7154SOL     OW22360   3.919   0.257   2.966
 7154SOL    HW122361   3.934   0.290   2.873
 7154SOL    HW222362   3.828   0.217   2.973
 7155SOL     OW22363   3.047   3.079   1.064
 7155SOL    HW122364   2.972   3.143   1.078
 7155SOL    HW222365   3.122   3.124   1.017
 7156SOL     OW22366   4.935   3.454   2.556
 7156SOL    HW122367   4.932   3.554   2.548
 7156SOL    HW222368   4.940   3.414   2.464
 7157SOL     OW22369   6.881   4.363   1.513
 7157SOL    HW122370   6.915   4.339   1.604
 7157SOL    HW222371   6.942   4.431   1.472
 7158SOL     OW22372   6.556   0.143   3.721
 7158SOL    HW122373   6.647   0.162   3.685
 7158SOL    HW222374   6.556   0.052   3.763
 7159SOL     OW22375   0.689   4.547   4.402
 7159SOL    HW122376   0.671   4.455   4.367
 7159SOL    HW222377   0.642   4.558   4.490
 7160SOL     OW22378   6.286   6.548   2.551
 7160SOL    HW122379   6.328   6.524   2.464
 7160SOL    HW222380   6.357   6.555   2.621
 7161SOL     OW22381   4.001   3.894   3.000
 7161SOL    HW122382   3.957   3.858   3.082
 7161SOL    HW222383   4.020   3.992   3.013
 7162SOL     OW22384   0.395   5.067   7.007
 7162SOL    HW122385   0.469   5.012   6.970
 7162SOL    HW222386   0.432   5.151   0.025
 7163SOL     OW22387   2.483   0.510   2.632
 7163SOL    HW122388   2.579   0.507   2.605
 7163SOL    HW222389   2.476   0.545   2.725
 7164SOL     OW22390   1.794   0.596   4.861
 7164SOL    HW122391   1.735   0.595   4.780
 7164SOL    HW222392   1.858   0.519   4.856
 7165SOL     OW22393   6.073   5.745   2.084
 7165SOL    HW122394   6.011   5.700   2.149
 7165SOL    HW222395   6.158   5.770   2.132
 7166SOL     OW22396   5.898   0.756   6.679
 7166SOL    HW122397   5.837   0.833   6.693
 7166SOL    HW222398   5.963   0.778   6.605
 7167SOL     OW22399   5.136   2.459   5.103
 7167SOL    HW122400   5.117   2.552   5.071
 7167SOL    HW222401   5.113   2.452   5.200
 7168SOL     OW22402   2.814   1.890   2.424
 7168SOL    HW122403   2.815   1.988   2.404
 7168SOL    HW222404   2.906   1.860   2.449
 7169SOL     OW22405   0.619   4.372   4.620
 7169SOL    HW122406   0.683   4.366   4.543
 7169SOL    HW222407   0.526   4.375   4.585
 7170SOL     OW22408   3.816   6.336   2.399
 7170SOL    HW122409   3.751   6.400   2.439
 7170SOL    HW222410   3.870   6.383   2.329
 7171SOL     OW22411   6.146   3.977   1.056
 7171SOL    HW122412   6.117   4.059   1.104
 7171SOL    HW222413   6.232   3.995   1.008
 7172SOL     OW22414   1.834   1.630   5.305
 7172SOL    HW122415   1.790   1.586   5.227
 7172SOL    HW222416   1.896   1.565   5.349
 7173SOL     OW22417   6.416   5.309   0.142
 7173SOL    HW122418   6.483   5.254   0.091
 7173SOL    HW222419   6.438   5.307   0.239
 7174SOL     OW22420   6.645   4.699   0.746
 7174SOL    HW122421   6.708   4.625   0.725
 7174SOL    HW222422   6.661   4.776   0.684
 7175SOL     OW22423   6.667   3.400   5.384
 7175SOL    HW122424   6.661   3.350   5.470
 7175SOL    HW222425   6.575   3.420   5.350
 7176SOL     OW22426   0.589   1.084   4.230
 7176SOL    HW122427   0.550   1.113   4.318
 7176SOL    HW222428   0.618   1.165   4.179
 7177SOL     OW22429   1.529   5.300   5.565
 7177SOL    HW122430   1.523   5.393   5.600
 7177SOL    HW222431   1.609   5.254   5.604
 7178SOL     OW22432   1.079   1.192   6.080
 7178SOL    HW122433   1.008   1.142   6.130
 7178SOL    HW222434   1.124   1.257   6.142
 7179SOL     OW22435   1.550   4.050   4.679
 7179SOL    HW122436   1.525   4.071   4.773
 7179SOL    HW222437   1.594   4.129   4.637
 7180SOL     OW22438   2.519   4.043   1.112
 7180SOL    HW122439   2.542   4.138   1.135
 7180SOL    HW222440   2.420   4.036   1.096
 7181SOL     OW22441   2.085   1.435   6.122
 7181SOL    HW122442   2.109   1.527   6.091
 7181SOL    HW222443   2.000   1.438   6.174
 7182SOL     OW22444   0.825   3.570   3.429
 7182SOL    HW122445   0.754   3.500   3.430
 7182SOL    HW222446   0.805   3.637   3.358
 7183SOL     OW22447   2.242   5.795   1.944
 7183SOL    HW122448   2.187   5.754   2.018
 7183SOL    HW222449   2.192   5.872   1.905
 7184SOL     OW22450   5.988   1.093   4.015
 7184SOL    HW122451   6.078   1.131   4.033
 7184SOL    HW222452   5.985   1.057   3.921
 7185SOL     OW22453   5.384   1.017   5.704
 7185SOL    HW122454   5.410   1.102   5.750
 7185SOL    HW222455   5.335   1.038   5.620
 7186SOL     OW22456   0.217   0.958   1.229
 7186SOL    HW122457   0.140   1.015   1.200
 7186SOL    HW222458   0.302   0.996   1.192
 7187SOL     OW22459   2.979   3.536   5.275
 7187SOL    HW122460   3.004   3.462   5.212
 7187SOL    HW222461   2.885   3.522   5.306
 7188SOL     OW22462   4.695   4.858   0.173
 7188SOL    HW122463   4.718   4.923   0.101
 7188SOL    HW222464   4.759   4.781   0.169
 7189SOL     OW22465   6.213   3.129   5.365
 7189SOL    HW122466   6.237   3.122   5.268
 7189SOL    HW222467   6.115   3.112   5.376
 7190SOL     OW22468   6.104   6.303   1.519
 7190SOL    HW122469   6.139   6.216   1.483
 7190SOL    HW222470   6.004   6.303   1.516
 7191SOL     OW22471   0.220   4.061   3.387
 7191SOL    HW122472   0.228   4.152   3.346
 7191SOL    HW222473   0.146   4.011   3.343
 7192SOL     OW22474   1.138   4.612   6.289
 7192SOL    HW122475   1.056   4.659   6.322
 7192SOL    HW222476   1.219   4.662   6.317
 7193SOL     OW22477   2.726   1.737   2.718
 7193SOL    HW122478   2.785   1.678   2.664
 7193SOL    HW222479   2.751   1.833   2.703
 7194SOL     OW22480   2.466   2.503   0.165
 7194SOL    HW122481   2.490   2.489   0.069
 7194SOL    HW222482   2.532   2.566   0.207
 7195SOL     OW22483   6.258   4.207   6.596
 7195SOL    HW122484   6.268   4.302   6.566
 7195SOL    HW222485   6.269   4.147   6.517
 7196SOL     OW22486   3.144   4.005   1.849
 7196SOL    HW122487   3.220   3.950   1.885
 7196SOL    HW222488   3.179   4.093   1.816
 7197SOL     OW22489   1.034   4.071   5.946
 7197SOL    HW122490   1.036   3.974   5.922
 7197SOL    HW222491   0.953   4.113   5.905
 7198SOL     OW22492   0.129   0.815   6.836
 7198SOL    HW122493   0.078   0.797   6.752
 7198SOL    HW222494   0.168   0.729   6.870
 7199SOL     OW22495   0.767   0.341   2.455
 7199SOL    HW122496   0.727   0.377   2.539
 7199SOL    HW222497   0.839   0.402   2.422
 7200SOL     OW22498   1.614   3.177   0.761
 7200SOL    HW122499   1.535   3.115   0.761
 7200SOL    HW222500   1.692   3.131   0.804
 7201SOL     OW22501   0.165   5.548   4.245
 7201SOL    HW122502   0.179   5.506   4.335
 7201SOL    HW222503   0.067   5.558   4.228
 7202SOL     OW22504   5.354   7.014   6.000
 7202SOL    HW122505   5.391   6.958   6.075
 7202SOL    HW222506   5.428   0.046   5.959
 7203SOL     OW22507   0.820   1.134   1.871
 7203SOL    HW122508   0.785   1.224   1.845
 7203SOL    HW222509   0.873   1.143   1.955
 7204SOL     OW22510   6.625   1.349   6.565
 7204SOL    HW122511   6.562   1.312   6.633
 7204SOL    HW222512   6.584   1.430   6.522
 7205SOL     OW22513   1.274   3.576   4.674
 7205SOL    HW122514   1.309   3.649   4.732
 7205SOL    HW222515   1.331   3.494   4.684
 7206SOL     OW22516   1.656   1.558   1.609
 7206SOL    HW122517   1.665   1.625   1.682
 7206SOL    HW222518   1.614   1.474   1.645
 7207SOL     OW22519   2.652   1.237   3.757
 7207SOL    HW122520   2.684   1.317   3.706
 7207SOL    HW222521   2.603   1.267   3.839
 7208SOL     OW22522   4.919   0.273   4.441
 7208SOL    HW122523   5.009   0.248   4.405
 7208SOL    HW222524   4.854   0.199   4.424
 7209SOL     OW22525   2.164   2.969   2.312
 7209SOL    HW122526   2.200   3.001   2.399
 7209SOL    HW222527   2.217   2.890   2.281
 7210SOL     OW22528   3.623   2.095   4.031
 7210SOL    HW122529   3.609   2.116   3.934
 7210SOL    HW222530   3.669   2.171   4.076
 7211SOL     OW22531   2.898   6.004   5.258
 7211SOL    HW122532   2.944   6.088   5.287
 7211SOL    HW222533   2.861   6.016   5.166
 7212SOL     OW22534   0.173   6.523   6.236
 7212SOL    HW122535   0.244   6.490   6.298
 7212SOL    HW222536   0.185   6.480   6.146
 7213SOL     OW22537   3.630   6.106   6.265
 7213SOL    HW122538   3.666   6.084   6.355
 7213SOL    HW222539   3.669   6.192   6.233
 7214SOL     OW22540   6.869   1.090   5.768
 7214SOL    HW122541   6.817   1.023   5.715
 7214SOL    HW222542   6.884   1.172   5.713
 7215SOL     OW22543   6.069   2.496   4.392
 7215SOL    HW122544   6.121   2.488   4.307
 7215SOL    HW222545   5.988   2.551   4.376
 7216SOL     OW22546   3.261   5.922   2.071
 7216SOL    HW122547   3.220   5.999   2.120
 7216SOL    HW222548   3.360   5.920   2.087
 7217SOL     OW22549   1.465   3.453   3.402
 7217SOL    HW122550   1.481   3.547   3.433
 7217SOL    HW222551   1.523   3.435   3.323
 7218SOL     OW22552   6.835   2.998   4.276
 7218SOL    HW122553   6.921   3.028   4.234
 7218SOL    HW222554   6.855   2.930   4.346
 7219SOL     OW22555   2.986   6.802   2.184
 7219SOL    HW122556   2.995   6.705   2.162
 7219SOL    HW222557   2.941   6.850   2.109
 7220SOL     OW22558   6.582   4.856   3.794
 7220SOL    HW122559   6.494   4.903   3.794
 7220SOL    HW222560   6.656   4.924   3.800
 7221SOL     OW22561   3.422   5.899   4.759
 7221SOL    HW122562   3.500   5.836   4.758
 7221SOL    HW222563   3.456   5.993   4.769
 7222SOL     OW22564   5.892   6.942   3.057
 7222SOL    HW122565   5.824   6.996   3.007
 7222SOL    HW222566   5.846   6.876   3.116
 7223SOL     OW22567   2.983   1.184   0.855
 7223SOL    HW122568   2.918   1.206   0.928
 7223SOL    HW222569   2.937   1.126   0.787
 7224SOL     OW22570   4.685   2.757   4.605
 7224SOL    HW122571   4.726   2.675   4.565
 7224SOL    HW222572   4.723   2.838   4.561
 7225SOL     OW22573   1.826   6.623   0.698
 7225SOL    HW122574   1.784   6.654   0.612
 7225SOL    HW222575   1.913   6.671   0.711
 7226SOL     OW22576   6.157   0.381   1.498
 7226SOL    HW122577   6.069   0.336   1.486
 7226SOL    HW222578   6.207   0.382   1.411
 7227SOL     OW22579   3.160   1.812   1.991
 7227SOL    HW122580   3.099   1.778   2.064
 7227SOL    HW222581   3.110   1.878   1.935
 7228SOL     OW22582   1.498   1.229   3.248
 7228SOL    HW122583   1.459   1.145   3.285
 7228SOL    HW222584   1.425   1.297   3.234
 7229SOL     OW22585   0.586   0.013   4.485
 7229SOL    HW122586   0.538   0.086   4.438
 7229SOL    HW222587   0.634   6.976   4.418
 7230SOL     OW22588   3.112   5.682   3.557
 7230SOL    HW122589   3.164   5.619   3.615
 7230SOL    HW222590   3.083   5.636   3.474
 7231SOL     OW22591   4.643   0.522   0.100
 7231SOL    HW122592   4.709   0.553   0.169
 7231SOL    HW222593   4.566   0.587   0.097
 7232SOL     OW22594   5.083   6.514   2.560
 7232SOL    HW122595   5.079   6.554   2.652
 7232SOL    HW222596   5.126   6.424   2.564
 7233SOL     OW22597   1.059   1.372   5.152
 7233SOL    HW122598   1.027   1.277   5.147
 7233SOL    HW222599   1.144   1.381   5.100
 7234SOL     OW22600   5.566   3.486   2.655
 7234SOL    HW122601   5.558   3.425   2.734
 7234SOL    HW222602   5.641   3.455   2.597
 7235SOL     OW22603   6.233   4.345   1.922
 7235SOL    HW122604   6.142   4.309   1.943
 7235SOL    HW222605   6.225   4.443   1.901
 7236SOL     OW22606   2.500   2.599   2.850
 7236SOL    HW122607   2.444   2.562   2.776
 7236SOL    HW222608   2.588   2.551   2.853
 7237SOL     OW22609   3.761   0.137   6.109
 7237SOL    HW122610   3.673   0.128   6.155
 7237SOL    HW222611   3.834   0.138   6.177
 7238SOL     OW22612   4.694   2.404   6.207
 7238SOL    HW122613   4.728   2.370   6.295
 7238SOL    HW222614   4.631   2.480   6.224
 7239SOL     OW22615   1.125   2.896   1.773
 7239SOL    HW122616   1.029   2.872   1.784
 7239SOL    HW222617   1.168   2.835   1.707
 7240SOL     OW22618   6.898   1.425   6.644
 7240SOL    HW122619   6.815   1.408   6.591
 7240SOL    HW222620   6.900   1.365   6.724
 7241SOL     OW22621   2.507   0.113   0.503
 7241SOL    HW122622   2.540   0.206   0.485
 7241SOL    HW222623   2.547   0.050   0.437
 7242SOL     OW22624   6.934   5.355   6.160
 7242SOL    HW122625   6.869   5.283   6.183
 7242SOL    HW222626   6.889   5.444   6.164
 7243SOL     OW22627   6.788   4.596   6.225
 7243SOL    HW122628   6.771   4.668   6.292
 7243SOL    HW222629   6.859   4.626   6.162
 7244SOL     OW22630   0.638   0.148   1.239
 7244SOL    HW122631   0.634   0.217   1.311
 7244SOL    HW222632   0.617   0.058   1.279
 7245SOL     OW22633   0.941   3.139   5.401
 7245SOL    HW122634   1.040   3.142   5.412
 7245SOL    HW222635   0.907   3.232   5.385
 7246SOL     OW22636   1.506   0.114   3.635
 7246SOL    HW122637   1.552   0.034   3.674
 7246SOL    HW222638   1.520   0.116   3.536
 7247SOL     OW22639   2.848   1.714   5.510
 7247SOL    HW122640   2.946   1.732   5.505
 7247SOL    HW222641   2.799   1.782   5.456
 7248SOL     OW22642   3.271   0.730   2.739
 7248SOL    HW122643   3.363   0.769   2.729
 7248SOL    HW222644   3.254   0.709   2.836
 7249SOL     OW22645   5.122   5.106   1.699
 7249SOL    HW122646   5.176   5.122   1.781
 7249SOL    HW222647   5.171   5.138   1.618
 7250SOL     OW22648   5.104   5.418   6.091
 7250SOL    HW122649   5.154   5.339   6.057
 7250SOL    HW222650   5.143   5.502   6.051
 7251SOL     OW22651   1.082   6.818   4.659
 7251SOL    HW122652   1.099   6.899   4.715
 7251SOL    HW222653   1.129   6.739   4.699
 7252SOL     OW22654   3.088   3.514   1.886
 7252SOL    HW122655   3.071   3.542   1.791
 7252SOL    HW222656   3.072   3.592   1.947
 7253SOL     OW22657   1.946   5.881   6.574
 7253SOL    HW122658   1.984   5.958   6.625
 7253SOL    HW222659   1.932   5.907   6.479
 7254SOL     OW22660   5.468   5.044   4.655
 7254SOL    HW122661   5.520   4.961   4.677
 7254SOL    HW222662   5.499   5.119   4.714
 7255SOL     OW22663   4.329   3.530   0.112
 7255SOL    HW122664   4.254   3.579   0.067
 7255SOL    HW222665   4.396   3.502   0.044
 7256SOL     OW22666   3.169   5.704   5.640
 7256SOL    HW122667   3.202   5.760   5.564
 7256SOL    HW222668   3.159   5.609   5.610
 7257SOL     OW22669   0.237   2.009   3.705
 7257SOL    HW122670   0.143   1.976   3.701
 7257SOL    HW222671   0.263   2.048   3.617
 7258SOL     OW22672   4.689   2.089   2.990
 7258SOL    HW122673   4.686   2.187   2.969
 7258SOL    HW222674   4.596   2.056   3.008
 7259SOL     OW22675   1.804   3.550   2.138
 7259SOL    HW122676   1.801   3.574   2.235
 7259SOL    HW222677   1.711   3.543   2.103
 7260SOL     OW22678   5.705   1.578   1.888
 7260SOL    HW122679   5.778   1.542   1.829
 7260SOL    HW222680   5.648   1.641   1.837
 7261SOL     OW22681   0.704   4.949   1.688
 7261SOL    HW122682   0.794   4.910   1.710
 7261SOL    HW222683   0.710   5.049   1.689
 7262SOL     OW22684   5.461   2.150   6.509
 7262SOL    HW122685   5.415   2.061   6.509
 7262SOL    HW222686   5.509   2.162   6.422
 7263SOL     OW22687   0.445   6.322   6.713
 7263SOL    HW122688   0.406   6.324   6.621
 7263SOL    HW222689   0.385   6.270   6.774
 7264SOL     OW22690   5.421   1.364   0.803
 7264SOL    HW122691   5.386   1.351   0.710
 7264SOL    HW222692   5.409   1.460   0.830
 7265SOL     OW22693   5.609   4.861   5.943
 7265SOL    HW122694   5.579   4.955   5.928
 7265SOL    HW222695   5.696   4.845   5.898
 7266SOL     OW22696   5.433   1.221   3.345
 7266SOL    HW122697   5.378   1.167   3.282
 7266SOL    HW222698   5.528   1.222   3.314
 7267SOL     OW22699   6.621   6.367   5.286
 7267SOL    HW122700   6.709   6.389   5.243
 7267SOL    HW222701   6.571   6.302   5.227
 7268SOL     OW22702   6.971   5.802   4.753
 7268SOL    HW122703   6.889   5.746   4.744
 7268SOL    HW222704   6.955   5.874   4.820
 7269SOL     OW22705   1.859   6.412   5.951
 7269SOL    HW122706   1.913   6.364   6.021
 7269SOL    HW222707   1.871   6.511   5.962
 7270SOL     OW22708   0.567   2.917   4.828
 7270SOL    HW122709   0.612   3.001   4.798
 7270SOL    HW222710   0.482   2.904   4.777
 7271SOL     OW22711   1.568   5.363   4.337
 7271SOL    HW122712   1.473   5.335   4.346
 7271SOL    HW222713   1.590   5.432   4.406
 7272SOL     OW22714   6.145   5.880   2.440
 7272SOL    HW122715   6.169   5.931   2.522
 7272SOL    HW222716   6.095   5.797   2.465
 7273SOL     OW22717   6.357   4.027   0.674
 7273SOL    HW122718   6.330   3.970   0.597
 7273SOL    HW222719   6.309   4.114   0.670
 7274SOL     OW22720   0.562   5.217   6.780
 7274SOL    HW122721   0.476   5.170   6.759
 7274SOL    HW222722   0.551   5.271   6.863
 7275SOL     OW22723   6.853   5.230   3.090
 7275SOL    HW122724   6.843   5.138   3.054
 7275SOL    HW222725   6.944   5.265   3.067
 7276SOL     OW22726   4.559   0.846   3.820
 7276SOL    HW122727   4.608   0.928   3.847
 7276SOL    HW222728   4.518   0.803   3.901
 7277SOL     OW22729   4.741   0.430   4.289
 7277SOL    HW122730   4.767   0.431   4.385
 7277SOL    HW222731   4.812   0.384   4.236
 7278SOL     OW22732   3.949   2.959   1.129
 7278SOL    HW122733   3.917   2.953   1.223
 7278SOL    HW222734   3.971   2.868   1.095
 7279SOL     OW22735   3.937   5.001   6.469
 7279SOL    HW122736   3.987   4.985   6.555
 7279SOL    HW222737   3.932   4.916   6.417
 7280SOL     OW22738   0.068   1.741   3.959
 7280SOL    HW122739   0.100   1.648   3.978
 7280SOL    HW222740   0.145   1.805   3.968
 7281SOL     OW22741   2.716   1.735   6.460
 7281SOL    HW122742   2.713   1.696   6.368
 7281SOL    HW222743   2.632   1.711   6.509
 7282SOL     OW22744   5.295   5.541   3.232
 7282SOL    HW122745   5.370   5.604   3.252
 7282SOL    HW222746   5.208   5.590   3.236
 7283SOL     OW22747   4.376   1.301   2.578
 7283SOL    HW122748   4.375   1.207   2.612
 7283SOL    HW222749   4.443   1.355   2.630
 7284SOL     OW22750   0.550   2.951   6.330
 7284SOL    HW122751   0.515   2.968   6.238
 7284SOL    HW222752   0.519   2.861   6.361
 7285SOL     OW22753   5.098   3.050   2.359
 7285SOL    HW122754   5.163   3.083   2.291
 7285SOL    HW222755   5.006   3.051   2.320
 7286SOL     OW22756   3.021   0.712   0.419
 7286SOL    HW122757   3.078   0.789   0.448
 7286SOL    HW222758   2.925   0.740   0.420
 7287SOL     OW22759   7.010   2.447   5.909
 7287SOL    HW122760   6.986   2.474   6.002
 7287SOL    HW222761   0.021   2.352   5.908
 7288SOL     OW22762   3.104   0.488   0.314
 7288SOL    HW122763   3.199   0.478   0.285
 7288SOL    HW222764   3.092   0.577   0.358
 7289SOL     OW22765   4.939   2.690   4.427
 7289SOL    HW122766   4.915   2.609   4.373
 7289SOL    HW222767   5.002   2.748   4.375
 7290SOL     OW22768   3.560   0.020   5.552
 7290SOL    HW122769   3.509   0.104   5.572
 7290SOL    HW222770   3.532   7.006   5.462
 7291SOL     OW22771   2.010   6.809   0.829
 7291SOL    HW122772   1.951   6.756   0.889
 7291SOL    HW222773   2.017   6.903   0.863
 7292SOL     OW22774   3.862   0.953   3.145
 7292SOL    HW122775   3.960   0.972   3.154
 7292SOL    HW222776   3.826   0.921   3.233
 7293SOL     OW22777   1.165   1.923   4.884
 7293SOL    HW122778   1.254   1.885   4.858
 7293SOL    HW222779   1.166   2.022   4.869
 7294SOL     OW22780   2.774   4.815   6.913
 7294SOL    HW122781   2.868   4.808   6.882
 7294SOL    HW222782   2.735   4.723   6.923
 7295SOL     OW22783   1.160   2.638   0.883
 7295SOL    HW122784   1.071   2.594   0.886
 7295SOL    HW222785   1.175   2.679   0.793
 7296SOL     OW22786   3.095   5.493   1.694
 7296SOL    HW122787   3.019   5.523   1.752
 7296SOL    HW222788   3.080   5.399   1.664
 7297SOL     OW22789   3.715   6.583   1.585
 7297SOL    HW122790   3.745   6.556   1.494
 7297SOL    HW222791   3.637   6.646   1.577
 7298SOL     OW22792   5.066   4.554   5.266
 7298SOL    HW122793   5.088   4.457   5.257
 7298SOL    HW222794   5.023   4.571   5.355
 7299SOL     OW22795   0.896   1.451   0.507
 7299SOL    HW122796   0.881   1.497   0.595
 7299SOL    HW222797   0.945   1.365   0.523
 7300SOL     OW22798   6.574   5.858   3.200
 7300SOL    HW122799   6.589   5.896   3.292
 7300SOL    HW222800   6.506   5.914   3.152
 7301SOL     OW22801   5.744   0.867   5.062
 7301SOL    HW122802   5.684   0.947   5.063
 7301SOL    HW222803   5.836   0.894   5.035
 7302SOL     OW22804   0.746   2.027   5.504
 7302SOL    HW122805   0.842   2.002   5.492
 7302SOL    HW222806   0.710   2.064   5.419
 7303SOL     OW22807   3.582   0.566   0.534
 7303SOL    HW122808   3.572   0.467   0.529
 7303SOL    HW222809   3.648   0.590   0.604
 7304SOL     OW22810   4.255   4.697   1.016
 7304SOL    HW122811   4.199   4.730   1.092
 7304SOL    HW222812   4.224   4.606   0.990
 7305SOL     OW22813   5.057   0.990   0.228
 7305SOL    HW122814   4.973   0.983   0.176
 7305SOL    HW222815   5.093   0.899   0.247
 7306SOL     OW22816   4.899   2.198   1.378
 7306SOL    HW122817   4.837   2.144   1.435
 7306SOL    HW222818   4.862   2.290   1.367
 7307SOL     OW22819   2.296   6.835   2.148
 7307SOL    HW122820   2.317   6.929   2.173
 7307SOL    HW222821   2.226   6.799   2.210
 7308SOL     OW22822   6.811   3.204   5.823
 7308SOL    HW122823   6.792   3.235   5.730
 7308SOL    HW222824   6.906   3.173   5.828
 7309SOL     OW22825   4.710   5.606   1.422
 7309SOL    HW122826   4.737   5.510   1.424
 7309SOL    HW222827   4.623   5.617   1.470
 7310SOL     OW22828   2.249   4.141   1.561
 7310SOL    HW122829   2.255   4.048   1.597
 7310SOL    HW222830   2.163   4.183   1.590
 7311SOL     OW22831   2.792   2.079   1.651
 7311SOL    HW122832   2.697   2.074   1.684
 7311SOL    HW222833   2.801   2.156   1.588
 7312SOL     OW22834   0.747   3.377   4.614
 7312SOL    HW122835   0.701   3.353   4.700
 7312SOL    HW222836   0.834   3.421   4.634
 7313SOL     OW22837   2.495   1.398   6.153
 7313SOL    HW122838   2.564   1.449   6.204
 7313SOL    HW222839   2.458   1.454   6.079
 7314SOL     OW22840   6.787   5.598   6.172
 7314SOL    HW122841   6.707   5.595   6.233
 7314SOL    HW222842   6.851   5.667   6.204
 7315SOL     OW22843   6.297   0.505   2.452
 7315SOL    HW122844   6.225   0.471   2.512
 7315SOL    HW222845   6.386   0.478   2.488
 7316SOL     OW22846   2.977   3.766   6.223
 7316SOL    HW122847   3.067   3.734   6.250
 7316SOL    HW222848   2.969   3.762   6.123
 7317SOL     OW22849   5.276   1.317   2.898
 7317SOL    HW122850   5.212   1.351   2.966
 7317SOL    HW222851   5.279   1.379   2.820
 7318SOL     OW22852   1.664   0.883   1.489
 7318SOL    HW122853   1.596   0.948   1.524
 7318SOL    HW222854   1.755   0.922   1.496
 7319SOL     OW22855   6.958   4.190   6.416
 7319SOL    HW122856   6.907   4.120   6.467
 7319SOL    HW222857   0.003   4.235   6.477
 7320SOL     OW22858   6.313   3.773   2.450
 7320SOL    HW122859   6.272   3.700   2.505
 7320SOL    HW222860   6.246   3.846   2.436
 7321SOL     OW22861   2.580   0.603   5.759
 7321SOL    HW122862   2.610   0.694   5.788
 7321SOL    HW222863   2.657   0.552   5.723
 7322SOL     OW22864   6.950   2.688   3.009
 7322SOL    HW122865   0.028   2.683   3.027
 7322SOL    HW222866   6.905   2.734   3.085
 7323SOL     OW22867   1.927   1.920   2.234
 7323SOL    HW122868   1.924   1.899   2.137
 7323SOL    HW222869   1.964   2.012   2.248
 7324SOL     OW22870   4.620   6.447   2.426
 7324SOL    HW122871   4.712   6.415   2.447
 7324SOL    HW222872   4.594   6.520   2.489
 7325SOL     OW22873   3.508   6.965   0.387
 7325SOL    HW122874   3.442   6.982   0.314
 7325SOL    HW222875   3.463   6.916   0.461
 7326SOL     OW22876   3.101   5.722   5.313
 7326SOL    HW122877   3.055   5.807   5.337
 7326SOL    HW222878   3.041   5.644   5.332
 7327SOL     OW22879   5.778   1.612   6.261
 7327SOL    HW122880   5.748   1.553   6.187
 7327SOL    HW222881   5.872   1.590   6.286
 7328SOL     OW22882   3.786   0.786   6.572
 7328SOL    HW122883   3.730   0.730   6.633
 7328SOL    HW222884   3.850   0.840   6.626
 7329SOL     OW22885   5.884   3.839   1.256
 7329SOL    HW122886   5.903   3.936   1.270
 7329SOL    HW222887   5.816   3.829   1.183
 7330SOL     OW22888   2.313   2.020   6.912
 7330SOL    HW122889   2.222   2.049   6.882
 7330SOL    HW222890   2.336   1.933   6.868
 7331SOL     OW22891   5.339   6.980   1.973
 7331SOL    HW122892   5.410   0.029   1.969
 7331SOL    HW222893   5.373   6.896   1.930
 7332SOL     OW22894   2.164   6.303   0.282
 7332SOL    HW122895   2.202   6.357   0.207
 7332SOL    HW222896   2.235   6.284   0.349
 7333SOL     OW22897   0.607   2.634   2.286
 7333SOL    HW122898   0.637   2.582   2.366
 7333SOL    HW222899   0.591   2.572   2.210
 7334SOL     OW22900   2.901   5.591   5.936
 7334SOL    HW122901   2.988   5.547   5.912
 7334SOL    HW222902   2.909   5.690   5.924
 7335SOL     OW22903   1.925   2.569   3.122
 7335SOL    HW122904   1.903   2.497   3.056
 7335SOL    HW222905   2.024   2.581   3.126
 7336SOL     OW22906   1.545   6.983   2.941
 7336SOL    HW122907   1.576   0.018   2.864
 7336SOL    HW222908   1.524   6.891   2.910
 7337SOL     OW22909   6.992   3.301   1.986
 7337SOL    HW122910   0.062   3.293   1.944
 7337SOL    HW222911   6.998   3.275   2.083
 7338SOL     OW22912   6.613   2.205   1.537
 7338SOL    HW122913   6.630   2.110   1.560
 7338SOL    HW222914   6.691   2.261   1.565
 7339SOL     OW22915   5.873   6.703   3.889
 7339SOL    HW122916   5.937   6.684   3.963
 7339SOL    HW222917   5.830   6.792   3.905
 7340SOL     OW22918   2.485   1.063   0.905
 7340SOL    HW122919   2.406   1.013   0.871
 7340SOL    HW222920   2.557   0.998   0.930
 7341SOL     OW22921   6.950   3.104   6.515
 7341SOL    HW122922   6.971   3.052   6.598
 7341SOL    HW222923   6.873   3.165   6.533
 7342SOL     OW22924   0.347   1.810   1.322
 7342SOL    HW122925   0.250   1.811   1.347
 7342SOL    HW222926   0.387   1.900   1.341
 7343SOL     OW22927   5.800   3.749   0.443
 7343SOL    HW122928   5.761   3.767   0.352
 7343SOL    HW222929   5.898   3.734   0.435
 7344SOL     OW22930   0.913   1.270   6.784
 7344SOL    HW122931   0.837   1.220   6.743
 7344SOL    HW222932   0.987   1.206   6.806
 7345SOL     OW22933   4.437   4.506   5.927
 7345SOL    HW122934   4.459   4.549   5.839
 7345SOL    HW222935   4.489   4.422   5.936
 7346SOL     OW22936   4.083   5.950   2.122
 7346SOL    HW122937   4.089   6.049   2.111
 7346SOL    HW222938   4.032   5.911   2.045
 7347SOL     OW22939   1.132   1.641   0.511
 7347SOL    HW122940   1.099   1.626   0.604
 7347SOL    HW222941   1.196   1.569   0.486
 7348SOL     OW22942   1.306   4.144   3.810
 7348SOL    HW122943   1.243   4.201   3.757
 7348SOL    HW222944   1.375   4.106   3.749
 7349SOL     OW22945   4.503   1.015   1.393
 7349SOL    HW122946   4.484   1.094   1.334
 7349SOL    HW222947   4.597   1.021   1.428
 7350SOL     OW22948   2.833   2.360   5.666
 7350SOL    HW122949   2.784   2.341   5.580
 7350SOL    HW222950   2.923   2.397   5.646
 7351SOL     OW22951   5.636   5.457   4.779
 7351SOL    HW122952   5.594   5.380   4.828
 7351SOL    HW222953   5.575   5.536   4.782
 7352SOL     OW22954   2.154   1.937   2.853
 7352SOL    HW122955   2.207   1.926   2.936
 7352SOL    HW222956   2.176   1.864   2.789
 7353SOL     OW22957   0.324   0.625   6.134
 7353SOL    HW122958   0.245   0.618   6.073
 7353SOL    HW222959   0.323   0.551   6.200
 7354SOL     OW22960   1.095   1.773   4.398
 7354SOL    HW122961   1.163   1.806   4.332
 7354SOL    HW222962   1.076   1.846   4.464
 7355SOL     OW22963   1.481   0.795   0.903
 7355SOL    HW122964   1.522   0.721   0.850
 7355SOL    HW222965   1.544   0.873   0.904
 7356SOL     OW22966   3.904   3.317   6.339
 7356SOL    HW122967   3.913   3.273   6.250
 7356SOL    HW222968   3.953   3.404   6.339
 7357SOL     OW22969   3.167   6.287   1.938
 7357SOL    HW122970   3.126   6.243   1.858
 7357SOL    HW222971   3.266   6.296   1.924
 7358SOL     OW22972   6.423   3.150   2.375
 7358SOL    HW122973   6.327   3.158   2.401
 7358SOL    HW222974   6.468   3.082   2.432
 7359SOL     OW22975   4.306   1.991   5.594
 7359SOL    HW122976   4.394   2.001   5.546
 7359SOL    HW222977   4.305   2.051   5.674
 7360SOL     OW22978   3.078   3.130   5.371
 7360SOL    HW122979   2.998   3.185   5.393
 7360SOL    HW222980   3.155   3.190   5.348
 7361SOL     OW22981   5.060   0.643   2.649
 7361SOL    HW122982   5.088   0.636   2.745
 7361SOL    HW222983   4.986   0.709   2.639
 7362SOL     OW22984   1.261   5.937   6.498
 7362SOL    HW122985   1.286   6.027   6.463
 7362SOL    HW222986   1.222   5.945   6.589
 7363SOL     OW22987   4.249   1.678   1.251
 7363SOL    HW122988   4.201   1.700   1.335
 7363SOL    HW222989   4.214   1.734   1.176
 7364SOL     OW22990   4.298   0.916   2.059
 7364SOL    HW122991   4.330   0.834   2.012
 7364SOL    HW222992   4.362   0.990   2.044
 7365SOL     OW22993   0.521   6.222   1.589
 7365SOL    HW122994   0.482   6.243   1.679
 7365SOL    HW222995   0.611   6.264   1.582
 7366SOL     OW22996   2.476   6.510   5.882
 7366SOL    HW122997   2.411   6.492   5.808
 7366SOL    HW222998   2.427   6.535   5.965
 7367SOL     OW22999   4.471   2.912   1.047
 7367SOL    HW123000   4.387   2.891   0.996
 7367SOL    HW223001   4.449   2.974   1.122
 7368SOL     OW23002   3.800   2.983   2.627
 7368SOL    HW123003   3.808   2.930   2.543
 7368SOL    HW223004   3.848   3.070   2.617
 7369SOL     OW23005   2.758   2.329   1.124
 7369SOL    HW123006   2.756   2.300   1.028
 7369SOL    HW223007   2.833   2.282   1.171
 7370SOL     OW23008   2.008   1.454   5.450
 7370SOL    HW123009   1.914   1.424   5.466
 7370SOL    HW223010   2.057   1.462   5.537
 7371SOL     OW23011   2.459   6.588   3.476
 7371SOL    HW123012   2.447   6.619   3.382
 7371SOL    HW223013   2.417   6.654   3.539
 7372SOL     OW23014   4.268   6.963   4.424
 7372SOL    HW123015   4.199   7.011   4.370
 7372SOL    HW223016   4.230   6.876   4.456
 7373SOL     OW23017   6.283   1.565   4.466
 7373SOL    HW123018   6.288   1.479   4.416
 7373SOL    HW223019   6.219   1.555   4.543
 7374SOL     OW23020   2.619   2.205   5.222
 7374SOL    HW123021   2.650   2.119   5.262
 7374SOL    HW223022   2.697   2.267   5.209
 7375SOL     OW23023   2.108   2.582   2.473
 7375SOL    HW123024   2.037   2.644   2.504
 7375SOL    HW223025   2.067   2.493   2.451
 7376SOL     OW23026   1.706   1.596   1.100
 7376SOL    HW123027   1.673   1.604   1.194
 7376SOL    HW223028   1.665   1.515   1.057
 7377SOL     OW23029   5.064   4.966   0.548
 7377SOL    HW123030   5.150   4.921   0.523
 7377SOL    HW223031   5.015   4.993   0.466
 7378SOL     OW23032   1.068   0.215   4.995
 7378SOL    HW123033   1.096   0.174   5.082
 7378SOL    HW223034   1.069   0.315   5.003
 7379SOL     OW23035   3.726   1.522   2.416
 7379SOL    HW123036   3.762   1.609   2.449
 7379SOL    HW223037   3.755   1.448   2.476
 7380SOL     OW23038   0.457   4.594   4.028
 7380SOL    HW123039   0.536   4.594   4.090
 7380SOL    HW223040   0.444   4.502   3.992
 7381SOL     OW23041   4.159   3.059   0.495
 7381SOL    HW123042   4.104   3.131   0.453
 7381SOL    HW223043   4.183   2.990   0.426
 7382SOL     OW23044   6.818   1.004   4.790
 7382SOL    HW123045   6.900   0.948   4.777
 7382SOL    HW223046   6.821   1.046   4.881
 7383SOL     OW23047   2.915   6.247   1.202
 7383SOL    HW123048   2.973   6.214   1.128
 7383SOL    HW223049   2.954   6.219   1.290
 7384SOL     OW23050   0.051   6.359   2.983
 7384SOL    HW123051   0.143   6.353   3.022
 7384SOL    HW223052   0.018   6.267   2.964
 7385SOL     OW23053   2.824   5.406   2.311
 7385SOL    HW123054   2.866   5.497   2.306
 7385SOL    HW223055   2.879   5.347   2.370
 7386SOL     OW23056   6.823   2.728   6.652
 7386SOL    HW123057   6.768   2.757   6.731
 7386SOL    HW223058   6.902   2.789   6.644
 7387SOL     OW23059   6.872   5.136   5.668
 7387SOL    HW123060   6.799   5.112   5.605
 7387SOL    HW223061   6.852   5.099   5.758
 7388SOL     OW23062   1.069   4.789   2.467
 7388SOL    HW123063   1.109   4.824   2.553
 7388SOL    HW223064   1.118   4.830   2.390
 7389SOL     OW23065   6.506   4.059   6.123
 7389SOL    HW123066   6.430   4.119   6.148
 7389SOL    HW223067   6.480   3.964   6.141
 7390SOL     OW23068   2.099   2.070   1.963
 7390SOL    HW123069   2.188   2.113   1.947
 7390SOL    HW223070   2.028   2.140   1.960
 7391SOL     OW23071   3.821   3.488   3.244
 7391SOL    HW123072   3.740   3.445   3.283
 7391SOL    HW223073   3.879   3.419   3.202
 7392SOL     OW23074   3.158   6.007   6.684
 7392SOL    HW123075   3.102   5.970   6.610
 7392SOL    HW223076   3.118   6.093   6.717
 7393SOL     OW23077   5.923   4.600   3.229
 7393SOL    HW123078   6.003   4.545   3.255
 7393SOL    HW223079   5.911   4.675   3.295
 7394SOL     OW23080   1.499   3.053   5.336
 7394SOL    HW123081   1.526   2.976   5.277
 7394SOL    HW223082   1.430   3.021   5.402
 7395SOL     OW23083   2.074   3.598   1.016
 7395SOL    HW123084   1.977   3.582   0.997
 7395SOL    HW223085   2.085   3.684   1.064
 7396SOL     OW23086   2.071   6.732   1.138
 7396SOL    HW123087   2.166   6.706   1.156
 7396SOL    HW223088   2.067   6.829   1.117
 7397SOL     OW23089   4.749   5.456   4.561
 7397SOL    HW123090   4.789   5.417   4.644
 7397SOL    HW223091   4.703   5.384   4.509
 7398SOL     OW23092   1.272   5.011   3.211
 7398SOL    HW123093   1.204   4.938   3.221
 7398SOL    HW223094   1.363   4.972   3.221
 7399SOL     OW23095   0.492   2.634   4.160
 7399SOL    HW123096   0.578   2.598   4.197
 7399SOL    HW223097   0.472   2.722   4.201
 7400SOL     OW23098   4.207   2.599   6.003
 7400SOL    HW123099   4.290   2.554   6.034
 7400SOL    HW223100   4.226   2.696   5.984
 7401SOL     OW23101   0.990   2.960   3.430
 7401SOL    HW123102   1.017   3.039   3.485
 7401SOL    HW223103   1.069   2.903   3.411
 7402SOL     OW23104   3.354   4.262   6.040
 7402SOL    HW123105   3.327   4.184   5.984
 7402SOL    HW223106   3.341   4.240   6.137
 7403SOL     OW23107   1.319   3.916   2.218
 7403SOL    HW123108   1.243   3.978   2.201
 7403SOL    HW223109   1.285   3.822   2.217
 7404SOL     OW23110   2.781   4.845   1.849
 7404SOL    HW123111   2.750   4.908   1.920
 7404SOL    HW223112   2.774   4.751   1.882
 7405SOL     OW23113   3.843   5.037   4.299
 7405SOL    HW123114   3.806   5.115   4.350
 7405SOL    HW223115   3.791   5.024   4.215
 7406SOL     OW23116   0.838   1.670   4.373
 7406SOL    HW123117   0.932   1.702   4.378
 7406SOL    HW223118   0.776   1.748   4.364
 7407SOL     OW23119   1.136   6.829   5.030
 7407SOL    HW123120   1.213   6.835   4.966
 7407SOL    HW223121   1.051   6.820   4.980
 7408SOL     OW23122   3.926   3.847   5.935
 7408SOL    HW123123   3.956   3.753   5.922
 7408SOL    HW223124   3.843   3.863   5.882
 7409SOL     OW23125   5.622   3.280   6.850
 7409SOL    HW123126   5.522   3.278   6.853
 7409SOL    HW223127   5.659   3.219   6.920
 7410SOL     OW23128   0.716   0.700   7.005
 7410SOL    HW123129   0.702   0.703   6.906
 7410SOL    HW223130   0.725   0.605   0.014
 7411SOL     OW23131   2.382   1.040   0.231
 7411SOL    HW123132   2.324   0.963   0.257
 7411SOL    HW223133   2.342   1.125   0.266
 7412SOL     OW23134   4.387   6.891   1.237
 7412SOL    HW123135   4.344   6.897   1.147
 7412SOL    HW223136   4.334   6.945   1.303
 7413SOL     OW23137   4.285   4.994   3.929
 7413SOL    HW123138   4.295   5.040   3.841
 7413SOL    HW223139   4.190   4.965   3.941
 7414SOL     OW23140   2.049   0.966   3.347
 7414SOL    HW123141   2.040   0.941   3.444
 7414SOL    HW223142   2.029   1.063   3.336
 7415SOL     OW23143   1.798   4.355   5.234
 7415SOL    HW123144   1.763   4.301   5.158
 7415SOL    HW223145   1.786   4.453   5.214
 7416SOL     OW23146   2.331   0.358   2.042
 7416SOL    HW123147   2.303   0.393   2.131
 7416SOL    HW223148   2.299   0.420   1.970
 7417SOL     OW23149   2.107   2.189   1.608
 7417SOL    HW123150   2.165   2.180   1.527
 7417SOL    HW223151   2.160   2.228   1.683
 7418SOL     OW23152   1.568   5.550   6.668
 7418SOL    HW123153   1.638   5.602   6.619
 7418SOL    HW223154   1.481   5.599   6.662
 7419SOL     OW23155   6.910   3.793   3.947
 7419SOL    HW123156   6.899   3.781   4.046
 7419SOL    HW223157   6.905   3.891   3.924
 7420SOL     OW23158   0.107   6.523   1.007
 7420SOL    HW123159   0.063   6.577   1.078
 7420SOL    HW223160   0.041   6.505   0.933
 7421SOL     OW23161   4.123   3.629   1.052
 7421SOL    HW123162   4.202   3.682   1.082
 7421SOL    HW223163   4.104   3.557   1.119
 7422SOL     OW23164   0.360   4.638   1.969
 7422SOL    HW123165   0.406   4.603   1.887
 7422SOL    HW223166   0.340   4.562   2.030
 7423SOL     OW23167   6.382   2.252   5.602
 7423SOL    HW123168   6.388   2.314   5.524
 7423SOL    HW223169   6.305   2.279   5.660
 7424SOL     OW23170   6.741   1.720   5.658
 7424SOL    HW123171   6.703   1.683   5.573
 7424SOL    HW223172   6.828   1.674   5.678
 7425SOL     OW23173   5.143   6.984   0.424
 7425SOL    HW123174   5.138   0.034   0.353
 7425SOL    HW223175   5.237   6.976   0.456
 7426SOL     OW23176   3.087   1.486   5.283
 7426SOL    HW123177   3.121   1.402   5.325
 7426SOL    HW223178   3.114   1.565   5.338
 7427SOL     OW23179   4.880   0.818   4.360
 7427SOL    HW123180   4.934   0.736   4.376
 7427SOL    HW223181   4.804   0.797   4.299
 7428SOL     OW23182   3.986   0.237   5.359
 7428SOL    HW123183   3.954   0.172   5.290
 7428SOL    HW223184   3.942   0.216   5.446
 7429SOL     OW23185   0.559   6.287   3.506
 7429SOL    HW123186   0.569   6.213   3.439
 7429SOL    HW223187   0.648   6.307   3.547
 7430SOL     OW23188   0.253   3.559   1.242
 7430SOL    HW123189   0.322   3.488   1.254
 7430SOL    HW223190   0.299   3.648   1.235
 7431SOL     OW23191   1.136   2.412   2.970
 7431SOL    HW123192   1.131   2.443   2.876
 7431SOL    HW223193   1.174   2.485   3.027
 7432SOL     OW23194   1.950   0.345   3.238
 7432SOL    HW123195   1.913   0.370   3.148
 7432SOL    HW223196   1.946   0.425   3.298
 7433SOL     OW23197   3.954   6.338   6.429
 7433SOL    HW123198   3.934   6.248   6.389
 7433SOL    HW223199   3.868   6.384   6.451
 7434SOL     OW23200   4.982   5.285   5.731
 7434SOL    HW123201   5.007   5.204   5.784
 7434SOL    HW223202   5.065   5.324   5.690
 7435SOL     OW23203   4.762   6.594   1.284
 7435SOL    HW123204   4.670   6.598   1.322
 7435SOL    HW223205   4.757   6.583   1.185
 7436SOL     OW23206   4.639   4.061   6.128
 7436SOL    HW123207   4.578   4.093   6.055
 7436SOL    HW223208   4.729   4.041   6.089
 7437SOL     OW23209   2.931   5.936   0.248
 7437SOL    HW123210   2.936   5.869   0.174
 7437SOL    HW223211   2.904   6.025   0.211
 7438SOL     OW23212   0.852   0.021   0.122
 7438SOL    HW123213   0.870   6.948   0.090
 7438SOL    HW223214   0.754   0.039   0.115
 7439SOL     OW23215   1.828   6.525   6.227
 7439SOL    HW123216   1.767   6.466   6.173
 7439SOL    HW223217   1.801   6.620   6.215
 7440SOL     OW23218   6.801   2.703   3.952
 7440SOL    HW123219   6.756   2.692   3.863
 7440SOL    HW223220   6.892   2.741   3.939
 7441SOL     OW23221   5.740   0.136   4.975
 7441SOL    HW123222   5.753   0.235   4.968
 7441SOL    HW223223   5.671   0.107   4.909
 7442SOL     OW23224   6.155   1.563   0.164
 7442SOL    HW123225   6.148   1.480   0.219
 7442SOL    HW223226   6.123   1.641   0.219
 7443SOL     OW23227   5.860   5.564   1.721
 7443SOL    HW123228   5.878   5.505   1.800
 7443SOL    HW223229   5.792   5.633   1.746
 7444SOL     OW23230   5.560   1.637   0.290
 7444SOL    HW123231   5.547   1.586   0.205
 7444SOL    HW223232   5.471   1.659   0.330
 7445SOL     OW23233   3.250   0.829   1.095
 7445SOL    HW123234   3.203   0.915   1.074
 7445SOL    HW223235   3.348   0.840   1.076
 7446SOL     OW23236   5.299   2.363   0.246
 7446SOL    HW123237   5.228   2.305   0.287
 7446SOL    HW223238   5.336   2.424   0.315
 7447SOL     OW23239   6.507   4.837   0.157
 7447SOL    HW123240   6.598   4.799   0.140
 7447SOL    HW223241   6.450   4.825   0.076
 7448SOL     OW23242   6.122   6.890   4.611
 7448SOL    HW123243   6.141   6.815   4.547
 7448SOL    HW223244   6.193   6.892   4.681
 7449SOL     OW23245   0.826   5.272   1.171
 7449SOL    HW123246   0.872   5.343   1.118
 7449SOL    HW223247   0.727   5.283   1.163
 7450SOL     OW23248   5.834   2.569   4.934
 7450SOL    HW123249   5.791   2.498   4.990
 7450SOL    HW223250   5.818   2.550   4.838
 7451SOL     OW23251   6.329   6.292   2.318
 7451SOL    HW123252   6.399   6.254   2.377
 7451SOL    HW223253   6.249   6.232   2.317
 7452SOL     OW23254   5.723   5.855   4.299
 7452SOL    HW123255   5.661   5.934   4.307
 7452SOL    HW223256   5.676   5.779   4.255
 7453SOL     OW23257   4.715   5.033   4.735
 7453SOL    HW123258   4.794   5.070   4.686
 7453SOL    HW223259   4.725   4.933   4.744
 7454SOL     OW23260   2.459   2.166   1.221
 7454SOL    HW123261   2.544   2.212   1.245
 7454SOL    HW223262   2.442   2.174   1.123
 7455SOL     OW23263   6.701   2.787   2.190
 7455SOL    HW123264   6.737   2.814   2.279
 7455SOL    HW223265   6.722   2.857   2.122
 7456SOL     OW23266   1.812   1.191   4.772
 7456SOL    HW123267   1.861   1.188   4.860
 7456SOL    HW223268   1.812   1.099   4.732
 7457SOL     OW23269   3.020   0.392   4.743
 7457SOL    HW123270   3.065   0.379   4.654
 7457SOL    HW223271   2.926   0.359   4.738
 7458SOL     OW23272   2.024   0.323   5.743
 7458SOL    HW123273   2.033   0.421   5.727
 7458SOL    HW223274   2.043   0.303   5.839
 7459SOL     OW23275   5.935   1.191   2.491
 7459SOL    HW123276   5.986   1.219   2.410
 7459SOL    HW223277   5.864   1.125   2.466
 7460SOL     OW23278   0.818   5.722   0.194
 7460SOL    HW123279   0.903   5.690   0.237
 7460SOL    HW223280   0.822   5.821   0.184
 7461SOL     OW23281   6.386   6.697   6.257
 7461SOL    HW123282   6.343   6.687   6.347
 7461SOL    HW223283   6.325   6.659   6.187
 7462SOL     OW23284   1.678   4.607   2.182
 7462SOL    HW123285   1.591   4.582   2.223
 7462SOL    HW223286   1.750   4.548   2.219
 7463SOL     OW23287   3.016   4.298   6.900
 7463SOL    HW123288   2.984   4.301   6.805
 7463SOL    HW223289   2.949   4.251   6.957
 7464SOL     OW23290   5.536   6.852   5.457
 7464SOL    HW123291   5.589   6.937   5.465
 7464SOL    HW223292   5.584   6.778   5.504
 7465SOL     OW23293   2.453   5.099   6.747
 7465SOL    HW123294   2.425   5.010   6.782
 7465SOL    HW223295   2.426   5.170   6.811
 7466SOL     OW23296   6.724   0.616   5.465
 7466SOL    HW123297   6.742   0.630   5.563
 7466SOL    HW223298   6.779   0.539   5.432
 7467SOL     OW23299   0.450   2.493   5.876
 7467SOL    HW123300   0.537   2.461   5.912
 7467SOL    HW223301   0.376   2.437   5.912
 7468SOL     OW23302   5.224   3.097   4.218
 7468SOL    HW123303   5.218   3.130   4.123
 7468SOL    HW223304   5.204   3.172   4.280
 7469SOL     OW23305   0.055   1.096   6.852
 7469SOL    HW123306   0.146   1.104   6.891
 7469SOL    HW223307   0.035   1.000   6.833
 7470SOL     OW23308   5.454   4.031   3.624
 7470SOL    HW123309   5.498   4.121   3.617
 7470SOL    HW223310   5.461   3.998   3.718
 7471SOL     OW23311   5.220   6.448   6.162
 7471SOL    HW123312   5.192   6.353   6.147
 7471SOL    HW223313   5.138   6.507   6.164
 7472SOL     OW23314   6.677   0.949   5.583
 7472SOL    HW123315   6.725   0.942   5.496
 7472SOL    HW223316   6.595   0.893   5.580
 7473SOL     OW23317   5.303   5.489   3.948
 7473SOL    HW123318   5.321   5.583   3.922
 7473SOL    HW223319   5.236   5.486   4.022
 7474SOL     OW23320   6.475   1.864   6.642
 7474SOL    HW123321   6.457   1.936   6.709
 7474SOL    HW223322   6.442   1.892   6.553
 7475SOL     OW23323   4.458   2.421   1.885
 7475SOL    HW123324   4.551   2.406   1.853
 7475SOL    HW223325   4.400   2.447   1.808
 7476SOL     OW23326   2.587   1.430   2.798
 7476SOL    HW123327   2.552   1.493   2.729
 7476SOL    HW223328   2.671   1.466   2.837
 7477SOL     OW23329   6.987   2.387   4.754
 7477SOL    HW123330   7.006   2.483   4.777
 7477SOL    HW223331   0.019   2.362   4.673
 7478SOL     OW23332   6.174   3.713   5.163
 7478SOL    HW123333   6.133   3.681   5.249
 7478SOL    HW223334   6.115   3.782   5.122
 7479SOL     OW23335   4.849   2.513   2.154
 7479SOL    HW123336   4.850   2.541   2.250
 7479SOL    HW223337   4.762   2.539   2.112
 7480SOL     OW23338   1.740   4.658   2.480
 7480SOL    HW123339   1.648   4.623   2.497
 7480SOL    HW223340   1.796   4.585   2.441
 7481SOL     OW23341   5.818   4.840   0.591
 7481SOL    HW123342   5.890   4.777   0.564
 7481SOL    HW223343   5.849   4.934   0.578
 7482SOL     OW23344   4.653   2.547   2.576
 7482SOL    HW123345   4.736   2.524   2.626
 7482SOL    HW223346   4.670   2.626   2.516
 7483SOL     OW23347   5.098   3.300   4.669
 7483SOL    HW123348   5.027   3.240   4.706
 7483SOL    HW223349   5.057   3.387   4.642
 7484SOL     OW23350   1.919   5.919   4.548
 7484SOL    HW123351   1.939   5.979   4.625
 7484SOL    HW223352   1.933   5.824   4.576
 7485SOL     OW23353   2.522   0.371   4.811
 7485SOL    HW123354   2.454   0.299   4.827
 7485SOL    HW223355   2.517   0.438   4.884
 7486SOL     OW23356   1.059   6.226   6.868
 7486SOL    HW123357   0.973   6.231   6.818
 7486SOL    HW223358   1.135   6.216   6.802
 7487SOL     OW23359   2.904   0.680   3.676
 7487SOL    HW123360   2.996   0.646   3.696
 7487SOL    HW223361   2.910   0.772   3.637
 7488SOL     OW23362   1.739   5.719   4.870
 7488SOL    HW123363   1.833   5.744   4.848
 7488SOL    HW223364   1.680   5.740   4.792
 7489SOL     OW23365   6.309   3.039   6.737
 7489SOL    HW123366   6.268   3.075   6.821
 7489SOL    HW223367   6.237   3.019   6.671
 7490SOL     OW23368   1.484   0.202   3.299
 7490SOL    HW123369   1.472   0.301   3.315
 7490SOL    HW223370   1.582   0.182   3.290
 7491SOL     OW23371   4.389   3.002   6.819
 7491SOL    HW123372   4.435   2.926   6.774
 7491SOL    HW223373   4.444   3.085   6.812
 7492SOL     OW23374   2.015   0.667   3.650
 7492SOL    HW123375   1.987   0.656   3.746
 7492SOL    HW223376   2.110   0.636   3.639
 7493SOL     OW23377   6.324   2.320   5.933
 7493SOL    HW123378   6.392   2.375   5.884
 7493SOL    HW223379   6.346   2.317   6.030
 7494SOL     OW23380   5.926   1.746   3.539
 7494SOL    HW123381   5.887   1.732   3.448
 7494SOL    HW223382   5.929   1.658   3.587
 7495SOL     OW23383   1.049   3.145   6.128
 7495SOL    HW123384   0.996   3.061   6.111
 7495SOL    HW223385   0.986   3.219   6.153
 7496SOL     OW23386   5.883   3.786   4.233
 7496SOL    HW123387   5.799   3.741   4.202
 7496SOL    HW223388   5.931   3.825   4.155
 7497SOL     OW23389   1.563   4.962   1.078
 7497SOL    HW123390   1.504   5.042   1.076
 7497SOL    HW223391   1.518   4.885   1.032
 7498SOL     OW23392   3.225   0.882   4.121
 7498SOL    HW123393   3.269   0.971   4.131
 7498SOL    HW223394   3.126   0.894   4.119
 7499SOL     OW23395   4.176   2.225   3.396
 7499SOL    HW123396   4.145   2.286   3.469
 7499SOL    HW223397   4.238   2.275   3.335
 7500SOL     OW23398   3.426   5.781   3.155
 7500SOL    HW123399   3.505   5.839   3.174
 7500SOL    HW223400   3.351   5.807   3.216
 7501SOL     OW23401   5.284   4.362   3.770
 7501SOL    HW123402   5.205   4.420   3.793
 7501SOL    HW223403   5.358   4.419   3.734
 7502SOL     OW23404   2.969   7.020   4.398
 7502SOL    HW123405   2.909   0.072   4.431
 7502SOL    HW223406   2.914   6.944   4.363
 7503SOL     OW23407   2.789   6.549   1.317
 7503SOL    HW123408   2.748   6.468   1.275
 7503SOL    HW223409   2.718   6.605   1.358
 7504SOL     OW23410   0.307   6.242   3.306
 7504SOL    HW123411   0.293   6.321   3.245
 7504SOL    HW223412   0.362   6.270   3.384
 7505SOL     OW23413   1.481   2.457   6.095
 7505SOL    HW123414   1.491   2.359   6.079
 7505SOL    HW223415   1.541   2.485   6.170
 7506SOL     OW23416   4.941   2.703   4.017
 7506SOL    HW123417   4.894   2.626   4.061
 7506SOL    HW223418   4.939   2.691   3.918
 7507SOL     OW23419   5.963   2.269   3.001
 7507SOL    HW123420   6.057   2.299   3.016
 7507SOL    HW223421   5.963   2.182   2.952
 7508SOL     OW23422   2.418   5.082   0.709
 7508SOL    HW123423   2.320   5.063   0.704
 7508SOL    HW223424   2.451   5.112   0.620
 7509SOL     OW23425   6.244   3.391   0.602
 7509SOL    HW123426   6.248   3.392   0.502
 7509SOL    HW223427   6.286   3.306   0.635
 7510SOL     OW23428   4.071   3.799   4.756
 7510SOL    HW123429   4.079   3.712   4.708
 7510SOL    HW223430   4.097   3.874   4.695
 7511SOL     OW23431   2.839   6.168   3.046
 7511SOL    HW123432   2.795   6.146   3.133
 7511SOL    HW223433   2.929   6.206   3.063
 7512SOL     OW23434   2.744   1.095   6.842
 7512SOL    HW123435   2.687   1.056   6.915
 7512SOL    HW223436   2.689   1.154   6.784
 7513SOL     OW23437   1.470   1.180   2.369
 7513SOL    HW123438   1.533   1.105   2.355
 7513SOL    HW223439   1.518   1.267   2.358
 7514SOL     OW23440   2.503   4.893   3.105
 7514SOL    HW123441   2.435   4.825   3.131
 7514SOL    HW223442   2.549   4.864   3.021
 7515SOL     OW23443   6.945   4.862   4.782
 7515SOL    HW123444   6.902   4.952   4.774
 7515SOL    HW223445   6.902   4.811   4.857
 7516SOL     OW23446   0.653   5.173   5.938
 7516SOL    HW123447   0.750   5.162   5.917
 7516SOL    HW223448   0.635   5.266   5.967
 7517SOL     OW23449   0.654   2.050   0.325
 7517SOL    HW123450   0.675   2.145   0.345
 7517SOL    HW223451   0.585   2.046   0.253
 7518SOL     OW23452   5.193   3.590   3.693
 7518SOL    HW123453   5.116   3.535   3.724
 7518SOL    HW223454   5.179   3.685   3.719
 7519SOL     OW23455   6.760   6.697   4.686
 7519SOL    HW123456   6.746   6.605   4.649
 7519SOL    HW223457   6.672   6.737   4.711
 7520SOL     OW23458   2.197   0.478   2.663
 7520SOL    HW123459   2.292   0.466   2.634
 7520SOL    HW223460   2.189   0.563   2.715
 7521SOL     OW23461   5.642   2.815   4.883
 7521SOL    HW123462   5.730   2.797   4.927
 7521SOL    HW223463   5.575   2.843   4.952
 7522SOL     OW23464   1.494   0.402   5.699
 7522SOL    HW123465   1.485   0.463   5.778
 7522SOL    HW223466   1.495   0.307   5.731
 7523SOL     OW23467   5.032   0.719   6.505
 7523SOL    HW123468   4.987   0.808   6.500
 7523SOL    HW223469   5.122   0.724   6.462
 7524SOL     OW23470   0.474   2.890   5.114
 7524SOL    HW123471   0.493   2.948   5.034
 7524SOL    HW223472   0.527   2.924   5.192
 7525SOL     OW23473   4.323   6.967   6.949
 7525SOL    HW123474   4.256   7.003   6.884
 7525SOL    HW223475   4.406   0.003   6.947
 7526SOL     OW23476   2.818   3.140   1.788
 7526SOL    HW123477   2.888   3.187   1.841
 7526SOL    HW223478   2.736   3.196   1.783
 7527SOL     OW23479   3.324   5.607   3.749
 7527SOL    HW123480   3.368   5.687   3.789
 7527SOL    HW223481   3.381   5.526   3.766
 7528SOL     OW23482   6.152   2.385   6.748
 7528SOL    HW123483   6.176   2.468   6.699
 7528SOL    HW223484   6.053   2.372   6.747
 7529SOL     OW23485   5.395   1.913   4.603
 7529SOL    HW123486   5.316   1.971   4.583
 7529SOL    HW223487   5.375   1.818   4.578
 7530SOL     OW23488   5.882   2.744   2.038
 7530SOL    HW123489   5.928   2.657   2.018
 7530SOL    HW223490   5.918   2.782   2.123
 7531SOL     OW23491   5.367   3.387   3.878
 7531SOL    HW123492   5.363   3.450   3.801
 7531SOL    HW223493   5.463   3.367   3.900
 7532SOL     OW23494   4.548   6.048   0.623
 7532SOL    HW123495   4.614   6.084   0.557
 7532SOL    HW223496   4.481   5.991   0.576
 7533SOL     OW23497   3.569   1.957   1.903
 7533SOL    HW123498   3.603   2.038   1.950
 7533SOL    HW223499   3.477   1.974   1.869
 7534SOL     OW23500   5.170   5.688   4.606
 7534SOL    HW123501   5.184   5.589   4.613
 7534SOL    HW223502   5.236   5.727   4.543
 7535SOL     OW23503   1.684   6.529   5.125
 7535SOL    HW123504   1.772   6.502   5.164
 7535SOL    HW223505   1.660   6.467   5.050
 7536SOL     OW23506   4.650   5.379   3.870
 7536SOL    HW123507   4.676   5.466   3.913
 7536SOL    HW223508   4.701   5.368   3.784
 7537SOL     OW23509   2.174   4.657   2.733
 7537SOL    HW123510   2.131   4.587   2.790
 7537SOL    HW223511   2.110   4.733   2.721
 7538SOL     OW23512   2.133   2.848   1.554
 7538SOL    HW123513   2.049   2.856   1.499
 7538SOL    HW223514   2.123   2.773   1.619
 7539SOL     OW23515   1.482   4.282   3.606
 7539SOL    HW123516   1.560   4.233   3.565
 7539SOL    HW223517   1.514   4.368   3.645
 7540SOL     OW23518   4.451   6.836   4.665
 7540SOL    HW123519   4.361   6.830   4.622
 7540SOL    HW223520   4.496   6.920   4.636
 7541SOL     OW23521   0.505   4.146   6.136
 7541SOL    HW123522   0.603   4.164   6.125
 7541SOL    HW223523   0.456   4.232   6.141
 7542SOL     OW23524   6.506   6.022   0.187
 7542SOL    HW123525   6.534   6.038   0.093
 7542SOL    HW223526   6.578   5.971   0.235
 7543SOL     OW23527   3.427   1.241   5.071
 7543SOL    HW123528   3.352   1.201   5.124
 7543SOL    HW223529   3.513   1.195   5.096
 7544SOL     OW23530   0.022   2.754   4.340
 7544SOL    HW123531   0.003   2.663   4.302
 7544SOL    HW223532   6.984   2.769   4.420
 7545SOL     OW23533   0.811   6.540   6.117
 7545SOL    HW123534   0.751   6.460   6.124
 7545SOL    HW223535   0.874   6.541   6.195
 7546SOL     OW23536   4.640   2.116   1.517
 7546SOL    HW123537   4.560   2.110   1.456
 7546SOL    HW223538   4.611   2.148   1.607
 7547SOL     OW23539   5.189   0.994   1.171
 7547SOL    HW123540   5.282   0.962   1.185
 7547SOL    HW223541   5.150   1.023   1.259
 7548SOL     OW23542   4.792   2.402   6.478
 7548SOL    HW123543   4.799   2.493   6.435
 7548SOL    HW223544   4.883   2.369   6.500
 7549SOL     OW23545   3.575   3.193   6.225
 7549SOL    HW123546   3.493   3.246   6.249
 7549SOL    HW223547   3.630   3.246   6.160
 7550SOL     OW23548   1.905   4.668   3.438
 7550SOL    HW123549   1.935   4.708   3.525
 7550SOL    HW223550   1.974   4.602   3.406
 7551SOL     OW23551   5.947   3.121   5.362
 7551SOL    HW123552   5.893   3.111   5.279
 7551SOL    HW223553   5.896   3.083   5.440
 7552SOL     OW23554   1.775   5.990   4.320
 7552SOL    HW123555   1.813   5.985   4.413
 7552SOL    HW223556   1.678   6.016   4.325
 7553SOL     OW23557   4.775   6.716   5.583
 7553SOL    HW123558   4.677   6.697   5.572
 7553SOL    HW223559   4.788   6.814   5.600
 7554SOL     OW23560   4.924   0.595   6.817
 7554SOL    HW123561   4.908   0.652   6.737
 7554SOL    HW223562   4.864   0.515   6.815
 7555SOL     OW23563   3.115   5.581   6.513
 7555SOL    HW123564   3.142   5.530   6.432
 7555SOL    HW223565   3.096   5.518   6.588
 7556SOL     OW23566   2.534   1.782   0.037
 7556SOL    HW123567   2.494   1.873   0.045
 7556SOL    HW223568   2.486   1.718   0.097
 7557SOL     OW23569   4.904   0.391   6.180
 7557SOL    HW123570   4.991   0.360   6.141
 7557SOL    HW223571   4.914   0.403   6.279
 7558SOL     OW23572   2.146   3.332   4.255
 7558SOL    HW123573   2.149   3.238   4.221
 7558SOL    HW223574   2.051   3.359   4.272
 7559SOL     OW23575   3.958   2.544   5.851
 7559SOL    HW123576   3.994   2.560   5.760
 7559SOL    HW223577   4.030   2.560   5.919
 7560SOL     OW23578   5.804   0.158   0.218
 7560SOL    HW123579   5.750   0.238   0.247
 7560SOL    HW223580   5.796   0.085   0.286
 7561SOL     OW23581   6.368   2.681   5.736
 7561SOL    HW123582   6.377   2.778   5.716
 7561SOL    HW223583   6.427   2.628   5.676
 7562SOL     OW23584   0.835   4.662   5.482
 7562SOL    HW123585   0.919   4.640   5.431
 7562SOL    HW223586   0.760   4.676   5.417
 7563SOL     OW23587   2.582   6.192   1.759
 7563SOL    HW123588   2.592   6.271   1.699
 7563SOL    HW223589   2.487   6.161   1.757
 7564SOL     OW23590   3.803   0.076   4.285
 7564SOL    HW123591   3.746   0.021   4.346
 7564SOL    HW223592   3.774   0.063   4.190
 7565SOL     OW23593   5.556   3.673   5.913
 7565SOL    HW123594   5.498   3.705   5.838
 7565SOL    HW223595   5.648   3.655   5.879
 7566SOL     OW23596   5.585   5.218   2.105
 7566SOL    HW123597   5.654   5.160   2.061
 7566SOL    HW223598   5.627   5.265   2.183
 7567SOL     OW23599   1.087   1.168   5.786
 7567SOL    HW123600   1.061   1.212   5.872
 7567SOL    HW223601   1.187   1.163   5.780
 7568SOL     OW23602   5.379   4.810   2.147
 7568SOL    HW123603   5.326   4.808   2.063
 7568SOL    HW223604   5.413   4.718   2.168
 7569SOL     OW23605   3.388   4.618   6.257
 7569SOL    HW123606   3.427   4.590   6.169
 7569SOL    HW223607   3.317   4.687   6.241
 7570SOL     OW23608   6.053   3.585   4.308
 7570SOL    HW123609   6.003   3.662   4.268
 7570SOL    HW223610   6.150   3.594   4.286
 7571SOL     OW23611   5.093   3.512   3.271
 7571SOL    HW123612   5.023   3.489   3.203
 7571SOL    HW223613   5.050   3.517   3.362
 7572SOL     OW23614   5.355   0.817   3.151
 7572SOL    HW123615   5.259   0.800   3.175
 7572SOL    HW223616   5.378   0.767   3.068
 7573SOL     OW23617   6.122   0.404   5.861
 7573SOL    HW123618   6.178   0.473   5.815
 7573SOL    HW223619   6.176   0.362   5.935
 7574SOL     OW23620   5.817   1.236   4.310
 7574SOL    HW123621   5.898   1.294   4.308
 7574SOL    HW223622   5.810   1.185   4.224
 7575SOL     OW23623   5.793   6.976   0.405
 7575SOL    HW123624   5.810   6.891   0.356
 7575SOL    HW223625   5.842   6.975   0.492
 7576SOL     OW23626   5.134   2.560   0.096
 7576SOL    HW123627   5.052   2.608   0.128
 7576SOL    HW223628   5.161   2.492   0.164
 7577SOL     OW23629   0.527   6.229   0.172
 7577SOL    HW123630   0.538   6.162   0.099
 7577SOL    HW223631   0.601   6.218   0.239
 7578SOL     OW23632   1.896   5.142   2.572
 7578SOL    HW123633   1.819   5.143   2.507
 7578SOL    HW223634   1.962   5.213   2.546
 7579SOL     OW23635   0.235   1.330   1.390
 7579SOL    HW123636   0.202   1.279   1.469
 7579SOL    HW223637   0.289   1.408   1.421
 7580SOL     OW23638   0.954   4.209   3.490
 7580SOL    HW123639   0.862   4.171   3.478
 7580SOL    HW223640   0.978   4.262   3.408
 7581SOL     OW23641   0.504   1.479   1.434
 7581SOL    HW123642   0.534   1.537   1.510
 7581SOL    HW223643   0.568   1.488   1.358
 7582SOL     OW23644   4.239   1.858   4.262
 7582SOL    HW123645   4.207   1.764   4.274
 7582SOL    HW223646   4.236   1.882   4.165
 7583SOL     OW23647   5.404   3.053   2.192
 7583SOL    HW123648   5.495   3.019   2.214
 7583SOL    HW223649   5.410   3.121   2.119
 7584SOL     OW23650   1.804   0.630   2.661
 7584SOL    HW123651   1.832   0.538   2.635
 7584SOL    HW223652   1.718   0.653   2.617
 7585SOL     OW23653   1.491   2.163   6.111
 7585SOL    HW123654   1.552   2.123   6.179
 7585SOL    HW223655   1.403   2.117   6.114
 7586SOL     OW23656   1.511   6.530   3.201
 7586SOL    HW123657   1.562   6.505   3.284
 7586SOL    HW223658   1.576   6.556   3.129
 7587SOL     OW23659   2.822   1.475   6.893
 7587SOL    HW123660   2.848   1.561   6.935
 7587SOL    HW223661   2.792   1.491   6.799
 7588SOL     OW23662   1.925   2.338   3.913
 7588SOL    HW123663   2.003   2.396   3.887
 7588SOL    HW223664   1.847   2.396   3.937
 7589SOL     OW23665   6.784   0.693   2.592
 7589SOL    HW123666   6.875   0.682   2.553
 7589SOL    HW223667   6.781   0.777   2.647
 7590SOL     OW23668   5.519   1.118   0.289
 7590SOL    HW123669   5.422   1.138   0.304
 7590SOL    HW223670   5.530   1.067   0.204
 7591SOL     OW23671   5.480   4.102   0.134
 7591SOL    HW123672   5.577   4.095   0.159
 7591SOL    HW223673   5.470   4.088   0.035
 7592SOL     OW23674   6.165   5.082   5.012
 7592SOL    HW123675   6.202   5.065   4.920
 7592SOL    HW223676   6.195   5.009   5.074
 7593SOL     OW23677   6.746   3.242   6.681
 7593SOL    HW123678   6.748   3.244   6.781
 7593SOL    HW223679   6.669   3.185   6.650
 7594SOL     OW23680   1.051   4.881   1.559
 7594SOL    HW123681   1.100   4.885   1.646
 7594SOL    HW223682   1.115   4.896   1.484
 7595SOL     OW23683   6.340   2.885   6.219
 7595SOL    HW123684   6.340   2.827   6.137
 7595SOL    HW223685   6.419   2.862   6.276
 7596SOL     OW23686   3.124   6.508   4.416
 7596SOL    HW123687   3.046   6.517   4.479
 7596SOL    HW223688   3.180   6.591   4.421
 7597SOL     OW23689   1.946   6.766   2.925
 7597SOL    HW123690   2.045   6.752   2.928
 7597SOL    HW223691   1.910   6.731   2.839
 7598SOL     OW23692   5.990   0.655   3.573
 7598SOL    HW123693   5.951   0.696   3.655
 7598SOL    HW223694   5.959   0.560   3.566
 7599SOL     OW23695   5.696   2.705   1.433
 7599SOL    HW123696   5.722   2.770   1.505
 7599SOL    HW223697   5.697   2.612   1.470
 7600SOL     OW23698   0.844   0.762   3.489
 7600SOL    HW123699   0.767   0.746   3.550
 7600SOL    HW223700   0.878   0.674   3.454
 7601SOL     OW23701   3.080   5.110   2.191
 7601SOL    HW123702   3.136   5.189   2.216
 7601SOL    HW223703   3.021   5.135   2.114
 7602SOL     OW23704   1.177   3.001   6.517
 7602SOL    HW123705   1.195   3.009   6.615
 7602SOL    HW223706   1.149   2.908   6.495
 7603SOL     OW23707   2.288   6.549   6.074
 7603SOL    HW123708   2.290   6.453   6.103
 7603SOL    HW223709   2.193   6.580   6.069
 7604SOL     OW23710   0.664   2.132   5.243
 7604SOL    HW123711   0.726   2.194   5.195
 7604SOL    HW223712   0.593   2.101   5.179
 7605SOL     OW23713   1.423   0.541   0.413
 7605SOL    HW123714   1.481   0.491   0.349
 7605SOL    HW223715   1.377   0.476   0.474
 7606SOL     OW23716   5.792   3.075   5.079
 7606SOL    HW123717   5.704   3.105   5.044
 7606SOL    HW223718   5.800   2.976   5.073
 7607SOL     OW23719   4.146   5.072   0.133
 7607SOL    HW123720   4.095   5.084   0.047
 7607SOL    HW223721   4.236   5.032   0.113
 7608SOL     OW23722   5.534   2.707   0.701
 7608SOL    HW123723   5.531   2.708   0.801
 7608SOL    HW223724   5.627   2.728   0.670
 7609SOL     OW23725   1.207   3.345   3.714
 7609SOL    HW123726   1.185   3.365   3.809
 7609SOL    HW223727   1.202   3.429   3.660
 7610SOL     OW23728   4.136   4.406   5.744
 7610SOL    HW123729   4.196   4.327   5.756
 7610SOL    HW223730   4.048   4.375   5.708
 7611SOL     OW23731   5.197   3.737   0.984
 7611SOL    HW123732   5.236   3.661   0.930
 7611SOL    HW223733   5.098   3.728   0.988
 7612SOL     OW23734   4.691   2.775   3.183
 7612SOL    HW123735   4.616   2.709   3.185
 7612SOL    HW223736   4.772   2.734   3.142
 7613SOL     OW23737   0.168   1.544   1.742
 7613SOL    HW123738   0.147   1.563   1.838
 7613SOL    HW223739   0.135   1.453   1.718
 7614SOL     OW23740   5.376   3.705   1.189
 7614SOL    HW123741   5.360   3.608   1.208
 7614SOL    HW223742   5.313   3.736   1.118
 7615SOL     OW23743   4.971   4.056   6.016
 7615SOL    HW123744   5.032   4.081   6.091
 7615SOL    HW223745   4.961   3.956   6.014
 7616SOL     OW23746   6.958   6.923   4.188
 7616SOL    HW123747   6.918   6.863   4.119
 7616SOL    HW223748   0.031   6.894   4.208
 7617SOL     OW23749   5.414   5.984   3.819
 7617SOL    HW123750   5.478   6.042   3.868
 7617SOL    HW223751   5.337   6.040   3.786
 7618SOL     OW23752   0.932   2.605   0.132
 7618SOL    HW123753   0.876   2.671   0.183
 7618SOL    HW223754   0.903   2.512   0.154
 7619SOL     OW23755   0.242   2.511   4.373
 7619SOL    HW123756   0.298   2.595   4.379
 7619SOL    HW223757   0.242   2.478   4.279
 7620SOL     OW23758   4.473   5.569   1.169
 7620SOL    HW123759   4.482   5.610   1.260
 7620SOL    HW223760   4.432   5.478   1.176
 7621SOL     OW23761   0.553   0.783   1.244
 7621SOL    HW123762   0.536   0.876   1.276
 7621SOL    HW223763   0.496   0.718   1.295
 7622SOL     OW23764   4.563   4.940   6.295
 7622SOL    HW123765   4.525   4.882   6.367
 7622SOL    HW223766   4.519   4.919   6.208
 7623SOL     OW23767   4.613   4.534   1.433
 7623SOL    HW123768   4.604   4.608   1.366
 7623SOL    HW223769   4.670   4.461   1.394
 7624SOL     OW23770   0.012   3.710   3.613
 7624SOL    HW123771   7.012   3.679   3.706
 7624SOL    HW223772   0.060   3.797   3.617
 7625SOL     OW23773   6.527   1.467   0.170
 7625SOL    HW123774   6.503   1.386   0.118
 7625SOL    HW223775   6.463   1.478   0.246
 7626SOL     OW23776   6.433   1.018   6.014
 7626SOL    HW123777   6.344   1.010   5.970
 7626SOL    HW223778   6.483   1.095   5.973
 7627SOL     OW23779   3.313   2.386   0.139
 7627SOL    HW123780   3.377   2.311   0.126
 7627SOL    HW223781   3.238   2.355   0.198
 7628SOL     OW23782   4.020   2.691   1.720
 7628SOL    HW123783   4.094   2.630   1.749
 7628SOL    HW223784   3.943   2.636   1.685
 7629SOL     OW23785   6.944   4.253   3.429
 7629SOL    HW123786   6.934   4.317   3.353
 7629SOL    HW223787   0.004   4.277   3.483
 7630SOL     OW23788   0.706   0.971   6.465
 7630SOL    HW123789   0.787   0.966   6.408
 7630SOL    HW223790   0.650   0.889   6.450
 7631SOL     OW23791   1.165   1.777   5.405
 7631SOL    HW123792   1.257   1.744   5.427
 7631SOL    HW223793   1.164   1.809   5.310
 7632SOL     OW23794   4.336   4.876   0.701
 7632SOL    HW123795   4.322   4.778   0.693
 7632SOL    HW223796   4.254   4.919   0.739
 7633SOL     OW23797   5.130   0.472   1.846
 7633SOL    HW123798   5.060   0.540   1.868
 7633SOL    HW223799   5.128   0.398   1.914
 7634SOL     OW23800   2.527   1.319   1.500
 7634SOL    HW123801   2.549   1.384   1.573
 7634SOL    HW223802   2.612   1.280   1.465
 7635SOL     OW23803   3.243   4.912   4.498
 7635SOL    HW123804   3.206   4.845   4.434
 7635SOL    HW223805   3.174   4.936   4.566
 7636SOL     OW23806   1.105   4.233   4.142
 7636SOL    HW123807   1.047   4.243   4.060
 7636SOL    HW223808   1.092   4.142   4.180
 7637SOL     OW23809   2.106   6.244   2.748
 7637SOL    HW123810   2.103   6.148   2.721
 7637SOL    HW223811   2.202   6.274   2.751
 7638SOL     OW23812   1.471   5.436   2.617
 7638SOL    HW123813   1.491   5.360   2.678
 7638SOL    HW223814   1.383   5.477   2.643
 7639SOL     OW23815   0.464   1.207   0.601
 7639SOL    HW123816   0.479   1.299   0.636
 7639SOL    HW223817   0.552   1.164   0.582
 7640SOL     OW23818   2.596   2.756   6.790
 7640SOL    HW123819   2.523   2.763   6.722
 7640SOL    HW223820   2.684   2.755   6.745
 7641SOL     OW23821   6.565   3.965   2.740
 7641SOL    HW123822   6.664   3.971   2.726
 7641SOL    HW223823   6.545   3.886   2.798
 7642SOL     OW23824   5.332   1.203   2.474
 7642SOL    HW123825   5.385   1.270   2.525
 7642SOL    HW223826   5.335   1.115   2.522
 7643SOL     OW23827   5.275   1.467   2.648
 7643SOL    HW123828   5.286   1.566   2.662
 7643SOL    HW223829   5.231   1.451   2.560
 7644SOL     OW23830   4.855   3.088   2.263
 7644SOL    HW123831   4.784   3.076   2.332
 7644SOL    HW223832   4.818   3.063   2.173
 7645SOL     OW23833   4.276   3.645   5.517
 7645SOL    HW123834   4.234   3.734   5.535
 7645SOL    HW223835   4.296   3.637   5.419
 7646SOL     OW23836   0.307   2.412   3.799
 7646SOL    HW123837   0.391   2.443   3.753
 7646SOL    HW223838   0.331   2.346   3.869
 7647SOL     OW23839   0.600   3.108   4.574
 7647SOL    HW123840   0.566   3.175   4.508
 7647SOL    HW223841   0.694   3.129   4.599
 7648SOL     OW23842   2.479   1.648   2.648
 7648SOL    HW123843   2.568   1.691   2.660
 7648SOL    HW223844   2.457   1.642   2.551
 7649SOL     OW23845   1.509   0.926   4.212
 7649SOL    HW123846   1.469   0.834   4.214
 7649SOL    HW223847   1.446   0.989   4.166
 7650SOL     OW23848   6.158   0.702   1.043
 7650SOL    HW123849   6.132   0.645   1.121
 7650SOL    HW223850   6.247   0.744   1.060
 7651SOL     OW23851   2.720   6.330   4.169
 7651SOL    HW123852   2.798   6.293   4.120
 7651SOL    HW223853   2.670   6.393   4.109
 7652SOL     OW23854   5.859   2.818   5.039
 7652SOL    HW123855   5.871   2.725   5.003
 7652SOL    HW223856   5.878   2.818   5.137
 7653SOL     OW23857   1.550   1.577   0.353
 7653SOL    HW123858   1.467   1.521   0.361
 7653SOL    HW223859   1.611   1.535   0.285
 7654SOL     OW23860   5.312   3.196   4.783
 7654SOL    HW123861   5.235   3.239   4.735
 7654SOL    HW223862   5.356   3.130   4.722
 7655SOL     OW23863   3.484   0.526   3.995
 7655SOL    HW123864   3.550   0.552   3.924
 7655SOL    HW223865   3.478   0.599   4.063
 7656SOL     OW23866   5.018   2.737   6.597
 7656SOL    HW123867   5.075   2.815   6.624
 7656SOL    HW223868   5.021   2.667   6.669
 7657SOL     OW23869   2.234   2.494   4.227
 7657SOL    HW123870   2.215   2.539   4.140
 7657SOL    HW223871   2.148   2.483   4.278
 7658SOL     OW23872   2.990   0.326   0.752
 7658SOL    HW123873   2.946   0.415   0.766
 7658SOL    HW223874   3.045   0.329   0.668
 7659SOL     OW23875   4.795   4.113   6.696
 7659SOL    HW123876   4.749   4.072   6.618
 7659SOL    HW223877   4.888   4.139   6.670
 7660SOL     OW23878   6.360   5.388   4.138
 7660SOL    HW123879   6.316   5.467   4.180
 7660SOL    HW223880   6.448   5.371   4.183
 7661SOL     OW23881   5.272   2.194   5.563
 7661SOL    HW123882   5.316   2.249   5.635
 7661SOL    HW223883   5.329   2.114   5.543
 7662SOL     OW23884   1.057   2.770   3.011
 7662SOL    HW123885   1.000   2.850   3.035
 7662SOL    HW223886   0.999   2.700   2.968
 7663SOL     OW23887   4.958   5.561   6.546
 7663SOL    HW123888   4.904   5.514   6.615
 7663SOL    HW223889   5.035   5.503   6.517
 7664SOL     OW23890   4.216   1.266   2.361
 7664SOL    HW123891   4.136   1.207   2.374
 7664SOL    HW223892   4.254   1.290   2.450
 7665SOL     OW23893   5.494   1.353   4.369
 7665SOL    HW123894   5.583   1.396   4.382
 7665SOL    HW223895   5.426   1.423   4.348
 7666SOL     OW23896   0.155   4.862   3.875
 7666SOL    HW123897   0.203   4.949   3.886
 7666SOL    HW223898   0.117   4.834   3.963
 7667SOL     OW23899   4.526   0.477   2.942
 7667SOL    HW123900   4.538   0.398   3.002
 7667SOL    HW223901   4.552   0.453   2.848
 7668SOL     OW23902   2.677   4.844   1.179
 7668SOL    HW123903   2.585   4.870   1.152
 7668SOL    HW223904   2.709   4.905   1.252
 7669SOL     OW23905   4.652   0.800   5.202
 7669SOL    HW123906   4.733   0.811   5.259
 7669SOL    HW223907   4.582   0.750   5.252
 7670SOL     OW23908   0.873   5.997   0.515
 7670SOL    HW123909   0.849   6.048   0.432
 7670SOL    HW223910   0.955   6.036   0.555
 7671SOL     OW23911   3.976   0.409   2.349
 7671SOL    HW123912   3.877   0.410   2.340
 7671SOL    HW223913   4.017   0.460   2.274
 7672SOL     OW23914   6.701   5.446   3.439
 7672SOL    HW123915   6.657   5.452   3.529
 7672SOL    HW223916   6.735   5.537   3.413
 7673SOL     OW23917   1.802   5.504   2.333
 7673SOL    HW123918   1.893   5.511   2.373
 7673SOL    HW223919   1.804   5.437   2.258
 7674SOL     OW23920   4.704   0.410   3.965
 7674SOL    HW123921   4.644   0.440   3.891
 7674SOL    HW223922   4.658   0.423   4.053
 7675SOL     OW23923   5.029   6.149   3.468
 7675SOL    HW123924   4.995   6.229   3.420
 7675SOL    HW223925   4.958   6.078   3.469
 7676SOL     OW23926   3.064   2.170   6.004
 7676SOL    HW123927   3.051   2.265   5.975
 7676SOL    HW223928   2.988   2.143   6.064
 7677SOL     OW23929   0.509   4.214   0.841
 7677SOL    HW123930   0.542   4.130   0.884
 7677SOL    HW223931   0.584   4.258   0.793
 7678SOL     OW23932   1.748   3.085   5.490
 7678SOL    HW123933   1.669   3.121   5.439
 7678SOL    HW223934   1.742   2.986   5.495
 7679SOL     OW23935   1.883   5.222   5.455
 7679SOL    HW123936   1.982   5.219   5.443
 7679SOL    HW223937   1.838   5.199   5.368
 7680SOL     OW23938   1.575   0.559   7.005
 7680SOL    HW123939   1.525   0.583   6.923
 7680SOL    HW223940   1.631   0.636   0.014
 7681SOL     OW23941   2.868   1.013   0.173
 7681SOL    HW123942   2.770   0.998   0.184
 7681SOL    HW223943   2.909   0.934   0.126
 7682SOL     OW23944   4.568   0.832   2.335
 7682SOL    HW123945   4.666   0.838   2.349
 7682SOL    HW223946   4.531   0.924   2.316
 7683SOL     OW23947   0.434   1.689   4.924
 7683SOL    HW123948   0.432   1.710   5.022
 7683SOL    HW223949   0.492   1.609   4.908
 7684SOL     OW23950   3.792   2.334   1.017
 7684SOL    HW123951   3.693   2.342   1.021
 7684SOL    HW223952   3.832   2.378   1.098
 7685SOL     OW23953   3.462   1.629   6.575
 7685SOL    HW123954   3.430   1.535   6.587
 7685SOL    HW223955   3.383   1.691   6.575
 7686SOL     OW23956   6.182   6.723   4.387
 7686SOL    HW123957   6.173   6.624   4.376
 7686SOL    HW223958   6.234   6.761   4.311
 7687SOL     OW23959   4.754   5.484   4.968
 7687SOL    HW123960   4.830   5.509   4.908
 7687SOL    HW223961   4.776   5.398   5.015
 7688SOL     OW23962   0.123   5.923   6.443
 7688SOL    HW123963   0.142   5.835   6.401
 7688SOL    HW223964   0.199   5.985   6.426
 7689SOL     OW23965   5.131   6.644   3.168
 7689SOL    HW123966   5.218   6.648   3.119
 7689SOL    HW223967   5.146   6.665   3.264
 7690SOL     OW23968   5.359   5.345   0.582
 7690SOL    HW123969   5.402   5.349   0.672
 7690SOL    HW223970   5.274   5.292   0.587
 7691SOL     OW23971   5.488   3.968   1.681
 7691SOL    HW123972   5.455   3.883   1.721
 7691SOL    HW223973   5.411   4.021   1.646
 7692SOL     OW23974   0.499   5.959   1.499
 7692SOL    HW123975   0.420   5.908   1.533
 7692SOL    HW223976   0.504   6.048   1.545
 7693SOL     OW23977   3.287   0.374   1.177
 7693SOL    HW123978   3.201   0.423   1.187
 7693SOL    HW223979   3.274   0.294   1.118
 7694SOL     OW23980   5.761   2.987   4.389
 7694SOL    HW123981   5.836   2.964   4.326
 7694SOL    HW223982   5.715   3.069   4.358
 7695SOL     OW23983   6.076   0.584   1.271
 7695SOL    HW123984   6.115   0.657   1.328
 7695SOL    HW223985   6.006   0.535   1.324
 7696SOL     OW23986   6.316   1.649   6.316
 7696SOL    HW123987   6.376   1.592   6.260
 7696SOL    HW223988   6.308   1.740   6.275
 7697SOL     OW23989   2.868   1.037   2.397
 7697SOL    HW123990   2.944   1.068   2.339
 7697SOL    HW223991   2.820   0.962   2.352
 7698SOL     OW23992   6.622   1.185   5.480
 7698SOL    HW123993   6.619   1.091   5.515
 7698SOL    HW223994   6.707   1.198   5.430
 7699SOL     OW23995   2.607   5.499   6.563
 7699SOL    HW123996   2.509   5.484   6.552
 7699SOL    HW223997   2.641   5.443   6.639
 7700SOL     OW23998   4.054   5.999   3.477
 7700SOL    HW123999   4.138   6.051   3.459
 7700SOL    HW224000   4.026   5.951   3.394
 7701SOL     OW24001   0.170   2.570   6.567
 7701SOL    HW124002   0.096   2.518   6.610
 7701SOL    HW224003   0.134   2.621   6.489
 7702SOL     OW24004   4.279   5.865   5.179
 7702SOL    HW124005   4.205   5.921   5.143
 7702SOL    HW224006   4.299   5.791   5.114
 7703SOL     OW24007   6.245   6.165   5.675
 7703SOL    HW124008   6.310   6.240   5.660
 7703SOL    HW224009   6.165   6.200   5.722
 7704SOL     OW24010   6.083   1.956   3.375
 7704SOL    HW124011   6.027   2.031   3.410
 7704SOL    HW224012   6.052   1.870   3.416
 7705SOL     OW24013   2.579   5.298   1.374
 7705SOL    HW124014   2.595   5.237   1.296
 7705SOL    HW224015   2.488   5.338   1.367
 7706SOL     OW24016   3.731   3.393   3.754
 7706SOL    HW124017   3.773   3.380   3.844
 7706SOL    HW224018   3.793   3.359   3.683
 7707SOL     OW24019   0.529   4.472   6.809
 7707SOL    HW124020   0.626   4.450   6.797
 7707SOL    HW224021   0.484   4.398   6.859
 7708SOL     OW24022   1.744   6.711   4.356
 7708SOL    HW124023   1.680   6.684   4.427
 7708SOL    HW224024   1.702   6.779   4.296
 7709SOL     OW24025   6.623   4.957   1.935
 7709SOL    HW124026   6.709   4.909   1.949
 7709SOL    HW224027   6.621   4.994   1.842
 7710SOL     OW24028   1.750   2.037   0.674
 7710SOL    HW124029   1.795   1.950   0.693
 7710SOL    HW224030   1.817   2.102   0.637
 7711SOL     OW24031   5.371   6.010   6.120
 7711SOL    HW124032   5.364   6.088   6.181
 7711SOL    HW224033   5.284   5.998   6.071
 7712SOL     OW24034   6.048   4.674   0.480
 7712SOL    HW124035   6.122   4.607   0.474
 7712SOL    HW224036   6.046   4.730   0.398
 7713SOL     OW24037   1.914   3.507   0.684
 7713SOL    HW124038   1.855   3.484   0.762
 7713SOL    HW224039   2.005   3.532   0.717
 7714SOL     OW24040   0.414   6.195   5.011
 7714SOL    HW124041   0.484   6.145   5.061
 7714SOL    HW224042   0.433   6.293   5.017
 7715SOL     OW24043   2.562   2.309   6.579
 7715SOL    HW124044   2.520   2.352   6.499
 7715SOL    HW224045   2.653   2.348   6.593
 7716SOL     OW24046   6.164   5.297   0.807
 7716SOL    HW124047   6.249   5.267   0.763
 7716SOL    HW224048   6.099   5.222   0.809
 7717SOL     OW24049   1.002   1.987   5.377
 7717SOL    HW124050   1.081   1.927   5.390
 7717SOL    HW224051   1.020   2.050   5.302
 7718SOL     OW24052   0.014   4.403   3.158
 7718SOL    HW124053   7.016   4.361   3.070
 7718SOL    HW224054   0.104   4.373   3.191
 7719SOL     OW24055   0.869   4.128   4.974
 7719SOL    HW124056   0.929   4.178   4.912
 7719SOL    HW224057   0.923   4.061   5.026
 7720SOL     OW24058   6.287   1.889   6.166
 7720SOL    HW124059   6.228   1.969   6.153
 7720SOL    HW224060   6.273   1.825   6.091
 7721SOL     OW24061   0.484   6.801   2.688
 7721SOL    HW124062   0.475   6.777   2.591
 7721SOL    HW224063   0.393   6.807   2.729
 7722SOL     OW24064   1.630   5.314   3.835
 7722SOL    HW124065   1.616   5.380   3.909
 7722SOL    HW224066   1.547   5.310   3.778
 7723SOL     OW24067   4.498   3.552   6.372
 7723SOL    HW124068   4.431   3.525   6.442
 7723SOL    HW224069   4.472   3.639   6.332
 7724SOL     OW24070   3.198   4.350   0.067
 7724SOL    HW124071   3.134   4.351   7.011
 7724SOL    HW224072   3.168   4.283   0.135
 7725SOL     OW24073   6.006   2.055   2.869
 7725SOL    HW124074   5.971   2.001   2.792
 7725SOL    HW224075   6.089   2.103   2.841
 7726SOL     OW24076   1.293   3.494   6.186
 7726SOL    HW124077   1.310   3.547   6.269
 7726SOL    HW224078   1.379   3.459   6.150
 7727SOL     OW24079   5.979   3.067   1.628
 7727SOL    HW124080   6.052   3.100   1.568
 7727SOL    HW224081   5.918   3.142   1.651
 7728SOL     OW24082   2.219   2.942   4.773
 7728SOL    HW124083   2.256   2.965   4.863
 7728SOL    HW224084   2.229   2.844   4.757
 7729SOL     OW24085   5.919   1.548   2.088
 7729SOL    HW124086   5.831   1.568   2.045
 7729SOL    HW224087   5.923   1.451   2.113
 7730SOL     OW24088   0.074   4.828   6.792
 7730SOL    HW124089   0.014   4.749   6.778
 7730SOL    HW224090   0.086   4.844   6.890
 7731SOL     OW24091   6.461   6.691   0.553
 7731SOL    HW124092   6.531   6.630   0.515
 7731SOL    HW224093   6.408   6.731   0.478
 7732SOL     OW24094   3.919   0.406   0.759
 7732SOL    HW124095   3.831   0.453   0.772
 7732SOL    HW224096   3.908   0.334   0.691
 7733SOL     OW24097   6.336   5.069   2.408
 7733SOL    HW124098   6.342   5.078   2.309
 7733SOL    HW224099   6.407   5.124   2.452
 7734SOL     OW24100   2.161   4.528   4.433
 7734SOL    HW124101   2.068   4.506   4.404
 7734SOL    HW224102   2.157   4.593   4.509
 7735SOL     OW24103   5.923   5.636   0.426
 7735SOL    HW124104   5.955   5.556   0.376
 7735SOL    HW224105   5.985   5.713   0.409
 7736SOL     OW24106   2.201   3.284   0.551
 7736SOL    HW124107   2.104   3.263   0.544
 7736SOL    HW224108   2.223   3.308   0.646
 7737SOL     OW24109   3.373   6.281   1.702
 7737SOL    HW124110   3.382   6.185   1.674
 7737SOL    HW224111   3.459   6.311   1.743
 7738SOL     OW24112   2.725   5.380   0.379
 7738SOL    HW124113   2.683   5.429   0.456
 7738SOL    HW224114   2.653   5.341   0.322
 7739SOL     OW24115   1.983   1.937   1.667
 7739SOL    HW124116   2.022   2.029   1.672
 7739SOL    HW224117   2.044   1.878   1.614
 7740SOL     OW24118   1.787   1.022   2.777
 7740SOL    HW124119   1.820   0.947   2.834
 7740SOL    HW224120   1.730   1.083   2.833
 7741SOL     OW24121   0.506   3.664   5.539
 7741SOL    HW124122   0.449   3.680   5.621
 7741SOL    HW224123   0.599   3.696   5.557
 7742SOL     OW24124   4.365   1.787   3.759
 7742SOL    HW124125   4.305   1.721   3.714
 7742SOL    HW224126   4.398   1.853   3.691
 7743SOL     OW24127   5.029   1.209   6.845
 7743SOL    HW124128   5.111   1.173   6.799
 7743SOL    HW224129   4.985   1.135   6.896
 7744SOL     OW24130   1.097   6.004   3.370
 7744SOL    HW124131   1.127   5.972   3.280
 7744SOL    HW224132   1.169   5.989   3.437
 7745SOL     OW24133   2.524   0.348   0.164
 7745SOL    HW124134   2.469   0.374   0.244
 7745SOL    HW224135   2.515   0.250   0.148
 7746SOL     OW24136   1.160   0.374   0.858
 7746SOL    HW124137   1.084   0.406   0.801
 7746SOL    HW224138   1.164   0.274   0.856
 7747SOL     OW24139   0.121   6.061   1.477
 7747SOL    HW124140   0.068   6.094   1.555
 7747SOL    HW224141   0.191   6.128   1.454
 7748SOL     OW24142   3.316   4.075   4.202
 7748SOL    HW124143   3.360   4.118   4.124
 7748SOL    HW224144   3.368   3.993   4.228
 7749SOL     OW24145   3.663   3.952   3.655
 7749SOL    HW124146   3.734   3.941   3.586
 7749SOL    HW224147   3.628   4.046   3.654
 7750SOL     OW24148   6.145   5.901   6.265
 7750SOL    HW124149   6.115   5.964   6.337
 7750SOL    HW224150   6.245   5.898   6.263
 7751SOL     OW24151   0.816   2.199   2.705
 7751SOL    HW124152   0.823   2.155   2.795
 7751SOL    HW224153   0.736   2.259   2.704
 7752SOL     OW24154   5.506   6.257   5.641
 7752SOL    HW124155   5.517   6.281   5.738
 7752SOL    HW224156   5.430   6.194   5.630
 7753SOL     OW24157   2.897   0.928   3.606
 7753SOL    HW124158   2.989   0.958   3.582
 7753SOL    HW224159   2.835   0.950   3.530
 7754SOL     OW24160   5.502   0.168   1.601
 7754SOL    HW124161   5.590   0.166   1.649
 7754SOL    HW224162   5.509   0.228   1.521
 7755SOL     OW24163   1.162   1.616   5.924
 7755SOL    HW124164   1.174   1.534   5.867
 7755SOL    HW224165   1.083   1.603   5.984
 7756SOL     OW24166   2.997   5.681   2.258
 7756SOL    HW124167   3.093   5.690   2.285
 7756SOL    HW224168   2.939   5.696   2.338
 7757SOL     OW24169   5.257   6.053   4.087
 7757SOL    HW124170   5.309   6.093   4.011
 7757SOL    HW224171   5.256   6.116   4.164
 7758SOL     OW24172   1.962   2.148   6.575
 7758SOL    HW124173   1.964   2.121   6.479
 7758SOL    HW224174   1.961   2.248   6.581
 7759SOL     OW24175   1.520   1.496   4.885
 7759SOL    HW124176   1.492   1.528   4.794
 7759SOL    HW224177   1.440   1.460   4.933
 7760SOL     OW24178   5.945   3.209   2.392
 7760SOL    HW124179   6.033   3.168   2.412
 7760SOL    HW224180   5.945   3.305   2.421
 7761SOL     OW24181   1.792   6.717   5.882
 7761SOL    HW124182   1.772   6.783   5.809
 7761SOL    HW224183   1.757   6.752   5.969
 7762SOL     OW24184   4.060   0.630   4.853
 7762SOL    HW124185   4.013   0.616   4.765
 7762SOL    HW224186   4.000   0.602   4.927
 7763SOL     OW24187   1.545   1.606   1.361
 7763SOL    HW124188   1.469   1.542   1.352
 7763SOL    HW224189   1.589   1.595   1.450
 7764SOL     OW24190   3.567   3.275   2.776
 7764SOL    HW124191   3.577   3.194   2.717
 7764SOL    HW224192   3.648   3.285   2.833
 7765SOL     OW24193   6.262   2.781   4.213
 7765SOL    HW124194   6.304   2.772   4.304
 7765SOL    HW224195   6.177   2.834   4.221
 7766SOL     OW24196   4.915   1.870   0.580
 7766SOL    HW124197   4.975   1.882   0.659
 7766SOL    HW224198   4.824   1.845   0.611
 7767SOL     OW24199   3.752   6.884   3.589
 7767SOL    HW124200   3.808   6.833   3.653
 7767SOL    HW224201   3.811   6.939   3.529
 7768SOL     OW24202   4.280   5.291   2.156
 7768SOL    HW124203   4.284   5.192   2.170
 7768SOL    HW224204   4.267   5.337   2.244
 7769SOL     OW24205   4.758   1.784   1.562
 7769SOL    HW124206   4.791   1.837   1.640
 7769SOL    HW224207   4.662   1.762   1.574
 7770SOL     OW24208   1.461   4.064   2.492
 7770SOL    HW124209   1.378   4.011   2.476
 7770SOL    HW224210   1.440   4.161   2.485
 7771SOL     OW24211   2.384   2.769   5.266
 7771SOL    HW124212   2.289   2.786   5.242
 7771SOL    HW224213   2.438   2.850   5.246
 7772SOL     OW24214   4.840   0.668   3.582
 7772SOL    HW124215   4.838   0.569   3.596
 7772SOL    HW224216   4.751   0.700   3.549
 7773SOL     OW24217   2.857   5.125   5.178
 7773SOL    HW124218   2.767   5.160   5.204
 7773SOL    HW224219   2.924   5.149   5.249
 7774SOL     OW24220   6.362   2.378   6.226
 7774SOL    HW124221   6.409   2.465   6.243
 7774SOL    HW224222   6.372   2.319   6.306
 7775SOL     OW24223   3.613   6.625   2.949
 7775SOL    HW124224   3.613   6.549   2.884
 7775SOL    HW224225   3.695   6.681   2.934
 7776SOL     OW24226   3.303   3.662   6.369
 7776SOL    HW124227   3.242   3.598   6.416
 7776SOL    HW224228   3.391   3.665   6.416
 7777SOL     OW24229   2.567   1.310   5.258
 7777SOL    HW124230   2.594   1.309   5.162
 7777SOL    HW224231   2.467   1.314   5.264
 7778SOL     OW24232   4.853   6.648   0.190
 7778SOL    HW124233   4.773   6.630   0.248
 7778SOL    HW224234   4.933   6.666   0.248
 7779SOL     OW24235   3.177   2.992   0.408
 7779SOL    HW124236   3.262   2.977   0.358
 7779SOL    HW224237   3.197   3.019   0.502
 7780SOL     OW24238   1.747   5.414   4.739
 7780SOL    HW124239   1.758   5.491   4.802
 7780SOL    HW224240   1.655   5.415   4.701
 7781SOL     OW24241   1.611   4.708   6.720
 7781SOL    HW124242   1.595   4.762   6.638
 7781SOL    HW224243   1.709   4.691   6.731
 7782SOL     OW24244   1.851   4.199   5.762
 7782SOL    HW124245   1.800   4.202   5.848
 7782SOL    HW224246   1.787   4.183   5.686
 7783SOL     OW24247   1.973   5.735   5.769
 7783SOL    HW124248   2.051   5.731   5.706
 7783SOL    HW224249   1.937   5.828   5.771
 7784SOL     OW24250   2.418   2.584   0.495
 7784SOL    HW124251   2.513   2.601   0.467
 7784SOL    HW224252   2.365   2.557   0.415
 7785SOL     OW24253   1.297   6.588   4.273
 7785SOL    HW124254   1.377   6.529   4.262
 7785SOL    HW224255   1.218   6.532   4.297
 7786SOL     OW24256   3.007   5.925   6.462
 7786SOL    HW124257   3.051   5.864   6.397
 7786SOL    HW224258   2.942   5.873   6.518
 7787SOL     OW24259   2.360   3.501   5.704
 7787SOL    HW124260   2.417   3.426   5.673
 7787SOL    HW224261   2.263   3.477   5.692
 7788SOL     OW24262   1.475   6.804   1.582
 7788SOL    HW124263   1.565   6.817   1.624
 7788SOL    HW224264   1.414   6.760   1.648
 7789SOL     OW24265   2.948   0.033   0.125
 7789SOL    HW124266   2.920   0.129   0.124
 7789SOL    HW224267   2.982   0.009   0.217
 7790SOL     OW24268   5.775   4.793   2.196
 7790SOL    HW124269   5.728   4.813   2.282
 7790SOL    HW224270   5.797   4.878   2.149
 7791SOL     OW24271   3.014   6.376   3.626
 7791SOL    HW124272   2.998   6.474   3.643
 7791SOL    HW224273   2.926   6.329   3.619
 7792SOL     OW24274   0.963   5.678   5.994
 7792SOL    HW124275   1.028   5.619   5.946
 7792SOL    HW224276   0.983   5.677   6.092
 7793SOL     OW24277   2.021   1.027   6.167
 7793SOL    HW124278   1.983   1.090   6.098
 7793SOL    HW224279   1.992   1.057   6.258
 7794SOL     OW24280   4.958   5.134   3.519
 7794SOL    HW124281   4.868   5.106   3.552
 7794SOL    HW224282   5.020   5.144   3.597
 7795SOL     OW24283   1.997   3.578   5.397
 7795SOL    HW124284   1.958   3.647   5.337
 7795SOL    HW224285   2.023   3.497   5.343
 7796SOL     OW24286   3.116   3.704   3.460
 7796SOL    HW124287   3.198   3.760   3.464
 7796SOL    HW224288   3.061   3.719   3.542
 7797SOL     OW24289   0.911   6.347   3.056
 7797SOL    HW124290   0.953   6.384   3.139
 7797SOL    HW224291   0.945   6.396   2.977
 7798SOL     OW24292   1.422   5.067   6.071
 7798SOL    HW124293   1.364   5.108   6.141
 7798SOL    HW224294   1.515   5.103   6.079
 7799SOL     OW24295   6.658   6.534   1.420
 7799SOL    HW124296   6.670   6.484   1.334
 7799SOL    HW224297   6.735   6.514   1.481
 7800SOL     OW24298   1.930   5.341   0.466
 7800SOL    HW124299   1.962   5.361   0.559
 7800SOL    HW224300   1.909   5.244   0.458
 7801SOL     OW24301   2.567   2.283   1.585
 7801SOL    HW124302   2.552   2.185   1.575
 7801SOL    HW224303   2.545   2.311   1.679
 7802SOL     OW24304   5.382   2.072   1.449
 7802SOL    HW124305   5.437   2.034   1.375
 7802SOL    HW224306   5.354   1.999   1.512
 7803SOL     OW24307   4.661   2.890   6.261
 7803SOL    HW124308   4.577   2.897   6.314
 7803SOL    HW224309   4.640   2.861   6.168
 7804SOL     OW24310   5.672   1.538   3.835
 7804SOL    HW124311   5.642   1.622   3.790
 7804SOL    HW224312   5.609   1.464   3.813
 7805SOL     OW24313   5.326   1.281   1.115
 7805SOL    HW124314   5.241   1.271   1.167
 7805SOL    HW224315   5.317   1.232   1.028
 7806SOL     OW24316   5.660   2.362   5.898
 7806SOL    HW124317   5.588   2.366   5.829
 7806SOL    HW224318   5.681   2.455   5.930
 7807SOL     OW24319   6.932   4.366   6.189
 7807SOL    HW124320   6.870   4.441   6.214
 7807SOL    HW224321   6.948   4.308   6.269
 7808SOL     OW24322   0.454   2.878   4.281
 7808SOL    HW124323   0.430   2.972   4.301
 7808SOL    HW224324   0.437   2.821   4.361
 7809SOL     OW24325   2.377   5.828   4.816
 7809SOL    HW124326   2.328   5.871   4.739
 7809SOL    HW224327   2.355   5.877   4.900
 7810SOL     OW24328   3.606   0.031   5.023
 7810SOL    HW124329   3.696   7.009   5.018
 7810SOL    HW224330   3.617   0.130   5.038
 7811SOL     OW24331   0.216   4.970   3.613
 7811SOL    HW124332   0.252   4.877   3.625
 7811SOL    HW224333   0.138   4.983   3.674
 7812SOL     OW24334   1.576   2.034   3.577
 7812SOL    HW124335   1.670   2.000   3.570
 7812SOL    HW224336   1.575   2.120   3.628
 7813SOL     OW24337   3.756   2.328   6.600
 7813SOL    HW124338   3.828   2.371   6.546
 7813SOL    HW224339   3.738   2.384   6.681
 7814SOL     OW24340   6.697   3.460   3.654
 7814SOL    HW124341   6.618   3.516   3.629
 7814SOL    HW224342   6.666   3.370   3.684
 7815SOL     OW24343   4.730   0.386   6.690
 7815SOL    HW124344   4.634   0.390   6.718
 7815SOL    HW224345   4.737   0.338   6.602
 7816SOL     OW24346   1.126   2.721   6.460
 7816SOL    HW124347   1.085   2.710   6.370
 7816SOL    HW224348   1.059   2.763   6.522
 7817SOL     OW24349   5.586   4.282   3.577
 7817SOL    HW124350   5.669   4.327   3.544
 7817SOL    HW224351   5.507   4.341   3.560
 7818SOL     OW24352   4.322   1.069   2.965
 7818SOL    HW124353   4.282   1.070   2.873
 7818SOL    HW224354   4.334   1.162   2.998
 7819SOL     OW24355   6.722   3.017   2.023
 7819SOL    HW124356   6.694   3.073   2.101
 7819SOL    HW224357   6.760   3.076   1.952
 7820SOL     OW24358   1.098   2.542   4.503
 7820SOL    HW124359   1.144   2.563   4.589
 7820SOL    HW224360   1.087   2.626   4.449
 7821SOL     OW24361   5.183   6.330   1.015
 7821SOL    HW124362   5.212   6.421   0.985
 7821SOL    HW224363   5.176   6.270   0.935
 7822SOL     OW24364   0.637   0.882   5.595
 7822SOL    HW124365   0.585   0.833   5.525
 7822SOL    HW224366   0.671   0.968   5.557
 7823SOL     OW24367   2.734   3.860   5.221
 7823SOL    HW124368   2.793   3.940   5.214
 7823SOL    HW224369   2.638   3.889   5.228
 7824SOL     OW24370   5.971   1.829   4.519
 7824SOL    HW124371   5.971   1.757   4.588
 7824SOL    HW224372   5.887   1.824   4.466
 7825SOL     OW24373   1.679   3.155   0.491
 7825SOL    HW124374   1.647   3.141   0.584
 7825SOL    HW224375   1.600   3.163   0.429
 7826SOL     OW24376   5.878   1.304   1.336
 7826SOL    HW124377   5.866   1.251   1.420
 7826SOL    HW224378   5.854   1.399   1.353
 7827SOL     OW24379   1.899   5.915   0.804
 7827SOL    HW124380   1.817   5.876   0.762
 7827SOL    HW224381   1.887   5.919   0.904
 7828SOL     OW24382   6.308   4.510   0.448
 7828SOL    HW124383   6.358   4.519   0.361
 7828SOL    HW224384   6.373   4.492   0.522
 7829SOL     OW24385   2.508   3.629   1.264
 7829SOL    HW124386   2.475   3.597   1.175
 7829SOL    HW224387   2.431   3.642   1.326
 7830SOL     OW24388   2.805   4.928   5.749
 7830SOL    HW124389   2.825   4.981   5.667
 7830SOL    HW224390   2.812   4.987   5.829
 7831SOL     OW24391   1.493   0.336   1.500
 7831SOL    HW124392   1.483   0.254   1.555
 7831SOL    HW224393   1.588   0.344   1.469
 7832SOL     OW24394   6.356   0.414   4.875
 7832SOL    HW124395   6.314   0.488   4.823
 7832SOL    HW224396   6.344   0.430   4.973
 7833SOL     OW24397   0.621   0.629   5.127
 7833SOL    HW124398   0.626   0.727   5.144
 7833SOL    HW224399   0.680   0.580   5.191
 7834SOL     OW24400   6.817   1.334   3.888
 7834SOL    HW124401   6.907   1.296   3.910
 7834SOL    HW224402   6.824   1.433   3.877
 7835SOL     OW24403   3.518   1.969   5.465
 7835SOL    HW124404   3.439   1.951   5.408
 7835SOL    HW224405   3.601   1.973   5.408
 7836SOL     OW24406   3.144   3.693   5.055
 7836SOL    HW124407   3.066   3.750   5.029
 7836SOL    HW224408   3.112   3.601   5.078
 7837SOL     OW24409   4.460   5.804   6.799
 7837SOL    HW124410   4.502   5.761   6.879
 7837SOL    HW224411   4.521   5.876   6.765
 7838SOL     OW24412   4.173   6.655   0.949
 7838SOL    HW124413   4.079   6.676   0.975
 7838SOL    HW224414   4.229   6.738   0.956
 7839SOL     OW24415   6.091   4.163   4.866
 7839SOL    HW124416   6.142   4.161   4.952
 7839SOL    HW224417   6.150   4.198   4.794
 7840SOL     OW24418   0.265   3.474   4.324
 7840SOL    HW124419   0.339   3.445   4.385
 7840SOL    HW224420   0.181   3.486   4.377
 7841SOL     OW24421   4.148   1.845   6.389
 7841SOL    HW124422   4.152   1.752   6.424
 7841SOL    HW224423   4.144   1.843   6.289
 7842SOL     OW24424   2.256   1.353   2.571
 7842SOL    HW124425   2.263   1.272   2.512
 7842SOL    HW224426   2.194   1.419   2.529
 7843SOL     OW24427   0.050   5.808   3.382
 7843SOL    HW124428   0.125   5.839   3.323
 7843SOL    HW224429   0.087   5.781   3.471
 7844SOL     OW24430   2.550   0.481   2.317
 7844SOL    HW124431   2.582   0.542   2.245
 7844SOL    HW224432   2.622   0.468   2.385
 7845SOL     OW24433   4.837   1.822   2.862
 7845SOL    HW124434   4.802   1.771   2.783
 7845SOL    HW224435   4.836   1.920   2.843
 7846SOL     OW24436   1.352   2.483   1.258
 7846SOL    HW124437   1.267   2.432   1.240
 7846SOL    HW224438   1.335   2.581   1.250
 7847SOL     OW24439   6.405   1.275   3.250
 7847SOL    HW124440   6.317   1.233   3.227
 7847SOL    HW224441   6.390   1.359   3.303
 7848SOL     OW24442   3.651   4.922   0.835
 7848SOL    HW124443   3.569   4.978   0.849
 7848SOL    HW224444   3.648   4.880   0.744
 7849SOL     OW24445   6.895   4.180   4.648
 7849SOL    HW124446   6.953   4.254   4.614
 7849SOL    HW224447   6.867   4.121   4.571
 7850SOL     OW24448   0.490   1.417   3.635
 7850SOL    HW124449   0.525   1.430   3.542
 7850SOL    HW224450   0.485   1.506   3.681
 7851SOL     OW24451   0.025   2.120   1.550
 7851SOL    HW124452   0.008   2.095   1.646
 7851SOL    HW224453   0.111   2.171   1.545
 7852SOL     OW24454   3.251   1.560   0.298
 7852SOL    HW124455   3.224   1.490   0.365
 7852SOL    HW224456   3.332   1.529   0.249
 7853SOL     OW24457   5.047   2.867   1.516
 7853SOL    HW124458   5.057   2.767   1.513
 7853SOL    HW224459   4.954   2.892   1.490
 7854SOL     OW24460   3.081   2.887   5.559
 7854SOL    HW124461   3.018   2.850   5.490
 7854SOL    HW224462   3.100   2.983   5.539
 7855SOL     OW24463   4.196   6.454   4.731
 7855SOL    HW124464   4.112   6.404   4.751
 7855SOL    HW224465   4.264   6.392   4.693
 7856SOL     OW24466   7.019   5.668   5.157
 7856SOL    HW124467   0.054   5.585   5.152
 7856SOL    HW224468   6.946   5.655   5.224
 7857SOL     OW24469   4.544   2.927   0.506
 7857SOL    HW124470   4.472   2.909   0.440
 7857SOL    HW224471   4.510   2.989   0.577
 7858SOL     OW24472   6.674   6.424   4.576
 7858SOL    HW124473   6.575   6.441   4.570
 7858SOL    HW224474   6.694   6.378   4.662
 7859SOL     OW24475   4.499   3.265   6.790
 7859SOL    HW124476   4.528   3.355   6.756
 7859SOL    HW224477   4.551   3.242   6.872
 7860SOL     OW24478   4.358   0.724   4.412
 7860SOL    HW124479   4.319   0.661   4.345
 7860SOL    HW224480   4.443   0.685   4.449
 7861SOL     OW24481   2.950   4.987   1.667
 7861SOL    HW124482   3.015   4.913   1.648
 7861SOL    HW224483   2.886   4.958   1.738
 7862SOL     OW24484   2.132   4.935   2.331
 7862SOL    HW124485   2.154   4.844   2.297
 7862SOL    HW224486   2.217   4.982   2.356
 7863SOL     OW24487   0.328   3.984   3.860
 7863SOL    HW124488   0.308   3.888   3.840
 7863SOL    HW224489   0.427   3.998   3.859
 7864SOL     OW24490   0.631   5.348   5.541
 7864SOL    HW124491   0.569   5.312   5.611
 7864SOL    HW224492   0.724   5.353   5.577
 7865SOL     OW24493   6.308   5.648   4.235
 7865SOL    HW124494   6.345   5.693   4.317
 7865SOL    HW224495   6.334   5.700   4.154
 7866SOL     OW24496   1.029   0.499   5.629
 7866SOL    HW124497   0.972   0.574   5.594
 7866SOL    HW224498   1.117   0.501   5.582
 7867SOL     OW24499   6.154   5.976   3.539
 7867SOL    HW124500   6.162   5.945   3.445
 7867SOL    HW224501   6.233   6.033   3.563
 7868SOL     OW24502   4.188   6.011   1.304
 7868SOL    HW124503   4.265   6.032   1.244
 7868SOL    HW224504   4.215   6.026   1.399
 7869SOL     OW24505   5.499   4.446   6.230
 7869SOL    HW124506   5.423   4.499   6.267
 7869SOL    HW224507   5.486   4.349   6.253
 7870SOL     OW24508   5.100   6.460   4.526
 7870SOL    HW124509   5.018   6.464   4.469
 7870SOL    HW224510   5.156   6.382   4.498
 7871SOL     OW24511   4.830   2.428   1.705
 7871SOL    HW124512   4.846   2.476   1.619
 7871SOL    HW224513   4.739   2.387   1.703
 7872SOL     OW24514   1.748   3.892   2.883
 7872SOL    HW124515   1.699   3.920   2.800
 7872SOL    HW224516   1.803   3.968   2.917
 7873SOL     OW24517   6.610   0.125   0.292
 7873SOL    HW124518   6.647   0.034   0.272
 7873SOL    HW224519   6.601   0.177   0.207
 7874SOL     OW24520   4.710   2.538   0.860
 7874SOL    HW124521   4.673   2.615   0.808
 7874SOL    HW224522   4.641   2.467   0.868
 7875SOL     OW24523   4.195   2.630   0.138
 7875SOL    HW124524   4.256   2.568   0.188
 7875SOL    HW224525   4.147   2.689   0.203
 7876SOL     OW24526   1.269   6.173   3.587
 7876SOL    HW124527   1.189   6.226   3.615
 7876SOL    HW224528   1.344   6.235   3.566
 7877SOL     OW24529   0.361   1.410   2.782
 7877SOL    HW124530   0.460   1.409   2.776
 7877SOL    HW224531   0.333   1.423   2.877
 7878SOL     OW24532   4.571   4.449   3.908
 7878SOL    HW124533   4.648   4.461   3.970
 7878SOL    HW224534   4.492   4.500   3.943
 7879SOL     OW24535   3.859   5.406   2.831
 7879SOL    HW124536   3.809   5.342   2.772
 7879SOL    HW224537   3.861   5.370   2.924
 7880SOL     OW24538   2.022   4.102   1.742
 7880SOL    HW124539   2.005   4.192   1.782
 7880SOL    HW224540   2.012   4.031   1.812
 7881SOL     OW24541   5.214   4.219   4.809
 7881SOL    HW124542   5.138   4.183   4.863
 7881SOL    HW224543   5.180   4.251   4.721
 7882SOL     OW24544   1.854   3.668   1.895
 7882SOL    HW124545   1.920   3.634   1.827
 7882SOL    HW224546   1.849   3.603   1.971
 7883SOL     OW24547   1.049   0.626   6.059
 7883SOL    HW124548   0.981   0.607   5.988
 7883SOL    HW224549   1.115   0.552   6.062
 7884SOL     OW24550   1.372   3.810   4.830
 7884SOL    HW124551   1.452   3.812   4.889
 7884SOL    HW224552   1.349   3.903   4.802
 7885SOL     OW24553   6.649   5.704   1.073
 7885SOL    HW124554   6.646   5.761   1.155
 7885SOL    HW224555   6.675   5.611   1.098
 7886SOL     OW24556   4.097   6.107   6.741
 7886SOL    HW124557   4.154   6.041   6.693
 7886SOL    HW224558   4.118   6.199   6.708
 7887SOL     OW24559   3.612   2.423   6.064
 7887SOL    HW124560   3.639   2.483   5.990
 7887SOL    HW224561   3.516   2.438   6.087
 7888SOL     OW24562   6.025   0.236   5.338
 7888SOL    HW124563   5.925   0.240   5.347
 7888SOL    HW224564   6.067   0.301   5.401
 7889SOL     OW24565   2.058   4.620   2.026
 7889SOL    HW124566   1.962   4.620   2.052
 7889SOL    HW224567   2.068   4.651   1.932
 7890SOL     OW24568   1.593   3.647   2.964
 7890SOL    HW124569   1.660   3.721   2.970
 7890SOL    HW224570   1.552   3.646   2.873
 7891SOL     OW24571   1.398   3.792   3.136
 7891SOL    HW124572   1.423   3.697   3.118
 7891SOL    HW224573   1.300   3.798   3.154
 7892SOL     OW24574   1.963   2.594   4.330
 7892SOL    HW124575   1.867   2.621   4.332
 7892SOL    HW224576   2.012   2.652   4.265
 7893SOL     OW24577   6.691   6.889   2.710
 7893SOL    HW124578   6.672   6.982   2.741
 7893SOL    HW224579   6.703   6.888   2.611
 7894SOL     OW24580   2.614   6.452   1.629
 7894SOL    HW124581   2.591   6.432   1.533
 7894SOL    HW224582   2.601   6.549   1.647
 7895SOL     OW24583   6.431   1.440   5.798
 7895SOL    HW124584   6.361   1.374   5.827
 7895SOL    HW224585   6.407   1.477   5.709
 7896SOL     OW24586   5.112   4.089   6.787
 7896SOL    HW124587   5.133   4.016   6.723
 7896SOL    HW224588   5.086   4.050   6.875
 7897SOL     OW24589   2.403   4.079   6.154
 7897SOL    HW124590   2.408   3.992   6.105
 7897SOL    HW224591   2.493   4.103   6.189
 7898SOL     OW24592   5.417   2.383   3.833
 7898SOL    HW124593   5.374   2.460   3.785
 7898SOL    HW224594   5.450   2.414   3.922
 7899SOL     OW24595   6.134   1.393   1.696
 7899SOL    HW124596   6.191   1.315   1.721
 7899SOL    HW224597   6.163   1.428   1.606
 7900SOL     OW24598   1.404   5.696   1.257
 7900SOL    HW124599   1.427   5.703   1.160
 7900SOL    HW224600   1.305   5.686   1.268
 7901SOL     OW24601   4.872   0.501   6.430
 7901SOL    HW124602   4.795   0.499   6.494
 7901SOL    HW224603   4.935   0.574   6.456
 7902SOL     OW24604   5.771   5.355   1.916
 7902SOL    HW124605   5.742   5.306   1.833
 7902SOL    HW224606   5.694   5.407   1.952
 7903SOL     OW24607   6.315   2.201   0.615
 7903SOL    HW124608   6.345   2.231   0.524
 7903SOL    HW224609   6.339   2.271   0.682
 7904SOL     OW24610   5.673   0.450   3.390
 7904SOL    HW124611   5.759   0.405   3.366
 7904SOL    HW224612   5.679   0.548   3.368
 7905SOL     OW24613   4.262   1.790   0.333
 7905SOL    HW124614   4.349   1.740   0.331
 7905SOL    HW224615   4.278   1.885   0.308
 7906SOL     OW24616   0.602   5.909   0.551
 7906SOL    HW124617   0.688   5.946   0.516
 7906SOL    HW224618   0.597   5.811   0.529
 7907SOL     OW24619   6.139   2.076   3.719
 7907SOL    HW124620   6.150   2.075   3.818
 7907SOL    HW224621   6.055   2.027   3.694
 7908SOL     OW24622   1.161   1.290   4.212
 7908SOL    HW124623   1.260   1.300   4.215
 7908SOL    HW224624   1.136   1.233   4.133
 7909SOL     OW24625   5.227   3.895   4.992
 7909SOL    HW124626   5.247   3.799   5.014
 7909SOL    HW224627   5.310   3.950   5.004
 7910SOL     OW24628   3.045   2.679   5.816
 7910SOL    HW124629   3.117   2.701   5.750
 7910SOL    HW224630   2.956   2.679   5.769
 7911SOL     OW24631   1.051   3.259   6.523
 7911SOL    HW124632   1.081   3.300   6.609
 7911SOL    HW224633   1.063   3.160   6.528
 7912SOL     OW24634   0.323   5.262   0.433
 7912SOL    HW124635   0.421   5.240   0.437
 7912SOL    HW224636   0.310   5.348   0.384
 7913SOL     OW24637   1.469   4.974   0.723
 7913SOL    HW124638   1.397   4.995   0.790
 7913SOL    HW224639   1.558   4.982   0.768
 7914SOL     OW24640   0.326   4.847   6.704
 7914SOL    HW124641   0.341   4.944   6.682
 7914SOL    HW224642   0.272   4.841   6.788
 7915SOL     OW24643   4.748   2.697   2.373
 7915SOL    HW124644   4.699   2.712   2.287
 7915SOL    HW224645   4.767   2.785   2.416
 7916SOL     OW24646   6.063   3.976   5.549
 7916SOL    HW124647   6.161   3.976   5.529
 7916SOL    HW224648   6.012   3.959   5.465
 7917SOL     OW24649   3.192   3.008   4.069
 7917SOL    HW124650   3.118   3.054   4.119
 7917SOL    HW224651   3.159   2.979   3.980
 7918SOL     OW24652   0.170   1.459   0.735
 7918SOL    HW124653   0.241   1.497   0.676
 7918SOL    HW224654   0.170   1.359   0.727
 7919SOL     OW24655   0.624   4.534   3.324
 7919SOL    HW124656   0.535   4.576   3.305
 7919SOL    HW224657   0.658   4.489   3.242
 7920SOL     OW24658   0.291   5.105   1.478
 7920SOL    HW124659   0.302   5.062   1.567
 7920SOL    HW224660   0.294   5.205   1.489
 7921SOL     OW24661   3.815   5.728   0.503
 7921SOL    HW124662   3.894   5.727   0.564
 7921SOL    HW224663   3.800   5.636   0.467
 7922SOL     OW24664   6.540   5.560   0.456
 7922SOL    HW124665   6.500   5.607   0.378
 7922SOL    HW224666   6.511   5.604   0.540
 7923SOL     OW24667   2.733   0.469   2.532
 7923SOL    HW124668   2.776   0.384   2.561
 7923SOL    HW224669   2.791   0.546   2.559
 7924SOL     OW24670   3.834   6.276   3.197
 7924SOL    HW124671   3.798   6.188   3.166
 7924SOL    HW224672   3.922   6.262   3.243
 7925SOL     OW24673   0.645   1.884   6.511
 7925SOL    HW124674   0.630   1.891   6.412
 7925SOL    HW224675   0.614   1.968   6.556
 7926SOL     OW24676   4.676   0.887   4.572
 7926SOL    HW124677   4.755   0.847   4.526
 7926SOL    HW224678   4.684   0.987   4.571
 7927SOL     OW24679   3.868   5.575   4.593
 7927SOL    HW124680   3.777   5.545   4.623
 7927SOL    HW224681   3.911   5.504   4.538
 7928SOL     OW24682   0.971   3.476   4.265
 7928SOL    HW124683   1.036   3.456   4.338
 7928SOL    HW224684   0.911   3.397   4.251
 7929SOL     OW24685   4.190   3.939   5.251
 7929SOL    HW124686   4.273   3.917   5.302
 7929SOL    HW224687   4.161   3.859   5.198
 7930SOL     OW24688   4.712   5.606   4.002
 7930SOL    HW124689   4.807   5.599   4.035
 7930SOL    HW224690   4.674   5.694   4.031
 7931SOL     OW24691   1.260   1.845   6.466
 7931SOL    HW124692   1.274   1.943   6.484
 7931SOL    HW224693   1.165   1.829   6.439
 7932SOL     OW24694   2.838   6.748   0.364
 7932SOL    HW124695   2.778   6.729   0.442
 7932SOL    HW224696   2.826   6.843   0.335
 7933SOL     OW24697   6.970   6.890   0.269
 7933SOL    HW124698   6.894   6.920   0.211
 7933SOL    HW224699   6.959   6.928   0.361
 7934SOL     OW24700   2.436   4.485   6.861
 7934SOL    HW124701   2.530   4.512   6.881
 7934SOL    HW224702   2.432   4.440   6.772
 7935SOL     OW24703   4.902   5.467   0.004
 7935SOL    HW124704   4.968   5.526   6.978
 7935SOL    HW224705   4.936   5.443   0.095
 7936SOL     OW24706   3.559   5.568   2.387
 7936SOL    HW124707   3.486   5.513   2.348
 7936SOL    HW224708   3.584   5.532   2.477
 7937SOL     OW24709   5.382   6.851   3.775
 7937SOL    HW124710   5.470   6.803   3.775
 7937SOL    HW224711   5.397   6.947   3.752
 7938SOL     OW24712   5.730   4.795   5.288
 7938SOL    HW124713   5.789   4.855   5.342
 7938SOL    HW224714   5.773   4.776   5.200
 7939SOL     OW24715   0.494   2.146   6.001
 7939SOL    HW124716   0.441   2.224   6.034
 7939SOL    HW224717   0.591   2.160   6.023
 7940SOL     OW24718   2.091   4.559   2.448
 7940SOL    HW124719   2.114   4.591   2.539
 7940SOL    HW224720   2.150   4.604   2.381
 7941SOL     OW24721   6.855   6.784   1.368
 7941SOL    HW124722   6.796   6.704   1.381
 7941SOL    HW224723   6.802   6.859   1.329
 7942SOL     OW24724   6.788   6.459   3.080
 7942SOL    HW124725   6.714   6.448   3.013
 7942SOL    HW224726   6.874   6.429   3.039
 7943SOL     OW24727   5.714   1.907   0.801
 7943SOL    HW124728   5.654   1.987   0.800
 7943SOL    HW224729   5.677   1.836   0.741
 7944SOL     OW24730   0.439   3.198   0.749
 7944SOL    HW124731   0.538   3.211   0.753
 7944SOL    HW224732   0.395   3.285   0.724
 7945SOL     OW24733   5.560   6.931   2.640
 7945SOL    HW124734   5.468   6.915   2.676
 7945SOL    HW224735   5.628   6.891   2.702
 7946SOL     OW24736   2.101   2.781   5.756
 7946SOL    HW124737   2.150   2.860   5.794
 7946SOL    HW224738   2.158   2.736   5.688
 7947SOL     OW24739   3.734   2.809   6.629
 7947SOL    HW124740   3.650   2.784   6.677
 7947SOL    HW224741   3.719   2.807   6.531
 7948SOL     OW24742   0.243   6.486   1.230
 7948SOL    HW124743   0.217   6.480   1.134
 7948SOL    HW224744   0.197   6.565   1.272
 7949SOL     OW24745   4.335   4.650   3.654
 7949SOL    HW124746   4.377   4.741   3.646
 7949SOL    HW224747   4.298   4.639   3.746
 7950SOL     OW24748   4.839   5.525   3.629
 7950SOL    HW124749   4.935   5.501   3.619
 7950SOL    HW224750   4.783   5.463   3.575
 7951SOL     OW24751   2.182   3.940   0.695
 7951SOL    HW124752   2.177   3.855   0.643
 7951SOL    HW224753   2.270   3.946   0.741
 7952SOL     OW24754   0.284   3.414   6.614
 7952SOL    HW124755   0.239   3.349   6.553
 7952SOL    HW224756   0.268   3.387   6.709
 7953SOL     OW24757   2.142   2.965   3.362
 7953SOL    HW124758   2.173   2.951   3.268
 7953SOL    HW224759   2.070   2.899   3.383
 7954SOL     OW24760   4.704   4.584   5.217
 7954SOL    HW124761   4.711   4.651   5.290
 7954SOL    HW224762   4.723   4.628   5.129
 7955SOL     OW24763   1.293   6.432   5.993
 7955SOL    HW124764   1.301   6.368   5.916
 7955SOL    HW224765   1.314   6.524   5.962
 7956SOL     OW24766   1.082   6.309   2.643
 7956SOL    HW124767   1.066   6.216   2.610
 7956SOL    HW224768   1.036   6.374   2.582
 7957SOL     OW24769   1.993   1.295   0.620
 7957SOL    HW124770   2.092   1.294   0.632
 7957SOL    HW224771   1.962   1.388   0.602
 7958SOL     OW24772   3.121   5.617   4.532
 7958SOL    HW124773   3.177   5.587   4.455
 7958SOL    HW224774   3.126   5.717   4.538
 7959SOL     OW24775   4.290   5.377   1.202
 7959SOL    HW124776   4.252   5.345   1.289
 7959SOL    HW224777   4.219   5.427   1.151
 7960SOL     OW24778   3.634   1.527   0.757
 7960SOL    HW124779   3.537   1.539   0.778
 7960SOL    HW224780   3.687   1.535   0.841
 7961SOL     OW24781   1.340   6.239   0.053
 7961SOL    HW124782   1.251   6.264   0.016
 7961SOL    HW224783   1.407   6.310   0.029
 7962SOL     OW24784   1.981   0.585   6.857
 7962SOL    HW124785   2.030   0.642   6.791
 7962SOL    HW224786   1.935   0.510   6.808
 7963SOL     OW24787   5.982   0.926   4.253
 7963SOL    HW124788   5.970   0.984   4.172
 7963SOL    HW224789   6.080   0.908   4.267
 7964SOL     OW24790   6.174   5.363   3.899
 7964SOL    HW124791   6.247   5.387   3.963
 7964SOL    HW224792   6.213   5.309   3.824
 7965SOL     OW24793   3.357   2.728   6.524
 7965SOL    HW124794   3.425   2.714   6.452
 7965SOL    HW224795   3.387   2.681   6.608
 7966SOL     OW24796   0.581   3.196   5.305
 7966SOL    HW124797   0.618   3.262   5.371
 7966SOL    HW224798   0.643   3.189   5.227
 7967SOL     OW24799   3.100   6.375   4.178
 7967SOL    HW124800   3.188   6.339   4.148
 7967SOL    HW224801   3.110   6.417   4.268
 7968SOL     OW24802   2.364   2.817   3.639
 7968SOL    HW124803   2.445   2.853   3.592
 7968SOL    HW224804   2.314   2.756   3.578
 7969SOL     OW24805   4.687   0.123   2.282
 7969SOL    HW124806   4.676   0.217   2.313
 7969SOL    HW224807   4.731   0.069   2.354
 7970SOL     OW24808   0.094   3.502   2.686
 7970SOL    HW124809   0.060   3.593   2.712
 7970SOL    HW224810   0.151   3.465   2.760
 7971SOL     OW24811   3.500   1.784   1.097
 7971SOL    HW124812   3.569   1.715   1.074
 7971SOL    HW224813   3.532   1.840   1.173
 7972SOL     OW24814   0.431   4.055   1.316
 7972SOL    HW124815   0.511   4.103   1.351
 7972SOL    HW224816   0.354   4.067   1.379
 7973SOL     OW24817   5.249   3.313   2.906
 7973SOL    HW124818   5.153   3.327   2.879
 7973SOL    HW224819   5.286   3.235   2.856
 7974SOL     OW24820   5.531   0.169   5.159
 7974SOL    HW124821   5.489   0.091   5.205
 7974SOL    HW224822   5.625   0.146   5.133
 7975SOL     OW24823   5.651   0.375   3.880
 7975SOL    HW124824   5.617   0.465   3.851
 7975SOL    HW224825   5.749   0.381   3.901
 7976SOL     OW24826   0.613   0.644   5.832
 7976SOL    HW124827   0.551   0.706   5.880
 7976SOL    HW224828   0.606   0.660   5.734
 7977SOL     OW24829   4.345   5.592   2.107
 7977SOL    HW124830   4.388   5.558   2.191
 7977SOL    HW224831   4.357   5.525   2.034
 7978SOL     OW24832   5.737   3.724   5.701
 7978SOL    HW124833   5.689   3.770   5.627
 7978SOL    HW224834   5.818   3.778   5.727
 7979SOL     OW24835   2.919   0.680   5.381
 7979SOL    HW124836   2.864   0.718   5.306
 7979SOL    HW224837   2.870   0.602   5.421
 7980SOL     OW24838   2.995   6.239   6.931
 7980SOL    HW124839   3.068   6.296   6.967
 7980SOL    HW224840   3.015   6.143   6.952
 7981SOL     OW24841   0.598   5.711   2.490
 7981SOL    HW124842   0.511   5.730   2.445
 7981SOL    HW224843   0.665   5.779   2.462
 7982SOL     OW24844   6.662   1.664   0.699
 7982SOL    HW124845   6.711   1.619   0.773
 7982SOL    HW224846   6.680   1.762   0.702
 7983SOL     OW24847   5.484   2.066   2.877
 7983SOL    HW124848   5.528   2.029   2.959
 7983SOL    HW224849   5.552   2.079   2.805
 7984SOL     OW24850   1.633   1.975   1.415
 7984SOL    HW124851   1.609   1.992   1.319
 7984SOL    HW224852   1.633   2.061   1.466
 7985SOL     OW24853   2.105   6.884   3.529
 7985SOL    HW124854   2.031   6.952   3.527
 7985SOL    HW224855   2.182   6.916   3.474
 7986SOL     OW24856   3.531   0.883   6.712
 7986SOL    HW124857   3.447   0.933   6.690
 7986SOL    HW224858   3.607   0.918   6.657
 7987SOL     OW24859   0.234   3.668   6.522
 7987SOL    HW124860   0.274   3.576   6.520
 7987SOL    HW224861   0.263   3.718   6.440
 7988SOL     OW24862   1.743   2.037   4.775
 7988SOL    HW124863   1.773   2.045   4.680
 7988SOL    HW224864   1.735   1.940   4.798
 7989SOL     OW24865   3.422   2.352   5.347
 7989SOL    HW124866   3.478   2.315   5.272
 7989SOL    HW224867   3.325   2.350   5.320
 7990SOL     OW24868   6.440   3.911   3.709
 7990SOL    HW124869   6.465   3.930   3.614
 7990SOL    HW224870   6.504   3.957   3.770
 7991SOL     OW24871   6.622   1.327   5.230
 7991SOL    HW124872   6.581   1.277   5.306
 7991SOL    HW224873   6.550   1.373   5.178
 7992SOL     OW24874   1.369   6.523   0.749
 7992SOL    HW124875   1.384   6.596   0.683
 7992SOL    HW224876   1.455   6.503   0.796
 7993SOL     OW24877   1.564   5.902   6.568
 7993SOL    HW124878   1.630   5.918   6.494
 7993SOL    HW224879   1.473   5.930   6.537
 7994SOL     OW24880   4.510   0.662   3.210
 7994SOL    HW124881   4.604   0.628   3.206
 7994SOL    HW224882   4.452   0.607   3.151
 7995SOL     OW24883   4.128   5.693   3.436
 7995SOL    HW124884   4.184   5.618   3.400
 7995SOL    HW224885   4.032   5.676   3.415
 7996SOL     OW24886   2.602   6.448   4.418
 7996SOL    HW124887   2.655   6.417   4.339
 7996SOL    HW224888   2.658   6.443   4.500
 7997SOL     OW24889   0.076   1.187   0.955
 7997SOL    HW124890   0.169   1.151   0.965
 7997SOL    HW224891   0.061   1.259   1.021
 7998SOL     OW24892   4.127   5.517   1.015
 7998SOL    HW124893   4.123   5.610   1.051
 7998SOL    HW224894   4.205   5.509   0.953
 7999SOL     OW24895   1.288   0.656   6.457
 7999SOL    HW124896   1.310   0.559   6.445
 7999SOL    HW224897   1.205   0.664   6.513
 8000SOL     OW24898   5.821   0.609   6.881
 8000SOL    HW124899   5.858   0.671   6.811
 8000SOL    HW224900   5.729   0.639   6.906
 8001SOL     OW24901   3.409   6.389   1.425
 8001SOL    HW124902   3.346   6.314   1.404
 8001SOL    HW224903   3.419   6.397   1.524
 8002SOL     OW24904   0.466   2.955   5.843
 8002SOL    HW124905   0.431   2.861   5.843
 8002SOL    HW224906   0.398   3.017   5.805
 8003SOL     OW24907   2.432   4.398   2.302
 8003SOL    HW124908   2.455   4.391   2.205
 8003SOL    HW224909   2.337   4.368   2.315
 8004SOL     OW24910   1.688   4.450   3.139
 8004SOL    HW124911   1.734   4.501   3.066
 8004SOL    HW224912   1.590   4.471   3.138
 8005SOL     OW24913   3.350   1.623   1.968
 8005SOL    HW124914   3.288   1.701   1.967
 8005SOL    HW224915   3.443   1.654   1.988
 8006SOL     OW24916   2.662   6.668   0.549
 8006SOL    HW124917   2.565   6.659   0.570
 8006SOL    HW224918   2.715   6.653   0.633
 8007SOL     OW24919   1.291   6.676   3.997
 8007SOL    HW124920   1.200   6.641   3.976
 8007SOL    HW224921   1.313   6.655   4.092
 8008SOL     OW24922   4.715   6.795   5.899
 8008SOL    HW124923   4.694   6.697   5.902
 8008SOL    HW224924   4.796   6.810   5.842
 8009SOL     OW24925   6.107   0.322   3.630
 8009SOL    HW124926   6.013   0.308   3.598
 8009SOL    HW224927   6.158   0.237   3.622
 8010SOL     OW24928   1.635   1.400   0.136
 8010SOL    HW124929   1.564   1.343   0.095
 8010SOL    HW224930   1.633   1.492   0.096
 8011SOL     OW24931   2.556   2.926   1.480
 8011SOL    HW124932   2.636   2.868   1.498
 8011SOL    HW224933   2.582   2.997   1.414
 8012SOL     OW24934   2.297   5.628   1.456
 8012SOL    HW124935   2.391   5.657   1.435
 8012SOL    HW224936   2.254   5.695   1.516
 8013SOL     OW24937   0.698   5.222   4.695
 8013SOL    HW124938   0.759   5.298   4.717
 8013SOL    HW224939   0.698   5.157   4.771
 8014SOL     OW24940   0.912   6.428   5.193
 8014SOL    HW124941   0.987   6.481   5.232
 8014SOL    HW224942   0.825   6.468   5.221
 8015SOL     OW24943   2.811   1.456   0.183
 8015SOL    HW124944   2.831   1.387   0.114
 8015SOL    HW224945   2.873   1.533   0.172
 8016SOL     OW24946   4.191   0.207   6.319
 8016SOL    HW124947   4.204   0.235   6.414
 8016SOL    HW224948   4.260   0.139   6.294
 8017SOL     OW24949   6.584   4.920   6.550
 8017SOL    HW124950   6.608   4.838   6.602
 8017SOL    HW224951   6.502   4.962   6.590
 8018SOL     OW24952   4.032   2.524   6.373
 8018SOL    HW124953   4.016   2.561   6.465
 8018SOL    HW224954   3.945   2.509   6.327
 8019SOL     OW24955   1.951   4.063   0.042
 8019SOL    HW124956   1.890   4.141   0.043
 8019SOL    HW224957   1.914   3.990   0.099
 8020SOL     OW24958   6.402   6.198   0.853
 8020SOL    HW124959   6.476   6.184   0.787
 8020SOL    HW224960   6.441   6.219   0.943
 8021SOL     OW24961   1.502   2.294   1.973
 8021SOL    HW124962   1.601   2.286   1.959
 8021SOL    HW224963   1.458   2.208   1.945
 8022SOL     OW24964   4.307   0.558   3.066
 8022SOL    HW124965   4.241   0.491   3.102
 8022SOL    HW224966   4.368   0.513   3.001
 8023SOL     OW24967   6.186   5.943   3.817
 8023SOL    HW124968   6.091   5.924   3.840
 8023SOL    HW224969   6.194   5.959   3.718
 8024SOL     OW24970   2.879   4.832   0.190
 8024SOL    HW124971   2.845   4.821   0.097
 8024SOL    HW224972   2.949   4.762   0.208
 8025SOL     OW24973   2.832   6.058   5.549
 8025SOL    HW124974   2.903   6.030   5.614
 8025SOL    HW224975   2.874   6.094   5.467
 8026SOL     OW24976   0.717   4.134   0.016
 8026SOL    HW124977   0.669   4.126   6.949
 8026SOL    HW224978   0.701   4.051   0.070
 8027SOL     OW24979   4.537   2.072   5.431
 8027SOL    HW124980   4.602   1.999   5.408
 8027SOL    HW224981   4.585   2.160   5.433
 8028SOL     OW24982   3.690   4.734   6.195
 8028SOL    HW124983   3.628   4.684   6.135
 8028SOL    HW224984   3.693   4.830   6.168
 8029SOL     OW24985   5.691   3.756   0.194
 8029SOL    HW124986   5.785   3.761   0.161
 8029SOL    HW224987   5.628   3.777   0.119
 8030SOL     OW24988   5.927   4.312   6.410
 8030SOL    HW124989   5.999   4.271   6.466
 8030SOL    HW224990   5.840   4.306   6.459
 8031SOL     OW24991   4.854   5.886   2.627
 8031SOL    HW124992   4.913   5.805   2.628
 8031SOL    HW224993   4.764   5.862   2.589
 8032SOL     OW24994   5.679   4.238   5.472
 8032SOL    HW124995   5.743   4.229   5.549
 8032SOL    HW224996   5.585   4.236   5.507
 8033SOL     OW24997   5.340   3.295   6.975
 8033SOL    HW124998   5.411   3.229   7.001
 8033SOL    HW224999   5.250   3.252   6.981
 8034SOL     OW25000   6.101   1.273   5.393
 8034SOL    HW125001   6.190   1.249   5.431
 8034SOL    HW225002   6.055   1.190   5.361
 8035SOL     OW25003   4.796   6.878   5.189
 8035SOL    HW125004   4.745   6.905   5.107
 8035SOL    HW225005   4.836   6.959   5.231
 8036SOL     OW25006   0.660   4.079   2.570
 8036SOL    HW125007   0.742   4.108   2.619
 8036SOL    HW225008   0.610   4.012   2.625
 8037SOL     OW25009   1.331   3.734   1.890
 8037SOL    HW125010   1.375   3.644   1.878
 8037SOL    HW225011   1.273   3.754   1.810
 8038SOL     OW25012   4.739   1.145   2.542
 8038SOL    HW125013   4.689   1.213   2.488
 8038SOL    HW225014   4.834   1.139   2.509
 8039SOL     OW25015   1.292   6.968   3.044
 8039SOL    HW125016   1.387   6.985   3.016
 8039SOL    HW225017   1.236   0.026   3.022
 8040SOL     OW25018   1.574   6.197   1.182
 8040SOL    HW125019   1.494   6.226   1.234
 8040SOL    HW225020   1.554   6.112   1.135
 8041SOL     OW25021   3.068   2.126   2.153
 8041SOL    HW125022   3.155   2.176   2.160
 8041SOL    HW225023   3.042   2.117   2.057
 8042SOL     OW25024   3.679   2.928   2.867
 8042SOL    HW125025   3.732   2.915   2.784
 8042SOL    HW225026   3.581   2.915   2.848
 8043SOL     OW25027   3.656   6.179   0.625
 8043SOL    HW125028   3.658   6.177   0.725
 8043SOL    HW225029   3.732   6.235   0.591
 8044SOL     OW25030   3.246   3.717   0.863
 8044SOL    HW125031   3.288   3.752   0.947
 8044SOL    HW225032   3.315   3.707   0.792
 8045SOL     OW25033   5.302   0.749   1.885
 8045SOL    HW125034   5.373   0.804   1.841
 8045SOL    HW225035   5.218   0.752   1.830
 8046SOL     OW25036   6.484   5.085   6.765
 8046SOL    HW125037   6.502   5.160   6.702
 8046SOL    HW225038   6.569   5.059   6.812
 8047SOL     OW25039   3.924   4.928   5.194
 8047SOL    HW125040   3.841   4.984   5.192
 8047SOL    HW225041   3.903   4.840   5.235
 8048SOL     OW25042   5.006   1.105   5.801
 8048SOL    HW125043   4.919   1.061   5.780
 8048SOL    HW225044   5.065   1.042   5.851
 8049SOL     OW25045   1.008   0.014   1.254
 8049SOL    HW125046   1.072   0.072   1.203
 8049SOL    HW225047   0.993   6.949   1.204
 8050SOL     OW25048   0.886   3.939   1.949
 8050SOL    HW125049   0.853   3.844   1.948
 8050SOL    HW225050   0.818   3.996   1.995
 8051SOL     OW25051   4.888   6.510   3.056
 8051SOL    HW125052   4.879   6.420   3.098
 8051SOL    HW225053   4.955   6.565   3.107
 8052SOL     OW25054   3.521   1.288   2.188
 8052SOL    HW125055   3.596   1.284   2.123
 8052SOL    HW225056   3.437   1.315   2.141
 8053SOL     OW25057   3.961   3.699   2.807
 8053SOL    HW125058   4.013   3.781   2.831
 8053SOL    HW225059   3.996   3.621   2.859
 8054SOL     OW25060   5.594   6.228   4.276
 8054SOL    HW125061   5.585   6.280   4.361
 8054SOL    HW225062   5.539   6.145   4.281
 8055SOL     OW25063   0.526   0.392   5.810
 8055SOL    HW125064   0.545   0.490   5.817
 8055SOL    HW225065   0.605   0.340   5.845
 8056SOL     OW25066   4.147   1.256   3.608
 8056SOL    HW125067   4.155   1.351   3.641
 8056SOL    HW225068   4.237   1.222   3.583
 8057SOL     OW25069   2.476   1.290   2.100
 8057SOL    HW125070   2.420   1.372   2.107
 8057SOL    HW225071   2.524   1.275   2.186
 8058SOL     OW25072   3.020   0.511   2.753
 8058SOL    HW125073   3.010   0.412   2.757
 8058SOL    HW225074   3.068   0.543   2.835
 8059SOL     OW25075   4.040   2.181   4.903
 8059SOL    HW125076   4.126   2.132   4.890
 8059SOL    HW225077   4.060   2.278   4.921
 8060SOL     OW25078   0.240   1.256   4.287
 8060SOL    HW125079   0.298   1.216   4.216
 8060SOL    HW225080   0.288   1.251   4.375
 8061SOL     OW25081   6.956   6.827   1.931
 8061SOL    HW125082   6.884   6.776   1.978
 8061SOL    HW225083   6.992   6.898   1.993
 8062SOL     OW25084   2.408   4.336   4.161
 8062SOL    HW125085   2.402   4.356   4.259
 8062SOL    HW225086   2.342   4.264   4.138
 8063SOL     OW25087   1.847   3.125   0.851
 8063SOL    HW125088   1.877   3.131   0.946
 8063SOL    HW225089   1.913   3.071   0.798
 8064SOL     OW25090   0.359   4.912   1.274
 8064SOL    HW125091   0.326   4.987   1.333
 8064SOL    HW225092   0.438   4.943   1.222
 8065SOL     OW25093   4.554   6.563   3.518
 8065SOL    HW125094   4.466   6.527   3.548
 8065SOL    HW225095   4.559   6.661   3.536
 8066SOL     OW25096   1.343   1.502   6.791
 8066SOL    HW125097   1.355   1.582   6.733
 8066SOL    HW225098   1.258   1.511   6.843
 8067SOL     OW25099   4.649   3.189   1.467
 8067SOL    HW125100   4.636   3.217   1.563
 8067SOL    HW225101   4.638   3.269   1.408
 8068SOL     OW25102   6.774   5.429   6.502
 8068SOL    HW125103   6.854   5.484   6.525
 8068SOL    HW225104   6.800   5.333   6.493
 8069SOL     OW25105   2.188   6.013   1.445
 8069SOL    HW125106   2.124   6.081   1.408
 8069SOL    HW225107   2.137   5.939   1.488
 8070SOL     OW25108   3.030   3.933   0.672
 8070SOL    HW125109   3.077   4.007   0.721
 8070SOL    HW225110   2.990   3.870   0.738
 8071SOL     OW25111   2.861   6.301   4.757
 8071SOL    HW125112   2.945   6.356   4.763
 8071SOL    HW225113   2.877   6.223   4.696
 8072SOL     OW25114   3.336   1.378   0.524
 8072SOL    HW125115   3.237   1.368   0.520
 8072SOL    HW225116   3.363   1.413   0.613
 8073SOL     OW25117   4.894   0.038   6.536
 8073SOL    HW125118   4.934   0.074   6.620
 8073SOL    HW225119   4.875   6.960   6.548
 8074SOL     OW25120   3.094   2.674   6.776
 8074SOL    HW125121   3.131   2.763   6.747
 8074SOL    HW225122   3.158   2.631   6.840
 8075SOL     OW25123   6.347   0.961   1.553
 8075SOL    HW125124   6.435   0.923   1.581
 8075SOL    HW225125   6.351   1.061   1.557
 8076SOL     OW25126   4.300   2.554   5.683
 8076SOL    HW125127   4.328   2.591   5.772
 8076SOL    HW225128   4.376   2.564   5.618
 8077SOL     OW25129   0.908   6.364   2.106
 8077SOL    HW125130   0.993   6.327   2.145
 8077SOL    HW225131   0.930   6.445   2.051
 8078SOL     OW25132   6.321   1.859   0.901
 8078SOL    HW125133   6.243   1.869   0.839
 8078SOL    HW225134   6.328   1.764   0.930
 8079SOL     OW25135   5.227   1.987   3.711
 8079SOL    HW125136   5.315   2.005   3.668
 8079SOL    HW225137   5.167   1.940   3.646
 8080SOL     OW25138   0.919   3.863   0.748
 8080SOL    HW125139   1.011   3.825   0.737
 8080SOL    HW225140   0.851   3.791   0.739
 8081SOL     OW25141   5.055   0.384   5.197
 8081SOL    HW125142   5.100   0.338   5.273
 8081SOL    HW225143   5.003   0.317   5.143
 8082SOL     OW25144   6.250   1.450   2.179
 8082SOL    HW125145   6.267   1.467   2.082
 8082SOL    HW225146   6.312   1.505   2.235
 8083SOL     OW25147   5.251   2.817   2.202
 8083SOL    HW125148   5.322   2.886   2.215
 8083SOL    HW225149   5.166   2.863   2.174
 8084SOL     OW25150   5.815   6.610   0.761
 8084SOL    HW125151   5.783   6.699   0.792
 8084SOL    HW225152   5.850   6.558   0.839
 8085SOL     OW25153   5.811   0.234   2.661
 8085SOL    HW125154   5.834   0.158   2.722
 8085SOL    HW225155   5.746   0.203   2.592
 8086SOL     OW25156   4.232   0.380   3.851
 8086SOL    HW125157   4.182   0.335   3.777
 8086SOL    HW225158   4.171   0.446   3.896
 8087SOL     OW25159   1.998   1.558   1.212
 8087SOL    HW125160   1.948   1.557   1.299
 8087SOL    HW225161   1.940   1.598   1.141
 8088SOL     OW25162   5.923   1.595   1.662
 8088SOL    HW125163   5.969   1.683   1.669
 8088SOL    HW225164   5.988   1.522   1.684
 8089SOL     OW25165   5.559   1.758   0.630
 8089SOL    HW125166   5.460   1.753   0.617
 8089SOL    HW225167   5.600   1.809   0.554
 8090SOL     OW25168   4.473   1.825   6.178
 8090SOL    HW125169   4.446   1.736   6.142
 8090SOL    HW225170   4.453   1.829   6.276
 8091SOL     OW25171   2.951   3.991   6.387
 8091SOL    HW125172   2.945   3.908   6.332
 8091SOL    HW225173   3.022   3.980   6.456
 8092SOL     OW25174   0.945   1.772   4.833
 8092SOL    HW125175   0.865   1.804   4.885
 8092SOL    HW225176   1.028   1.807   4.876
 8093SOL     OW25177   5.664   5.709   1.840
 8093SOL    HW125178   5.600   5.782   1.815
 8093SOL    HW225179   5.614   5.635   1.886
 8094SOL     OW25180   1.919   4.151   4.730
 8094SOL    HW125181   1.847   4.093   4.694
 8094SOL    HW225182   1.986   4.095   4.779
 8095SOL     OW25183   5.964   3.880   3.996
 8095SOL    HW125184   6.048   3.878   3.941
 8095SOL    HW225185   5.887   3.848   3.941
 8096SOL     OW25186   3.420   5.407   3.933
 8096SOL    HW125187   3.424   5.314   3.897
 8096SOL    HW225188   3.512   5.439   3.955
 8097SOL     OW25189   5.244   0.767   4.089
 8097SOL    HW125190   5.189   0.690   4.057
 8097SOL    HW225191   5.192   0.852   4.078
 8098SOL     OW25192   1.997   6.665   4.501
 8098SOL    HW125193   2.032   6.757   4.519
 8098SOL    HW225194   1.902   6.671   4.470
 8099SOL     OW25195   6.198   0.631   4.779
 8099SOL    HW125196   6.119   0.598   4.727
 8099SOL    HW225197   6.179   0.623   4.877
 8100SOL     OW25198   0.184   6.621   6.911
 8100SOL    HW125199   0.144   6.657   6.826
 8100SOL    HW225200   0.119   6.636   6.986
 8101SOL     OW25201   2.104   0.275   4.624
 8101SOL    HW125202   2.030   0.327   4.583
 8101SOL    HW225203   2.136   0.322   4.707
 8102SOL     OW25204   1.498   5.372   5.993
 8102SOL    HW125205   1.541   5.293   5.948
 8102SOL    HW225206   1.444   5.423   5.926
 8103SOL     OW25207   4.052   1.288   1.081
 8103SOL    HW125208   3.974   1.228   1.062
 8103SOL    HW225209   4.052   1.365   1.018
 8104SOL     OW25210   2.695   6.772   5.920
 8104SOL    HW125211   2.671   6.715   5.998
 8104SOL    HW225212   2.745   6.717   5.853
 8105SOL     OW25213   1.997   2.428   3.587
 8105SOL    HW125214   1.987   2.351   3.524
 8105SOL    HW225215   2.086   2.424   3.632
 8106SOL     OW25216   2.138   5.626   4.021
 8106SOL    HW125217   2.095   5.598   3.936
 8106SOL    HW225218   2.234   5.646   4.006
 8107SOL     OW25219   1.387   6.193   5.437
 8107SOL    HW125220   1.473   6.153   5.406
 8107SOL    HW225221   1.328   6.122   5.473
 8108SOL     OW25222   6.355   2.734   4.488
 8108SOL    HW125223   6.374   2.656   4.548
 8108SOL    HW225224   6.267   2.774   4.511
 8109SOL     OW25225   1.224   4.269   4.592
 8109SOL    HW125226   1.263   4.342   4.535
 8109SOL    HW225227   1.260   4.180   4.561
 8110SOL     OW25228   3.546   6.599   0.610
 8110SOL    HW125229   3.473   6.667   0.619
 8110SOL    HW225230   3.582   6.602   0.516
 8111SOL     OW25231   3.434   0.133   5.830
 8111SOL    HW125232   3.478   0.045   5.812
 8111SOL    HW225233   3.502   0.199   5.862
 8112SOL     OW25234   1.835   1.261   5.206
 8112SOL    HW125235   1.826   1.316   5.289
 8112SOL    HW225236   1.744   1.231   5.177
 8113SOL     OW25237   2.182   2.953   0.096
 8113SOL    HW125238   2.163   3.036   0.150
 8113SOL    HW225239   2.240   2.891   0.149
 8114SOL     OW25240   1.999   3.167   2.288
 8114SOL    HW125241   2.057   3.237   2.246
 8114SOL    HW225242   2.054   3.086   2.309
 8115SOL     OW25243   3.785   1.207   1.758
 8115SOL    HW125244   3.813   1.135   1.694
 8115SOL    HW225245   3.746   1.284   1.707
 8116SOL     OW25246   4.839   6.733   4.596
 8116SOL    HW125247   4.915   6.749   4.533
 8116SOL    HW225248   4.816   6.817   4.644
 8117SOL     OW25249   2.036   1.776   3.554
 8117SOL    HW125250   2.130   1.753   3.529
 8117SOL    HW225251   2.007   1.719   3.630
 8118SOL     OW25252   0.145   3.689   5.895
 8118SOL    HW125253   0.114   3.596   5.875
 8118SOL    HW225254   0.072   3.740   5.940
 8119SOL     OW25255   0.213   5.859   5.128
 8119SOL    HW125256   0.127   5.807   5.123
 8119SOL    HW225257   0.225   5.911   5.044
 8120SOL     OW25258   3.974   4.236   6.683
 8120SOL    HW125259   4.033   4.193   6.751
 8120SOL    HW225260   3.931   4.165   6.627
 8121SOL     OW25261   6.403   5.646   3.562
 8121SOL    HW125262   6.306   5.631   3.581
 8121SOL    HW225263   6.456   5.634   3.646
 8122SOL     OW25264   0.263   5.188   2.244
 8122SOL    HW125265   0.324   5.168   2.168
 8122SOL    HW225266   0.199   5.111   2.257
 8123SOL     OW25267   0.393   0.246   0.039
 8123SOL    HW125268   0.424   0.298   6.980
 8123SOL    HW225269   0.298   0.220   0.026
 8124SOL     OW25270   0.684   6.522   1.360
 8124SOL    HW125271   0.715   6.611   1.392
 8124SOL    HW225272   0.615   6.534   1.288
 8125SOL     OW25273   6.654   5.361   3.198
 8125SOL    HW125274   6.672   5.390   3.292
 8125SOL    HW225275   6.730   5.305   3.165
 8126SOL     OW25276   6.564   4.028   2.024
 8126SOL    HW125277   6.590   3.941   2.066
 8126SOL    HW225278   6.613   4.103   2.068
 8127SOL     OW25279   2.043   6.083   0.659
 8127SOL    HW125280   2.082   6.022   0.590
 8127SOL    HW225281   1.985   6.031   0.721
 8128SOL     OW25282   2.996   2.754   0.128
 8128SOL    HW125283   2.933   2.783   0.057
 8128SOL    HW225284   2.963   2.670   0.170
 8129SOL     OW25285   4.927   1.033   6.506
 8129SOL    HW125286   4.887   1.016   6.416
 8129SOL    HW225287   5.006   1.095   6.496
 8130SOL     OW25288   0.761   4.877   6.241
 8130SOL    HW125289   0.693   4.831   6.297
 8130SOL    HW225290   0.733   4.874   6.145
 8131SOL     OW25291   2.511   0.620   0.567
 8131SOL    HW125292   2.459   0.650   0.647
 8131SOL    HW225293   2.530   0.698   0.508
 8132SOL     OW25294   5.616   6.214   6.211
 8132SOL    HW125295   5.597   6.306   6.177
 8132SOL    HW225296   5.532   6.162   6.216
 8133SOL     OW25297   3.639   4.843   2.446
 8133SOL    HW125298   3.658   4.915   2.380
 8133SOL    HW225299   3.667   4.755   2.408
 8134SOL     OW25300   1.694   1.323   4.188
 8134SOL    HW125301   1.732   1.410   4.155
 8134SOL    HW225302   1.595   1.331   4.197
 8135SOL     OW25303   2.768   5.126   2.210
 8135SOL    HW125304   2.680   5.162   2.241
 8135SOL    HW225305   2.833   5.202   2.201
 8136SOL     OW25306   4.341   5.010   3.009
 8136SOL    HW125307   4.377   5.003   3.102
 8136SOL    HW225308   4.272   5.082   3.005
 8137SOL     OW25309   2.423   2.051   4.295
 8137SOL    HW125310   2.453   2.044   4.391
 8137SOL    HW225311   2.418   2.147   4.268
 8138SOL     OW25312   5.871   1.916   1.774
 8138SOL    HW125313   5.826   1.858   1.841
 8138SOL    HW225314   5.946   1.866   1.731
 8139SOL     OW25315   1.505   2.635   3.409
 8139SOL    HW125316   1.479   2.700   3.338
 8139SOL    HW225317   1.557   2.560   3.368
 8140SOL     OW25318   3.593   0.293   0.456
 8140SOL    HW125319   3.677   0.245   0.433
 8140SOL    HW225320   3.525   0.277   0.384
 8141SOL     OW25321   5.128   0.208   5.409
 8141SOL    HW125322   5.222   0.205   5.377
 8141SOL    HW225323   5.120   0.272   5.486
 8142SOL     OW25324   1.896   5.131   1.021
 8142SOL    HW125325   1.918   5.190   0.944
 8142SOL    HW225326   1.804   5.151   1.054
 8143SOL     OW25327   5.156   5.111   0.954
 8143SOL    HW125328   5.085   5.078   0.891
 8143SOL    HW225329   5.147   5.065   1.042
 8144SOL     OW25330   0.950   6.153   5.396
 8144SOL    HW125331   0.998   6.097   5.328
 8144SOL    HW225332   1.004   6.236   5.413
 8145SOL     OW25333   5.359   4.436   0.618
 8145SOL    HW125334   5.325   4.525   0.650
 8145SOL    HW225335   5.351   4.369   0.692
 8146SOL     OW25336   6.314   6.907   5.581
 8146SOL    HW125337   6.251   6.936   5.509
 8146SOL    HW225338   6.320   6.808   5.582
 8147SOL     OW25339   0.060   0.945   0.722
 8147SOL    HW125340   0.068   0.950   0.822
 8147SOL    HW225341   0.143   0.904   0.684
 8148SOL     OW25342   4.069   4.494   6.732
 8148SOL    HW125343   3.993   4.559   6.722
 8148SOL    HW225344   4.039   4.403   6.707
 8149SOL     OW25345   1.299   6.214   4.397
 8149SOL    HW125346   1.226   6.280   4.381
 8149SOL    HW225347   1.283   6.168   4.485
 8150SOL     OW25348   0.762   3.222   1.183
 8150SOL    HW125349   0.862   3.225   1.177
 8150SOL    HW225350   0.722   3.280   1.112
 8151SOL     OW25351   5.612   5.604   4.323
 8151SOL    HW125352   5.685   5.558   4.374
 8151SOL    HW225353   5.596   5.556   4.237
 8152SOL     OW25354   5.264   2.224   3.454
 8152SOL    HW125355   5.334   2.212   3.525
 8152SOL    HW225356   5.308   2.252   3.369
 8153SOL     OW25357   0.167   0.691   3.080
 8153SOL    HW125358   0.250   0.729   3.120
 8153SOL    HW225359   0.154   0.729   2.988
 8154SOL     OW25360   3.195   0.673   3.003
 8154SOL    HW125361   3.205   0.655   3.101
 8154SOL    HW225362   3.102   0.703   2.983
 8155SOL     OW25363   1.370   4.357   2.105
 8155SOL    HW125364   1.441   4.299   2.145
 8155SOL    HW225365   1.280   4.315   2.122
 8156SOL     OW25366   4.786   6.203   1.655
 8156SOL    HW125367   4.708   6.155   1.696
 8156SOL    HW225368   4.759   6.296   1.630
 8157SOL     OW25369   6.140   4.590   5.760
 8157SOL    HW125370   6.101   4.682   5.756
 8157SOL    HW225371   6.066   4.523   5.763
 8158SOL     OW25372   5.246   5.109   6.550
 8158SOL    HW125373   5.212   5.063   6.468
 8158SOL    HW225374   5.275   5.041   6.617
 8159SOL     OW25375   3.478   5.546   5.846
 8159SOL    HW125376   3.467   5.506   5.937
 8159SOL    HW225377   3.417   5.625   5.837
 8160SOL     OW25378   3.996   0.266   3.778
 8160SOL    HW125379   3.953   0.262   3.687
 8160SOL    HW225380   4.021   0.174   3.807
 8161SOL     OW25381   5.953   3.904   6.156
 8161SOL    HW125382   5.890   3.897   6.233
 8161SOL    HW225383   5.904   3.937   6.075
 8162SOL     OW25384   0.151   5.343   0.129
 8162SOL    HW125385   0.243   5.364   0.096
 8162SOL    HW225386   0.115   5.422   0.180
 8163SOL     OW25387   3.093   4.761   5.927
 8163SOL    HW125388   3.067   4.699   6.000
 8163SOL    HW225389   3.175   4.812   5.953
 8164SOL     OW25390   4.659   1.212   0.300
 8164SOL    HW125391   4.752   1.246   0.317
 8164SOL    HW225392   4.608   1.211   0.385
 8165SOL     OW25393   6.787   4.019   6.528
 8165SOL    HW125394   6.756   3.998   6.435
 8165SOL    HW225395   6.730   3.969   6.594
 8166SOL     OW25396   2.281   1.605   3.260
 8166SOL    HW125397   2.315   1.699   3.260
 8166SOL    HW225398   2.223   1.590   3.180
 8167SOL     OW25399   7.018   0.786   3.741
 8167SOL    HW125400   6.984   0.878   3.756
 8167SOL    HW225401   0.085   0.773   3.789
 8168SOL     OW25402   2.536   6.876   1.211
 8168SOL    HW125403   2.555   6.959   1.264
 8168SOL    HW225404   2.578   6.883   1.121
 8169SOL     OW25405   3.869   2.106   0.336
 8169SOL    HW125406   3.822   2.018   0.337
 8169SOL    HW225407   3.948   2.103   0.398
 8170SOL     OW25408   6.599   4.554   1.523
 8170SOL    HW125409   6.588   4.613   1.602
 8170SOL    HW225410   6.522   4.569   1.460
 8171SOL     OW25411   1.117   1.375   6.308
 8171SOL    HW125412   1.215   1.385   6.291
 8171SOL    HW225413   1.102   1.350   6.404
 8172SOL     OW25414   0.335   2.319   1.879
 8172SOL    HW125415   0.383   2.402   1.848
 8172SOL    HW225416   0.240   2.323   1.850
 8173SOL     OW25417   5.900   1.969   2.601
 8173SOL    HW125418   5.853   1.881   2.602
 8173SOL    HW225419   5.926   1.992   2.507
 8174SOL     OW25420   0.988   6.495   2.838
 8174SOL    HW125421   0.934   6.571   2.804
 8174SOL    HW225422   1.000   6.427   2.766
 8175SOL     OW25423   0.727   2.476   4.261
 8175SOL    HW125424   0.751   2.571   4.281
 8175SOL    HW225425   0.809   2.420   4.262
 8176SOL     OW25426   2.233   4.403   1.676
 8176SOL    HW125427   2.326   4.437   1.690
 8176SOL    HW225428   2.218   4.385   1.578
 8177SOL     OW25429   3.973   1.132   3.426
 8177SOL    HW125430   3.884   1.094   3.450
 8177SOL    HW225431   4.013   1.178   3.505
 8178SOL     OW25432   2.915   6.519   1.036
 8178SOL    HW125433   2.938   6.607   1.080
 8178SOL    HW225434   2.882   6.455   1.106
 8179SOL     OW25435   5.717   1.517   4.642
 8179SOL    HW125436   5.806   1.512   4.688
 8179SOL    HW225437   5.662   1.589   4.684
 8180SOL     OW25438   5.913   0.586   0.114
 8180SOL    HW125439   5.884   0.675   0.148
 8180SOL    HW225440   5.891   0.578   0.017
 8181SOL     OW25441   1.055   0.787   1.094
 8181SOL    HW125442   1.012   0.708   1.050
 8181SOL    HW225443   1.126   0.824   1.034
 8182SOL     OW25444   3.508   3.835   4.252
 8182SOL    HW125445   3.487   3.781   4.170
 8182SOL    HW225446   3.438   3.819   4.321
 8183SOL     OW25447   6.542   1.617   4.259
 8183SOL    HW125448   6.595   1.533   4.247
 8183SOL    HW225449   6.549   1.648   4.353
 8184SOL     OW25450   0.760   0.179   0.444
 8184SOL    HW125451   0.724   0.090   0.416
 8184SOL    HW225452   0.716   0.251   0.392
 8185SOL     OW25453   2.099   0.450   0.255
 8185SOL    HW125454   2.033   0.375   0.243
 8185SOL    HW225455   2.132   0.449   0.350
 8186SOL     OW25456   2.671   4.145   5.311
 8186SOL    HW125457   2.753   4.145   5.253
 8186SOL    HW225458   2.604   4.080   5.275
 8187SOL     OW25459   2.123   1.201   4.755
 8187SOL    HW125460   2.062   1.149   4.694
 8187SOL    HW225461   2.070   1.240   4.830
 8188SOL     OW25462   4.672   2.632   3.871
 8188SOL    HW125463   4.642   2.537   3.879
 8188SOL    HW225464   4.650   2.681   3.955
 8189SOL     OW25465   5.542   5.498   1.976
 8189SOL    HW125466   5.526   5.547   2.062
 8189SOL    HW225467   5.460   5.447   1.952
 8190SOL     OW25468   4.818   4.063   3.763
 8190SOL    HW125469   4.765   4.116   3.830
 8190SOL    HW225470   4.801   4.100   3.672
 8191SOL     OW25471   4.256   5.277   2.467
 8191SOL    HW125472   4.226   5.356   2.520
 8191SOL    HW225473   4.346   5.295   2.427
 8192SOL     OW25474   1.531   5.328   2.349
 8192SOL    HW125475   1.504   5.408   2.296
 8192SOL    HW225476   1.531   5.350   2.447
 8193SOL     OW25477   6.260   4.885   5.167
 8193SOL    HW125478   6.232   4.810   5.228
 8193SOL    HW225479   6.321   4.848   5.096
 8194SOL     OW25480   4.066   0.864   0.910
 8194SOL    HW125481   4.118   0.786   0.876
 8194SOL    HW225482   4.095   0.885   1.004
 8195SOL     OW25483   6.322   0.510   3.752
 8195SOL    HW125484   6.260   0.492   3.675
 8195SOL    HW225485   6.416   0.504   3.722
 8196SOL     OW25486   4.728   6.709   6.922
 8196SOL    HW125487   4.648   6.719   6.981
 8196SOL    HW225488   4.810   6.737   6.972
 8197SOL     OW25489   3.902   1.754   1.328
 8197SOL    HW125490   3.920   1.788   1.420
 8197SOL    HW225491   3.917   1.655   1.326
 8198SOL     OW25492   3.558   6.401   2.005
 8198SOL    HW125493   3.573   6.365   1.913
 8198SOL    HW225494   3.628   6.367   2.067
 8199SOL     OW25495   5.512   3.154   6.152
 8199SOL    HW125496   5.435   3.195   6.103
 8199SOL    HW225497   5.497   3.160   6.250
 8200SOL     OW25498   5.979   4.422   1.661
 8200SOL    HW125499   5.922   4.390   1.585
 8200SOL    HW225500   6.069   4.447   1.626
 8201SOL     OW25501   6.947   0.812   5.139
 8201SOL    HW125502   6.889   0.825   5.059
 8201SOL    HW225503   6.999   0.727   5.129
 8202SOL     OW25504   6.807   5.779   3.023
 8202SOL    HW125505   6.828   5.688   3.058
 8202SOL    HW225506   6.754   5.829   3.092
 8203SOL     OW25507   2.010   2.479   0.079
 8203SOL    HW125508   1.943   2.413   0.112
 8203SOL    HW225509   1.990   2.569   0.117
 8204SOL     OW25510   4.104   4.114   0.210
 8204SOL    HW125511   4.049   4.163   0.143
 8204SOL    HW225512   4.152   4.179   0.268
 8205SOL     OW25513   6.803   3.974   7.012
 8205SOL    HW125514   6.773   3.888   6.969
 8205SOL    HW225515   6.893   3.961   0.032
 8206SOL     OW25516   4.530   2.057   6.898
 8206SOL    HW125517   4.450   1.998   6.885
 8206SOL    HW225518   4.509   2.149   6.867
 8207SOL     OW25519   3.484   3.856   3.858
 8207SOL    HW125520   3.529   3.919   3.795
 8207SOL    HW225521   3.516   3.762   3.840
 8208SOL     OW25522   1.330   0.477   1.034
 8208SOL    HW125523   1.253   0.467   0.970
 8208SOL    HW225524   1.304   0.541   1.106
 8209SOL     OW25525   0.023   0.792   4.821
 8209SOL    HW125526   6.984   0.717   4.793
 8209SOL    HW225527   0.104   0.794   4.762
 8210SOL     OW25528   2.477   2.267   0.317
 8210SOL    HW125529   2.566   2.275   0.362
 8210SOL    HW225530   2.464   2.344   0.255
 8211SOL     OW25531   3.830   4.500   1.331
 8211SOL    HW125532   3.821   4.581   1.273
 8211SOL    HW225533   3.913   4.508   1.386
 8212SOL     OW25534   1.471   2.508   3.062
 8212SOL    HW125535   1.495   2.488   2.967
 8212SOL    HW225536   1.551   2.492   3.120
 8213SOL     OW25537   0.046   4.477   1.362
 8213SOL    HW125538   0.144   4.458   1.366
 8213SOL    HW225539   0.026   4.532   1.282
 8214SOL     OW25540   6.137   5.115   4.434
 8214SOL    HW125541   6.223   5.121   4.485
 8214SOL    HW225542   6.060   5.113   4.499
 8215SOL     OW25543   3.488   5.621   5.485
 8215SOL    HW125544   3.573   5.605   5.434
 8215SOL    HW225545   3.446   5.534   5.509
 8216SOL     OW25546   5.346   5.727   4.407
 8216SOL    HW125547   5.432   5.677   4.398
 8216SOL    HW225548   5.289   5.712   4.326
 8217SOL     OW25549   2.009   5.252   0.790
 8217SOL    HW125550   2.078   5.184   0.766
 8217SOL    HW225551   2.047   5.344   0.779
 8218SOL     OW25552   6.950   0.375   6.450
 8218SOL    HW125553   6.933   0.468   6.483
 8218SOL    HW225554   0.019   0.371   6.406
 8219SOL     OW25555   4.302   2.045   0.244
 8219SOL    HW125556   4.211   2.071   0.212
 8219SOL    HW225557   4.368   2.115   0.218
 8220SOL     OW25558   3.637   3.342   3.367
 8220SOL    HW125559   3.621   3.262   3.309
 8220SOL    HW225560   3.555   3.399   3.369
 8221SOL     OW25561   4.991   5.838   4.771
 8221SOL    HW125562   5.006   5.923   4.822
 8221SOL    HW225563   5.071   5.818   4.715
 8222SOL     OW25564   5.531   1.565   2.084
 8222SOL    HW125565   5.605   1.557   2.017
 8222SOL    HW225566   5.564   1.538   2.174
 8223SOL     OW25567   1.832   4.599   5.947
 8223SOL    HW125568   1.917   4.650   5.965
 8223SOL    HW225569   1.764   4.662   5.907
 8224SOL     OW25570   6.819   1.844   2.642
 8224SOL    HW125571   6.892   1.829   2.575
 8224SOL    HW225572   6.802   1.760   2.693
 8225SOL     OW25573   3.634   1.142   6.869
 8225SOL    HW125574   3.560   1.172   6.929
 8225SOL    HW225575   3.602   1.142   6.774
 8226SOL     OW25576   4.061   6.599   1.736
 8226SOL    HW125577   4.148   6.646   1.725
 8226SOL    HW225578   4.065   6.538   1.815
 8227SOL     OW25579   6.945   2.206   3.559
 8227SOL    HW125580   6.895   2.174   3.479
 8227SOL    HW225581   0.020   2.224   3.535
 8228SOL     OW25582   6.863   2.290   5.604
 8228SOL    HW125583   6.842   2.205   5.555
 8228SOL    HW225584   6.833   2.282   5.699
 8229SOL     OW25585   3.844   4.418   0.748
 8229SOL    HW125586   3.860   4.489   0.679
 8229SOL    HW225587   3.840   4.460   0.838
 8230SOL     OW25588   3.833   6.901   5.048
 8230SOL    HW125589   3.887   6.929   4.969
 8230SOL    HW225590   3.858   6.808   5.074
 8231SOL     OW25591   4.221   5.337   0.225
 8231SOL    HW125592   4.294   5.322   0.291
 8231SOL    HW225593   4.197   5.250   0.181
 8232SOL     OW25594   4.885   1.724   0.995
 8232SOL    HW125595   4.949   1.801   0.996
 8232SOL    HW225596   4.792   1.758   1.010
 8233SOL     OW25597   0.973   5.976   6.342
 8233SOL    HW125598   1.025   5.935   6.417
 8233SOL    HW225599   0.969   6.075   6.355
 8234SOL     OW25600   2.234   3.883   6.736
 8234SOL    HW125601   2.231   3.884   6.636
 8234SOL    HW225602   2.276   3.798   6.767
 8235SOL     OW25603   0.774   3.551   0.411
 8235SOL    HW125604   0.717   3.533   0.331
 8235SOL    HW225605   0.858   3.596   0.383
 8236SOL     OW25606   0.046   4.358   0.013
 8236SOL    HW125607   6.985   4.411   0.038
 8236SOL    HW225608   0.092   4.326   0.096
 8237SOL     OW25609   4.379   6.420   4.422
 8237SOL    HW125610   4.294   6.466   4.448
 8237SOL    HW225611   4.416   6.371   4.501
 8238SOL     OW25612   1.245   4.931   7.011
 8238SOL    HW125613   1.254   4.851   0.049
 8238SOL    HW225614   1.159   4.925   6.960
 8239SOL     OW25615   6.353   1.216   5.532
 8239SOL    HW125616   6.332   1.198   5.628
 8239SOL    HW225617   6.452   1.223   5.521
 8240SOL     OW25618   3.274   4.127   2.422
 8240SOL    HW125619   3.286   4.086   2.332
 8240SOL    HW225620   3.344   4.197   2.436
 8241SOL     OW25621   4.076   0.167   0.034
 8241SOL    HW125622   4.018   0.086   0.027
 8241SOL    HW225623   4.078   0.215   6.966
 8242SOL     OW25624   0.638   4.942   5.780
 8242SOL    HW125625   0.666   5.021   5.835
 8242SOL    HW225626   0.700   4.931   5.703
 8243SOL     OW25627   1.052   2.134   0.318
 8243SOL    HW125628   0.988   2.057   0.319
 8243SOL    HW225629   1.035   2.192   0.397
 8244SOL     OW25630   1.413   0.152   3.975
 8244SOL    HW125631   1.396   0.068   3.924
 8244SOL    HW225632   1.330   0.207   3.978
 8245SOL     OW25633   4.374   2.322   2.597
 8245SOL    HW125634   4.423   2.365   2.522
 8245SOL    HW225635   4.398   2.225   2.602
 8246SOL     OW25636   0.747   3.597   6.181
 8246SOL    HW125637   0.659   3.645   6.182
 8246SOL    HW225638   0.792   3.609   6.270
 8247SOL     OW25639   0.284   0.298   2.351
 8247SOL    HW125640   0.235   0.310   2.265
 8247SOL    HW225641   0.369   0.249   2.335
 8248SOL     OW25642   6.529   5.093   4.866
 8248SOL    HW125643   6.578   5.148   4.933
 8248SOL    HW225644   6.504   5.005   4.907
 8249SOL     OW25645   1.886   2.756   4.940
 8249SOL    HW125646   1.928   2.692   4.876
 8249SOL    HW225647   1.843   2.705   5.015
 8250SOL     OW25648   3.588   4.119   2.087
 8250SOL    HW125649   3.502   4.070   2.106
 8250SOL    HW225650   3.645   4.119   2.168
 8251SOL     OW25651   6.033   3.403   3.739
 8251SOL    HW125652   5.974   3.483   3.735
 8251SOL    HW225653   5.978   3.320   3.729
 8252SOL     OW25654   3.196   1.699   5.407
 8252SOL    HW125655   3.217   1.718   5.503
 8252SOL    HW225656   3.183   1.784   5.357
 8253SOL     OW25657   4.654   4.290   5.391
 8253SOL    HW125658   4.717   4.291   5.313
 8253SOL    HW225659   4.623   4.196   5.407
 8254SOL     OW25660   4.371   4.803   5.070
 8254SOL    HW125661   4.356   4.705   5.080
 8254SOL    HW225662   4.416   4.821   4.983
 8255SOL     OW25663   2.631   6.427   4.694
 8255SOL    HW125664   2.714   6.379   4.722
 8255SOL    HW225665   2.624   6.514   4.743
 8256SOL     OW25666   6.098   0.339   2.573
 8256SOL    HW125667   6.037   0.297   2.506
 8256SOL    HW225668   6.110   0.276   2.650
 8257SOL     OW25669   6.188   3.875   3.825
 8257SOL    HW125670   6.282   3.888   3.794
 8257SOL    HW225671   6.130   3.850   3.748
 8258SOL     OW25672   5.284   1.730   0.610
 8258SOL    HW125673   5.298   1.680   0.696
 8258SOL    HW225674   5.223   1.808   0.627
 8259SOL     OW25675   4.198   1.938   3.457
 8259SOL    HW125676   4.180   2.029   3.419
 8259SOL    HW225677   4.112   1.890   3.472
 8260SOL     OW25678   2.728   6.337   1.943
 8260SOL    HW125679   2.755   6.303   2.032
 8260SOL    HW225680   2.687   6.263   1.889
 8261SOL     OW25681   6.064   1.145   1.994
 8261SOL    HW125682   6.145   1.183   1.950
 8261SOL    HW225683   5.983   1.166   1.940
 8262SOL     OW25684   0.526   2.894   0.415
 8262SOL    HW125685   0.532   2.982   0.367
 8262SOL    HW225686   0.445   2.844   0.383
 8263SOL     OW25687   1.316   1.879   6.895
 8263SOL    HW125688   1.342   1.962   6.945
 8263SOL    HW225689   1.314   1.802   6.958
 8264SOL     OW25690   2.370   6.330   2.817
 8264SOL    HW125691   2.384   6.234   2.838
 8264SOL    HW225692   2.451   6.382   2.842
 8265SOL     OW25693   0.511   6.750   0.502
 8265SOL    HW125694   0.574   6.686   0.457
 8265SOL    HW225695   0.472   6.707   0.583
 8266SOL     OW25696   2.324   1.323   3.743
 8266SOL    HW125697   2.387   1.400   3.739
 8266SOL    HW225698   2.230   1.356   3.733
 8267SOL     OW25699   1.489   2.628   0.893
 8267SOL    HW125700   1.468   2.646   0.797
 8267SOL    HW225701   1.441   2.694   0.951
 8268SOL     OW25702   2.121   6.815   5.630
 8268SOL    HW125703   2.082   6.725   5.651
 8268SOL    HW225704   2.220   6.808   5.622
 8269SOL     OW25705   4.325   2.281   2.076
 8269SOL    HW125706   4.357   2.252   2.167
 8269SOL    HW225707   4.389   2.348   2.039
 8270SOL     OW25708   2.906   6.698   5.240
 8270SOL    HW125709   2.925   6.609   5.281
 8270SOL    HW225710   2.811   6.700   5.208
 8271SOL     OW25711   6.277   0.229   3.215
 8271SOL    HW125712   6.242   0.308   3.166
 8271SOL    HW225713   6.364   0.253   3.259
 8272SOL     OW25714   4.518   1.930   1.733
 8272SOL    HW125715   4.527   1.863   1.659
 8272SOL    HW225716   4.463   2.007   1.702
 8273SOL     OW25717   3.082   6.942   0.328
 8273SOL    HW125718   3.155   6.932   0.260
 8273SOL    HW225719   3.074   6.857   0.380
 8274SOL     OW25720   5.082   4.790   3.295
 8274SOL    HW125721   5.154   4.735   3.252
 8274SOL    HW225722   5.121   4.845   3.368
 8275SOL     OW25723   4.943   1.467   5.559
 8275SOL    HW125724   4.932   1.417   5.644
 8275SOL    HW225725   4.854   1.479   5.515
 8276SOL     OW25726   1.128   2.137   3.613
 8276SOL    HW125727   1.202   2.079   3.580
 8276SOL    HW225728   1.163   2.200   3.682
 8277SOL     OW25729   6.757   6.866   0.510
 8277SOL    HW125730   6.741   6.878   0.608
 8277SOL    HW225731   6.705   6.934   0.459
 8278SOL     OW25732   2.420   2.196   5.615
 8278SOL    HW125733   2.392   2.129   5.547
 8278SOL    HW225734   2.437   2.150   5.702
 8279SOL     OW25735   1.581   6.917   4.155
 8279SOL    HW125736   1.508   6.983   4.140
 8279SOL    HW225737   1.557   6.829   4.113
 8280SOL     OW25738   2.382   3.628   0.469
 8280SOL    HW125739   2.426   3.566   0.405
 8280SOL    HW225740   2.291   3.593   0.492
 8281SOL     OW25741   2.716   4.754   1.612
 8281SOL    HW125742   2.728   4.779   1.708
 8281SOL    HW225743   2.805   4.746   1.568
 8282SOL     OW25744   4.975   3.624   7.005
 8282SOL    HW125745   4.917   3.691   6.959
 8282SOL    HW225746   4.936   3.601   0.073
 8283SOL     OW25747   1.772   5.687   6.513
 8283SOL    HW125748   1.741   5.708   6.420
 8283SOL    HW225749   1.851   5.744   6.535
 8284SOL     OW25750   0.958   3.583   0.967
 8284SOL    HW125751   0.869   3.585   0.922
 8284SOL    HW225752   0.946   3.572   1.066
 8285SOL     OW25753   2.999   3.237   4.562
 8285SOL    HW125754   3.010   3.225   4.661
 8285SOL    HW225755   2.962   3.327   4.542
 8286SOL     OW25756   6.105   2.664   6.016
 8286SOL    HW125757   6.200   2.691   6.030
 8286SOL    HW225758   6.080   2.678   5.920
 8287SOL     OW25759   2.210   5.549   3.724
 8287SOL    HW125760   2.220   5.457   3.763
 8287SOL    HW225761   2.300   5.592   3.716
 8288SOL     OW25762   3.481   2.023   1.612
 8288SOL    HW125763   3.442   1.935   1.640
 8288SOL    HW225764   3.453   2.094   1.677
 8289SOL     OW25765   0.544   5.354   1.077
 8289SOL    HW125766   0.508   5.447   1.080
 8289SOL    HW225767   0.589   5.338   0.989
 8290SOL     OW25768   6.119   1.565   1.235
 8290SOL    HW125769   6.123   1.658   1.200
 8290SOL    HW225770   6.052   1.512   1.183
 8291SOL     OW25771   5.127   6.265   5.783
 8291SOL    HW125772   5.150   6.360   5.761
 8291SOL    HW225773   5.177   6.204   5.723
 8292SOL     OW25774   2.662   6.651   0.059
 8292SOL    HW125775   2.758   6.624   0.053
 8292SOL    HW225776   2.656   6.748   0.082
 8293SOL     OW25777   3.352   6.150   0.079
 8293SOL    HW125778   3.300   6.217   0.026
 8293SOL    HW225779   3.324   6.155   0.175
 8294SOL     OW25780   5.445   4.148   4.653
 8294SOL    HW125781   5.364   4.173   4.707
 8294SOL    HW225782   5.527   4.160   4.709
 8295SOL     OW25783   5.261   5.479   1.382
 8295SOL    HW125784   5.191   5.413   1.409
 8295SOL    HW225785   5.333   5.432   1.332
 8296SOL     OW25786   1.557   5.769   5.919
 8296SOL    HW125787   1.499   5.803   5.845
 8296SOL    HW225788   1.607   5.688   5.887
 8297SOL     OW25789   6.234   2.907   2.322
 8297SOL    HW125790   6.240   2.977   2.393
 8297SOL    HW225791   6.326   2.881   2.292
 8298SOL     OW25792   6.117   1.811   1.115
 8298SOL    HW125793   6.028   1.842   1.083
 8298SOL    HW225794   6.178   1.890   1.127
 8299SOL     OW25795   6.575   2.800   1.898
 8299SOL    HW125796   6.476   2.817   1.897
 8299SOL    HW225797   6.617   2.856   1.970
 8300SOL     OW25798   0.206   5.943   4.850
 8300SOL    HW125799   0.257   6.016   4.805
 8300SOL    HW225800   0.113   5.974   4.870
 8301SOL     OW25801   4.222   1.782   1.756
 8301SOL    HW125802   4.238   1.823   1.667
 8301SOL    HW225803   4.293   1.714   1.775
 8302SOL     OW25804   5.983   6.003   0.203
 8302SOL    HW125805   6.074   6.042   0.205
 8302SOL    HW225806   5.960   5.974   0.110
 8303SOL     OW25807   6.339   0.302   4.242
 8303SOL    HW125808   6.305   0.345   4.326
 8303SOL    HW225809   6.270   0.308   4.170
 8304SOL     OW25810   0.338   3.435   0.679
 8304SOL    HW125811   0.247   3.432   0.638
 8304SOL    HW225812   0.373   3.528   0.676
 8305SOL     OW25813   4.315   5.219   4.400
 8305SOL    HW125814   4.299   5.222   4.301
 8305SOL    HW225815   4.249   5.158   4.443
 8306SOL     OW25816   6.853   2.883   5.839
 8306SOL    HW125817   6.941   2.926   5.863
 8306SOL    HW225818   6.780   2.950   5.850
 8307SOL     OW25819   3.760   5.209   1.314
 8307SOL    HW125820   3.682   5.269   1.330
 8307SOL    HW225821   3.753   5.169   1.222
 8308SOL     OW25822   3.943   5.403   1.186
 8308SOL    HW125823   4.013   5.419   1.117
 8308SOL    HW225824   3.938   5.306   1.207
 8309SOL     OW25825   6.221   5.135   4.155
 8309SOL    HW125826   6.208   5.157   4.252
 8309SOL    HW225827   6.275   5.208   4.112
 8310SOL     OW25828   0.440   4.471   0.871
 8310SOL    HW125829   0.486   4.520   0.797
 8310SOL    HW225830   0.422   4.376   0.843
 8311SOL     OW25831   0.687   1.629   4.074
 8311SOL    HW125832   0.657   1.585   4.159
 8311SOL    HW225833   0.786   1.646   4.079
 8312SOL     OW25834   4.854   0.058   0.376
 8312SOL    HW125835   4.902   0.018   0.454
 8312SOL    HW225836   4.862   0.158   0.380
 8313SOL     OW25837   4.970   0.650   1.982
 8313SOL    HW125838   4.944   0.615   2.072
 8313SOL    HW225839   4.963   0.750   1.982
 8314SOL     OW25840   4.339   0.754   0.485
 8314SOL    HW125841   4.274   0.677   0.483
 8314SOL    HW225842   4.424   0.724   0.528
 8315SOL     OW25843   4.104   3.435   1.242
 8315SOL    HW125844   4.052   3.382   1.174
 8315SOL    HW225845   4.041   3.473   1.310
 8316SOL     OW25846   0.337   2.066   1.993
 8316SOL    HW125847   0.343   2.146   1.933
 8316SOL    HW225848   0.424   2.054   2.041
 8317SOL     OW25849   2.219   2.432   2.797
 8317SOL    HW125850   2.282   2.444   2.720
 8317SOL    HW225851   2.164   2.514   2.808
 8318SOL     OW25852   4.403   1.122   4.619
 8318SOL    HW125853   4.320   1.066   4.618
 8318SOL    HW225854   4.394   1.196   4.552
 8319SOL     OW25855   2.203   1.390   6.379
 8319SOL    HW125856   2.186   1.382   6.281
 8319SOL    HW225857   2.273   1.460   6.395
 8320SOL     OW25858   3.072   3.278   1.489
 8320SOL    HW125859   2.991   3.220   1.498
 8320SOL    HW225860   3.147   3.238   1.542
 8321SOL     OW25861   0.153   0.586   0.295
 8321SOL    HW125862   0.090   0.575   0.372
 8321SOL    HW225863   0.199   0.674   0.303
 8322SOL     OW25864   0.452   0.213   1.033
 8322SOL    HW125865   0.407   0.142   0.979
 8322SOL    HW225866   0.535   0.177   1.074
 8323SOL     OW25867   5.948   5.700   2.487
 8323SOL    HW125868   5.984   5.606   2.486
 8323SOL    HW225869   5.868   5.704   2.547
 8324SOL     OW25870   5.504   0.378   1.409
 8324SOL    HW125871   5.486   0.468   1.449
 8324SOL    HW225872   5.427   0.352   1.351
 8325SOL     OW25873   2.868   3.289   5.507
 8325SOL    HW125874   2.797   3.244   5.453
 8325SOL    HW225875   2.829   3.369   5.554
 8326SOL     OW25876   5.513   3.256   5.785
 8326SOL    HW125877   5.562   3.333   5.745
 8326SOL    HW225878   5.468   3.286   5.869
 8327SOL     OW25879   6.193   1.362   6.203
 8327SOL    HW125880   6.269   1.410   6.160
 8327SOL    HW225881   6.155   1.419   6.276
 8328SOL     OW25882   2.553   4.894   5.328
 8328SOL    HW125883   2.549   4.806   5.376
 8328SOL    HW225884   2.611   4.886   5.248
 8329SOL     OW25885   0.805   3.306   6.415
 8329SOL    HW125886   0.742   3.369   6.459
 8329SOL    HW225887   0.890   3.302   6.467
 8330SOL     OW25888   2.664   7.000   0.339
 8330SOL    HW125889   2.619   6.989   0.250
 8330SOL    HW225890   2.751   0.026   0.327
 8331SOL     OW25891   3.130   1.854   1.612
 8331SOL    HW125892   3.045   1.819   1.653
 8331SOL    HW225893   3.117   1.949   1.583
 8332SOL     OW25894   5.221   5.369   2.556
 8332SOL    HW125895   5.273   5.397   2.637
 8332SOL    HW225896   5.179   5.280   2.573
 8333SOL     OW25897   0.948   6.505   6.477
 8333SOL    HW125898   0.850   6.498   6.495
 8333SOL    HW225899   0.994   6.546   6.556
 8334SOL     OW25900   3.993   1.903   3.782
 8334SOL    HW125901   4.073   1.893   3.843
 8334SOL    HW225902   3.951   1.814   3.767
 8335SOL     OW25903   6.425   6.146   6.766
 8335SOL    HW125904   6.438   6.217   6.697
 8335SOL    HW225905   6.361   6.077   6.732
 8336SOL     OW25906   5.910   6.199   2.920
 8336SOL    HW125907   5.871   6.233   2.834
 8336SOL    HW225908   6.002   6.236   2.932
 8337SOL     OW25909   1.308   5.980   2.880
 8337SOL    HW125910   1.275   6.069   2.849
 8337SOL    HW225911   1.383   5.993   2.945
 8338SOL     OW25912   2.262   5.285   1.644
 8338SOL    HW125913   2.321   5.268   1.722
 8338SOL    HW225914   2.170   5.253   1.664
 8339SOL     OW25915   5.814   0.317   1.825
 8339SOL    HW125916   5.738   0.332   1.888
 8339SOL    HW225917   5.900   0.343   1.870
 8340SOL     OW25918   5.344   3.390   1.392
 8340SOL    HW125919   5.337   3.309   1.451
 8340SOL    HW225920   5.352   3.361   1.297
 8341SOL     OW25921   1.984   6.085   6.752
 8341SOL    HW125922   2.035   6.121   6.830
 8341SOL    HW225923   1.887   6.108   6.761
 8342SOL     OW25924   4.339   0.244   2.039
 8342SOL    HW125925   4.368   0.156   2.075
 8342SOL    HW225926   4.262   0.231   1.976
 8343SOL     OW25927   0.877   5.293   6.120
 8343SOL    HW125928   0.785   5.299   6.081
 8343SOL    HW225929   0.875   5.240   6.204
 8344SOL     OW25930   4.129   6.646   4.898
 8344SOL    HW125931   4.038   6.617   4.929
 8344SOL    HW225932   4.169   6.575   4.841
 8345SOL     OW25933   4.657   1.648   3.333
 8345SOL    HW125934   4.692   1.728   3.382
 8345SOL    HW225935   4.725   1.575   3.335
 8346SOL     OW25936   2.576   4.529   0.693
 8346SOL    HW125937   2.580   4.429   0.701
 8346SOL    HW225938   2.602   4.570   0.780
 8347SOL     OW25939   3.541   5.287   4.845
 8347SOL    HW125940   3.447   5.281   4.880
 8347SOL    HW225941   3.542   5.346   4.764
 8348SOL     OW25942   1.619   6.228   2.386
 8348SOL    HW125943   1.627   6.178   2.299
 8348SOL    HW225944   1.535   6.199   2.433
 8349SOL     OW25945   5.739   6.800   1.494
 8349SOL    HW125946   5.763   6.740   1.571
 8349SOL    HW225947   5.640   6.813   1.492
 8350SOL     OW25948   4.508   0.608   4.929
 8350SOL    HW125949   4.598   0.571   4.906
 8350SOL    HW225950   4.502   0.703   4.898
 8351SOL     OW25951   4.601   4.832   3.876
 8351SOL    HW125952   4.523   4.859   3.820
 8351SOL    HW225953   4.669   4.905   3.876
 8352SOL     OW25954   0.080   6.176   3.429
 8352SOL    HW125955   0.038   6.090   3.400
 8352SOL    HW225956   0.160   6.196   3.372
 8353SOL     OW25957   6.840   3.700   1.418
 8353SOL    HW125958   6.912   3.751   1.369
 8353SOL    HW225959   6.761   3.759   1.430
 8354SOL     OW25960   3.792   0.195   6.840
 8354SOL    HW125961   3.883   0.230   6.818
 8354SOL    HW225962   3.759   0.238   6.923
 8355SOL     OW25963   3.082   0.835   6.666
 8355SOL    HW125964   3.058   0.754   6.613
 8355SOL    HW225965   3.008   0.902   6.663
 8356SOL     OW25966   1.629   6.487   0.865
 8356SOL    HW125967   1.692   6.558   0.832
 8356SOL    HW225968   1.679   6.422   0.922
 8357SOL     OW25969   3.576   0.516   5.307
 8357SOL    HW125970   3.526   0.438   5.345
 8357SOL    HW225971   3.560   0.596   5.365
 8358SOL     OW25972   1.160   3.835   5.523
 8358SOL    HW125973   1.229   3.809   5.457
 8358SOL    HW225974   1.071   3.799   5.494
 8359SOL     OW25975   2.634   6.699   5.165
 8359SOL    HW125976   2.605   6.608   5.193
 8359SOL    HW225977   2.556   6.761   5.166
 8360SOL     OW25978   3.689   6.223   0.893
 8360SOL    HW125979   3.633   6.164   0.951
 8360SOL    HW225980   3.710   6.307   0.941
 8361SOL     OW25981   2.799   0.008   2.838
 8361SOL    HW125982   2.881   6.972   2.844
 8361SOL    HW225983   2.744   6.999   2.760
 8362SOL     OW25984   3.331   2.149   1.133
 8362SOL    HW125985   3.375   2.166   1.221
 8362SOL    HW225986   3.318   2.236   1.084
 8363SOL     OW25987   0.465   2.473   0.039
 8363SOL    HW125988   0.428   2.399   0.094
 8363SOL    HW225989   0.400   2.549   0.038
 8364SOL     OW25990   0.261   3.018   2.340
 8364SOL    HW125991   0.335   3.076   2.308
 8364SOL    HW225992   0.207   2.987   2.262
 8365SOL     OW25993   2.284   3.906   1.682
 8365SOL    HW125994   2.208   3.897   1.747
 8365SOL    HW225995   2.329   3.817   1.671
 8366SOL     OW25996   2.463   5.941   2.209
 8366SOL    HW125997   2.442   6.039   2.212
 8366SOL    HW225998   2.428   5.901   2.125
 8367SOL     OW25999   4.148   6.349   4.070
 8367SOL    HW126000   4.147   6.448   4.084
 8367SOL    HW226001   4.057   6.319   4.041
 8368SOL     OW26002   2.443   6.739   6.193
 8368SOL    HW126003   2.442   6.715   6.290
 8368SOL    HW226004   2.405   6.664   6.139
 8369SOL     OW26005   2.017   6.917   6.469
 8369SOL    HW126006   2.116   6.916   6.458
 8369SOL    HW226007   1.973   6.925   6.380
 8370SOL     OW26008   2.417   2.576   5.068
 8370SOL    HW126009   2.392   2.668   5.100
 8370SOL    HW226010   2.506   2.550   5.106
 8371SOL     OW26011   2.068   4.609   1.453
 8371SOL    HW126012   2.144   4.673   1.442
 8371SOL    HW226013   2.009   4.613   1.372
 8372SOL     OW26014   0.370   5.313   2.909
 8372SOL    HW126015   0.451   5.267   2.947
 8372SOL    HW226016   0.348   5.274   2.820
 8373SOL     OW26017   1.305   0.308   3.665
 8373SOL    HW126018   1.329   0.390   3.717
 8373SOL    HW226019   1.380   0.242   3.672
 8374SOL     OW26020   0.107   0.916   6.057
 8374SOL    HW126021   0.038   0.980   6.090
 8374SOL    HW226022   0.135   0.942   5.964
 8375SOL     OW26023   3.946   0.084   5.874
 8375SOL    HW126024   3.918   0.118   5.964
 8375SOL    HW226025   4.045   0.071   5.873
 8376SOL     OW26026   1.685   0.583   3.713
 8376SOL    HW126027   1.634   0.520   3.772
 8376SOL    HW226028   1.722   0.532   3.635
 8377SOL     OW26029   5.486   5.862   1.436
 8377SOL    HW126030   5.527   5.918   1.507
 8377SOL    HW226031   5.508   5.765   1.452
 8378SOL     OW26032   4.110   5.112   2.663
 8378SOL    HW126033   4.135   5.179   2.594
 8378SOL    HW226034   4.125   5.150   2.755
 8379SOL     OW26035   6.215   2.302   1.292
 8379SOL    HW126036   6.180   2.307   1.386
 8379SOL    HW226037   6.165   2.231   1.242
 8380SOL     OW26038   6.876   0.958   2.262
 8380SOL    HW126039   6.785   0.944   2.223
 8380SOL    HW226040   6.868   0.963   2.362
 8381SOL     OW26041   0.111   3.660   5.289
 8381SOL    HW126042   0.118   3.683   5.192
 8381SOL    HW226043   0.085   3.564   5.299
 8382SOL     OW26044   2.231   0.634   2.110
 8382SOL    HW126045   2.298   0.689   2.061
 8382SOL    HW226046   2.185   0.690   2.179
 8383SOL     OW26047   2.588   0.234   5.871
 8383SOL    HW126048   2.671   0.274   5.909
 8383SOL    HW226049   2.509   0.263   5.924
 8384SOL     OW26050   0.199   0.579   0.667
 8384SOL    HW126051   0.138   0.581   0.747
 8384SOL    HW226052   0.231   0.671   0.648
 8385SOL     OW26053   6.224   2.075   1.545
 8385SOL    HW126054   6.139   2.124   1.567
 8385SOL    HW226055   6.292   2.093   1.616
 8386SOL     OW26056   1.242   4.588   2.094
 8386SOL    HW126057   1.147   4.555   2.095
 8386SOL    HW226058   1.304   4.510   2.104
 8387SOL     OW26059   1.731   0.997   2.099
 8387SOL    HW126060   1.718   0.904   2.066
 8387SOL    HW226061   1.745   1.059   2.022
 8388SOL     OW26062   1.630   6.149   0.039
 8388SOL    HW126063   1.652   6.051   0.033
 8388SOL    HW226064   1.603   6.171   0.132
 8389SOL     OW26065   6.268   3.608   2.660
 8389SOL    HW126066   6.285   3.524   2.607
 8389SOL    HW226067   6.189   3.594   2.719
 8390SOL     OW26068   4.141   0.596   6.410
 8390SOL    HW126069   4.091   0.679   6.382
 8390SOL    HW226070   4.233   0.599   6.372
 8391SOL     OW26071   6.343   5.343   1.036
 8391SOL    HW126072   6.430   5.354   0.989
 8391SOL    HW226073   6.273   5.313   0.972
 8392SOL     OW26074   6.772   3.647   4.192
 8392SOL    HW126075   6.703   3.664   4.262
 8392SOL    HW226076   6.811   3.556   4.205
 8393SOL     OW26077   6.321   0.875   2.708
 8393SOL    HW126078   6.239   0.831   2.670
 8393SOL    HW226079   6.371   0.921   2.635
 8394SOL     OW26080   6.320   2.690   1.141
 8394SOL    HW126081   6.243   2.705   1.203
 8394SOL    HW226082   6.286   2.686   1.047
 8395SOL     OW26083   2.655   6.477   5.367
 8395SOL    HW126084   2.744   6.443   5.399
 8395SOL    HW226085   2.631   6.560   5.418
 8396SOL     OW26086   4.742   4.964   3.484
 8396SOL    HW126087   4.781   5.020   3.410
 8396SOL    HW226088   4.670   4.906   3.447
 8397SOL     OW26089   1.079   0.825   2.737
 8397SOL    HW126090   1.079   0.728   2.715
 8397SOL    HW226091   1.125   0.839   2.825
 8398SOL     OW26092   4.561   2.611   6.297
 8398SOL    HW126093   4.649   2.646   6.331
 8398SOL    HW226094   4.498   2.688   6.284
 8399SOL     OW26095   6.540   6.998   6.685
 8399SOL    HW126096   6.462   0.038   6.699
 8399SOL    HW226097   6.574   6.967   6.774
 8400SOL     OW26098   2.211   1.900   4.167
 8400SOL    HW126099   2.292   1.955   4.188
 8400SOL    HW226100   2.218   1.864   4.074
 8401SOL     OW26101   2.322   1.432   5.227
 8401SOL    HW126102   2.322   1.495   5.305
 8401SOL    HW226103   2.271   1.473   5.152
 8402SOL     OW26104   5.380   1.878   6.523
 8402SOL    HW126105   5.369   1.900   6.426
 8402SOL    HW226106   5.306   1.920   6.575
 8403SOL     OW26107   0.019   3.693   4.373
 8403SOL    HW126108   0.036   3.617   4.436
 8403SOL    HW226109   6.989   3.661   4.294
 8404SOL     OW26110   3.576   6.892   5.758
 8404SOL    HW126111   3.558   6.796   5.737
 8404SOL    HW226112   3.594   6.942   5.673
 8405SOL     OW26113   2.749   1.255   5.470
 8405SOL    HW126114   2.732   1.185   5.539
 8405SOL    HW226115   2.668   1.264   5.411
 8406SOL     OW26116   4.193   0.533   0.365
 8406SOL    HW126117   4.186   0.617   0.310
 8406SOL    HW226118   4.280   0.488   0.346
 8407SOL     OW26119   4.209   6.405   3.392
 8407SOL    HW126120   4.204   6.487   3.450
 8407SOL    HW226121   4.116   6.370   3.378
 8408SOL     OW26122   5.394   4.095   1.193
 8408SOL    HW126123   5.305   4.050   1.190
 8408SOL    HW226124   5.406   4.150   1.111
 8409SOL     OW26125   4.781   2.052   3.277
 8409SOL    HW126126   4.870   2.092   3.295
 8409SOL    HW226127   4.766   2.046   3.178
 8410SOL     OW26128   6.159   0.831   1.382
 8410SOL    HW126129   6.213   0.896   1.435
 8410SOL    HW226130   6.101   0.881   1.317
 8411SOL     OW26131   0.442   6.193   0.852
 8411SOL    HW126132   0.352   6.236   0.845
 8411SOL    HW226133   0.460   6.167   0.947
 8412SOL     OW26134   3.754   2.684   1.349
 8412SOL    HW126135   3.788   2.778   1.360
 8412SOL    HW226136   3.657   2.681   1.374
 8413SOL     OW26137   4.814   6.033   6.387
 8413SOL    HW126138   4.835   6.042   6.484
 8413SOL    HW226139   4.715   6.031   6.374
 8414SOL     OW26140   2.917   0.233   3.611
 8414SOL    HW126141   2.860   0.315   3.612
 8414SOL    HW226142   2.911   0.187   3.700
 8415SOL     OW26143   0.534   6.008   4.435
 8415SOL    HW126144   0.561   6.010   4.532
 8415SOL    HW226145   0.554   5.918   4.397
 8416SOL     OW26146   6.599   1.774   4.047
 8416SOL    HW126147   6.595   1.718   3.964
 8416SOL    HW226148   6.575   1.718   4.126
 8417SOL     OW26149   0.864   3.504   5.719
 8417SOL    HW126150   0.806   3.466   5.647
 8417SOL    HW226151   0.959   3.475   5.704
 8418SOL     OW26152   6.709   5.586   1.734
 8418SOL    HW126153   6.640   5.606   1.804
 8418SOL    HW226154   6.692   5.644   1.654
 8419SOL     OW26155   5.331   0.709   2.195
 8419SOL    HW126156   5.422   0.731   2.228
 8419SOL    HW226157   5.333   0.694   2.096
 8420SOL     OW26158   3.973   0.155   1.558
 8420SOL    HW126159   3.882   0.147   1.516
 8420SOL    HW226160   3.963   0.159   1.657
 8421SOL     OW26161   3.118   5.010   0.336
 8421SOL    HW126162   3.158   4.961   0.413
 8421SOL    HW226163   3.031   4.967   0.312
 8422SOL     OW26164   4.731   1.329   2.086
 8422SOL    HW126165   4.700   1.407   2.141
 8422SOL    HW226166   4.682   1.328   1.999
 8423SOL     OW26167   4.187   4.135   6.151
 8423SOL    HW126168   4.099   4.092   6.128
 8423SOL    HW226169   4.173   4.233   6.164
 8424SOL     OW26170   2.036   2.310   2.991
 8424SOL    HW126171   2.096   2.339   2.916
 8424SOL    HW226172   1.943   2.342   2.974
 8425SOL     OW26173   4.230   3.885   6.055
 8425SOL    HW126174   4.230   3.943   6.136
 8425SOL    HW226175   4.219   3.942   5.973
 8426SOL     OW26176   3.512   3.550   2.672
 8426SOL    HW126177   3.548   3.631   2.718
 8426SOL    HW226178   3.576   3.475   2.683
 8427SOL     OW26179   3.510   4.192   3.639
 8427SOL    HW126180   3.486   4.197   3.542
 8427SOL    HW226181   3.493   4.281   3.682
 8428SOL     OW26182   6.983   6.321   1.347
 8428SOL    HW126183   7.010   6.363   1.434
 8428SOL    HW226184   6.903   6.369   1.311
 8429SOL     OW26185   1.554   5.578   5.615
 8429SOL    HW126186   1.502   5.660   5.641
 8429SOL    HW226187   1.639   5.574   5.668
 8430SOL     OW26188   3.792   4.978   3.670
 8430SOL    HW126189   3.716   4.943   3.615
 8430SOL    HW226190   3.864   4.909   3.675
 8431SOL     OW26191   4.041   3.864   0.135
 8431SOL    HW126192   4.043   3.939   0.201
 8431SOL    HW226193   3.963   3.805   0.154
 8432SOL     OW26194   6.093   5.643   5.463
 8432SOL    HW126195   6.072   5.554   5.502
 8432SOL    HW226196   6.012   5.701   5.465
 8433SOL     OW26197   3.946   3.214   0.398
 8433SOL    HW126198   3.933   3.204   0.299
 8433SOL    HW226199   3.858   3.232   0.441
 8434SOL     OW26200   2.410   0.306   4.358
 8434SOL    HW126201   2.370   0.224   4.398
 8434SOL    HW226202   2.483   0.340   4.417
 8435SOL     OW26203   5.585   0.164   2.508
 8435SOL    HW126204   5.584   0.219   2.425
 8435SOL    HW226205   5.545   0.075   2.490
 8436SOL     OW26206   3.324   6.715   3.602
 8436SOL    HW126207   3.292   6.667   3.521
 8436SOL    HW226208   3.287   6.670   3.684
 8437SOL     OW26209   2.554   2.192   3.075
 8437SOL    HW126210   2.599   2.273   3.040
 8437SOL    HW226211   2.458   2.193   3.048
 8438SOL     OW26212   2.356   4.379   3.227
 8438SOL    HW126213   2.437   4.409   3.278
 8438SOL    HW226214   2.353   4.426   3.139
 8439SOL     OW26215   6.027   4.347   2.203
 8439SOL    HW126216   6.116   4.379   2.235
 8439SOL    HW226217   5.987   4.416   2.143
 8440SOL     OW26218   3.298   2.097   3.236
 8440SOL    HW126219   3.231   2.148   3.183
 8440SOL    HW226220   3.289   1.999   3.216
 8441SOL     OW26221   5.945   6.522   6.855
 8441SOL    HW126222   5.912   6.534   6.761
 8441SOL    HW226223   6.005   6.442   6.859
 8442SOL     OW26224   3.691   1.552   5.551
 8442SOL    HW126225   3.633   1.557   5.470
 8442SOL    HW226226   3.674   1.466   5.600
 8443SOL     OW26227   2.407   5.215   3.604
 8443SOL    HW126228   2.388   5.149   3.532
 8443SOL    HW226229   2.505   5.216   3.624
 8444SOL     OW26230   3.478   6.542   3.893
 8444SOL    HW126231   3.380   6.556   3.875
 8444SOL    HW226232   3.520   6.630   3.916
 8445SOL     OW26233   2.575   0.079   0.761
 8445SOL    HW126234   2.553   0.076   0.664
 8445SOL    HW226235   2.558   0.171   0.797
 8446SOL     OW26236   6.326   5.182   5.770
 8446SOL    HW126237   6.312   5.281   5.758
 8446SOL    HW226238   6.238   5.135   5.761
 8447SOL     OW26239   4.229   1.255   1.701
 8447SOL    HW126240   4.194   1.185   1.640
 8447SOL    HW226241   4.194   1.240   1.794
 8448SOL     OW26242   4.457   6.105   3.200
 8448SOL    HW126243   4.398   6.143   3.271
 8448SOL    HW226244   4.486   6.177   3.138
 8449SOL     OW26245   0.153   3.276   3.204
 8449SOL    HW126246   0.151   3.231   3.293
 8449SOL    HW226247   0.156   3.208   3.131
 8450SOL     OW26248   0.974   0.753   1.343
 8450SOL    HW126249   1.037   0.728   1.417
 8450SOL    HW226250   1.025   0.761   1.257
 8451SOL     OW26251   3.435   1.256   0.047
 8451SOL    HW126252   3.470   1.273   0.139
 8451SOL    HW226253   3.349   1.206   0.053
 8452SOL     OW26254   6.230   3.127   3.923
 8452SOL    HW126255   6.212   3.142   3.825
 8452SOL    HW226256   6.305   3.188   3.952
 8453SOL     OW26257   0.301   5.559   0.417
 8453SOL    HW126258   0.261   5.624   0.482
 8453SOL    HW226259   0.366   5.606   0.358
 8454SOL     OW26260   0.340   5.375   0.743
 8454SOL    HW126261   0.300   5.391   0.653
 8454SOL    HW226262   0.282   5.417   0.813
 8455SOL     OW26263   0.486   1.761   2.660
 8455SOL    HW126264   0.506   1.855   2.634
 8455SOL    HW226265   0.559   1.701   2.627
 8456SOL     OW26266   4.577   6.887   3.302
 8456SOL    HW126267   4.630   6.854   3.223
 8456SOL    HW226268   4.590   6.986   3.312
 8457SOL     OW26269   6.448   6.131   4.058
 8457SOL    HW126270   6.505   6.146   3.977
 8457SOL    HW226271   6.491   6.173   4.137
 8458SOL     OW26272   2.652   0.726   0.080
 8458SOL    HW126273   2.607   0.650   0.033
 8458SOL    HW226274   2.748   0.704   0.094
 8459SOL     OW26275   2.489   5.708   2.364
 8459SOL    HW126276   2.586   5.682   2.362
 8459SOL    HW226277   2.480   5.805   2.341
 8460SOL     OW26278   4.675   4.338   5.085
 8460SOL    HW126279   4.755   4.390   5.114
 8460SOL    HW226280   4.704   4.251   5.046
 8461SOL     OW26281   0.711   2.836   4.549
 8461SOL    HW126282   0.644   2.909   4.534
 8461SOL    HW226283   0.671   2.765   4.606
 8462SOL     OW26284   2.375   2.755   6.571
 8462SOL    HW126285   2.333   2.668   6.546
 8462SOL    HW226286   2.334   2.789   6.655
 8463SOL     OW26287   6.785   6.857   1.643
 8463SOL    HW126288   6.823   6.814   1.724
 8463SOL    HW226289   6.850   6.852   1.568
 8464SOL     OW26290   5.164   4.336   4.566
 8464SOL    HW126291   5.099   4.409   4.545
 8464SOL    HW226292   5.255   4.363   4.533
 8465SOL     OW26293   1.024   2.579   0.443
 8465SOL    HW126294   1.046   2.587   0.346
 8465SOL    HW226295   1.023   2.483   0.470
 8466SOL     OW26296   0.444   6.360   3.812
 8466SOL    HW126297   0.539   6.328   3.823
 8466SOL    HW226298   0.395   6.298   3.751
 8467SOL     OW26299   2.962   5.982   0.529
 8467SOL    HW126300   2.925   6.065   0.572
 8467SOL    HW226301   2.939   5.982   0.432
 8468SOL     OW26302   3.007   1.642   0.105
 8468SOL    HW126303   3.004   1.731   0.059
 8468SOL    HW226304   3.085   1.639   0.167
 8469SOL     OW26305   3.283   2.764   0.019
 8469SOL    HW126306   3.323   2.848   7.002
 8469SOL    HW226307   3.195   2.785   0.062
 8470SOL     OW26308   2.108   3.725   0.542
 8470SOL    HW126309   2.114   3.666   0.462
 8470SOL    HW226310   2.014   3.757   0.553
 8471SOL     OW26311   3.121   1.470   2.581
 8471SOL    HW126312   3.204   1.450   2.633
 8471SOL    HW226313   3.125   1.424   2.492
 8472SOL     OW26314   0.278   0.201   3.847
 8472SOL    HW126315   0.375   0.191   3.869
 8472SOL    HW226316   0.268   0.269   3.774
 8473SOL     OW26317   6.912   5.509   6.945
 8473SOL    HW126318   6.931   5.425   6.997
 8473SOL    HW226319   6.921   5.588   7.006
 8474SOL     OW26320   3.470   2.968   2.227
 8474SOL    HW126321   3.374   2.989   2.211
 8474SOL    HW226322   3.483   2.944   2.323
 8475SOL     OW26323   0.259   1.147   3.209
 8475SOL    HW126324   0.333   1.109   3.265
 8475SOL    HW226325   0.297   1.214   3.145
 8476SOL     OW26326   6.327   1.001   0.929
 8476SOL    HW126327   6.273   0.959   0.856
 8476SOL    HW226328   6.418   1.025   0.895
 8477SOL     OW26329   3.713   6.041   1.646
 8477SOL    HW126330   3.722   5.950   1.605
 8477SOL    HW226331   3.781   6.103   1.605
 8478SOL     OW26332   1.765   0.463   6.096
 8478SOL    HW126333   1.818   0.548   6.090
 8478SOL    HW226334   1.670   0.481   6.068
 8479SOL     OW26335   6.603   2.503   0.730
 8479SOL    HW126336   6.542   2.436   0.773
 8479SOL    HW226337   6.586   2.505   0.631
 8480SOL     OW26338   3.180   0.947   0.508
 8480SOL    HW126339   3.106   1.014   0.512
 8480SOL    HW226340   3.191   0.903   0.597
 8481SOL     OW26341   4.419   1.332   3.889
 8481SOL    HW126342   4.463   1.417   3.858
 8481SOL    HW226343   4.378   1.285   3.811
 8482SOL     OW26344   3.099   0.031   2.649
 8482SOL    HW126345   3.095   6.964   2.697
 8482SOL    HW226346   3.180   0.034   2.591
 8483SOL     OW26347   4.183   5.582   1.718
 8483SOL    HW126348   4.218   5.507   1.774
 8483SOL    HW226349   4.218   5.669   1.753
 8484SOL     OW26350   6.563   5.067   3.329
 8484SOL    HW126351   6.562   5.167   3.320
 8484SOL    HW226352   6.584   5.026   3.241
 8485SOL     OW26353   2.894   3.460   6.384
 8485SOL    HW126354   2.816   3.503   6.337
 8485SOL    HW226355   2.869   3.366   6.409
 8486SOL     OW26356   5.225   1.536   3.083
 8486SOL    HW126357   5.204   1.585   3.167
 8486SOL    HW226358   5.320   1.552   3.058
 8487SOL     OW26359   5.652   0.233   0.954
 8487SOL    HW126360   5.691   0.233   1.046
 8487SOL    HW226361   5.642   0.327   0.921
 8488SOL     OW26362   5.692   5.042   4.941
 8488SOL    HW126363   5.726   5.006   4.854
 8488SOL    HW226364   5.767   5.050   5.006
 8489SOL     OW26365   6.388   0.671   1.473
 8489SOL    HW126366   6.338   0.757   1.477
 8489SOL    HW226367   6.373   0.620   1.558
 8490SOL     OW26368   4.362   6.184   4.005
 8490SOL    HW126369   4.350   6.098   3.955
 8490SOL    HW226370   4.273   6.226   4.020
 8491SOL     OW26371   2.040   0.374   1.756
 8491SOL    HW126372   2.075   0.285   1.724
 8491SOL    HW226373   1.945   0.384   1.726
 8492SOL     OW26374   4.520   4.201   6.324
 8492SOL    HW126375   4.555   4.294   6.314
 8492SOL    HW226376   4.568   4.140   6.260
 8493SOL     OW26377   3.158   1.830   6.548
 8493SOL    HW126378   3.214   1.909   6.525
 8493SOL    HW226379   3.062   1.851   6.530
 8494SOL     OW26380   2.339   4.610   0.184
 8494SOL    HW126381   2.283   4.608   0.267
 8494SOL    HW226382   2.327   4.525   0.133
 8495SOL     OW26383   6.953   3.532   0.233
 8495SOL    HW126384   6.996   3.538   0.143
 8495SOL    HW226385   6.954   3.623   0.277
 8496SOL     OW26386   0.571   1.890   2.123
 8496SOL    HW126387   0.558   1.794   2.100
 8496SOL    HW226388   0.622   1.935   2.049
 8497SOL     OW26389   6.718   0.291   4.495
 8497SOL    HW126390   6.715   0.234   4.578
 8497SOL    HW226391   6.814   0.306   4.469
 8498SOL     OW26392   0.530   5.993   2.783
 8498SOL    HW126393   0.581   6.048   2.849
 8498SOL    HW226394   0.560   6.017   2.690
 8499SOL     OW26395   2.336   5.500   6.582
 8499SOL    HW126396   2.294   5.589   6.562
 8499SOL    HW226397   2.305   5.469   6.672
 8500SOL     OW26398   1.692   0.980   5.603
 8500SOL    HW126399   1.723   0.891   5.637
 8500SOL    HW226400   1.752   1.052   5.639
 8501SOL     OW26401   1.698   2.531   0.577
 8501SOL    HW126402   1.737   2.483   0.656
 8501SOL    HW226403   1.646   2.466   0.520
 8502SOL     OW26404   1.909   4.689   1.227
 8502SOL    HW126405   1.835   4.654   1.169
 8502SOL    HW226406   1.986   4.715   1.169
 8503SOL     OW26407   1.126   5.807   2.757
 8503SOL    HW126408   1.199   5.866   2.792
 8503SOL    HW226409   1.078   5.855   2.683
 8504SOL     OW26410   1.975   6.446   3.627
 8504SOL    HW126411   1.955   6.354   3.659
 8504SOL    HW226412   1.959   6.511   3.701
 8505SOL     OW26413   4.895   3.818   3.725
 8505SOL    HW126414   4.864   3.909   3.753
 8505SOL    HW226415   4.862   3.751   3.792
 8506SOL     OW26416   0.425   0.491   1.059
 8506SOL    HW126417   0.430   0.392   1.067
 8506SOL    HW226418   0.420   0.532   1.150
 8507SOL     OW26419   3.304   0.688   5.646
 8507SOL    HW126420   3.221   0.632   5.640
 8507SOL    HW226421   3.279   0.779   5.679
 8508SOL     OW26422   0.143   2.339   4.573
 8508SOL    HW126423   0.191   2.255   4.547
 8508SOL    HW226424   0.175   2.414   4.515
 8509SOL     OW26425   5.423   1.204   4.117
 8509SOL    HW126426   5.439   1.243   4.208
 8509SOL    HW226427   5.449   1.107   4.118
 8510SOL     OW26428   5.427   4.472   3.119
 8510SOL    HW126429   5.419   4.506   3.026
 8510SOL    HW226430   5.343   4.492   3.170
 8511SOL     OW26431   5.528   3.573   1.430
 8511SOL    HW126432   5.591   3.547   1.357
 8511SOL    HW226433   5.453   3.507   1.434
 8512SOL     OW26434   2.967   2.271   0.170
 8512SOL    HW126435   3.031   2.203   0.204
 8512SOL    HW226436   2.907   2.301   0.244
 8513SOL     OW26437   4.631   3.933   1.406
 8513SOL    HW126438   4.541   3.917   1.366
 8513SOL    HW226439   4.700   3.931   1.334
 8514SOL     OW26440   2.759   2.365   3.727
 8514SOL    HW126441   2.811   2.445   3.699
 8514SOL    HW226442   2.711   2.384   3.813
 8515SOL     OW26443   6.373   0.820   6.873
 8515SOL    HW126444   6.332   0.903   6.836
 8515SOL    HW226445   6.308   0.775   6.935
 8516SOL     OW26446   6.550   2.474   1.892
 8516SOL    HW126447   6.614   2.521   1.831
 8516SOL    HW226448   6.496   2.542   1.942
 8517SOL     OW26449   1.948   2.309   5.679
 8517SOL    HW126450   2.027   2.314   5.619
 8517SOL    HW226451   1.978   2.290   5.773
 8518SOL     OW26452   5.043   4.513   5.998
 8518SOL    HW126453   4.950   4.531   5.965
 8518SOL    HW226454   5.040   4.481   6.093
 8519SOL     OW26455   1.156   5.608   1.290
 8519SOL    HW126456   1.136   5.511   1.277
 8519SOL    HW226457   1.082   5.663   1.251
 8520SOL     OW26458   2.835   2.766   6.688
 8520SOL    HW126459   2.831   2.779   6.589
 8520SOL    HW226460   2.926   2.733   6.714
 8521SOL     OW26461   2.249   5.191   5.881
 8521SOL    HW126462   2.250   5.291   5.876
 8521SOL    HW226463   2.289   5.162   5.968
 8522SOL     OW26464   0.772   6.758   1.441
 8522SOL    HW126465   0.823   6.755   1.355
 8522SOL    HW226466   0.810   6.828   1.500
 8523SOL     OW26467   2.163   6.220   6.938
 8523SOL    HW126468   2.172   6.320   6.939
 8523SOL    HW226469   2.115   6.191   0.001
 8524SOL     OW26470   0.639   3.200   5.678
 8524SOL    HW126471   0.555   3.146   5.683
 8524SOL    HW226472   0.710   3.157   5.735
 8525SOL     OW26473   6.376   4.923   1.643
 8525SOL    HW126474   6.440   4.871   1.587
 8525SOL    HW226475   6.321   4.982   1.584
 8526SOL     OW26476   3.362   6.135   0.858
 8526SOL    HW126477   3.341   6.232   0.845
 8526SOL    HW226478   3.320   6.082   0.784
 8527SOL     OW26479   3.087   0.829   0.077
 8527SOL    HW126480   3.123   0.756   0.019
 8527SOL    HW226481   3.065   0.791   0.167
 8528SOL     OW26482   3.920   1.269   0.179
 8528SOL    HW126483   3.985   1.211   0.228
 8528SOL    HW226484   3.833   1.221   0.171
 8529SOL     OW26485   0.945   0.439   0.372
 8529SOL    HW126486   0.972   0.426   0.468
 8529SOL    HW226487   0.864   0.384   0.353
 8530SOL     OW26488   4.091   3.752   5.050
 8530SOL    HW126489   4.074   3.786   4.958
 8530SOL    HW226490   4.101   3.652   5.048
 8531SOL     OW26491   6.894   4.957   2.995
 8531SOL    HW126492   6.890   4.941   2.896
 8531SOL    HW226493   6.983   4.930   3.029
 8532SOL     OW26494   3.956   5.796   4.707
 8532SOL    HW126495   4.013   5.844   4.641
 8532SOL    HW226496   3.914   5.717   4.664
 8533SOL     OW26497   2.070   5.829   0.166
 8533SOL    HW126498   2.106   5.858   0.078
 8533SOL    HW226499   1.990   5.770   0.151
 8534SOL     OW26500   5.282   2.323   4.405
 8534SOL    HW126501   5.269   2.400   4.467
 8534SOL    HW226502   5.233   2.243   4.440
 8535SOL     OW26503   5.671   1.311   3.538
 8535SOL    HW126504   5.765   1.310   3.574
 8535SOL    HW226505   5.659   1.234   3.476
 8536SOL     OW26506   0.274   1.567   4.730
 8536SOL    HW126507   0.319   1.585   4.817
 8536SOL    HW226508   0.254   1.654   4.684
 8537SOL     OW26509   5.386   0.891   3.417
 8537SOL    HW126510   5.376   0.852   3.326
 8537SOL    HW226511   5.310   0.862   3.474
 8538SOL     OW26512   1.670   1.017   0.240
 8538SOL    HW126513   1.760   1.053   0.216
 8538SOL    HW226514   1.621   0.991   0.156
 8539SOL     OW26515   6.666   1.280   3.124
 8539SOL    HW126516   6.602   1.301   3.050
 8539SOL    HW226517   6.616   1.253   3.205
 8540SOL     OW26518   5.821   0.488   6.578
 8540SOL    HW126519   5.851   0.560   6.640
 8540SOL    HW226520   5.860   0.400   6.608
 8541SOL     OW26521   3.299   2.153   3.691
 8541SOL    HW126522   3.339   2.105   3.612
 8541SOL    HW226523   3.215   2.199   3.663
 8542SOL     OW26524   3.783   5.191   6.374
 8542SOL    HW126525   3.856   5.126   6.395
 8542SOL    HW226526   3.763   5.188   6.276
 8543SOL     OW26527   2.374   1.904   1.337
 8543SOL    HW126528   2.414   1.976   1.280
 8543SOL    HW226529   2.350   1.826   1.279
 8544SOL     OW26530   5.559   3.482   4.452
 8544SOL    HW126531   5.554   3.399   4.508
 8544SOL    HW226532   5.652   3.520   4.457
 8545SOL     OW26533   4.255   0.520   5.553
 8545SOL    HW126534   4.288   0.614   5.545
 8545SOL    HW226535   4.231   0.485   5.462
 8546SOL     OW26536   5.775   2.135   4.682
 8546SOL    HW126537   5.847   2.103   4.745
 8546SOL    HW226538   5.816   2.156   4.593
 8547SOL     OW26539   0.635   6.645   5.507
 8547SOL    HW126540   0.539   6.620   5.522
 8547SOL    HW226541   0.650   6.739   5.537
 8548SOL     OW26542   6.190   2.452   5.406
 8548SOL    HW126543   6.147   2.523   5.352
 8548SOL    HW226544   6.137   2.436   5.489
 8549SOL     OW26545   0.642   3.317   4.113
 8549SOL    HW126546   0.669   3.368   4.195
 8549SOL    HW226547   0.719   3.263   4.080
 8550SOL     OW26548   1.859   4.760   6.545
 8550SOL    HW126549   1.937   4.817   6.521
 8550SOL    HW226550   1.889   4.686   6.605
 8551SOL     OW26551   3.969   3.599   5.827
 8551SOL    HW126552   3.974   3.539   5.907
 8551SOL    HW226553   3.932   3.547   5.749
 8552SOL     OW26554   2.852   6.531   3.889
 8552SOL    HW126555   2.829   6.624   3.860
 8552SOL    HW226556   2.907   6.535   3.972
 8553SOL     OW26557   4.816   5.138   6.113
 8553SOL    HW126558   4.791   5.056   6.165
 8553SOL    HW226559   4.775   5.218   6.155
 8554SOL     OW26560   0.807   5.262   0.073
 8554SOL    HW126561   0.875   5.321   0.116
 8554SOL    HW226562   0.852   5.191   0.020
 8555SOL     OW26563   0.752   0.033   2.861
 8555SOL    HW126564   0.762   0.112   2.922
 8555SOL    HW226565   0.810   6.978   2.894
 8556SOL     OW26566   0.971   6.613   3.986
 8556SOL    HW126567   0.997   6.517   3.981
 8556SOL    HW226568   0.963   6.650   3.893
 8557SOL     OW26569   6.309   1.011   2.424
 8557SOL    HW126570   6.366   1.060   2.359
 8557SOL    HW226571   6.291   0.919   2.390
 8558SOL     OW26572   2.723   6.168   3.292
 8558SOL    HW126573   2.725   6.118   3.378
 8558SOL    HW226574   2.629   6.190   3.268
 8559SOL     OW26575   6.461   0.724   2.203
 8559SOL    HW126576   6.461   0.817   2.166
 8559SOL    HW226577   6.482   0.726   2.300
 8560SOL     OW26578   0.323   6.857   1.690
 8560SOL    HW126579   0.378   6.895   1.764
 8560SOL    HW226580   0.331   6.916   1.609
 8561SOL     OW26581   3.633   6.295   1.760
 8561SOL    HW126582   3.711   6.352   1.734
 8561SOL    HW226583   3.655   6.199   1.740
 8562SOL     OW26584   5.089   6.107   4.887
 8562SOL    HW126585   5.028   6.111   4.966
 8562SOL    HW226586   5.183   6.121   4.917
 8563SOL     OW26587   2.672   4.104   6.762
 8563SOL    HW126588   2.643   4.097   6.667
 8563SOL    HW226589   2.761   4.060   6.773
 8564SOL     OW26590   2.770   1.429   3.271
 8564SOL    HW126591   2.673   1.447   3.258
 8564SOL    HW226592   2.796   1.346   3.223
 8565SOL     OW26593   4.834   6.686   1.738
 8565SOL    HW126594   4.824   6.726   1.830
 8565SOL    HW226595   4.755   6.712   1.682
 8566SOL     OW26596   1.157   0.665   1.542
 8566SOL    HW126597   1.188   0.572   1.520
 8566SOL    HW226598   1.216   0.704   1.612
 8567SOL     OW26599   6.890   1.746   2.341
 8567SOL    HW126600   6.896   1.840   2.309
 8567SOL    HW226601   6.968   1.726   2.401
 8568SOL     OW26602   4.833   1.311   5.742
 8568SOL    HW126603   4.758   1.280   5.683
 8568SOL    HW226604   4.865   1.236   5.799
 8569SOL     OW26605   5.107   1.667   5.640
 8569SOL    HW126606   5.120   1.722   5.558
 8569SOL    HW226607   5.051   1.587   5.619
 8570SOL     OW26608   0.666   2.585   5.376
 8570SOL    HW126609   0.716   2.636   5.306
 8570SOL    HW226610   0.696   2.614   5.467
 8571SOL     OW26611   0.480   5.056   6.457
 8571SOL    HW126612   0.386   5.076   6.429
 8571SOL    HW226613   0.506   4.965   6.425
 8572SOL     OW26614   3.125   4.991   6.625
 8572SOL    HW126615   3.206   5.043   6.598
 8572SOL    HW226616   3.068   5.047   6.684
 8573SOL     OW26617   3.391   7.002   6.426
 8573SOL    HW126618   3.396   6.977   6.523
 8573SOL    HW226619   3.308   0.034   6.410
 8574SOL     OW26620   0.219   5.570   5.882
 8574SOL    HW126621   0.299   5.607   5.835
 8574SOL    HW226622   0.239   5.478   5.915
 8575SOL     OW26623   3.349   2.469   6.150
 8575SOL    HW126624   3.312   2.385   6.112
 8575SOL    HW226625   3.301   2.492   6.235
 8576SOL     OW26626   0.938   6.360   0.333
 8576SOL    HW126627   1.004   6.359   0.408
 8576SOL    HW226628   0.981   6.401   0.252
 8577SOL     OW26629   6.636   5.295   4.147
 8577SOL    HW126630   6.707   5.341   4.092
 8577SOL    HW226631   6.675   5.214   4.191
 8578SOL     OW26632   4.354   0.467   4.568
 8578SOL    HW126633   4.431   0.527   4.550
 8578SOL    HW226634   4.317   0.487   4.659
 8579SOL     OW26635   1.447   6.433   3.791
 8579SOL    HW126636   1.528   6.491   3.781
 8579SOL    HW226637   1.433   6.380   3.707
 8580SOL     OW26638   2.073   6.838   2.341
 8580SOL    HW126639   1.977   6.858   2.324
 8580SOL    HW226640   2.122   6.924   2.359
 8581SOL     OW26641   3.479   2.930   1.651
 8581SOL    HW126642   3.514   2.930   1.557
 8581SOL    HW226643   3.532   2.994   1.706
 8582SOL     OW26644   4.226   4.688   2.120
 8582SOL    HW126645   4.175   4.702   2.036
 8582SOL    HW226646   4.164   4.685   2.198
 8583SOL     OW26647   5.772   1.040   6.090
 8583SOL    HW126648   5.816   1.075   6.007
 8583SOL    HW226649   5.767   1.113   6.158
 8584SOL     OW26650   0.427   3.666   6.138
 8584SOL    HW126651   0.356   3.601   6.113
 8584SOL    HW226652   0.401   3.758   6.108
 8585SOL     OW26653   0.294   6.882   5.976
 8585SOL    HW126654   0.201   6.846   5.979
 8585SOL    HW226655   0.292   6.981   5.996
 8586SOL     OW26656   2.683   6.702   3.701
 8586SOL    HW126657   2.741   6.780   3.677
 8586SOL    HW226658   2.720   6.620   3.658
 8587SOL     OW26659   1.488   0.265   2.726
 8587SOL    HW126660   1.474   0.278   2.824
 8587SOL    HW226661   1.408   0.297   2.676
 8588SOL     OW26662   2.590   0.769   6.782
 8588SOL    HW126663   2.587   0.768   6.882
 8588SOL    HW226664   2.665   0.710   6.751
 8589SOL     OW26665   4.863   2.953   4.498
 8589SOL    HW126666   4.923   2.874   4.487
 8589SOL    HW226667   4.860   2.978   4.595
 8590SOL     OW26668   6.456   5.962   4.364
 8590SOL    HW126669   6.455   5.941   4.266
 8590SOL    HW226670   6.421   5.884   4.416
 8591SOL     OW26671   1.466   5.399   6.261
 8591SOL    HW126672   1.482   5.380   6.164
 8591SOL    HW226673   1.418   5.322   6.303
 8592SOL     OW26674   0.058   4.237   0.271
 8592SOL    HW126675   6.978   4.244   0.268
 8592SOL    HW226676   0.084   4.141   0.282
 8593SOL     OW26677   0.886   0.131   2.621
 8593SOL    HW126678   0.819   0.104   2.690
 8593SOL    HW226679   0.841   0.183   2.549
 8594SOL     OW26680   3.726   3.149   5.263
 8594SOL    HW126681   3.634   3.119   5.239
 8594SOL    HW226682   3.786   3.139   5.183
 8595SOL     OW26683   2.201   1.693   2.694
 8595SOL    HW126684   2.243   1.718   2.607
 8595SOL    HW226685   2.272   1.675   2.762
 8596SOL     OW26686   5.715   5.958   2.982
 8596SOL    HW126687   5.813   5.980   2.978
 8596SOL    HW226688   5.668   6.027   3.037
 8597SOL     OW26689   4.540   1.910   0.909
 8597SOL    HW126690   4.544   1.895   1.007
 8597SOL    HW226691   4.471   1.849   0.868
 8598SOL     OW26692   0.069   5.610   1.543
 8598SOL    HW126693   6.990   5.626   1.537
 8598SOL    HW226694   0.086   5.541   1.614
 8599SOL     OW26695   0.884   3.157   4.027
 8599SOL    HW126696   0.878   3.250   3.990
 8599SOL    HW226697   0.954   3.153   4.098
 8600SOL     OW26698   5.458   5.287   6.517
 8600SOL    HW126699   5.376   5.229   6.523
 8600SOL    HW226700   5.432   5.376   6.479
 8601SOL     OW26701   1.307   0.567   5.264
 8601SOL    HW126702   1.345   0.653   5.299
 8601SOL    HW226703   1.208   0.572   5.262
 8602SOL     OW26704   2.692   6.230   2.753
 8602SOL    HW126705   2.696   6.151   2.814
 8602SOL    HW226706   2.686   6.314   2.807
 8603SOL     OW26707   3.330   4.619   0.012
 8603SOL    HW126708   3.267   4.590   6.960
 8603SOL    HW226709   3.373   4.539   0.054
 8604SOL     OW26710   0.015   2.475   3.291
 8604SOL    HW126711   0.053   2.566   3.273
 8604SOL    HW226712   6.955   2.484   3.349
 8605SOL     OW26713   3.212   5.006   4.073
 8605SOL    HW126714   3.191   4.957   4.157
 8605SOL    HW226715   3.172   4.958   3.995
 8606SOL     OW26716   2.415   4.511   5.632
 8606SOL    HW126717   2.507   4.549   5.631
 8606SOL    HW226718   2.419   4.411   5.622
 8607SOL     OW26719   3.487   4.895   0.590
 8607SOL    HW126720   3.494   4.956   0.512
 8607SOL    HW226721   3.404   4.839   0.582
 8608SOL     OW26722   4.173   5.076   3.245
 8608SOL    HW126723   4.096   5.012   3.243
 8608SOL    HW226724   4.254   5.029   3.280
 8609SOL     OW26725   4.492   0.468   3.793
 8609SOL    HW126726   4.401   0.438   3.820
 8609SOL    HW226727   4.485   0.542   3.726
 8610SOL     OW26728   1.502   0.610   2.891
 8610SOL    HW126729   1.563   0.608   2.970
 8610SOL    HW226730   1.555   0.630   2.808
 8611SOL     OW26731   2.045   2.702   3.675
 8611SOL    HW126732   2.034   2.686   3.576
 8611SOL    HW226733   2.008   2.792   3.698
 8612SOL     OW26734   3.048   3.238   6.974
 8612SOL    HW126735   2.948   3.244   6.962
 8612SOL    HW226736   3.070   3.151   7.019
 8613SOL     OW26737   2.630   2.427   1.848
 8613SOL    HW126738   2.700   2.383   1.905
 8613SOL    HW226739   2.562   2.471   1.906
 8614SOL     OW26740   0.373   2.899   2.710
 8614SOL    HW126741   0.310   2.965   2.669
 8614SOL    HW226742   0.450   2.883   2.648
 8615SOL     OW26743   4.929   1.704   5.201
 8615SOL    HW126744   5.003   1.641   5.181
 8615SOL    HW226745   4.862   1.702   5.127
 8616SOL     OW26746   1.705   5.400   1.198
 8616SOL    HW126747   1.802   5.414   1.221
 8616SOL    HW226748   1.650   5.412   1.280
 8617SOL     OW26749   6.402   1.219   6.947
 8617SOL    HW126750   6.418   1.206   0.025
 8617SOL    HW226751   6.347   1.301   6.933
 8618SOL     OW26752   5.526   6.956   0.713
 8618SOL    HW126753   5.605   6.908   0.752
 8618SOL    HW226754   5.475   7.002   0.786
 8619SOL     OW26755   3.309   5.111   1.577
 8619SOL    HW126756   3.400   5.149   1.558
 8619SOL    HW226757   3.291   5.117   1.675
 8620SOL     OW26758   6.327   6.969   3.122
 8620SOL    HW126759   6.303   0.037   3.164
 8620SOL    HW226760   6.358   6.985   3.028
 8621SOL     OW26761   5.881   2.155   3.443
 8621SOL    HW126762   5.857   2.165   3.539
 8621SOL    HW226763   5.963   2.208   3.423
 8622SOL     OW26764   4.796   4.349   0.551
 8622SOL    HW126765   4.768   4.372   0.458
 8622SOL    HW226766   4.873   4.406   0.577
 8623SOL     OW26767   0.694   4.058   3.138
 8623SOL    HW126768   0.694   4.064   3.238
 8623SOL    HW226769   0.786   4.077   3.104
 8624SOL     OW26770   0.449   3.977   3.519
 8624SOL    HW126771   0.426   3.887   3.556
 8624SOL    HW226772   0.381   4.003   3.450
 8625SOL     OW26773   5.072   6.869   4.796
 8625SOL    HW126774   5.112   6.794   4.849
 8625SOL    HW226775   4.973   6.857   4.790
 8626SOL     OW26776   3.715   2.939   5.008
 8626SOL    HW126777   3.618   2.960   4.998
 8626SOL    HW226778   3.751   2.904   4.922
 8627SOL     OW26779   0.574   0.451   3.582
 8627SOL    HW126780   0.572   0.449   3.482
 8627SOL    HW226781   0.612   0.365   3.616
 8628SOL     OW26782   6.154   6.728   1.759
 8628SOL    HW126783   6.207   6.767   1.683
 8628SOL    HW226784   6.117   6.803   1.815
 8629SOL     OW26785   1.793   5.398   5.099
 8629SOL    HW126786   1.890   5.423   5.104
 8629SOL    HW226787   1.782   5.304   5.132
 8630SOL     OW26788   5.864   4.019   4.723
 8630SOL    HW126789   5.945   4.061   4.765
 8630SOL    HW226790   5.826   4.082   4.655
 8631SOL     OW26791   3.406   5.392   6.706
 8631SOL    HW126792   3.488   5.442   6.680
 8631SOL    HW226793   3.385   5.409   6.802
 8632SOL     OW26794   3.704   6.539   3.724
 8632SOL    HW126795   3.750   6.454   3.749
 8632SOL    HW226796   3.611   6.539   3.760
 8633SOL     OW26797   4.918   1.361   4.573
 8633SOL    HW126798   4.823   1.337   4.553
 8633SOL    HW226799   4.973   1.349   4.491
 8634SOL     OW26800   5.720   2.974   0.497
 8634SOL    HW126801   5.653   3.007   0.431
 8634SOL    HW226802   5.682   2.980   0.589
 8635SOL     OW26803   6.109   4.508   6.298
 8635SOL    HW126804   6.023   4.459   6.283
 8635SOL    HW226805   6.149   4.533   6.210
 8636SOL     OW26806   5.127   5.678   0.318
 8636SOL    HW126807   5.065   5.757   0.312
 8636SOL    HW226808   5.131   5.646   0.412
 8637SOL     OW26809   2.263   1.266   0.338
 8637SOL    HW126810   2.270   1.336   0.267
 8637SOL    HW226811   2.252   1.310   0.427
 8638SOL     OW26812   2.097   3.408   6.714
 8638SOL    HW126813   2.024   3.377   6.775
 8638SOL    HW226814   2.067   3.488   6.662
 8639SOL     OW26815   6.186   1.999   1.939
 8639SOL    HW126816   6.093   2.021   1.910
 8639SOL    HW226817   6.250   2.063   1.898
 8640SOL     OW26818   4.659   3.783   0.433
 8640SOL    HW126819   4.599   3.861   0.415
 8640SOL    HW226820   4.632   3.707   0.373
 8641SOL     OW26821   6.551   4.714   4.154
 8641SOL    HW126822   6.480   4.782   4.139
 8641SOL    HW226823   6.637   4.747   4.114
 8642SOL     OW26824   3.974   0.729   2.449
 8642SOL    HW126825   4.042   0.725   2.376
 8642SOL    HW226826   3.883   0.719   2.410
 8643SOL     OW26827   4.008   0.381   0.237
 8643SOL    HW126828   4.042   0.321   0.165
 8643SOL    HW226829   4.084   0.428   0.281
 8644SOL     OW26830   4.407   2.415   6.065
 8644SOL    HW126831   4.425   2.320   6.038
 8644SOL    HW226832   4.473   2.475   6.019
 8645SOL     OW26833   5.243   4.531   1.172
 8645SOL    HW126834   5.223   4.467   1.246
 8645SOL    HW226835   5.218   4.489   1.084
 8646SOL     OW26836   6.899   1.560   1.226
 8646SOL    HW126837   6.823   1.603   1.274
 8646SOL    HW226838   6.985   1.597   1.260
 8647SOL     OW26839   3.104   5.237   6.119
 8647SOL    HW126840   3.125   5.178   6.197
 8647SOL    HW226841   3.171   5.222   6.047
 8648SOL     OW26842   5.771   0.938   4.409
 8648SOL    HW126843   5.808   0.905   4.496
 8648SOL    HW226844   5.846   0.959   4.347
 8649SOL     OW26845   5.857   5.134   6.878
 8649SOL    HW126846   5.897   5.215   6.921
 8649SOL    HW226847   5.762   5.152   6.853
 8650SOL     OW26848   1.487   4.409   5.228
 8650SOL    HW126849   1.514   4.331   5.284
 8650SOL    HW226850   1.543   4.411   5.144
 8651SOL     OW26851   3.685   0.527   0.792
 8651SOL    HW126852   3.686   0.610   0.847
 8651SOL    HW226853   3.621   0.461   0.832
 8652SOL     OW26854   1.042   3.626   3.262
 8652SOL    HW126855   0.987   3.596   3.340
 8652SOL    HW226856   1.036   3.726   3.253
 8653SOL     OW26857   5.617   1.407   5.766
 8653SOL    HW126858   5.524   1.380   5.791
 8653SOL    HW226859   5.627   1.404   5.666
 8654SOL     OW26860   1.597   6.010   1.814
 8654SOL    HW126861   1.519   5.958   1.848
 8654SOL    HW226862   1.566   6.072   1.741
 8655SOL     OW26863   5.671   0.747   4.227
 8655SOL    HW126864   5.752   0.784   4.272
 8655SOL    HW226865   5.600   0.817   4.223
 8656SOL     OW26866   6.846   1.260   0.828
 8656SOL    HW126867   6.916   1.195   0.860
 8656SOL    HW226868   6.852   1.344   0.880
 8657SOL     OW26869   4.344   4.832   6.471
 8657SOL    HW126870   4.368   4.906   6.535
 8657SOL    HW226871   4.369   4.744   6.511
 8658SOL     OW26872   4.499   6.357   6.858
 8658SOL    HW126873   4.439   6.415   6.913
 8658SOL    HW226874   4.594   6.378   6.880
 8659SOL     OW26875   4.300   1.325   3.130
 8659SOL    HW126876   4.245   1.407   3.115
 8659SOL    HW226877   4.275   1.283   3.217
 8660SOL     OW26878   5.676   3.366   0.619
 8660SOL    HW126879   5.775   3.383   0.622
 8660SOL    HW226880   5.652   3.326   0.531
 8661SOL     OW26881   5.718   3.812   0.878
 8661SOL    HW126882   5.692   3.749   0.805
 8661SOL    HW226883   5.656   3.800   0.956
 8662SOL     OW26884   5.048   5.843   1.357
 8662SOL    HW126885   4.949   5.850   1.347
 8662SOL    HW226886   5.084   5.775   1.292
 8663SOL     OW26887   2.502   5.985   1.079
 8663SOL    HW126888   2.516   6.069   1.132
 8663SOL    HW226889   2.447   6.006   0.998
 8664SOL     OW26890   3.561   6.015   1.028
 8664SOL    HW126891   3.488   6.059   0.976
 8664SOL    HW226892   3.521   5.946   1.089
 8665SOL     OW26893   5.518   5.889   5.641
 8665SOL    HW126894   5.436   5.941   5.617
 8665SOL    HW226895   5.547   5.912   5.734
 8666SOL     OW26896   5.044   1.856   4.700
 8666SOL    HW126897   5.074   1.881   4.792
 8666SOL    HW226898   5.014   1.760   4.700
 8667SOL     OW26899   4.357   2.396   3.261
 8667SOL    HW126900   4.355   2.320   3.196
 8667SOL    HW226901   4.387   2.479   3.214
 8668SOL     OW26902   5.867   3.037   3.020
 8668SOL    HW126903   5.920   3.079   3.095
 8668SOL    HW226904   5.864   3.099   2.943
 8669SOL     OW26905   2.687   6.465   6.519
 8669SOL    HW126906   2.683   6.491   6.423
 8669SOL    HW226907   2.776   6.423   6.539
 8670SOL     OW26908   3.775   4.391   5.776
 8670SOL    HW126909   3.682   4.368   5.804
 8670SOL    HW226910   3.779   4.488   5.751
 8671SOL     OW26911   5.588   1.921   3.173
 8671SOL    HW126912   5.673   1.973   3.169
 8671SOL    HW226913   5.541   1.939   3.259
 8672SOL     OW26914   2.493   5.428   3.188
 8672SOL    HW126915   2.419   5.492   3.168
 8672SOL    HW226916   2.542   5.405   3.104
 8673SOL     OW26917   6.786   1.981   6.764
 8673SOL    HW126918   6.725   2.024   6.830
 8673SOL    HW226919   6.766   1.883   6.759
 8674SOL     OW26920   6.239   5.427   1.865
 8674SOL    HW126921   6.242   5.527   1.861
 8674SOL    HW226922   6.320   5.390   1.820
 8675SOL     OW26923   3.861   1.863   5.022
 8675SOL    HW126924   3.767   1.896   5.012
 8675SOL    HW226925   3.881   1.797   4.950
 8676SOL     OW26926   4.241   0.032   3.199
 8676SOL    HW126927   4.162   0.058   3.254
 8676SOL    HW226928   4.288   6.975   3.242
 8677SOL     OW26929   2.373   6.492   5.305
 8677SOL    HW126930   2.471   6.474   5.301
 8677SOL    HW226931   2.351   6.536   5.392
 8678SOL     OW26932   0.684   0.402   1.345
 8678SOL    HW126933   0.723   0.424   1.434
 8678SOL    HW226934   0.711   0.472   1.278
 8679SOL     OW26935   6.806   3.230   4.426
 8679SOL    HW126936   6.779   3.147   4.378
 8679SOL    HW226937   6.728   3.267   4.477
 8680SOL     OW26938   0.505   4.169   1.682
 8680SOL    HW126939   0.590   4.219   1.663
 8680SOL    HW226940   0.521   4.104   1.756
 8681SOL     OW26941   4.344   5.037   6.940
 8681SOL    HW126942   4.394   5.121   6.960
 8681SOL    HW226943   4.379   4.963   6.997
 8682SOL     OW26944   4.396   6.696   1.708
 8682SOL    HW126945   4.391   6.738   1.799
 8682SOL    HW226946   4.361   6.602   1.713
 8683SOL     OW26947   1.414   2.331   2.457
 8683SOL    HW126948   1.478   2.319   2.381
 8683SOL    HW226949   1.447   2.282   2.537
 8684SOL     OW26950   0.724   2.715   4.872
 8684SOL    HW126951   0.797   2.757   4.926
 8684SOL    HW226952   0.645   2.777   4.868
 8685SOL     OW26953   1.269   2.959   5.452
 8685SOL    HW126954   1.247   2.863   5.431
 8685SOL    HW226955   1.231   2.982   5.542
 8686SOL     OW26956   0.324   1.798   1.647
 8686SOL    HW126957   0.272   1.714   1.638
 8686SOL    HW226958   0.299   1.862   1.574
 8687SOL     OW26959   3.210   5.720   2.932
 8687SOL    HW126960   3.291   5.716   2.991
 8687SOL    HW226961   3.128   5.727   2.989
 8688SOL     OW26962   3.267   6.650   6.902
 8688SOL    HW126963   3.201   6.616   6.835
 8688SOL    HW226964   3.228   6.729   6.949
 8689SOL     OW26965   3.615   4.642   0.602
 8689SOL    HW126966   3.567   4.587   0.534
 8689SOL    HW226967   3.578   4.735   0.602
 8690SOL     OW26968   2.181   2.645   3.149
 8690SOL    HW126969   2.274   2.609   3.149
 8690SOL    HW226970   2.184   2.743   3.127
 8691SOL     OW26971   3.456   2.589   6.734
 8691SOL    HW126972   3.543   2.552   6.767
 8691SOL    HW226973   3.381   2.533   6.768
 8692SOL     OW26974   3.684   2.080   2.848
 8692SOL    HW126975   3.639   2.111   2.931
 8692SOL    HW226976   3.780   2.111   2.848
 8693SOL     OW26977   6.411   1.571   0.704
 8693SOL    HW126978   6.506   1.593   0.681
 8693SOL    HW226979   6.351   1.603   0.630
 8694SOL     OW26980   3.742   1.242   5.266
 8694SOL    HW126981   3.795   1.326   5.252
 8694SOL    HW226982   3.714   1.205   5.178
 8695SOL     OW26983   4.302   3.051   6.159
 8695SOL    HW126984   4.347   3.117   6.098
 8695SOL    HW226985   4.279   3.096   6.245
 8696SOL     OW26986   2.791   5.635   0.712
 8696SOL    HW126987   2.748   5.564   0.657
 8696SOL    HW226988   2.885   5.648   0.683
 8697SOL     OW26989   6.396   3.312   6.921
 8697SOL    HW126990   6.397   3.247   6.997
 8697SOL    HW226991   6.381   3.404   6.956
 8698SOL     OW26992   5.947   5.523   4.554
 8698SOL    HW126993   5.851   5.495   4.559
 8698SOL    HW226994   5.966   5.565   4.466
 8699SOL     OW26995   1.854   2.861   5.848
 8699SOL    HW126996   1.950   2.845   5.828
 8699SOL    HW226997   1.802   2.777   5.832
 8700SOL     OW26998   0.888   0.688   4.793
 8700SOL    HW126999   0.821   0.755   4.826
 8700SOL    HW227000   0.855   0.645   4.709
 8701SOL     OW27001   1.502   6.933   6.602
 8701SOL    HW127002   1.439   6.964   6.673
 8701SOL    HW227003   1.517   7.007   6.536
 8702SOL     OW27004   5.291   4.432   0.351
 8702SOL    HW127005   5.321   4.399   0.440
 8702SOL    HW227006   5.368   4.473   0.302
 8703SOL     OW27007   2.858   5.596   1.221
 8703SOL    HW127008   2.937   5.588   1.283
 8703SOL    HW227009   2.852   5.690   1.188
 8704SOL     OW27010   6.262   3.912   2.990
 8704SOL    HW127011   6.212   3.945   2.910
 8704SOL    HW227012   6.333   3.848   2.961
 8705SOL     OW27013   5.524   0.526   0.628
 8705SOL    HW127014   5.530   0.625   0.646
 8705SOL    HW227015   5.482   0.481   0.707
 8706SOL     OW27016   4.941   1.948   6.391
 8706SOL    HW127017   4.859   1.957   6.335
 8706SOL    HW227018   4.924   1.882   6.464
 8707SOL     OW27019   6.136   1.889   6.929
 8707SOL    HW127020   6.138   1.978   6.974
 8707SOL    HW227021   6.229   1.852   6.926
 8708SOL     OW27022   4.077   2.155   2.209
 8708SOL    HW127023   4.127   2.226   2.159
 8708SOL    HW227024   4.099   2.066   2.170
 8709SOL     OW27025   6.881   6.086   6.474
 8709SOL    HW127026   6.952   6.018   6.455
 8709SOL    HW227027   6.791   6.043   6.467
 8710SOL     OW27028   2.137   3.364   3.338
 8710SOL    HW127029   2.199   3.304   3.388
 8710SOL    HW227030   2.172   3.458   3.341
 8711SOL     OW27031   0.551   5.334   3.105
 8711SOL    HW127032   0.635   5.351   3.155
 8711SOL    HW227033   0.486   5.408   3.122
 8712SOL     OW27034   3.965   1.839   4.590
 8712SOL    HW127035   3.919   1.783   4.521
 8712SOL    HW227036   3.945   1.936   4.573
 8713SOL     OW27037   0.108   4.344   3.644
 8713SOL    HW127038   0.105   4.325   3.743
 8713SOL    HW227039   0.201   4.370   3.618
 8714SOL     OW27040   0.524   1.668   6.286
 8714SOL    HW127041   0.482   1.646   6.374
 8714SOL    HW227042   0.500   1.762   6.261
 8715SOL     OW27043   5.535   6.863   1.057
 8715SOL    HW127044   5.484   6.943   1.026
 8715SOL    HW227045   5.630   6.889   1.075
 8716SOL     OW27046   0.800   0.016   1.047
 8716SOL    HW127047   0.783   6.937   1.046
 8716SOL    HW227048   0.753   0.057   1.125
 8717SOL     OW27049   3.696   3.224   3.126
 8717SOL    HW127050   3.795   3.239   3.135
 8717SOL    HW227051   3.677   3.126   3.118
 8718SOL     OW27052   0.228   3.526   4.997
 8718SOL    HW127053   0.137   3.485   4.992
 8718SOL    HW227054   0.242   3.585   4.918
 8719SOL     OW27055   1.960   6.903   6.195
 8719SOL    HW127056   1.864   6.920   6.176
 8719SOL    HW227057   2.016   6.970   6.147
 8720SOL     OW27058   6.684   4.745   5.222
 8720SOL    HW127059   6.777   4.725   5.253
 8720SOL    HW227060   6.618   4.704   5.284
 8721SOL     OW27061   6.227   2.543   3.515
 8721SOL    HW127062   6.290   2.496   3.578
 8721SOL    HW227063   6.245   2.512   3.422
 8722SOL     OW27064   4.301   0.974   0.280
 8722SOL    HW127065   4.305   0.902   0.349
 8722SOL    HW227066   4.226   1.037   0.302
 8723SOL     OW27067   5.041   5.347   0.883
 8723SOL    HW127068   5.070   5.269   0.938
 8723SOL    HW227069   5.005   5.419   0.943
 8724SOL     OW27070   5.645   6.696   5.733
 8724SOL    HW127071   5.701   6.618   5.705
 8724SOL    HW227072   5.649   6.704   5.832
 8725SOL     OW27073   2.057   0.581   6.179
 8725SOL    HW127074   2.065   0.570   6.278
 8725SOL    HW227075   2.134   0.538   6.134
 8726SOL     OW27076   6.225   0.829   1.821
 8726SOL    HW127077   6.147   0.796   1.768
 8726SOL    HW227078   6.292   0.870   1.759
 8727SOL     OW27079   6.981   6.155   1.729
 8727SOL    HW127080   7.005   6.115   1.818
 8727SOL    HW227081   6.991   6.254   1.734
 8728SOL     OW27082   3.962   0.577   4.230
 8728SOL    HW127083   4.056   0.560   4.259
 8728SOL    HW227084   3.913   0.490   4.222
 8729SOL     OW27085   4.541   5.972   3.702
 8729SOL    HW127086   4.632   5.945   3.734
 8729SOL    HW227087   4.474   5.954   3.774
 8730SOL     OW27088   6.699   4.423   2.493
 8730SOL    HW127089   6.668   4.474   2.573
 8730SOL    HW227090   6.619   4.387   2.444
 8731SOL     OW27091   2.291   2.291   2.386
 8731SOL    HW127092   2.194   2.285   2.362
 8731SOL    HW227093   2.316   2.213   2.444
 8732SOL     OW27094   5.596   3.825   1.463
 8732SOL    HW127095   5.574   3.731   1.438
 8732SOL    HW227096   5.532   3.857   1.533
 8733SOL     OW27097   1.741   5.748   2.409
 8733SOL    HW127098   1.656   5.755   2.462
 8733SOL    HW227099   1.771   5.653   2.406
 8734SOL     OW27100   1.041   4.699   1.862
 8734SOL    HW127101   1.115   4.758   1.892
 8734SOL    HW227102   1.005   4.648   1.940
 8735SOL     OW27103   0.927   1.410   0.194
 8735SOL    HW127104   0.880   1.382   0.278
 8735SOL    HW227105   0.865   1.398   0.116
 8736SOL     OW27106   0.421   6.713   5.782
 8736SOL    HW127107   0.387   6.725   5.689
 8736SOL    HW227108   0.391   6.789   5.839
 8737SOL     OW27109   2.425   0.043   5.761
 8737SOL    HW127110   2.472   6.978   5.739
 8737SOL    HW227111   2.492   0.114   5.779
 8738SOL     OW27112   2.224   4.987   4.231
 8738SOL    HW127113   2.131   4.952   4.225
 8738SOL    HW227114   2.237   5.058   4.161
 8739SOL     OW27115   6.562   5.587   6.485
 8739SOL    HW127116   6.649   5.537   6.480
 8739SOL    HW227117   6.528   5.601   6.392
 8740SOL     OW27118   5.081   0.650   5.045
 8740SOL    HW127119   5.080   0.572   5.109
 8740SOL    HW227120   5.041   0.730   5.089
 8741SOL     OW27121   2.349   0.842   1.957
 8741SOL    HW127122   2.378   0.926   2.003
 8741SOL    HW227123   2.299   0.867   1.873
 8742SOL     OW27124   5.660   6.143   1.381
 8742SOL    HW127125   5.600   6.127   1.460
 8742SOL    HW227126   5.614   6.204   1.317
 8743SOL     OW27127   1.605   0.354   2.194
 8743SOL    HW127128   1.690   0.406   2.198
 8743SOL    HW227129   1.610   0.275   2.255
 8744SOL     OW27130   3.768   2.203   5.994
 8744SOL    HW127131   3.707   2.280   6.015
 8744SOL    HW227132   3.735   2.121   6.040
 8745SOL     OW27133   6.089   2.457   5.689
 8745SOL    HW127134   6.078   2.426   5.784
 8745SOL    HW227135   6.100   2.556   5.688
 8746SOL     OW27136   4.847   3.866   5.245
 8746SOL    HW127137   4.829   3.794   5.178
 8746SOL    HW227138   4.918   3.927   5.209
 8747SOL     OW27139   0.338   2.611   2.709
 8747SOL    HW127140   0.414   2.621   2.774
 8747SOL    HW227141   0.330   2.695   2.656
 8748SOL     OW27142   0.284   1.725   5.951
 8748SOL    HW127143   0.194   1.688   5.929
 8748SOL    HW227144   0.346   1.649   5.973
 8749SOL     OW27145   3.132   0.051   6.419
 8749SOL    HW127146   3.113   7.012   6.497
 8749SOL    HW227147   3.106   0.004   6.334
 8750SOL     OW27148   3.344   3.264   5.372
 8750SOL    HW127149   3.425   3.322   5.380
 8750SOL    HW227150   3.371   3.172   5.344
 8751SOL     OW27151   6.127   0.199   2.830
 8751SOL    HW127152   6.198   0.128   2.833
 8751SOL    HW227153   6.037   0.157   2.840
 8752SOL     OW27154   2.730   5.029   6.744
 8752SOL    HW127155   2.634   5.047   6.724
 8752SOL    HW227156   2.737   4.965   6.821
 8753SOL     OW27157   4.672   1.733   5.063
 8753SOL    HW127158   4.680   1.830   5.039
 8753SOL    HW227159   4.583   1.699   5.032
 8754SOL     OW27160   0.884   2.239   5.065
 8754SOL    HW127161   0.838   2.260   4.979
 8754SOL    HW227162   0.977   2.208   5.046
 8755SOL     OW27163   2.515   1.132   6.160
 8755SOL    HW127164   2.437   1.073   6.136
 8755SOL    HW227165   2.484   1.226   6.170
 8756SOL     OW27166   2.104   3.515   3.042
 8756SOL    HW127167   2.100   3.598   2.988
 8756SOL    HW227168   2.174   3.525   3.113
 8757SOL     OW27169   5.262   6.819   5.801
 8757SOL    HW127170   5.209   6.828   5.716
 8757SOL    HW227171   5.257   6.904   5.853
 8758SOL     OW27172   4.543   6.369   1.847
 8758SOL    HW127173   4.595   6.407   1.923
 8758SOL    HW227174   4.541   6.269   1.855
 8759SOL     OW27175   3.930   2.457   6.979
 8759SOL    HW127176   4.029   2.459   6.966
 8759SOL    HW227177   3.907   2.505   0.043
 8760SOL     OW27178   1.674   1.791   4.906
 8760SOL    HW127179   1.660   1.809   5.003
 8760SOL    HW227180   1.687   1.693   4.891
 8761SOL     OW27181   4.495   1.268   1.767
 8761SOL    HW127182   4.414   1.231   1.722
 8761SOL    HW227183   4.577   1.245   1.714
 8762SOL     OW27184   0.438   4.041   2.362
 8762SOL    HW127185   0.349   4.008   2.392
 8762SOL    HW227186   0.505   4.025   2.434
 8763SOL     OW27187   6.227   5.535   6.112
 8763SOL    HW127188   6.224   5.503   6.017
 8763SOL    HW227189   6.174   5.473   6.170
 8764SOL     OW27190   4.581   0.641   4.537
 8764SOL    HW127191   4.598   0.729   4.580
 8764SOL    HW227192   4.659   0.580   4.552
 8765SOL     OW27193   6.180   6.575   5.317
 8765SOL    HW127194   6.084   6.603   5.327
 8765SOL    HW227195   6.208   6.523   5.397
 8766SOL     OW27196   4.087   5.472   3.007
 8766SOL    HW127197   4.180   5.478   2.971
 8766SOL    HW227198   4.022   5.509   2.940
 8767SOL     OW27199   3.790   0.100   3.312
 8767SOL    HW127200   3.791   0.017   3.256
 8767SOL    HW227201   3.696   0.130   3.326
 8768SOL     OW27202   1.050   3.191   0.659
 8768SOL    HW127203   1.143   3.226   0.669
 8768SOL    HW227204   1.043   3.141   0.573
 8769SOL     OW27205   1.353   6.916   3.899
 8769SOL    HW127206   1.335   6.832   3.950
 8769SOL    HW227207   1.322   6.904   3.804
 8770SOL     OW27208   4.840   4.124   2.046
 8770SOL    HW127209   4.938   4.144   2.059
 8770SOL    HW227210   4.821   4.031   2.077
 8771SOL     OW27211   1.206   0.438   5.904
 8771SOL    HW127212   1.144   0.386   5.963
 8771SOL    HW227213   1.163   0.450   5.814
 8772SOL     OW27214   5.684   6.777   6.964
 8772SOL    HW127215   5.689   6.861   7.019
 8772SOL    HW227216   5.725   6.702   7.014
 8773SOL     OW27217   4.591   2.372   3.896
 8773SOL    HW127218   4.523   2.398   3.964
 8773SOL    HW227219   4.564   2.285   3.854
 8774SOL     OW27220   2.771   1.765   0.778
 8774SOL    HW127221   2.851   1.717   0.743
 8774SOL    HW227222   2.745   1.837   0.714
 8775SOL     OW27223   6.251   0.413   5.484
 8775SOL    HW127224   6.240   0.475   5.561
 8775SOL    HW227225   6.339   0.365   5.491
 8776SOL     OW27226   3.031   3.915   4.562
 8776SOL    HW127227   2.999   3.958   4.647
 8776SOL    HW227228   3.100   3.973   4.520
 8777SOL     OW27229   0.051   3.832   1.304
 8777SOL    HW127230   0.144   3.802   1.284
 8777SOL    HW227231   0.054   3.908   1.369
 8778SOL     OW27232   6.147   2.421   4.682
 8778SOL    HW127233   6.206   2.349   4.646
 8778SOL    HW227234   6.123   2.484   4.608
 8779SOL     OW27235   2.964   5.236   1.976
 8779SOL    HW127236   2.887   5.275   1.925
 8779SOL    HW227237   3.009   5.309   2.027
 8780SOL     OW27238   1.037   5.247   3.822
 8780SOL    HW127239   1.051   5.285   3.913
 8780SOL    HW227240   1.071   5.311   3.754
 8781SOL     OW27241   6.401   1.391   3.935
 8781SOL    HW127242   6.379   1.462   4.002
 8781SOL    HW227243   6.471   1.330   3.972
 8782SOL     OW27244   5.655   0.618   1.894
 8782SOL    HW127245   5.636   0.698   1.951
 8782SOL    HW227246   5.697   0.648   1.808
 8783SOL     OW27247   6.444   4.252   3.691
 8783SOL    HW127248   6.397   4.217   3.772
 8783SOL    HW227249   6.454   4.351   3.698
 8784SOL     OW27250   5.539   3.899   5.578
 8784SOL    HW127251   5.535   3.988   5.624
 8784SOL    HW227252   5.476   3.835   5.622
 8785SOL     OW27253   6.485   3.421   6.696
 8785SOL    HW127254   6.464   3.362   6.774
 8785SOL    HW227255   6.579   3.405   6.667
 8786SOL     OW27256   2.742   6.408   0.425
 8786SOL    HW127257   2.727   6.502   0.453
 8786SOL    HW227258   2.705   6.394   0.333
 8787SOL     OW27259   1.717   2.820   2.215
 8787SOL    HW127260   1.707   2.919   2.216
 8787SOL    HW227261   1.679   2.783   2.130
 8788SOL     OW27262   0.076   2.441   5.572
 8788SOL    HW127263   7.015   2.388   5.597
 8788SOL    HW227264   0.080   2.524   5.628
 8789SOL     OW27265   5.934   6.731   5.956
 8789SOL    HW127266   5.937   6.800   5.883
 8789SOL    HW227267   5.839   6.716   5.983
 8790SOL     OW27268   6.978   1.316   0.148
 8790SOL    HW127269   0.048   1.345   0.180
 8790SOL    HW227270   6.972   1.329   0.049
 8791SOL     OW27271   5.421   6.810   4.883
 8791SOL    HW127272   5.391   6.807   4.788
 8791SOL    HW227273   5.454   6.719   4.910
 8792SOL     OW27274   3.650   6.032   3.828
 8792SOL    HW127275   3.695   5.948   3.801
 8792SOL    HW227276   3.570   6.048   3.769
 8793SOL     OW27277   1.564   5.475   4.055
 8793SOL    HW127278   1.656   5.514   4.055
 8793SOL    HW227279   1.543   5.440   4.147
 8794SOL     OW27280   4.138   6.887   1.650
 8794SOL    HW127281   4.215   6.883   1.713
 8794SOL    HW227282   4.055   6.913   1.700
 8795SOL     OW27283   1.132   6.507   4.795
 8795SOL    HW127284   1.215   6.494   4.848
 8795SOL    HW227285   1.055   6.522   4.857
 8796SOL     OW27286   3.787   0.383   4.874
 8796SOL    HW127287   3.887   0.380   4.868
 8796SOL    HW227288   3.751   0.431   4.794
 8797SOL     OW27289   1.423   0.006   5.165
 8797SOL    HW127290   1.492   7.011   5.095
 8797SOL    HW227291   1.411   6.944   5.220
 8798SOL     OW27292   4.828   5.212   5.023
 8798SOL    HW127293   4.877   5.206   5.111
 8798SOL    HW227294   4.887   5.178   4.950
 8799SOL     OW27295   1.617   4.072   3.482
 8799SOL    HW127296   1.614   4.017   3.565
 8799SOL    HW227297   1.620   4.012   3.402
 8800SOL     OW27298   5.945   4.098   5.239
 8800SOL    HW127299   5.880   4.055   5.302
 8800SOL    HW227300   5.996   4.169   5.288
 8801SOL     OW27301   1.215   1.267   4.491
 8801SOL    HW127302   1.198   1.172   4.517
 8801SOL    HW227303   1.218   1.274   4.391
 8802SOL     OW27304   1.582   0.429   0.236
 8802SOL    HW127305   1.587   0.467   0.143
 8802SOL    HW227306   1.570   0.329   0.230
 8803SOL     OW27307   0.414   5.276   5.706
 8803SOL    HW127308   0.360   5.203   5.665
 8803SOL    HW227309   0.435   5.252   5.801
 8804SOL     OW27310   3.172   0.256   1.550
 8804SOL    HW127311   3.115   0.242   1.468
 8804SOL    HW227312   3.136   0.200   1.625
 8805SOL     OW27313   2.264   0.560   4.469
 8805SOL    HW127314   2.313   0.473   4.461
 8805SOL    HW227315   2.302   0.613   4.545
 8806SOL     OW27316   1.812   5.081   1.762
 8806SOL    HW127317   1.783   5.117   1.850
 8806SOL    HW227318   1.804   4.982   1.761
 8807SOL     OW27319   6.683   6.648   6.261
 8807SOL    HW127320   6.583   6.653   6.258
 8807SOL    HW227321   6.721   6.689   6.178
 8808SOL     OW27322   5.433   2.069   0.875
 8808SOL    HW127323   5.482   2.104   0.955
 8808SOL    HW227324   5.336   2.060   0.898
 8809SOL     OW27325   5.076   4.694   2.938
 8809SOL    HW127326   5.044   4.603   2.966
 8809SOL    HW227327   5.176   4.693   2.933
 8810SOL     OW27328   5.452   1.243   6.273
 8810SOL    HW127329   5.389   1.311   6.234
 8810SOL    HW227330   5.401   1.179   6.330
 8811SOL     OW27331   3.323   1.825   3.197
 8811SOL    HW127332   3.410   1.785   3.167
 8811SOL    HW227333   3.255   1.815   3.124
 8812SOL     OW27334   2.036   0.356   1.279
 8812SOL    HW127335   2.099   0.412   1.333
 8812SOL    HW227336   1.953   0.409   1.259
 8813SOL     OW27337   1.111   4.435   1.704
 8813SOL    HW127338   1.140   4.421   1.610
 8813SOL    HW227339   1.027   4.490   1.706
 8814SOL     OW27340   6.308   0.798   0.549
 8814SOL    HW127341   6.354   0.759   0.629
 8814SOL    HW227342   6.355   0.883   0.523
 8815SOL     OW27343   6.241   6.225   0.450
 8815SOL    HW127344   6.181   6.151   0.478
 8815SOL    HW227345   6.202   6.312   0.480
 8816SOL     OW27346   2.212   0.838   0.323
 8816SOL    HW127347   2.234   0.751   0.279
 8816SOL    HW227348   2.122   0.832   0.366
 8817SOL     OW27349   0.684   6.176   5.418
 8817SOL    HW127350   0.676   6.260   5.472
 8817SOL    HW227351   0.781   6.152   5.409
 8818SOL     OW27352   0.198   2.830   4.142
 8818SOL    HW127353   0.276   2.886   4.171
 8818SOL    HW227354   0.140   2.810   4.221
 8819SOL     OW27355   4.388   5.493   4.469
 8819SOL    HW127356   4.394   5.394   4.453
 8819SOL    HW227357   4.439   5.516   4.552
 8820SOL     OW27358   2.375   1.691   4.388
 8820SOL    HW127359   2.415   1.705   4.297
 8820SOL    HW227360   2.442   1.717   4.458
 8821SOL     OW27361   2.865   6.185   0.158
 8821SOL    HW127362   2.913   6.213   0.074
 8821SOL    HW227363   2.803   6.258   0.186
 8822SOL     OW27364   0.817   6.971   3.818
 8822SOL    HW127365   0.891   6.972   3.885
 8822SOL    HW227366   0.855   6.986   3.727
 8823SOL     OW27367   2.240   1.003   0.783
 8823SOL    HW127368   2.235   1.070   0.858
 8823SOL    HW227369   2.148   0.986   0.748
 8824SOL     OW27370   1.500   3.456   1.243
 8824SOL    HW127371   1.535   3.367   1.216
 8824SOL    HW227372   1.535   3.480   1.333
 8825SOL     OW27373   1.967   0.136   3.432
 8825SOL    HW127374   1.973   0.201   3.356
 8825SOL    HW227375   1.947   0.185   3.517
 8826SOL     OW27376   6.439   2.910   0.128
 8826SOL    HW127377   6.504   2.834   0.122
 8826SOL    HW227378   6.407   2.919   0.222
 8827SOL     OW27379   3.725   1.387   2.963
 8827SOL    HW127380   3.643   1.332   2.944
 8827SOL    HW227381   3.729   1.463   2.899
 8828SOL     OW27382   4.511   5.612   4.690
 8828SOL    HW127383   4.585   5.664   4.735
 8828SOL    HW227384   4.492   5.529   4.743
 8829SOL     OW27385   6.908   2.070   0.256
 8829SOL    HW127386   6.943   2.048   0.164
 8829SOL    HW227387   6.868   1.988   0.296
 8830SOL     OW27388   0.450   1.183   1.234
 8830SOL    HW127389   0.369   1.220   1.280
 8830SOL    HW227390   0.440   1.193   1.135
 8831SOL     OW27391   5.213   0.815   3.668
 8831SOL    HW127392   5.282   0.743   3.682
 8831SOL    HW227393   5.147   0.813   3.743
 8832SOL     OW27394   6.229   6.074   2.625
 8832SOL    HW127395   6.326   6.065   2.644
 8832SOL    HW227396   6.210   6.164   2.585
 8833SOL     OW27397   2.283   6.566   5.567
 8833SOL    HW127398   2.326   6.476   5.571
 8833SOL    HW227399   2.193   6.563   5.612
 8834SOL     OW27400   5.151   3.346   4.337
 8834SOL    HW127401   5.102   3.370   4.252
 8834SOL    HW227402   5.088   3.354   4.414
 8835SOL     OW27403   5.990   1.325   5.786
 8835SOL    HW127404   5.993   1.322   5.886
 8835SOL    HW227405   5.980   1.420   5.756
 8836SOL     OW27406   4.489   1.424   6.551
 8836SOL    HW127407   4.443   1.392   6.634
 8836SOL    HW227408   4.525   1.345   6.501
 8837SOL     OW27409   0.263   5.975   2.724
 8837SOL    HW127410   0.215   5.919   2.790
 8837SOL    HW227411   0.362   5.971   2.740
 8838SOL     OW27412   3.074   4.932   2.744
 8838SOL    HW127413   3.056   4.873   2.665
 8838SOL    HW227414   3.000   4.923   2.810
 8839SOL     OW27415   5.115   5.727   1.874
 8839SOL    HW127416   5.125   5.629   1.887
 8839SOL    HW227417   5.165   5.756   1.792
 8840SOL     OW27418   6.355   1.798   1.797
 8840SOL    HW127419   6.453   1.813   1.804
 8840SOL    HW227420   6.311   1.818   1.884
 8841SOL     OW27421   1.440   0.485   4.814
 8841SOL    HW127422   1.524   0.530   4.784
 8841SOL    HW227423   1.371   0.553   4.837
 8842SOL     OW27424   3.041   3.264   1.943
 8842SOL    HW127425   3.094   3.201   1.999
 8842SOL    HW227426   3.077   3.357   1.955
 8843SOL     OW27427   1.858   3.249   5.001
 8843SOL    HW127428   1.952   3.217   4.994
 8843SOL    HW227429   1.827   3.242   5.096
 8844SOL     OW27430   5.885   1.753   0.032
 8844SOL    HW127431   5.966   1.799   7.016
 8844SOL    HW227432   5.865   1.788   0.124
 8845SOL     OW27433   4.583   3.952   6.600
 8845SOL    HW127434   4.530   4.037   6.610
 8845SOL    HW227435   4.577   3.899   6.684
 8846SOL     OW27436   2.695   5.589   3.278
 8846SOL    HW127437   2.599   5.562   3.267
 8846SOL    HW227438   2.709   5.626   3.370
 8847SOL     OW27439   3.126   0.976   2.699
 8847SOL    HW127440   3.193   1.035   2.654
 8847SOL    HW227441   3.173   0.898   2.739
 8848SOL     OW27442   2.480   0.164   1.914
 8848SOL    HW127443   2.570   0.207   1.922
 8848SOL    HW227444   2.416   0.209   1.976
 8849SOL     OW27445   3.082   6.007   2.835
 8849SOL    HW127446   3.099   6.012   2.933
 8849SOL    HW227447   3.164   5.974   2.788
 8850SOL     OW27448   1.706   2.042   0.281
 8850SOL    HW127449   1.691   1.944   0.268
 8850SOL    HW227450   1.670   2.071   0.369
 8851SOL     OW27451   1.841   4.237   2.490
 8851SOL    HW127452   1.838   4.148   2.446
 8851SOL    HW227453   1.795   4.305   2.433
 8852SOL     OW27454   0.899   1.923   4.585
 8852SOL    HW127455   0.917   1.856   4.656
 8852SOL    HW227456   0.804   1.955   4.592
 8853SOL     OW27457   2.871   0.392   1.456
 8853SOL    HW127458   2.868   0.381   1.556
 8853SOL    HW227459   2.783   0.427   1.424
 8854SOL     OW27460   2.056   3.571   4.779
 8854SOL    HW127461   2.009   3.484   4.762
 8854SOL    HW227462   1.990   3.645   4.779
 8855SOL     OW27463   6.737   5.414   1.120
 8855SOL    HW127464   6.788   5.372   1.194
 8855SOL    HW227465   6.691   5.344   1.066
 8856SOL     OW27466   0.643   6.185   6.516
 8856SOL    HW127467   0.548   6.158   6.506
 8856SOL    HW227468   0.648   6.285   6.526
 8857SOL     OW27469   6.465   1.623   4.739
 8857SOL    HW127470   6.494   1.644   4.646
 8857SOL    HW227471   6.431   1.529   4.744
 8858SOL     OW27472   0.023   4.652   4.022
 8858SOL    HW127473   0.064   4.572   3.978
 8858SOL    HW227474   6.944   4.650   4.010
 8859SOL     OW27475   0.859   1.059   3.942
 8859SOL    HW127476   0.828   1.138   3.994
 8859SOL    HW227477   0.866   1.084   3.845
 8860SOL     OW27478   6.828   2.316   1.648
 8860SOL    HW127479   6.903   2.250   1.636
 8860SOL    HW227480   6.851   2.402   1.603
 8861SOL     OW27481   4.332   1.111   6.793
 8861SOL    HW127482   4.325   1.082   6.888
 8861SOL    HW227483   4.410   1.172   6.782
 8862SOL     OW27484   5.548   6.451   3.880
 8862SOL    HW127485   5.610   6.484   3.809
 8862SOL    HW227486   5.456   6.441   3.842
 8863SOL     OW27487   2.187   5.146   3.264
 8863SOL    HW127488   2.202   5.245   3.272
 8863SOL    HW227489   2.254   5.108   3.200
 8864SOL     OW27490   3.852   4.190   6.434
 8864SOL    HW127491   3.826   4.189   6.337
 8864SOL    HW227492   3.937   4.140   6.446
 8865SOL     OW27493   3.415   0.951   4.930
 8865SOL    HW127494   3.431   0.910   4.840
 8865SOL    HW227495   3.334   0.910   4.972
 8866SOL     OW27496   5.467   6.609   2.819
 8866SOL    HW127497   5.562   6.601   2.848
 8866SOL    HW227498   5.419   6.523   2.836
 8867SOL     OW27499   5.799   4.134   3.681
 8867SOL    HW127500   5.718   4.192   3.666
 8867SOL    HW227501   5.862   4.146   3.605
 8868SOL     OW27502   6.748   3.433   2.356
 8868SOL    HW127503   6.810   3.486   2.414
 8868SOL    HW227504   6.681   3.494   2.314
 8869SOL     OW27505   4.304   5.921   5.478
 8869SOL    HW127506   4.309   6.020   5.487
 8869SOL    HW227507   4.294   5.896   5.382
 8870SOL     OW27508   1.665   6.429   1.583
 8870SOL    HW127509   1.662   6.330   1.569
 8870SOL    HW227510   1.724   6.449   1.661
 8871SOL     OW27511   1.911   0.570   3.434
 8871SOL    HW127512   1.938   0.602   3.525
 8871SOL    HW227513   1.959   0.622   3.364
 8872SOL     OW27514   1.088   5.052   6.051
 8872SOL    HW127515   1.079   4.976   5.986
 8872SOL    HW227516   1.007   5.055   6.109
 8873SOL     OW27517   1.731   6.888   1.692
 8873SOL    HW127518   1.708   6.898   1.789
 8873SOL    HW227519   1.786   6.967   1.663
 8874SOL     OW27520   1.431   5.604   2.270
 8874SOL    HW127521   1.485   5.643   2.195
 8874SOL    HW227522   1.334   5.603   2.245
 8875SOL     OW27523   0.029   3.028   4.688
 8875SOL    HW127524   0.019   2.960   4.760
 8875SOL    HW227525   7.014   3.116   4.720
 8876SOL     OW27526   2.645   0.884   6.517
 8876SOL    HW127527   2.575   0.944   6.479
 8876SOL    HW227528   2.618   0.855   6.609
 8877SOL     OW27529   1.648   2.972   3.150
 8877SOL    HW127530   1.690   3.061   3.171
 8877SOL    HW227531   1.716   2.900   3.160
 8878SOL     OW27532   3.777   5.145   1.041
 8878SOL    HW127533   3.701   5.106   0.988
 8878SOL    HW227534   3.828   5.209   0.983
 8879SOL     OW27535   5.673   4.789   2.455
 8879SOL    HW127536   5.705   4.725   2.524
 8879SOL    HW227537   5.663   4.880   2.495
 8880SOL     OW27538   4.121   6.099   5.094
 8880SOL    HW127539   4.186   6.153   5.148
 8880SOL    HW227540   4.036   6.150   5.083
 8881SOL     OW27541   5.335   5.309   4.401
 8881SOL    HW127542   5.302   5.232   4.455
 8881SOL    HW227543   5.425   5.288   4.363
 8882SOL     OW27544   3.614   1.186   0.962
 8882SOL    HW127545   3.643   1.226   1.049
 8882SOL    HW227546   3.558   1.252   0.912
 8883SOL     OW27547   1.275   6.267   5.777
 8883SOL    HW127548   1.195   6.222   5.737
 8883SOL    HW227549   1.324   6.318   5.706
 8884SOL     OW27550   6.016   3.629   5.382
 8884SOL    HW127551   5.990   3.542   5.424
 8884SOL    HW227552   5.934   3.675   5.347
 8885SOL     OW27553   5.290   4.692   0.676
 8885SOL    HW127554   5.303   4.728   0.768
 8885SOL    HW227555   5.311   4.764   0.609
 8886SOL     OW27556   3.604   5.646   6.160
 8886SOL    HW127557   3.663   5.566   6.162
 8886SOL    HW227558   3.560   5.657   6.250
 8887SOL     OW27559   3.377   1.330   0.852
 8887SOL    HW127560   3.336   1.315   0.942
 8887SOL    HW227561   3.322   1.395   0.800
 8888SOL     OW27562   1.999   2.829   4.571
 8888SOL    HW127563   1.960   2.888   4.499
 8888SOL    HW227564   2.077   2.876   4.613
 8889SOL     OW27565   7.011   6.493   6.460
 8889SOL    HW127566   0.025   6.568   6.404
 8889SOL    HW227567   6.953   6.433   6.403
 8890SOL     OW27568   0.652   6.077   6.225
 8890SOL    HW127569   0.736   6.087   6.172
 8890SOL    HW227570   0.668   6.107   6.318
 8891SOL     OW27571   4.278   4.329   0.299
 8891SOL    HW127572   4.376   4.335   0.322
 8891SOL    HW227573   4.261   4.378   0.214
 8892SOL     OW27574   3.618   4.910   3.433
 8892SOL    HW127575   3.525   4.933   3.407
 8892SOL    HW227576   3.676   4.906   3.351
 8893SOL     OW27577   1.416   5.315   5.006
 8893SOL    HW127578   1.359   5.323   5.088
 8893SOL    HW227579   1.512   5.315   5.032
 8894SOL     OW27580   3.660   1.588   7.015
 8894SOL    HW127581   3.675   1.600   0.093
 8894SOL    HW227582   3.749   1.579   6.969
 8895SOL     OW27583   0.575   2.357   0.816
 8895SOL    HW127584   0.586   2.287   0.886
 8895SOL    HW227585   0.626   2.439   0.842
 8896SOL     OW27586   1.942   3.146   4.520
 8896SOL    HW127587   1.956   3.213   4.593
 8896SOL    HW227588   1.854   3.099   4.534
 8897SOL     OW27589   1.827   3.202   3.193
 8897SOL    HW127590   1.914   3.153   3.197
 8897SOL    HW227591   1.832   3.283   3.252
 8898SOL     OW27592   5.692   3.500   2.083
 8898SOL    HW127593   5.725   3.580   2.133
 8898SOL    HW227594   5.644   3.439   2.147
 8899SOL     OW27595   1.157   4.596   0.447
 8899SOL    HW127596   1.193   4.504   0.431
 8899SOL    HW227597   1.057   4.592   0.448
 8900SOL     OW27598   5.705   2.719   3.167
 8900SOL    HW127599   5.791   2.711   3.217
 8900SOL    HW227600   5.720   2.694   3.071
 8901SOL     OW27601   0.717   1.263   4.075
 8901SOL    HW127602   0.792   1.327   4.088
 8901SOL    HW227603   0.690   1.262   3.978
 8902SOL     OW27604   1.621   5.805   6.959
 8902SOL    HW127605   1.636   5.842   6.867
 8902SOL    HW227606   1.706   5.806   7.010
 8903SOL     OW27607   1.139   2.055   4.581
 8903SOL    HW127608   1.205   2.099   4.642
 8903SOL    HW227609   1.052   2.044   4.629
 8904SOL     OW27610   0.932   1.450   3.636
 8904SOL    HW127611   0.861   1.459   3.705
 8904SOL    HW227612   0.901   1.388   3.564
 8905SOL     OW27613   1.921   3.333   2.542
 8905SOL    HW127614   1.906   3.254   2.602
 8905SOL    HW227615   1.990   3.311   2.473
 8906SOL     OW27616   1.288   6.281   0.851
 8906SOL    HW127617   1.360   6.263   0.918
 8906SOL    HW227618   1.292   6.377   0.823
 8907SOL     OW27619   2.977   2.766   5.337
 8907SOL    HW127620   3.009   2.840   5.277
 8907SOL    HW227621   3.050   2.699   5.348
 8908SOL     OW27622   1.920   5.425   6.991
 8908SOL    HW127623   1.829   5.404   6.955
 8908SOL    HW227624   1.989   5.394   6.925
 8909SOL     OW27625   2.494   1.090   6.437
 8909SOL    HW127626   2.505   1.105   6.339
 8909SOL    HW227627   2.405   1.125   6.466
 8910SOL     OW27628   0.400   2.826   5.438
 8910SOL    HW127629   0.488   2.784   5.457
 8910SOL    HW227630   0.331   2.756   5.421
 8911SOL     OW27631   5.742   3.446   4.783
 8911SOL    HW127632   5.686   3.374   4.743
 8911SOL    HW227633   5.747   3.524   4.720
 8912SOL     OW27634   2.822   3.149   5.812
 8912SOL    HW127635   2.871   3.063   5.805
 8912SOL    HW227636   2.878   3.223   5.773
 8913SOL     OW27637   4.457   5.249   6.706
 8913SOL    HW127638   4.450   5.150   6.694
 8913SOL    HW227639   4.523   5.286   6.641
 8914SOL     OW27640   5.060   6.739   4.438
 8914SOL    HW127641   5.098   6.652   4.468
 8914SOL    HW227642   5.132   6.809   4.440
 8915SOL     OW27643   1.228   2.138   4.331
 8915SOL    HW127644   1.327   2.127   4.328
 8915SOL    HW227645   1.193   2.108   4.420
 8916SOL     OW27646   6.562   2.565   6.816
 8916SOL    HW127647   6.492   2.609   6.759
 8916SOL    HW227648   6.576   2.471   6.785
 8917SOL     OW27649   5.764   2.824   1.178
 8917SOL    HW127650   5.752   2.791   1.271
 8917SOL    HW227651   5.860   2.843   1.160
 8918SOL     OW27652   1.084   5.442   0.575
 8918SOL    HW127653   1.017   5.402   0.512
 8918SOL    HW227654   1.075   5.542   0.574
 8919SOL     OW27655   5.316   4.900   6.715
 8919SOL    HW127656   5.351   4.808   6.697
 8919SOL    HW227657   5.316   4.915   6.814
 8920SOL     OW27658   0.381   2.247   0.441
 8920SOL    HW127659   0.436   2.329   0.423
 8920SOL    HW227660   0.351   2.248   0.536
 8921SOL     OW27661   1.567   3.112   1.896
 8921SOL    HW127662   1.517   3.026   1.886
 8921SOL    HW227663   1.653   3.108   1.846
 8922SOL     OW27664   4.420   5.832   1.990
 8922SOL    HW127665   4.502   5.872   2.031
 8922SOL    HW227666   4.403   5.743   2.032
 8923SOL     OW27667   1.294   0.905   6.063
 8923SOL    HW127668   1.355   0.946   5.995
 8923SOL    HW227669   1.211   0.872   6.019
 8924SOL     OW27670   4.743   5.430   5.286
 8924SOL    HW127671   4.644   5.431   5.302
 8924SOL    HW227672   4.779   5.339   5.310
 8925SOL     OW27673   6.608   0.482   2.561
 8925SOL    HW127674   6.641   0.447   2.473
 8925SOL    HW227675   6.658   0.565   2.584
 8926SOL     OW27676   6.605   3.340   4.578
 8926SOL    HW127677   6.623   3.279   4.656
 8926SOL    HW227678   6.507   3.338   4.557
 8927SOL     OW27679   6.095   1.577   4.704
 8927SOL    HW127680   6.025   1.564   4.774
 8927SOL    HW227681   6.185   1.582   4.746
 8928SOL     OW27682   1.838   0.211   6.047
 8928SOL    HW127683   1.927   0.211   6.094
 8928SOL    HW227684   1.788   0.294   6.071
 8929SOL     OW27685   6.472   1.855   5.308
 8929SOL    HW127686   6.483   1.913   5.389
 8929SOL    HW227687   6.383   1.810   5.311
 8930SOL     OW27688   0.787   2.770   3.314
 8930SOL    HW127689   0.789   2.680   3.271
 8930SOL    HW227690   0.859   2.776   3.383
 8931SOL     OW27691   3.021   3.521   1.597
 8931SOL    HW127692   3.025   3.432   1.551
 8931SOL    HW227693   3.090   3.582   1.557
 8932SOL     OW27694   6.913   2.233   2.533
 8932SOL    HW127695   6.860   2.217   2.450
 8932SOL    HW227696   6.874   2.312   2.582
 8933SOL     OW27697   2.893   2.507   6.448
 8933SOL    HW127698   2.891   2.482   6.545
 8933SOL    HW227699   2.926   2.430   6.394
 8934SOL     OW27700   3.791   4.702   5.279
 8934SOL    HW127701   3.859   4.674   5.346
 8934SOL    HW227702   3.705   4.722   5.326
 8935SOL     OW27703   0.231   4.054   0.355
 8935SOL    HW127704   0.235   3.978   0.421
 8935SOL    HW227705   0.282   4.029   0.273
 8936SOL     OW27706   1.982   3.874   1.103
 8936SOL    HW127707   1.977   3.966   1.140
 8936SOL    HW227708   1.913   3.816   1.148
 8937SOL     OW27709   0.419   0.438   5.171
 8937SOL    HW127710   0.331   0.426   5.126
 8937SOL    HW227711   0.483   0.482   5.108
 8938SOL     OW27712   0.587   5.470   0.805
 8938SOL    HW127713   0.495   5.435   0.788
 8938SOL    HW227714   0.581   5.567   0.828
 8939SOL     OW27715   4.793   2.949   4.197
 8939SOL    HW127716   4.856   2.895   4.253
 8939SOL    HW227717   4.786   3.042   4.234
 8940SOL     OW27718   0.090   1.065   3.420
 8940SOL    HW127719   0.142   1.035   3.340
 8940SOL    HW227720   7.015   1.036   3.411
 8941SOL     OW27721   6.047   2.552   5.178
 8941SOL    HW127722   6.109   2.524   5.105
 8941SOL    HW227723   6.078   2.639   5.216
 8942SOL     OW27724   0.489   4.643   5.011
 8942SOL    HW127725   0.462   4.628   5.106
 8942SOL    HW227726   0.540   4.564   4.978
 8943SOL     OW27727   3.780   4.117   6.893
 8943SOL    HW127728   3.743   4.201   6.853
 8943SOL    HW227729   3.831   4.066   6.823
 8944SOL     OW27730   5.242   4.832   4.893
 8944SOL    HW127731   5.307   4.877   4.955
 8944SOL    HW227732   5.171   4.786   4.947
 8945SOL     OW27733   1.667   0.859   3.646
 8945SOL    HW127734   1.748   0.916   3.640
 8945SOL    HW227735   1.692   0.768   3.680
 8946SOL     OW27736   2.900   1.334   4.842
 8946SOL    HW127737   2.943   1.255   4.799
 8946SOL    HW227738   2.960   1.413   4.835
 8947SOL     OW27739   1.635   3.770   4.959
 8947SOL    HW127740   1.687   3.697   4.915
 8947SOL    HW227741   1.671   3.785   5.051
 8948SOL     OW27742   6.517   6.257   4.310
 8948SOL    HW127743   6.495   6.186   4.377
 8948SOL    HW227744   6.615   6.255   4.290
 8949SOL     OW27745   2.311   0.322   0.795
 8949SOL    HW127746   2.239   0.286   0.855
 8949SOL    HW227747   2.400   0.303   0.835
 8950SOL     OW27748   4.879   3.298   5.905
 8950SOL    HW127749   4.880   3.225   5.836
 8950SOL    HW227750   4.835   3.379   5.867
 8951SOL     OW27751   0.566   1.764   4.594
 8951SOL    HW127752   0.590   1.773   4.498
 8951SOL    HW227753   0.474   1.800   4.610
 8952SOL     OW27754   1.309   0.095   2.438
 8952SOL    HW127755   1.331   0.012   2.387
 8952SOL    HW227756   1.234   0.076   2.501
 8953SOL     OW27757   1.108   3.932   6.573
 8953SOL    HW127758   1.182   3.992   6.604
 8953SOL    HW227759   1.109   3.927   6.473
 8954SOL     OW27760   1.209   6.254   6.187
 8954SOL    HW127761   1.197   6.161   6.153
 8954SOL    HW227762   1.227   6.315   6.111
 8955SOL     OW27763   0.708   4.550   2.291
 8955SOL    HW127764   0.719   4.460   2.333
 8955SOL    HW227765   0.611   4.576   2.295
 8956SOL     OW27766   0.465   1.688   0.058
 8956SOL    HW127767   0.411   1.674   6.996
 8956SOL    HW227768   0.558   1.715   0.032
 8957SOL     OW27769   3.071   4.254   1.745
 8957SOL    HW127770   3.018   4.328   1.786
 8957SOL    HW227771   3.010   4.197   1.689
 8958SOL     OW27772   0.960   6.995   4.478
 8958SOL    HW127773   0.967   6.910   4.530
 8958SOL    HW227774   0.878   0.024   4.506
 8959SOL     OW27775   1.277   4.935   1.388
 8959SOL    HW127776   1.344   4.898   1.452
 8959SOL    HW227777   1.287   5.034   1.383
 8960SOL     OW27778   4.611   5.637   2.964
 8960SOL    HW127779   4.625   5.549   2.918
 8960SOL    HW227780   4.527   5.679   2.931
 8961SOL     OW27781   2.267   2.328   4.682
 8961SOL    HW127782   2.264   2.333   4.781
 8961SOL    HW227783   2.288   2.418   4.644
 8962SOL     OW27784   6.591   6.453   2.885
 8962SOL    HW127785   6.504   6.502   2.885
 8962SOL    HW227786   6.607   6.412   2.796
 8963SOL     OW27787   5.131   6.496   3.874
 8963SOL    HW127788   5.097   6.408   3.907
 8963SOL    HW227789   5.123   6.500   3.774
 8964SOL     OW27790   5.572   3.737   3.342
 8964SOL    HW127791   5.642   3.807   3.350
 8964SOL    HW227792   5.484   3.773   3.373
 8965SOL     OW27793   2.224   4.592   0.427
 8965SOL    HW127794   2.272   4.659   0.483
 8965SOL    HW227795   2.253   4.500   0.452
 8966SOL     OW27796   0.864   4.179   5.727
 8966SOL    HW127797   0.960   4.190   5.700
 8966SOL    HW227798   0.808   4.160   5.647
 8967SOL     OW27799   3.942   6.191   1.824
 8967SOL    HW127800   3.876   6.264   1.844
 8967SOL    HW227801   3.946   6.175   1.725
 8968SOL     OW27802   5.335   4.726   2.700
 8968SOL    HW127803   5.353   4.742   2.603
 8968SOL    HW227804   5.370   4.803   2.754
 8969SOL     OW27805   6.567   0.404   4.132
 8969SOL    HW127806   6.485   0.361   4.170
 8969SOL    HW227807   6.591   0.485   4.186
 8970SOL     OW27808   2.915   2.946   0.571
 8970SOL    HW127809   2.992   2.959   0.508
 8970SOL    HW227810   2.914   3.020   0.638
 8971SOL     OW27811   4.827   5.355   1.817
 8971SOL    HW127812   4.879   5.405   1.748
 8971SOL    HW227813   4.800   5.418   1.890
 8972SOL     OW27814   4.796   4.867   6.190
 8972SOL    HW127815   4.771   4.799   6.122
 8972SOL    HW227816   4.714   4.897   6.238
 8973SOL     OW27817   0.872   3.123   1.951
 8973SOL    HW127818   0.951   3.133   1.891
 8973SOL    HW227819   0.900   3.078   2.036
 8974SOL     OW27820   1.920   4.504   5.554
 8974SOL    HW127821   1.858   4.429   5.532
 8974SOL    HW227822   1.923   4.516   5.654
 8975SOL     OW27823   2.341   0.180   6.518
 8975SOL    HW127824   2.407   0.203   6.446
 8975SOL    HW227825   2.390   0.162   6.604
 8976SOL     OW27826   0.243   4.972   4.866
 8976SOL    HW127827   0.237   5.056   4.812
 8976SOL    HW227828   0.172   4.973   4.937
 8977SOL     OW27829   5.534   1.451   0.082
 8977SOL    HW127830   5.596   1.473   0.006
 8977SOL    HW227831   5.500   1.358   0.071
 8978SOL     OW27832   5.463   0.106   6.356
 8978SOL    HW127833   5.413   0.158   6.287
 8978SOL    HW227834   5.441   0.009   6.347
 8979SOL     OW27835   1.396   3.285   4.889
 8979SOL    HW127836   1.384   3.197   4.843
 8979SOL    HW227837   1.431   3.271   4.981
 8980SOL     OW27838   2.361   3.084   5.431
 8980SOL    HW127839   2.289   3.018   5.454
 8980SOL    HW227840   2.406   3.056   5.346
 8981SOL     OW27841   3.826   1.532   5.201
 8981SOL    HW127842   3.877   1.530   5.115
 8981SOL    HW227843   3.862   1.606   5.259
 8982SOL     OW27844   2.009   1.739   0.539
 8982SOL    HW127845   2.043   1.772   0.451
 8982SOL    HW227846   1.934   1.676   0.525
 8983SOL     OW27847   1.831   6.237   6.474
 8983SOL    HW127848   1.784   6.207   6.556
 8983SOL    HW227849   1.872   6.158   6.428
 8984SOL     OW27850   0.722   6.896   4.271
 8984SOL    HW127851   0.660   6.862   4.200
 8984SOL    HW227852   0.816   6.871   4.248
 8985SOL     OW27853   2.963   3.212   0.425
 8985SOL    HW127854   2.938   3.242   0.333
 8985SOL    HW227855   2.880   3.187   0.475
 8986SOL     OW27856   4.146   5.501   2.566
 8986SOL    HW127857   4.183   5.589   2.536
 8986SOL    HW227858   4.053   5.491   2.533
 8987SOL     OW27859   4.649   6.975   1.848
 8987SOL    HW127860   4.716   0.028   1.860
 8987SOL    HW227861   4.644   6.951   1.751
 8988SOL     OW27862   1.051   4.460   4.822
 8988SOL    HW127863   1.023   4.367   4.797
 8988SOL    HW227864   1.143   4.458   4.859
 8989SOL     OW27865   4.972   3.196   0.456
 8989SOL    HW127866   5.071   3.184   0.451
 8989SOL    HW227867   4.944   3.199   0.552
 8990SOL     OW27868   1.618   5.622   5.127
 8990SOL    HW127869   1.641   5.679   5.049
 8990SOL    HW227870   1.661   5.532   5.117
 8991SOL     OW27871   1.199   2.701   5.335
 8991SOL    HW127872   1.252   2.651   5.403
 8991SOL    HW227873   1.244   2.693   5.246
 8992SOL     OW27874   4.982   1.308   0.399
 8992SOL    HW127875   4.936   1.393   0.423
 8992SOL    HW227876   4.956   1.237   0.464
 8993SOL     OW27877   5.089   2.587   1.533
 8993SOL    HW127878   5.129   2.580   1.442
 8993SOL    HW227879   5.147   2.539   1.599
 8994SOL     OW27880   0.963   3.595   5.013
 8994SOL    HW127881   0.878   3.621   5.058
 8994SOL    HW227882   1.020   3.676   5.001
 8995SOL     OW27883   1.479   2.691   0.060
 8995SOL    HW127884   1.535   2.665   0.138
 8995SOL    HW227885   1.500   2.786   0.033
 8996SOL     OW27886   5.105   4.514   6.922
 8996SOL    HW127887   5.144   4.426   6.949
 8996SOL    HW227888   5.074   4.508   6.827
 8997SOL     OW27889   5.301   1.779   6.122
 8997SOL    HW127890   5.265   1.791   6.030
 8997SOL    HW227891   5.327   1.683   6.135
 8998SOL     OW27892   6.247   3.512   3.849
 8998SOL    HW127893   6.170   3.473   3.797
 8998SOL    HW227894   6.321   3.535   3.787
 8999SOL     OW27895   4.835   6.391   6.283
 8999SOL    HW127896   4.902   6.442   6.229
 8999SOL    HW227897   4.761   6.361   6.224
 9000SOL     OW27898   1.810   3.403   1.658
 9000SOL    HW127899   1.892   3.443   1.700
 9000SOL    HW227900   1.802   3.307   1.686
 9001SOL     OW27901   1.074   5.271   2.390
 9001SOL    HW127902   1.104   5.263   2.485
 9001SOL    HW227903   1.148   5.244   2.329
 9002SOL     OW27904   1.458   5.242   5.288
 9002SOL    HW127905   1.388   5.175   5.265
 9002SOL    HW227906   1.465   5.250   5.388
 9003SOL     OW27907   5.986   3.568   1.465
 9003SOL    HW127908   5.917   3.629   1.427
 9003SOL    HW227909   5.967   3.474   1.438
 9004SOL     OW27910   4.269   5.809   0.877
 9004SOL    HW127911   4.248   5.830   0.972
 9004SOL    HW227912   4.328   5.729   0.872
 9005SOL     OW27913   6.438   2.514   4.607
 9005SOL    HW127914   6.536   2.514   4.629
 9005SOL    HW227915   6.404   2.420   4.605
 9006SOL     OW27916   2.286   5.482   1.093
 9006SOL    HW127917   2.354   5.511   1.026
 9006SOL    HW227918   2.324   5.489   1.185
 9007SOL     OW27919   3.436   0.960   3.217
 9007SOL    HW127920   3.347   0.986   3.181
 9007SOL    HW227921   3.433   0.958   3.316
 9008SOL     OW27922   1.234   5.734   3.707
 9008SOL    HW127923   1.316   5.677   3.710
 9008SOL    HW227924   1.153   5.678   3.723
 9009SOL     OW27925   2.761   6.220   0.639
 9009SOL    HW127926   2.753   6.257   0.547
 9009SOL    HW227927   2.849   6.247   0.678
 9010SOL     OW27928   1.072   6.364   4.047
 9010SOL    HW127929   1.167   6.353   4.077
 9010SOL    HW227930   1.037   6.276   4.015
 9011SOL     OW27931   4.706   1.539   1.457
 9011SOL    HW127932   4.731   1.496   1.544
 9011SOL    HW227933   4.741   1.632   1.455
 9012SOL     OW27934   1.808   4.476   0.404
 9012SOL    HW127935   1.855   4.515   0.484
 9012SOL    HW227936   1.875   4.460   0.331
 9013SOL     OW27937   0.451   6.866   5.558
 9013SOL    HW127938   0.411   6.956   5.539
 9013SOL    HW227939   0.535   6.878   5.611
 9014SOL     OW27940   0.206   2.219   0.927
 9014SOL    HW127941   0.263   2.214   1.008
 9014SOL    HW227942   0.110   2.201   0.953
 9015SOL     OW27943   4.646   2.224   1.801
 9015SOL    HW127944   4.563   2.170   1.814
 9015SOL    HW227945   4.686   2.245   1.890
 9016SOL     OW27946   0.083   6.765   6.338
 9016SOL    HW127947   0.108   6.672   6.313
 9016SOL    HW227948   0.165   6.823   6.338
 9017SOL     OW27949   4.575   1.573   3.838
 9017SOL    HW127950   4.654   1.609   3.790
 9017SOL    HW227951   4.504   1.643   3.844
 9018SOL     OW27952   3.127   2.906   6.640
 9018SOL    HW127953   3.082   2.946   6.560
 9018SOL    HW227954   3.212   2.862   6.611
 9019SOL     OW27955   1.304   5.185   2.255
 9019SOL    HW127956   1.380   5.223   2.307
 9019SOL    HW227957   1.292   5.237   2.171
 9020SOL     OW27958   6.995   3.962   0.774
 9020SOL    HW127959   0.041   3.888   0.763
 9020SOL    HW227960   0.019   4.040   0.819
 9021SOL     OW27961   6.804   0.260   3.637
 9021SOL    HW127962   6.852   0.229   3.719
 9021SOL    HW227963   6.863   0.322   3.585
 9022SOL     OW27964   3.199   1.250   6.751
 9022SOL    HW127965   3.206   1.349   6.764
 9022SOL    HW227966   3.123   1.215   6.805
 9023SOL     OW27967   3.476   2.871   2.493
 9023SOL    HW127968   3.393   2.816   2.495
 9023SOL    HW227969   3.495   2.905   2.586
 9024SOL     OW27970   0.997   3.946   5.261
 9024SOL    HW127971   0.973   3.861   5.306
 9024SOL    HW227972   1.042   4.007   5.326
 9025SOL     OW27973   0.955   5.491   1.075
 9025SOL    HW127974   1.024   5.498   1.003
 9025SOL    HW227975   0.923   5.583   1.099
 9026SOL     OW27976   3.667   2.933   0.990
 9026SOL    HW127977   3.733   3.001   1.021
 9026SOL    HW227978   3.699   2.891   0.905
 9027SOL     OW27979   1.192   3.029   2.972
 9027SOL    HW127980   1.266   3.056   3.033
 9027SOL    HW227981   1.168   2.933   2.988
 9028SOL     OW27982   3.145   2.944   5.175
 9028SOL    HW127983   3.242   2.930   5.155
 9028SOL    HW227984   3.135   3.013   5.247
 9029SOL     OW27985   3.790   6.732   4.687
 9029SOL    HW127986   3.692   6.725   4.706
 9029SOL    HW227987   3.832   6.794   4.753
 9030SOL     OW27988   2.809   2.088   3.163
 9030SOL    HW127989   2.811   1.995   3.127
 9030SOL    HW227990   2.723   2.132   3.137
 9031SOL     OW27991   3.929   6.126   4.604
 9031SOL    HW127992   4.004   6.063   4.583
 9031SOL    HW227993   3.842   6.078   4.594
 9032SOL     OW27994   3.935   3.966   0.943
 9032SOL    HW127995   3.930   4.066   0.944
 9032SOL    HW227996   3.941   3.932   1.037
 9033SOL     OW27997   6.740   4.034   3.077
 9033SOL    HW127998   6.748   4.103   3.005
 9033SOL    HW227999   6.644   4.018   3.098
 9034SOL     OW28000   3.179   6.235   4.443
 9034SOL    HW128001   3.171   6.332   4.422
 9034SOL    HW228002   3.238   6.223   4.523
 9035SOL     OW28003   2.524   4.308   0.151
 9035SOL    HW128004   2.439   4.315   0.099
 9035SOL    HW228005   2.526   4.378   0.222
 9036SOL     OW28006   2.171   2.892   5.431
 9036SOL    HW128007   2.081   2.876   5.391
 9036SOL    HW228008   2.229   2.811   5.416
 9037SOL     OW28009   1.044   3.884   5.010
 9037SOL    HW128010   1.028   3.886   5.109
 9037SOL    HW228011   1.142   3.883   4.992
 9038SOL     OW28012   4.402   0.810   6.498
 9038SOL    HW128013   4.321   0.835   6.551
 9038SOL    HW228014   4.374   0.758   6.417
 9039SOL     OW28015   2.376   5.542   5.624
 9039SOL    HW128016   2.385   5.493   5.711
 9039SOL    HW228017   2.314   5.620   5.636
 9040SOL     OW28018   3.067   2.150   2.510
 9040SOL    HW128019   2.986   2.173   2.455
 9040SOL    HW228020   3.145   2.135   2.449
 9041SOL     OW28021   1.298   1.893   1.664
 9041SOL    HW128022   1.394   1.869   1.654
 9041SOL    HW228023   1.241   1.823   1.620
 9042SOL     OW28024   3.820   6.473   4.624
 9042SOL    HW128025   3.832   6.572   4.632
 9042SOL    HW228026   3.866   6.428   4.701
 9043SOL     OW28027   1.768   0.890   6.486
 9043SOL    HW128028   1.823   0.904   6.569
 9043SOL    HW228029   1.674   0.917   6.504
 9044SOL     OW28030   6.582   0.061   0.702
 9044SOL    HW128031   6.578   6.998   0.756
 9044SOL    HW228032   6.526   0.132   0.745
 9045SOL     OW28033   3.338   1.752   2.651
 9045SOL    HW128034   3.363   1.700   2.569
 9045SOL    HW228035   3.309   1.689   2.723
 9046SOL     OW28036   3.502   4.153   2.778
 9046SOL    HW128037   3.590   4.119   2.745
 9046SOL    HW228038   3.499   4.146   2.878
 9047SOL     OW28039   1.960   3.826   5.267
 9047SOL    HW128040   1.935   3.872   5.352
 9047SOL    HW228041   2.055   3.848   5.245
 9048SOL     OW28042   5.484   2.962   5.258
 9048SOL    HW128043   5.579   2.992   5.252
 9048SOL    HW228044   5.471   2.909   5.342
 9049SOL     OW28045   3.715   6.338   6.083
 9049SOL    HW128046   3.761   6.419   6.046
 9049SOL    HW228047   3.631   6.321   6.032
 9050SOL     OW28048   1.143   3.345   0.934
 9050SOL    HW128049   1.064   3.388   0.978
 9050SOL    HW228050   1.133   3.351   0.835
 9051SOL     OW28051   3.546   7.012   1.445
 9051SOL    HW128052   3.451   7.003   1.476
 9051SOL    HW228053   3.592   0.062   1.499
 9052SOL     OW28054   2.409   2.072   3.525
 9052SOL    HW128055   2.488   2.014   3.505
 9052SOL    HW228056   2.367   2.042   3.611
 9053SOL     OW28057   1.924   1.382   2.642
 9053SOL    HW128058   1.982   1.425   2.573
 9053SOL    HW228059   1.975   1.312   2.691
 9054SOL     OW28060   2.922   5.860   3.649
 9054SOL    HW128061   2.925   5.852   3.748
 9054SOL    HW228062   3.009   5.827   3.610
 9055SOL     OW28063   6.136   2.823   4.610
 9055SOL    HW128064   6.162   2.846   4.704
 9055SOL    HW228065   6.047   2.863   4.590
 9056SOL     OW28066   1.267   2.522   1.614
 9056SOL    HW128067   1.169   2.522   1.633
 9056SOL    HW228068   1.295   2.611   1.578
 9057SOL     OW28069   4.887   3.055   5.772
 9057SOL    HW128070   4.803   3.023   5.729
 9057SOL    HW228071   4.955   3.076   5.701
 9058SOL     OW28072   1.895   0.840   1.864
 9058SOL    HW128073   1.969   0.892   1.908
 9058SOL    HW228074   1.849   0.783   1.931
 9059SOL     OW28075   1.739   1.774   3.243
 9059SOL    HW128076   1.737   1.750   3.146
 9059SOL    HW228077   1.645   1.788   3.276
 9060SOL     OW28078   6.375   3.013   4.364
 9060SOL    HW128079   6.446   3.028   4.294
 9060SOL    HW228080   6.306   2.951   4.328
 9061SOL     OW28081   2.320   5.588   2.194
 9061SOL    HW128082   2.386   5.629   2.257
 9061SOL    HW228083   2.240   5.647   2.185
 9062SOL     OW28084   1.443   6.613   2.598
 9062SOL    HW128085   1.358   6.644   2.639
 9062SOL    HW228086   1.425   6.578   2.506
 9063SOL     OW28087   3.571   0.427   4.312
 9063SOL    HW128088   3.519   0.512   4.305
 9063SOL    HW228089   3.535   0.372   4.387
 9064SOL     OW28090   5.867   2.220   5.808
 9064SOL    HW128091   5.939   2.255   5.868
 9064SOL    HW228092   5.778   2.250   5.841
 9065SOL     OW28093   3.814   0.979   7.003
 9065SOL    HW128094   3.793   1.005   0.077
 9065SOL    HW228095   3.766   1.041   6.941
 9066SOL     OW28096   5.567   6.416   0.595
 9066SOL    HW128097   5.497   6.351   0.565
 9066SOL    HW228098   5.636   6.367   0.649
 9067SOL     OW28099   0.999   0.531   4.365
 9067SOL    HW128100   1.092   0.566   4.352
 9067SOL    HW228101   0.937   0.576   4.300
 9068SOL     OW28102   1.486   6.379   4.278
 9068SOL    HW128103   1.487   6.363   4.179
 9068SOL    HW228104   1.439   6.303   4.323
 9069SOL     OW28105   1.441   2.878   1.850
 9069SOL    HW128106   1.507   2.813   1.812
 9069SOL    HW228107   1.387   2.832   1.920
 9070SOL     OW28108   1.670   3.618   5.220
 9070SOL    HW128109   1.660   3.567   5.305
 9070SOL    HW228110   1.742   3.575   5.165
 9071SOL     OW28111   6.451   6.686   1.752
 9071SOL    HW128112   6.512   6.727   1.685
 9071SOL    HW228113   6.408   6.604   1.713
 9072SOL     OW28114   0.640   2.082   1.020
 9072SOL    HW128115   0.580   2.077   1.100
 9072SOL    HW228116   0.733   2.056   1.047
 9073SOL     OW28117   2.621   6.944   2.652
 9073SOL    HW128118   2.635   6.845   2.651
 9073SOL    HW228119   2.525   6.964   2.668
 9074SOL     OW28120   1.108   0.560   2.579
 9074SOL    HW128121   1.031   0.560   2.515
 9074SOL    HW228122   1.167   0.482   2.561
 9075SOL     OW28123   0.071   1.386   2.214
 9075SOL    HW128124   0.147   1.437   2.255
 9075SOL    HW228125   0.094   1.361   2.120
 9076SOL     OW28126   6.976   1.659   6.553
 9076SOL    HW128127   6.974   1.575   6.607
 9076SOL    HW228128   6.904   1.657   6.484
 9077SOL     OW28129   4.916   0.414   1.134
 9077SOL    HW128130   4.925   0.328   1.083
 9077SOL    HW228131   4.988   0.477   1.105
 9078SOL     OW28132   3.418   3.442   4.975
 9078SOL    HW128133   3.379   3.512   4.915
 9078SOL    HW228134   3.405   3.352   4.932
 9079SOL     OW28135   2.423   0.693   4.678
 9079SOL    HW128136   2.425   0.793   4.671
 9079SOL    HW228137   2.497   0.662   4.737
 9080SOL     OW28138   4.736   2.498   6.846
 9080SOL    HW128139   4.833   2.518   6.832
 9080SOL    HW228140   4.699   2.454   6.765
 9081SOL     OW28141   4.315   0.046   2.390
 9081SOL    HW128142   4.356   0.020   2.303
 9081SOL    HW228143   4.317   0.146   2.399
 9082SOL     OW28144   2.337   0.564   5.273
 9082SOL    HW128145   2.252   0.613   5.253
 9082SOL    HW228146   2.341   0.544   5.371
 9083SOL     OW28147   3.561   4.997   6.009
 9083SOL    HW128148   3.561   5.068   6.080
 9083SOL    HW228149   3.616   5.028   5.932
 9084SOL     OW28150   3.275   3.999   3.073
 9084SOL    HW128151   3.218   4.000   3.156
 9084SOL    HW228152   3.217   4.016   2.994
 9085SOL     OW28153   2.539   0.296   0.918
 9085SOL    HW128154   2.614   0.362   0.903
 9085SOL    HW228155   2.542   0.265   1.013
 9086SOL     OW28156   0.581   4.274   0.227
 9086SOL    HW128157   0.596   4.235   0.137
 9086SOL    HW228158   0.658   4.252   0.287
 9087SOL     OW28159   4.681   2.406   1.226
 9087SOL    HW128160   4.695   2.503   1.243
 9087SOL    HW228161   4.742   2.376   1.152
 9088SOL     OW28162   6.519   6.798   1.127
 9088SOL    HW128163   6.527   6.840   1.218
 9088SOL    HW228164   6.439   6.738   1.125
 9089SOL     OW28165   5.179   6.522   5.728
 9089SOL    HW128166   5.257   6.575   5.762
 9089SOL    HW228167   5.174   6.530   5.628
 9090SOL     OW28168   5.756   1.028   5.565
 9090SOL    HW128169   5.705   1.087   5.502
 9090SOL    HW228170   5.712   0.938   5.569
 9091SOL     OW28171   3.027   3.823   6.605
 9091SOL    HW128172   2.975   3.874   6.672
 9091SOL    HW228173   2.969   3.752   6.564
 9092SOL     OW28174   6.785   0.771   6.897
 9092SOL    HW128175   6.688   0.788   6.910
 9092SOL    HW228176   6.833   0.779   6.984
 9093SOL     OW28177   1.440   6.447   5.237
 9093SOL    HW128178   1.363   6.510   5.241
 9093SOL    HW228179   1.525   6.498   5.221
 9094SOL     OW28180   6.268   4.234   2.955
 9094SOL    HW128181   6.249   4.147   3.002
 9094SOL    HW228182   6.330   4.289   3.011
 9095SOL     OW28183   4.472   4.552   6.172
 9095SOL    HW128184   4.377   4.531   6.195
 9095SOL    HW228185   4.485   4.546   6.073
 9096SOL     OW28186   6.358   5.510   2.877
 9096SOL    HW128187   6.392   5.425   2.917
 9096SOL    HW228188   6.378   5.586   2.939
 9097SOL     OW28189   2.440   2.039   0.146
 9097SOL    HW128190   2.381   2.042   0.065
 9097SOL    HW228191   2.438   2.128   0.191
 9098SOL     OW28192   2.816   1.853   5.268
 9098SOL    HW128193   2.872   1.896   5.339
 9098SOL    HW228194   2.872   1.834   5.188
 9099SOL     OW28195   2.471   3.327   6.505
 9099SOL    HW128196   2.473   3.336   6.405
 9099SOL    HW228197   2.401   3.260   6.531
 9100SOL     OW28198   0.868   3.560   2.977
 9100SOL    HW128199   0.852   3.505   2.895
 9100SOL    HW228200   0.951   3.528   3.023
 9101SOL     OW28201   2.760   1.517   2.375
 9101SOL    HW128202   2.673   1.513   2.425
 9101SOL    HW228203   2.813   1.596   2.407
 9102SOL     OW28204   3.151   6.696   1.859
 9102SOL    HW128205   3.116   6.640   1.934
 9102SOL    HW228206   3.178   6.637   1.783
 9103SOL     OW28207   5.165   1.422   0.197
 9103SOL    HW128208   5.094   1.386   0.258
 9103SOL    HW228209   5.206   1.503   0.239
 9104SOL     OW28210   6.906   6.529   1.587
 9104SOL    HW128211   6.974   6.603   1.595
 9104SOL    HW228212   6.887   6.492   1.677
 9105SOL     OW28213   1.444   0.239   5.340
 9105SOL    HW128214   1.421   0.141   5.331
 9105SOL    HW228215   1.430   0.285   5.253
 9106SOL     OW28216   0.131   3.169   0.556
 9106SOL    HW128217   0.109   3.071   0.549
 9106SOL    HW228218   0.210   3.180   0.617
 9107SOL     OW28219   1.923   0.979   6.699
 9107SOL    HW128220   1.968   1.068   6.703
 9107SOL    HW228221   1.869   0.965   6.782
 9108SOL     OW28222   4.440   3.946   5.722
 9108SOL    HW128223   4.453   3.872   5.787
 9108SOL    HW228224   4.361   4.001   5.749
 9109SOL     OW28225   4.787   3.011   3.306
 9109SOL    HW128226   4.759   2.935   3.247
 9109SOL    HW228227   4.813   3.089   3.249
 9110SOL     OW28228   1.193   5.623   4.172
 9110SOL    HW128229   1.245   5.706   4.194
 9110SOL    HW228230   1.141   5.594   4.252
 9111SOL     OW28231   4.558   2.880   6.649
 9111SOL    HW128232   4.518   2.808   6.593
 9111SOL    HW228233   4.596   2.951   6.589
 9112SOL     OW28234   1.329   5.016   2.690
 9112SOL    HW128235   1.340   4.990   2.594
 9112SOL    HW228236   1.242   4.981   2.724
 9113SOL     OW28237   4.974   2.705   3.720
 9113SOL    HW128238   4.976   2.605   3.716
 9113SOL    HW228239   5.066   2.741   3.703
 9114SOL     OW28240   0.824   5.593   4.031
 9114SOL    HW128241   0.825   5.646   4.116
 9114SOL    HW228242   0.732   5.593   3.992
 9115SOL     OW28243   6.214   5.548   4.656
 9115SOL    HW128244   6.117   5.523   4.646
 9115SOL    HW228245   6.241   5.537   4.752
 9116SOL     OW28246   6.579   0.119   3.035
 9116SOL    HW128247   6.666   0.146   2.993
 9116SOL    HW228248   6.567   0.169   3.121
 9117SOL     OW28249   4.418   1.696   6.656
 9117SOL    HW128250   4.449   1.764   6.589
 9117SOL    HW228251   4.459   1.607   6.634
 9118SOL     OW28252   6.346   3.567   7.003
 9118SOL    HW128253   6.348   3.664   6.978
 9118SOL    HW228254   6.283   3.554   0.059
 9119SOL     OW28255   4.152   0.358   1.548
 9119SOL    HW128256   4.100   0.273   1.556
 9119SOL    HW228257   4.245   0.337   1.518
 9120SOL     OW28258   6.438   2.952   5.731
 9120SOL    HW128259   6.477   3.001   5.809
 9120SOL    HW228260   6.456   3.003   5.647
 9121SOL     OW28261   3.935   6.690   5.605
 9121SOL    HW128262   3.991   6.731   5.678
 9121SOL    HW228263   3.944   6.746   5.523
 9122SOL     OW28264   2.169   4.008   2.139
 9122SOL    HW128265   2.220   4.057   2.069
 9122SOL    HW228266   2.108   4.071   2.186
 9123SOL     OW28267   1.325   0.550   3.802
 9123SOL    HW128268   1.226   0.567   3.809
 9123SOL    HW228269   1.375   0.635   3.817
 9124SOL     OW28270   4.025   5.270   1.693
 9124SOL    HW128271   3.960   5.222   1.752
 9124SOL    HW228272   4.118   5.239   1.712
 9125SOL     OW28273   3.850   4.485   1.013
 9125SOL    HW128274   3.814   4.572   0.979
 9125SOL    HW228275   3.811   4.465   1.103
 9126SOL     OW28276   4.905   4.014   0.673
 9126SOL    HW128277   4.999   4.042   0.694
 9126SOL    HW228278   4.904   3.919   0.643
 9127SOL     OW28279   6.863   2.847   4.506
 9127SOL    HW128280   6.763   2.849   4.509
 9127SOL    HW228281   6.899   2.892   4.588
 9128SOL     OW28282   6.720   2.625   4.680
 9128SOL    HW128283   6.732   2.715   4.723
 9128SOL    HW228284   6.769   2.623   4.593
 9129SOL     OW28285   1.675   2.315   0.739
 9129SOL    HW128286   1.597   2.252   0.748
 9129SOL    HW228287   1.693   2.357   0.829
 9130SOL     OW28288   0.908   4.440   6.084
 9130SOL    HW128289   0.832   4.375   6.084
 9130SOL    HW228290   0.964   4.427   6.166
 9131SOL     OW28291   5.614   2.735   7.020
 9131SOL    HW128292   5.521   2.698   7.012
 9131SOL    HW228293   5.640   2.737   0.096
 9132SOL     OW28294   0.682   4.885   4.179
 9132SOL    HW128295   0.763   4.880   4.121
 9132SOL    HW228296   0.709   4.870   4.274
 9133SOL     OW28297   2.933   0.669   1.290
 9133SOL    HW128298   3.002   0.621   1.344
 9133SOL    HW228299   2.966   0.760   1.266
 9134SOL     OW28300   4.140   5.304   0.716
 9134SOL    HW128301   4.235   5.274   0.715
 9134SOL    HW228302   4.127   5.377   0.648
 9135SOL     OW28303   1.122   6.446   1.536
 9135SOL    HW128304   1.209   6.492   1.555
 9135SOL    HW228305   1.057   6.468   1.608
 9136SOL     OW28306   4.508   5.229   5.826
 9136SOL    HW128307   4.421   5.276   5.814
 9136SOL    HW228308   4.582   5.287   5.792
 9137SOL     OW28309   4.772   6.251   5.673
 9137SOL    HW128310   4.831   6.226   5.750
 9137SOL    HW228311   4.794   6.192   5.595
 9138SOL     OW28312   2.302   2.976   0.886
 9138SOL    HW128313   2.216   2.985   0.835
 9138SOL    HW228314   2.293   2.903   0.954
 9139SOL     OW28315   0.906   1.210   1.385
 9139SOL    HW128316   0.956   1.161   1.314
 9139SOL    HW228317   0.857   1.144   1.442
 9140SOL     OW28318   0.173   4.604   1.688
 9140SOL    HW128319   0.097   4.664   1.662
 9140SOL    HW228320   0.253   4.626   1.631
 9141SOL     OW28321   6.914   5.583   6.676
 9141SOL    HW128322   6.992   5.645   6.675
 9141SOL    HW228323   6.891   5.560   6.771
 9142SOL     OW28324   0.373   2.789   2.412
 9142SOL    HW128325   0.447   2.755   2.354
 9142SOL    HW228326   0.324   2.863   2.366
 9143SOL     OW28327   0.103   3.582   1.496
 9143SOL    HW128328   0.004   3.589   1.484
 9143SOL    HW228329   0.148   3.599   1.409
 9144SOL     OW28330   2.908   4.821   4.764
 9144SOL    HW128331   2.903   4.757   4.840
 9144SOL    HW228332   2.950   4.776   4.685
 9145SOL     OW28333   1.366   0.109   6.345
 9145SOL    HW128334   1.345   0.012   6.358
 9145SOL    HW228335   1.465   0.122   6.340
 9146SOL     OW28336   6.102   3.053   3.458
 9146SOL    HW128337   6.156   2.976   3.424
 9146SOL    HW228338   6.029   3.019   3.517
 9147SOL     OW28339   5.906   0.381   4.907
 9147SOL    HW128340   5.999   0.374   4.942
 9147SOL    HW228341   5.905   0.441   4.827
 9148SOL     OW28342   6.028   0.404   1.991
 9148SOL    HW128343   5.935   0.426   2.020
 9148SOL    HW228344   6.092   0.470   2.031
 9149SOL     OW28345   5.610   2.800   2.089
 9149SOL    HW128346   5.569   2.761   2.007
 9149SOL    HW228347   5.710   2.801   2.080
 9150SOL     OW28348   3.093   4.664   0.184
 9150SOL    HW128349   3.173   4.638   0.130
 9150SOL    HW228350   3.099   4.625   0.275
 9151SOL     OW28351   2.200   3.982   3.917
 9151SOL    HW128352   2.133   3.908   3.910
 9151SOL    HW228353   2.236   3.985   4.010
 9152SOL     OW28354   1.972   4.028   4.106
 9152SOL    HW128355   1.917   4.093   4.053
 9152SOL    HW228356   1.976   3.941   4.057
 9153SOL     OW28357   0.554   2.650   6.391
 9153SOL    HW128358   0.636   2.663   6.446
 9153SOL    HW228359   0.568   2.575   6.327
 9154SOL     OW28360   5.624   5.145   3.099
 9154SOL    HW128361   5.553   5.106   3.158
 9154SOL    HW228362   5.644   5.239   3.128
 9155SOL     OW28363   1.974   5.044   2.078
 9155SOL    HW128364   2.042   5.088   2.019
 9155SOL    HW228365   2.021   4.987   2.146
 9156SOL     OW28366   6.950   3.124   1.212
 9156SOL    HW128367   6.857   3.131   1.247
 9156SOL    HW228368   6.995   3.213   1.219
 9157SOL     OW28369   3.323   3.979   6.373
 9157SOL    HW128370   3.277   3.895   6.347
 9157SOL    HW228371   3.303   4.001   6.469
 9158SOL     OW28372   6.650   4.051   3.860
 9158SOL    HW128373   6.622   4.016   3.950
 9158SOL    HW228374   6.724   4.117   3.872
 9159SOL     OW28375   2.634   6.994   3.325
 9159SOL    HW128376   2.724   0.015   3.337
 9159SOL    HW228377   2.589   0.015   3.245
 9160SOL     OW28378   0.687   4.907   0.009
 9160SOL    HW128379   0.764   4.957   6.991
 9160SOL    HW228380   0.683   4.815   6.990
 9161SOL     OW28381   5.770   4.020   2.016
 9161SOL    HW128382   5.750   4.099   2.073
 9161SOL    HW228383   5.863   4.028   1.979
 9162SOL     OW28384   4.151   1.559   2.386
 9162SOL    HW128385   4.249   1.580   2.387
 9162SOL    HW228386   4.119   1.548   2.480
 9163SOL     OW28387   0.036   2.227   1.903
 9163SOL    HW128388   0.038   2.327   1.891
 9163SOL    HW228389   0.056   2.205   1.998
 9164SOL     OW28390   2.515   0.193   6.735
 9164SOL    HW128391   2.434   0.172   6.790
 9164SOL    HW228392   2.566   0.268   6.777
 9165SOL     OW28393   4.652   2.231   5.748
 9165SOL    HW128394   4.568   2.263   5.704
 9165SOL    HW228395   4.713   2.194   5.678
 9166SOL     OW28396   4.137   5.636   1.424
 9166SOL    HW128397   4.137   5.621   1.523
 9166SOL    HW228398   4.226   5.670   1.395
 9167SOL     OW28399   0.842   2.200   6.134
 9167SOL    HW128400   0.873   2.108   6.155
 9167SOL    HW228401   0.840   2.212   6.034
 9168SOL     OW28402   6.276   4.872   5.951
 9168SOL    HW128403   6.322   4.847   5.866
 9168SOL    HW228404   6.214   4.798   5.978
 9169SOL     OW28405   6.429   6.333   6.585
 9169SOL    HW128406   6.340   6.378   6.595
 9169SOL    HW228407   6.499   6.402   6.568
 9170SOL     OW28408   1.624   1.563   5.633
 9170SOL    HW128409   1.531   1.591   5.656
 9170SOL    HW228410   1.673   1.538   5.716
 9171SOL     OW28411   2.849   5.001   0.692
 9171SOL    HW128412   2.936   4.981   0.737
 9171SOL    HW228413   2.824   4.924   0.633
 9172SOL     OW28414   4.574   1.293   4.755
 9172SOL    HW128415   4.512   1.236   4.702
 9172SOL    HW228416   4.534   1.384   4.768
 9173SOL     OW28417   6.689   2.377   3.653
 9173SOL    HW128418   6.685   2.476   3.671
 9173SOL    HW228419   6.785   2.350   3.640
 9174SOL     OW28420   0.703   6.213   0.367
 9174SOL    HW128421   0.648   6.214   0.450
 9174SOL    HW228422   0.787   6.265   0.382
 9175SOL     OW28423   1.621   6.916   0.194
 9175SOL    HW128424   1.623   6.993   0.130
 9175SOL    HW228425   1.631   6.949   0.287
 9176SOL     OW28426   2.149   1.206   2.992
 9176SOL    HW128427   2.181   1.112   2.982
 9176SOL    HW228428   2.215   1.268   2.951
 9177SOL     OW28429   0.855   3.339   3.672
 9177SOL    HW128430   0.866   3.433   3.639
 9177SOL    HW228431   0.917   3.279   3.621
 9178SOL     OW28432   2.262   6.499   6.506
 9178SOL    HW128433   2.170   6.485   6.470
 9178SOL    HW228434   2.273   6.446   6.591
 9179SOL     OW28435   3.323   6.059   5.598
 9179SOL    HW128436   3.342   6.018   5.509
 9179SOL    HW228437   3.296   6.155   5.585
 9180SOL     OW28438   6.872   2.175   4.136
 9180SOL    HW128439   6.778   2.166   4.170
 9180SOL    HW228440   6.935   2.181   4.213
 9181SOL     OW28441   4.445   2.030   3.562
 9181SOL    HW128442   4.370   1.983   3.516
 9181SOL    HW228443   4.461   2.119   3.518
 9182SOL     OW28444   1.748   0.959   3.116
 9182SOL    HW128445   1.689   1.032   3.082
 9182SOL    HW228446   1.712   0.926   3.203
 9183SOL     OW28447   5.028   2.527   6.798
 9183SOL    HW128448   5.034   2.428   6.793
 9183SOL    HW228449   5.060   2.558   6.888
 9184SOL     OW28450   3.404   2.881   0.856
 9184SOL    HW128451   3.488   2.907   0.903
 9184SOL    HW228452   3.377   2.789   0.883
 9185SOL     OW28453   0.149   0.166   6.295
 9185SOL    HW128454   0.114   0.225   6.223
 9185SOL    HW228455   0.214   0.100   6.257
 9186SOL     OW28456   4.563   0.478   6.166
 9186SOL    HW128457   4.653   0.509   6.198
 9186SOL    HW228458   4.567   0.380   6.145
 9187SOL     OW28459   4.793   2.068   6.783
 9187SOL    HW128460   4.709   2.090   6.832
 9187SOL    HW228461   4.833   1.984   6.821
 9188SOL     OW28462   1.533   0.312   0.931
 9188SOL    HW128463   1.493   0.401   0.954
 9188SOL    HW228464   1.469   0.239   0.956
 9189SOL     OW28465   2.916   1.440   2.799
 9189SOL    HW128466   2.923   1.341   2.813
 9189SOL    HW228467   2.972   1.467   2.720
 9190SOL     OW28468   5.769   3.716   5.258
 9190SOL    HW128469   5.669   3.710   5.266
 9190SOL    HW228470   5.800   3.650   5.189
 9191SOL     OW28471   5.207   6.567   6.747
 9191SOL    HW128472   5.273   6.514   6.800
 9191SOL    HW228473   5.249   6.653   6.718
 9192SOL     OW28474   6.548   4.188   5.517
 9192SOL    HW128475   6.636   4.142   5.533
 9192SOL    HW228476   6.563   4.268   5.459
 9193SOL     OW28477   3.400   3.170   3.967
 9193SOL    HW128478   3.313   3.220   3.958
 9193SOL    HW228479   3.385   3.087   4.022
 9194SOL     OW28480   3.401   6.180   2.295
 9194SOL    HW128481   3.319   6.158   2.243
 9194SOL    HW228482   3.475   6.119   2.267
 9195SOL     OW28483   0.596   2.932   3.467
 9195SOL    HW128484   0.621   3.015   3.518
 9195SOL    HW228485   0.677   2.897   3.420
 9196SOL     OW28486   3.371   0.856   3.890
 9196SOL    HW128487   3.346   0.780   3.829
 9196SOL    HW228488   3.326   0.844   3.978
 9197SOL     OW28489   2.535   3.627   0.061
 9197SOL    HW128490   2.545   3.612   6.983
 9197SOL    HW228491   2.547   3.724   0.081
 9198SOL     OW28492   5.649   4.544   5.729
 9198SOL    HW128493   5.611   4.510   5.814
 9198SOL    HW228494   5.595   4.512   5.652
 9199SOL     OW28495   1.333   4.080   5.793
 9199SOL    HW128496   1.330   4.140   5.873
 9199SOL    HW228497   1.290   3.992   5.815
 9200SOL     OW28498   0.206   6.295   0.852
 9200SOL    HW128499   0.127   6.337   0.898
 9200SOL    HW228500   0.207   6.324   0.757
 9201SOL     OW28501   0.167   4.155   1.942
 9201SOL    HW128502   0.218   4.241   1.937
 9201SOL    HW228503   0.097   4.154   1.870
 9202SOL     OW28504   1.970   4.925   4.283
 9202SOL    HW128505   1.915   4.983   4.343
 9202SOL    HW228506   1.913   4.895   4.206
 9203SOL     OW28507   5.191   1.547   6.709
 9203SOL    HW128508   5.273   1.550   6.652
 9203SOL    HW228509   5.210   1.492   6.791
 9204SOL     OW28510   5.597   3.992   2.829
 9204SOL    HW128511   5.587   4.090   2.842
 9204SOL    HW228512   5.633   3.950   2.912
 9205SOL     OW28513   5.202   3.273   2.509
 9205SOL    HW128514   5.165   3.344   2.568
 9205SOL    HW228515   5.130   3.238   2.449
 9206SOL     OW28516   2.422   6.681   4.155
 9206SOL    HW128517   2.359   6.642   4.222
 9206SOL    HW228518   2.472   6.608   4.109
 9207SOL     OW28519   4.073   6.593   6.122
 9207SOL    HW128520   4.150   6.645   6.086
 9207SOL    HW228521   4.056   6.620   6.217
 9208SOL     OW28522   4.982   3.317   2.307
 9208SOL    HW128523   4.938   3.228   2.290
 9208SOL    HW228524   5.050   3.334   2.236
 9209SOL     OW28525   4.388   0.971   2.576
 9209SOL    HW128526   4.307   0.982   2.633
 9209SOL    HW228527   4.391   0.878   2.540
 9210SOL     OW28528   2.180   6.480   1.510
 9210SOL    HW128529   2.110   6.551   1.508
 9210SOL    HW228530   2.269   6.521   1.528
 9211SOL     OW28531   5.409   1.519   6.102
 9211SOL    HW128532   5.330   1.487   6.048
 9211SOL    HW228533   5.492   1.513   6.046
 9212SOL     OW28534   4.501   4.528   4.516
 9212SOL    HW128535   4.486   4.511   4.613
 9212SOL    HW228536   4.431   4.592   4.482
 9213SOL     OW28537   5.715   0.051   4.594
 9213SOL    HW128538   5.808   0.061   4.629
 9213SOL    HW228539   5.698   0.122   4.525
 9214SOL     OW28540   1.672   2.776   4.450
 9214SOL    HW128541   1.721   2.779   4.538
 9214SOL    HW228542   1.652   2.681   4.427
 9215SOL     OW28543   0.182   3.935   2.448
 9215SOL    HW128544   0.095   3.929   2.497
 9215SOL    HW228545   0.204   3.846   2.409
 9216SOL     OW28546   2.557   6.036   4.719
 9216SOL    HW128547   2.540   5.938   4.733
 9216SOL    HW228548   2.619   6.048   4.642
 9217SOL     OW28549   5.135   1.303   6.228
 9217SOL    HW128550   5.123   1.281   6.325
 9217SOL    HW228551   5.066   1.255   6.174
 9218SOL     OW28552   5.463   0.033   0.097
 9218SOL    HW128553   5.407   7.000   0.033
 9218SOL    HW228554   5.408   0.059   0.176
 9219SOL     OW28555   3.746   3.118   5.533
 9219SOL    HW128556   3.837   3.109   5.572
 9219SOL    HW228557   3.749   3.097   5.435
 9220SOL     OW28558   2.300   6.468   3.115
 9220SOL    HW128559   2.209   6.505   3.131
 9220SOL    HW228560   2.367   6.541   3.118
 9221SOL     OW28561   2.815   0.336   5.995
 9221SOL    HW128562   2.851   0.273   6.064
 9221SOL    HW228563   2.806   0.427   6.036
 9222SOL     OW28564   2.120   4.407   3.925
 9222SOL    HW128565   2.142   4.487   3.980
 9222SOL    HW228566   2.169   4.328   3.959
 9223SOL     OW28567   1.325   4.016   4.529
 9223SOL    HW128568   1.372   4.037   4.443
 9223SOL    HW228569   1.392   4.008   4.603
 9224SOL     OW28570   1.350   4.318   4.037
 9224SOL    HW128571   1.331   4.301   3.941
 9224SOL    HW228572   1.267   4.306   4.091
 9225SOL     OW28573   3.814   6.617   6.041
 9225SOL    HW128574   3.912   6.625   6.061
 9225SOL    HW228575   3.776   6.709   6.026
 9226SOL     OW28576   1.000   6.718   0.763
 9226SOL    HW128577   1.046   6.737   0.676
 9226SOL    HW228578   0.910   6.679   0.745
 9227SOL     OW28579   1.832   5.588   0.907
 9227SOL    HW128580   1.913   5.613   0.855
 9227SOL    HW228581   1.858   5.534   0.987
 9228SOL     OW28582   1.916   2.616   5.571
 9228SOL    HW128583   1.938   2.545   5.637
 9228SOL    HW228584   1.973   2.696   5.588
 9229SOL     OW28585   0.951   4.565   0.139
 9229SOL    HW128586   1.020   4.632   0.111
 9229SOL    HW228587   0.905   4.597   0.222
 9230SOL     OW28588   5.579   2.618   4.419
 9230SOL    HW128589   5.489   2.605   4.377
 9230SOL    HW228590   5.575   2.695   4.483
 9231SOL     OW28591   0.457   4.851   5.538
 9231SOL    HW128592   0.491   4.869   5.631
 9231SOL    HW228593   0.534   4.853   5.474
 9232SOL     OW28594   1.994   5.254   1.691
 9232SOL    HW128595   1.931   5.176   1.689
 9232SOL    HW228596   2.002   5.288   1.784
 9233SOL     OW28597   0.538   6.240   0.582
 9233SOL    HW128598   0.468   6.304   0.550
 9233SOL    HW228599   0.504   6.192   0.663
 9234SOL     OW28600   2.242   5.112   1.251
 9234SOL    HW128601   2.153   5.066   1.249
 9234SOL    HW228602   2.230   5.206   1.283
 9235SOL     OW28603   2.326   2.572   3.442
 9235SOL    HW128604   2.283   2.482   3.442
 9235SOL    HW228605   2.379   2.584   3.358
 9236SOL     OW28606   1.813   3.625   0.042
 9236SOL    HW128607   1.801   3.681   6.980
 9236SOL    HW228608   1.908   3.594   0.048
 9237SOL     OW28609   6.223   5.587   3.282
 9237SOL    HW128610   6.307   5.582   3.228
 9237SOL    HW228611   6.209   5.681   3.314
 9238SOL     OW28612   1.891   3.265   5.304
 9238SOL    HW128613   1.854   3.189   5.356
 9238SOL    HW228614   1.991   3.267   5.313
 9239SOL     OW28615   6.855   4.488   0.116
 9239SOL    HW128616   6.822   4.407   0.164
 9239SOL    HW228617   6.845   4.568   0.175
 9240SOL     OW28618   4.878   3.215   3.140
 9240SOL    HW128619   4.971   3.182   3.124
 9240SOL    HW228620   4.870   3.309   3.106
 9241SOL     OW28621   0.242   5.892   0.070
 9241SOL    HW128622   0.158   5.840   0.081
 9241SOL    HW228623   0.243   5.968   0.134
 9242SOL     OW28624   2.018   2.178   2.286
 9242SOL    HW128625   2.012   2.241   2.209
 9242SOL    HW228626   1.962   2.212   2.362
 9243SOL     OW28627   0.715   6.807   1.926
 9243SOL    HW128628   0.812   6.793   1.943
 9243SOL    HW228629   0.704   6.871   1.849
 9244SOL     OW28630   3.375   6.165   5.330
 9244SOL    HW128631   3.458   6.205   5.369
 9244SOL    HW228632   3.390   6.147   5.233
 9245SOL     OW28633   1.018   3.944   3.408
 9245SOL    HW128634   1.031   3.969   3.312
 9245SOL    HW228635   0.993   4.025   3.460
 9246SOL     OW28636   5.979   0.088   4.712
 9246SOL    HW128637   6.032   0.010   4.678
 9246SOL    HW228638   6.040   0.153   4.757
 9247SOL     OW28639   3.599   5.606   2.966
 9247SOL    HW128640   3.543   5.664   3.025
 9247SOL    HW228641   3.660   5.662   2.911
 9248SOL     OW28642   2.658   1.513   4.742
 9248SOL    HW128643   2.581   1.450   4.752
 9248SOL    HW228644   2.743   1.461   4.749
 9249SOL     OW28645   3.788   4.858   1.826
 9249SOL    HW128646   3.759   4.936   1.770
 9249SOL    HW228647   3.711   4.795   1.836
 9250SOL     OW28648   6.812   4.964   4.126
 9250SOL    HW128649   6.785   4.980   4.221
 9250SOL    HW228650   6.828   4.867   4.111
 9251SOL     OW28651   4.119   2.784   1.452
 9251SOL    HW128652   4.115   2.812   1.548
 9251SOL    HW228653   4.049   2.714   1.435
 9252SOL     OW28654   4.179   0.335   5.105
 9252SOL    HW128655   4.160   0.427   5.140
 9252SOL    HW228656   4.102   0.275   5.126
 9253SOL     OW28657   6.582   5.091   5.711
 9253SOL    HW128658   6.489   5.115   5.736
 9253SOL    HW228659   6.644   5.111   5.788
 9254SOL     OW28660   5.707   4.487   2.629
 9254SOL    HW128661   5.798   4.492   2.588
 9254SOL    HW228662   5.651   4.420   2.580
 9255SOL     OW28663   6.477   3.655   6.557
 9255SOL    HW128664   6.386   3.665   6.516
 9255SOL    HW228665   6.476   3.579   6.622
 9256SOL     OW28666   1.931   0.115   1.687
 9256SOL    HW128667   1.946   0.125   1.588
 9256SOL    HW228668   2.005   0.061   1.727
 9257SOL     OW28669   5.987   5.435   3.501
 9257SOL    HW128670   6.027   5.473   3.585
 9257SOL    HW228671   6.057   5.435   3.429
 9258SOL     OW28672   3.268   3.435   0.211
 9258SOL    HW128673   3.263   3.534   0.195
 9258SOL    HW228674   3.240   3.415   0.305
 9259SOL     OW28675   1.782   1.814   6.480
 9259SOL    HW128676   1.702   1.810   6.420
 9259SOL    HW228677   1.776   1.741   6.548
 9260SOL     OW28678   6.056   2.997   5.692
 9260SOL    HW128679   5.965   2.988   5.652
 9260SOL    HW228680   6.108   3.067   5.644
 9261SOL     OW28681   4.078   1.149   0.581
 9261SOL    HW128682   4.163   1.106   0.613
 9261SOL    HW228683   4.078   1.245   0.607
 9262SOL     OW28684   0.242   6.557   4.610
 9262SOL    HW128685   0.248   6.564   4.511
 9262SOL    HW228686   0.322   6.602   4.652
 9263SOL     OW28687   3.370   5.623   2.701
 9263SOL    HW128688   3.315   5.609   2.783
 9263SOL    HW228689   3.345   5.711   2.660
 9264SOL     OW28690   5.595   3.904   6.310
 9264SOL    HW128691   5.533   3.982   6.315
 9264SOL    HW228692   5.570   3.846   6.233
 9265SOL     OW28693   3.829   2.077   6.678
 9265SOL    HW128694   3.794   2.155   6.627
 9265SOL    HW228695   3.891   2.023   6.620
 9266SOL     OW28696   0.296   5.041   1.753
 9266SOL    HW128697   0.393   5.061   1.739
 9266SOL    HW228698   0.283   4.993   1.839
 9267SOL     OW28699   0.533   1.612   3.858
 9267SOL    HW128700   0.450   1.668   3.870
 9267SOL    HW228701   0.598   1.634   3.931
 9268SOL     OW28702   0.496   6.528   1.962
 9268SOL    HW128703   0.563   6.502   2.031
 9268SOL    HW228704   0.536   6.596   1.901
 9269SOL     OW28705   5.106   0.387   0.171
 9269SOL    HW128706   5.007   0.391   0.163
 9269SOL    HW228707   5.148   0.423   0.088
 9270SOL     OW28708   3.565   1.505   6.178
 9270SOL    HW128709   3.618   1.540   6.100
 9270SOL    HW228710   3.484   1.561   6.192
 9271SOL     OW28711   1.325   0.385   6.695
 9271SOL    HW128712   1.244   0.354   6.746
 9271SOL    HW228713   1.306   0.382   6.597
 9272SOL     OW28714   0.249   6.451   5.977
 9272SOL    HW128715   0.181   6.502   5.925
 9272SOL    HW228716   0.266   6.363   5.932
 9273SOL     OW28717   5.210   5.786   4.185
 9273SOL    HW128718   5.180   5.877   4.155
 9273SOL    HW228719   5.131   5.726   4.195
 9274SOL     OW28720   0.525   3.173   0.320
 9274SOL    HW128721   0.425   3.172   0.323
 9274SOL    HW228722   0.556   3.246   0.260
 9275SOL     OW28723   0.770   6.582   0.659
 9275SOL    HW128724   0.710   6.532   0.722
 9275SOL    HW228725   0.727   6.590   0.570
 9276SOL     OW28726   3.492   4.641   6.739
 9276SOL    HW128727   3.510   4.731   6.778
 9276SOL    HW228728   3.493   4.647   6.639
 9277SOL     OW28729   4.234   5.023   2.351
 9277SOL    HW128730   4.332   5.008   2.359
 9277SOL    HW228731   4.207   5.103   2.405
 9278SOL     OW28732   0.384   0.459   4.148
 9278SOL    HW128733   0.372   0.519   4.227
 9278SOL    HW228734   0.311   0.476   4.082
 9279SOL     OW28735   3.647   5.653   1.579
 9279SOL    HW128736   3.680   5.559   1.572
 9279SOL    HW228737   3.688   5.708   1.505
 9280SOL     OW28738   1.517   1.600   2.806
 9280SOL    HW128739   1.454   1.638   2.739
 9280SOL    HW228740   1.546   1.509   2.776
 9281SOL     OW28741   3.636   3.370   6.037
 9281SOL    HW128742   3.601   3.458   6.006
 9281SOL    HW228743   3.658   3.313   5.958
 9282SOL     OW28744   3.596   0.408   4.594
 9282SOL    HW128745   3.506   0.446   4.619
 9282SOL    HW228746   3.661   0.484   4.581
 9283SOL     OW28747   5.703   0.078   6.479
 9283SOL    HW128748   5.604   0.082   6.465
 9283SOL    HW228749   5.749   0.100   6.392
 9284SOL     OW28750   3.243   3.576   5.335
 9284SOL    HW128751   3.293   3.499   5.295
 9284SOL    HW228752   3.146   3.568   5.311
 9285SOL     OW28753   5.655   3.264   2.358
 9285SOL    HW128754   5.729   3.311   2.408
 9285SOL    HW228755   5.683   3.170   2.338
 9286SOL     OW28756   5.156   6.380   0.446
 9286SOL    HW128757   5.074   6.438   0.442
 9286SOL    HW228758   5.237   6.439   0.451
 9287SOL     OW28759   2.350   4.686   5.907
 9287SOL    HW128760   2.403   4.764   5.872
 9287SOL    HW228761   2.280   4.660   5.840
 9288SOL     OW28762   4.390   2.461   4.053
 9288SOL    HW128763   4.420   2.485   4.145
 9288SOL    HW228764   4.307   2.405   4.058
 9289SOL     OW28765   4.263   6.983   5.997
 9289SOL    HW128766   4.227   6.974   6.090
 9289SOL    HW228767   4.357   6.948   5.994
 9290SOL     OW28768   5.426   0.763   4.661
 9290SOL    HW128769   5.370   0.799   4.587
 9290SOL    HW228770   5.368   0.712   4.725
 9291SOL     OW28771   1.023   6.428   5.619
 9291SOL    HW128772   1.115   6.416   5.582
 9291SOL    HW228773   0.997   6.345   5.669
 9292SOL     OW28774   1.456   1.371   5.971
 9292SOL    HW128775   1.411   1.404   5.888
 9292SOL    HW228776   1.555   1.363   5.955
 9293SOL     OW28777   4.838   2.896   6.012
 9293SOL    HW128778   4.876   2.972   5.960
 9293SOL    HW228779   4.912   2.844   6.054
 9294SOL     OW28780   4.823   0.804   0.495
 9294SOL    HW128781   4.764   0.837   0.421
 9294SOL    HW228782   4.882   0.878   0.526
 9295SOL     OW28783   1.040   0.659   5.198
 9295SOL    HW128784   1.051   0.741   5.142
 9295SOL    HW228785   0.950   0.659   5.241
 9296SOL     OW28786   2.927   3.867   1.270
 9296SOL    HW128787   2.828   3.870   1.257
 9296SOL    HW228788   2.965   3.959   1.259
 9297SOL     OW28789   0.300   5.655   3.082
 9297SOL    HW128790   0.374   5.630   3.020
 9297SOL    HW228791   0.267   5.574   3.130
 9298SOL     OW28792   1.126   0.000   5.974
 9298SOL    HW128793   1.093   6.926   5.973
 9298SOL    HW228794   1.214   0.005   6.022
 9299SOL     OW28795   2.202   2.265   4.378
 9299SOL    HW128796   2.268   2.304   4.314
 9299SOL    HW228797   2.222   2.299   4.471
 9300SOL     OW28798   1.391   6.243   5.076
 9300SOL    HW128799   1.422   6.162   5.126
 9300SOL    HW228800   1.406   6.325   5.131
 9301SOL     OW28801   0.206   3.841   4.604
 9301SOL    HW128802   0.174   3.853   4.510
 9301SOL    HW228803   0.133   3.865   4.668
 9302SOL     OW28804   2.137   3.126   5.089
 9302SOL    HW128805   2.195   3.145   5.010
 9302SOL    HW228806   2.181   3.057   5.147
 9303SOL     OW28807   3.246   3.983   6.630
 9303SOL    HW128808   3.182   3.906   6.631
 9303SOL    HW228809   3.248   4.025   6.721
 9304SOL     OW28810   4.747   4.937   0.441
 9304SOL    HW128811   4.728   4.916   0.345
 9304SOL    HW228812   4.829   4.994   0.447
 9305SOL     OW28813   3.024   1.596   1.237
 9305SOL    HW128814   3.043   1.512   1.186
 9305SOL    HW228815   3.008   1.671   1.174
 9306SOL     OW28816   0.168   4.412   4.266
 9306SOL    HW128817   0.192   4.508   4.278
 9306SOL    HW228818   0.117   4.400   4.181
 9307SOL     OW28819   2.014   4.226   0.657
 9307SOL    HW128820   2.019   4.127   0.669
 9307SOL    HW228821   2.028   4.271   0.745
 9308SOL     OW28822   1.444   4.957   1.596
 9308SOL    HW128823   1.404   5.001   1.676
 9308SOL    HW228824   1.516   5.015   1.559
 9309SOL     OW28825   5.121   5.991   5.973
 9309SOL    HW128826   5.050   6.059   5.991
 9309SOL    HW228827   5.136   5.984   5.874
 9310SOL     OW28828   4.560   5.757   5.910
 9310SOL    HW128829   4.536   5.823   5.840
 9310SOL    HW228830   4.572   5.804   5.998
 9311SOL     OW28831   4.377   3.357   1.310
 9311SOL    HW128832   4.290   3.398   1.283
 9311SOL    HW228833   4.370   3.257   1.307
 9312SOL     OW28834   1.253   2.193   0.666
 9312SOL    HW128835   1.339   2.225   0.706
 9312SOL    HW228836   1.271   2.114   0.607
 9313SOL     OW28837   1.624   0.691   1.707
 9313SOL    HW128838   1.616   0.754   1.784
 9313SOL    HW228839   1.607   0.741   1.622
 9314SOL     OW28840   5.319   2.862   0.637
 9314SOL    HW128841   5.397   2.805   0.661
 9314SOL    HW228842   5.299   2.925   0.713
 9315SOL     OW28843   5.835   1.030   6.502
 9315SOL    HW128844   5.740   1.007   6.481
 9315SOL    HW228845   5.895   0.957   6.470
 9316SOL     OW28846   5.014   0.464   5.586
 9316SOL    HW128847   4.933   0.449   5.643
 9316SOL    HW228848   5.095   0.435   5.636
 9317SOL     OW28849   3.094   5.071   3.348
 9317SOL    HW128850   3.117   5.057   3.252
 9317SOL    HW228851   3.003   5.113   3.355
 9318SOL     OW28852   5.138   5.992   0.123
 9318SOL    HW128853   5.170   5.900   0.101
 9318SOL    HW228854   5.039   5.990   0.138
 9319SOL     OW28855   3.025   4.083   0.922
 9319SOL    HW128856   2.966   4.008   0.890
 9319SOL    HW228857   3.096   4.046   0.982
 9320SOL     OW28858   5.429   0.339   6.169
 9320SOL    HW128859   5.474   0.421   6.205
 9320SOL    HW228860   5.492   0.292   6.106
 9321SOL     OW28861   0.248   2.581   5.390
 9321SOL    HW128862   0.177   2.543   5.449
 9321SOL    HW228863   0.310   2.509   5.360
 9322SOL     OW28864   6.473   4.608   6.011
 9322SOL    HW128865   6.531   4.557   6.074
 9322SOL    HW228866   6.515   4.610   5.920
 9323SOL     OW28867   1.801   3.175   3.767
 9323SOL    HW128868   1.735   3.215   3.704
 9323SOL    HW228869   1.764   3.179   3.860
 9324SOL     OW28870   1.127   3.668   0.709
 9324SOL    HW128871   1.158   3.638   0.800
 9324SOL    HW228872   1.071   3.596   0.668
 9325SOL     OW28873   2.437   5.470   1.801
 9325SOL    HW128874   2.483   5.421   1.727
 9325SOL    HW228875   2.471   5.564   1.804
 9326SOL     OW28876   3.731   4.682   0.278
 9326SOL    HW128877   3.780   4.626   0.344
 9326SOL    HW228878   3.797   4.733   0.222
 9327SOL     OW28879   4.300   0.807   3.309
 9327SOL    HW128880   4.371   0.757   3.261
 9327SOL    HW228881   4.245   0.744   3.363
 9328SOL     OW28882   2.928   6.823   4.797
 9328SOL    HW128883   2.926   6.862   4.888
 9328SOL    HW228884   2.983   6.880   4.736
 9329SOL     OW28885   0.366   6.062   6.578
 9329SOL    HW128886   0.284   6.119   6.589
 9329SOL    HW228887   0.402   6.039   6.669
 9330SOL     OW28888   0.312   6.954   6.253
 9330SOL    HW128889   0.346   6.911   6.169
 9330SOL    HW228890   0.385   6.952   6.322
 9331SOL     OW28891   1.388   2.887   4.921
 9331SOL    HW128892   1.404   2.809   4.980
 9331SOL    HW228893   1.469   2.946   4.920
 9332SOL     OW28894   3.994   5.771   0.698
 9332SOL    HW128895   4.087   5.793   0.667
 9332SOL    HW228896   3.952   5.852   0.739
 9333SOL     OW28897   3.747   5.202   0.668
 9333SOL    HW128898   3.661   5.173   0.708
 9333SOL    HW228899   3.814   5.218   0.741
 9334SOL     OW28900   4.866   6.640   4.151
 9334SOL    HW128901   4.860   6.585   4.235
 9334SOL    HW228902   4.961   6.644   4.121
 9335SOL     OW28903   2.198   2.165   1.351
 9335SOL    HW128904   2.121   2.124   1.303
 9335SOL    HW228905   2.284   2.132   1.313
 9336SOL     OW28906   5.836   0.651   5.225
 9336SOL    HW128907   5.808   0.559   5.199
 9336SOL    HW228908   5.808   0.716   5.154
 9337SOL     OW28909   4.229   0.116   6.732
 9337SOL    HW128910   4.159   0.173   6.775
 9337SOL    HW228911   4.286   0.173   6.672
 9338SOL     OW28912   0.303   6.167   0.298
 9338SOL    HW128913   0.378   6.216   0.254
 9338SOL    HW228914   0.216   6.194   0.256
 9339SOL     OW28915   5.602   5.110   6.674
 9339SOL    HW128916   5.546   5.163   6.610
 9339SOL    HW228917   5.543   5.053   6.731
 9340SOL     OW28918   3.610   5.977   2.907
 9340SOL    HW128919   3.609   5.957   2.809
 9340SOL    HW228920   3.517   5.973   2.943
 9341SOL     OW28921   6.005   4.684   6.508
 9341SOL    HW128922   5.956   4.614   6.560
 9341SOL    HW228923   6.036   4.646   6.422
 9342SOL     OW28924   3.164   0.355   4.476
 9342SOL    HW128925   3.181   0.275   4.418
 9342SOL    HW228926   3.075   0.394   4.453
 9343SOL     OW28927   4.886   3.860   1.857
 9343SOL    HW128928   4.881   3.960   1.861
 9343SOL    HW228929   4.922   3.832   1.768
 9344SOL     OW28930   5.517   5.138   6.247
 9344SOL    HW128931   5.452   5.139   6.170
 9344SOL    HW228932   5.487   5.204   6.316
 9345SOL     OW28933   6.844   6.024   0.069
 9345SOL    HW128934   6.765   6.019   0.008
 9345SOL    HW228935   6.820   6.078   0.150
 9346SOL     OW28936   5.310   6.381   2.885
 9346SOL    HW128937   5.328   6.308   2.951
 9346SOL    HW228938   5.273   6.341   2.800
 9347SOL     OW28939   3.573   5.573   1.070
 9347SOL    HW128940   3.548   5.527   0.984
 9347SOL    HW228941   3.672   5.571   1.081
 9348SOL     OW28942   2.719   6.463   3.172
 9348SOL    HW128943   2.789   6.535   3.168
 9348SOL    HW228944   2.747   6.393   3.238
 9349SOL     OW28945   0.006   5.649   2.440
 9349SOL    HW128946   6.953   5.697   2.393
 9349SOL    HW228947   0.065   5.604   2.372
 9350SOL     OW28948   6.842   1.494   4.556
 9350SOL    HW128949   6.868   1.516   4.462
 9350SOL    HW228950   6.921   1.504   4.616
 9351SOL     OW28951   2.055   1.072   5.312
 9351SOL    HW128952   2.151   1.051   5.294
 9351SOL    HW228953   2.039   1.169   5.299
 9352SOL     OW28954   1.294   2.558   5.526
 9352SOL    HW128955   1.381   2.552   5.479
 9352SOL    HW228956   1.299   2.509   5.613
 9353SOL     OW28957   1.638   4.130   1.896
 9353SOL    HW128958   1.675   4.085   1.978
 9353SOL    HW228959   1.582   4.065   1.845
 9354SOL     OW28960   6.499   2.272   1.297
 9354SOL    HW128961   6.400   2.283   1.292
 9354SOL    HW228962   6.525   2.237   1.387
 9355SOL     OW28963   6.297   1.138   4.555
 9355SOL    HW128964   6.216   1.169   4.605
 9355SOL    HW228965   6.328   1.051   4.593
 9356SOL     OW28966   4.798   5.052   2.078
 9356SOL    HW128967   4.789   4.977   2.143
 9356SOL    HW228968   4.784   5.018   1.985
 9357SOL     OW28969   2.519   3.911   0.112
 9357SOL    HW128970   2.487   3.980   0.047
 9357SOL    HW228971   2.441   3.871   0.159
 9358SOL     OW28972   5.739   3.500   1.797
 9358SOL    HW128973   5.741   3.487   1.896
 9358SOL    HW228974   5.723   3.597   1.777
 9359SOL     OW28975   6.864   3.782   6.049
 9359SOL    HW128976   6.899   3.834   5.971
 9359SOL    HW228977   6.775   3.743   6.026
 9360SOL     OW28978   1.860   0.011   5.856
 9360SOL    HW128979   1.953   6.994   5.850
 9360SOL    HW228980   1.857   0.083   5.925
 9361SOL     OW28981   2.997   6.415   3.320
 9361SOL    HW128982   2.937   6.354   3.372
 9361SOL    HW228983   3.021   6.494   3.377
 9362SOL     OW28984   1.821   1.049   1.717
 9362SOL    HW128985   1.849   0.962   1.756
 9362SOL    HW228986   1.899   1.092   1.671
 9363SOL     OW28987   3.789   5.337   1.578
 9363SOL    HW128988   3.863   5.314   1.641
 9363SOL    HW228989   3.801   5.286   1.493
 9364SOL     OW28990   3.625   2.929   6.187
 9364SOL    HW128991   3.592   3.024   6.192
 9364SOL    HW228992   3.719   2.925   6.220
 9365SOL     OW28993   2.355   2.630   4.816
 9365SOL    HW128994   2.425   2.605   4.749
 9365SOL    HW228995   2.391   2.618   4.908
 9366SOL     OW28996   3.091   1.930   6.816
 9366SOL    HW128997   3.121   2.019   6.851
 9366SOL    HW228998   3.113   1.923   6.719
 9367SOL     OW28999   6.695   5.850   3.830
 9367SOL    HW129000   6.629   5.776   3.814
 9367SOL    HW229001   6.728   5.846   3.924
 9368SOL     OW29002   3.534   2.102   2.579
 9368SOL    HW129003   3.559   2.030   2.514
 9368SOL    HW229004   3.609   2.117   2.643
 9369SOL     OW29005   0.004   1.511   6.172
 9369SOL    HW129006   6.982   1.455   6.243
 9369SOL    HW229007   0.088   1.552   6.209
 9370SOL     OW29008   5.471   0.714   2.868
 9370SOL    HW129009   5.498   0.631   2.818
 9370SOL    HW229010   5.484   0.794   2.809
 9371SOL     OW29011   1.679   5.399   6.849
 9371SOL    HW129012   1.649   5.466   6.781
 9371SOL    HW229013   1.703   5.314   6.804
 9372SOL     OW29014   5.932   6.479   3.143
 9372SOL    HW129015   5.979   6.468   3.230
 9372SOL    HW229016   5.992   6.450   3.068
 9373SOL     OW29017   4.463   2.500   2.887
 9373SOL    HW129018   4.473   2.536   2.794
 9373SOL    HW229019   4.396   2.425   2.887
 9374SOL     OW29020   5.969   2.857   6.740
 9374SOL    HW129021   5.956   2.771   6.691
 9374SOL    HW229022   6.058   2.856   6.785
 9375SOL     OW29023   6.832   1.535   3.486
 9375SOL    HW129024   6.777   1.588   3.421
 9375SOL    HW229025   6.772   1.472   3.536
 9376SOL     OW29026   3.184   3.735   0.523
 9376SOL    HW129027   3.103   3.782   0.557
 9376SOL    HW229028   3.261   3.800   0.520
 9377SOL     OW29029   0.859   5.081   3.624
 9377SOL    HW129030   0.772   5.128   3.635
 9377SOL    HW229031   0.922   5.108   3.697
 9378SOL     OW29032   1.737   6.890   5.669
 9378SOL    HW129033   1.776   6.947   5.741
 9378SOL    HW229034   1.787   6.905   5.583
 9379SOL     OW29035   4.744   4.769   4.734
 9379SOL    HW129036   4.685   4.688   4.727
 9379SOL    HW229037   4.840   4.740   4.732
 9380SOL     OW29038   5.787   5.678   5.122
 9380SOL    HW129039   5.852   5.646   5.053
 9380SOL    HW229040   5.798   5.624   5.205
 9381SOL     OW29041   2.532   3.172   5.814
 9381SOL    HW129042   2.628   3.148   5.804
 9381SOL    HW229043   2.500   3.217   5.730
 9382SOL     OW29044   3.711   1.597   2.784
 9382SOL    HW129045   3.629   1.586   2.729
 9382SOL    HW229046   3.766   1.672   2.747
 9383SOL     OW29047   3.411   6.030   5.071
 9383SOL    HW129048   3.315   6.056   5.064
 9383SOL    HW229049   3.419   5.931   5.066
 9384SOL     OW29050   4.366   6.361   1.367
 9384SOL    HW129051   4.282   6.363   1.313
 9384SOL    HW229052   4.439   6.320   1.313
 9385SOL     OW29053   3.964   1.698   2.214
 9385SOL    HW129054   4.009   1.644   2.285
 9385SOL    HW229055   3.884   1.648   2.180
 9386SOL     OW29056   2.379   6.231   4.783
 9386SOL    HW129057   2.316   6.176   4.837
 9386SOL    HW229058   2.450   6.172   4.745
 9387SOL     OW29059   4.497   0.067   0.362
 9387SOL    HW129060   4.422   0.071   0.297
 9387SOL    HW229061   4.575   0.119   0.326
 9388SOL     OW29062   1.515   6.220   2.763
 9388SOL    HW129063   1.436   6.205   2.822
 9388SOL    HW229064   1.501   6.173   2.676
 9389SOL     OW29065   2.636   0.629   5.264
 9389SOL    HW129066   2.643   0.576   5.349
 9389SOL    HW229067   2.541   0.627   5.232
 9390SOL     OW29068   3.784   6.296   3.820
 9390SOL    HW129069   3.850   6.276   3.892
 9390SOL    HW229070   3.744   6.210   3.787
 9391SOL     OW29071   2.463   1.064   5.510
 9391SOL    HW129072   2.375   1.112   5.499
 9391SOL    HW229073   2.448   0.980   5.562
 9392SOL     OW29074   0.047   0.234   4.688
 9392SOL    HW129075   0.065   0.158   4.626
 9392SOL    HW229076   6.975   0.226   4.725
 9393SOL     OW29077   3.392   1.517   4.473
 9393SOL    HW129078   3.400   1.566   4.386
 9393SOL    HW229079   3.442   1.566   4.544
 9394SOL     OW29080   6.338   1.584   2.959
 9394SOL    HW129081   6.256   1.527   2.952
 9394SOL    HW229082   6.313   1.673   2.996
 9395SOL     OW29083   2.601   2.514   6.952
 9395SOL    HW129084   2.568   2.424   6.924
 9395SOL    HW229085   2.579   2.581   6.880
 9396SOL     OW29086   0.180   6.123   4.510
 9396SOL    HW129087   0.141   6.031   4.513
 9396SOL    HW229088   0.269   6.122   4.556
 9397SOL     OW29089   2.518   0.086   0.076
 9397SOL    HW129090   2.595   0.050   0.023
 9397SOL    HW229091   2.437   0.093   0.017
 9398SOL     OW29092   1.889   0.769   5.717
 9398SOL    HW129093   1.958   0.711   5.675
 9398SOL    HW229094   1.911   0.784   5.813
 9399SOL     OW29095   0.677   1.761   6.922
 9399SOL    HW129096   0.687   1.850   6.877
 9399SOL    HW229097   0.703   1.688   6.860
 9400SOL     OW29098   5.252   2.908   1.340
 9400SOL    HW129099   5.195   2.898   1.422
 9400SOL    HW229100   5.194   2.930   1.262
 9401SOL     OW29101   3.562   5.973   3.315
 9401SOL    HW129102   3.621   5.988   3.235
 9401SOL    HW229103   3.524   6.061   3.344
 9402SOL     OW29104   1.204   5.132   5.175
 9402SOL    HW129105   1.146   5.051   5.190
 9402SOL    HW229106   1.183   5.172   5.086
 9403SOL     OW29107   5.124   1.843   2.906
 9403SOL    HW129108   5.037   1.848   2.858
 9403SOL    HW229109   5.137   1.751   2.943
 9404SOL     OW29110   0.857   4.342   6.521
 9404SOL    HW129111   0.910   4.349   6.436
 9404SOL    HW229112   0.760   4.338   6.500
 9405SOL     OW29113   6.959   6.831   2.807
 9405SOL    HW129114   6.861   6.839   2.786
 9405SOL    HW229115   6.972   6.759   2.875
 9406SOL     OW29116   6.801   2.223   5.876
 9406SOL    HW129117   6.805   2.167   5.959
 9406SOL    HW229118   6.735   2.183   5.813
 9407SOL     OW29119   2.418   6.057   2.862
 9407SOL    HW129120   2.357   6.016   2.795
 9407SOL    HW229121   2.508   6.014   2.856
 9408SOL     OW29122   4.162   1.850   6.112
 9408SOL    HW129123   4.243   1.824   6.059
 9408SOL    HW229124   4.106   1.913   6.059
 9409SOL     OW29125   5.232   4.393   5.587
 9409SOL    HW129126   5.209   4.306   5.631
 9409SOL    HW229127   5.197   4.469   5.642
 9410SOL     OW29128   4.074   5.902   1.598
 9410SOL    HW129129   4.171   5.929   1.601
 9410SOL    HW229130   4.047   5.886   1.503
 9411SOL     OW29131   3.941   4.215   0.993
 9411SOL    HW129132   3.924   4.308   0.959
 9411SOL    HW229133   3.976   4.220   1.086
 9412SOL     OW29134   0.184   3.450   1.710
 9412SOL    HW129135   0.271   3.488   1.741
 9412SOL    HW229136   0.151   3.501   1.631
 9413SOL     OW29137   4.274   5.671   4.971
 9413SOL    HW129138   4.298   5.582   4.932
 9413SOL    HW229139   4.176   5.686   4.962
 9414SOL     OW29140   3.270   1.455   3.317
 9414SOL    HW129141   3.293   1.519   3.391
 9414SOL    HW229142   3.353   1.426   3.271
 9415SOL     OW29143   2.179   6.803   2.618
 9415SOL    HW129144   2.204   6.712   2.650
 9415SOL    HW229145   2.189   6.808   2.519
 9416SOL     OW29146   0.599   1.695   1.682
 9416SOL    HW129147   0.610   1.676   1.780
 9416SOL    HW229148   0.511   1.738   1.666
 9417SOL     OW29149   3.707   0.403   5.716
 9417SOL    HW129150   3.802   0.433   5.706
 9417SOL    HW229151   3.699   0.347   5.799
 9418SOL     OW29152   3.361   6.818   0.581
 9418SOL    HW129153   3.286   6.767   0.539
 9418SOL    HW229154   3.344   6.829   0.679
 9419SOL     OW29155   3.668   5.209   5.580
 9419SOL    HW129156   3.736   5.264   5.530
 9419SOL    HW229157   3.578   5.223   5.540
 9420SOL     OW29158   0.286   2.421   4.119
 9420SOL    HW129159   0.222   2.438   4.044
 9420SOL    HW229160   0.376   2.455   4.094
 9421SOL     OW29161   2.645   6.220   5.357
 9421SOL    HW129162   2.639   6.177   5.447
 9421SOL    HW229163   2.634   6.319   5.366
 9422SOL     OW29164   5.326   6.844   2.742
 9422SOL    HW129165   5.235   6.822   2.777
 9422SOL    HW229166   5.388   6.767   2.759
 9423SOL     OW29167   3.337   0.287   3.468
 9423SOL    HW129168   3.390   0.371   3.467
 9423SOL    HW229169   3.275   0.285   3.390
 9424SOL     OW29170   4.672   0.270   4.885
 9424SOL    HW129171   4.669   0.194   4.820
 9424SOL    HW229172   4.681   0.356   4.836
 9425SOL     OW29173   0.066   3.972   6.169
 9425SOL    HW129174   7.009   4.019   6.127
 9425SOL    HW229175   0.042   3.946   6.263
 9426SOL     OW29176   2.895   1.763   6.891
 9426SOL    HW129177   2.980   1.815   6.879
 9426SOL    HW229178   2.820   1.825   6.913
 9427SOL     OW29179   2.811   5.067   4.809
 9427SOL    HW129180   2.717   5.047   4.781
 9427SOL    HW229181   2.869   4.988   4.787
 9428SOL     OW29182   5.482   0.894   1.456
 9428SOL    HW129183   5.561   0.955   1.443
 9428SOL    HW229184   5.425   0.928   1.531
 9429SOL     OW29185   1.509   4.757   1.783
 9429SOL    HW129186   1.455   4.675   1.802
 9429SOL    HW229187   1.478   4.798   1.697
 9430SOL     OW29188   0.365   6.210   2.152
 9430SOL    HW129189   0.431   6.285   2.158
 9430SOL    HW229190   0.385   6.155   2.071
 9431SOL     OW29191   5.780   4.746   0.917
 9431SOL    HW129192   5.803   4.843   0.927
 9431SOL    HW229193   5.794   4.718   0.822
 9432SOL     OW29194   6.352   0.619   3.438
 9432SOL    HW129195   6.260   0.587   3.459
 9432SOL    HW229196   6.405   0.543   3.400
 9433SOL     OW29197   3.481   4.939   3.859
 9433SOL    HW129198   3.558   5.000   3.845
 9433SOL    HW229199   3.418   4.977   3.927
 9434SOL     OW29200   5.730   4.646   3.597
 9434SOL    HW129201   5.795   4.605   3.661
 9434SOL    HW229202   5.692   4.730   3.637
 9435SOL     OW29203   1.108   1.674   3.684
 9435SOL    HW129204   1.047   1.752   3.668
 9435SOL    HW229205   1.065   1.590   3.652
 9436SOL     OW29206   0.691   4.307   2.408
 9436SOL    HW129207   0.654   4.230   2.460
 9436SOL    HW229208   0.789   4.316   2.428
 9437SOL     OW29209   1.158   6.428   3.730
 9437SOL    HW129210   1.242   6.441   3.784
 9437SOL    HW229211   1.121   6.517   3.704
 9438SOL     OW29212   1.139   6.602   1.015
 9438SOL    HW129213   1.189   6.668   1.070
 9438SOL    HW229214   1.115   6.644   0.927
 9439SOL     OW29215   0.041   2.982   2.149
 9439SOL    HW129216   7.006   2.930   2.214
 9439SOL    HW229217   0.036   3.079   2.170
 9440SOL     OW29218   4.397   5.996   4.317
 9440SOL    HW129219   4.446   6.080   4.295
 9440SOL    HW229220   4.315   5.989   4.260
 9441SOL     OW29221   1.222   4.592   4.579
 9441SOL    HW129222   1.302   4.550   4.536
 9441SOL    HW229223   1.158   4.521   4.608
 9442SOL     OW29224   5.944   3.164   0.105
 9442SOL    HW129225   5.925   3.122   0.194
 9442SOL    HW229226   5.888   3.119   0.034
 9443SOL     OW29227   2.636   5.088   1.554
 9443SOL    HW129228   2.568   5.018   1.533
 9443SOL    HW229229   2.622   5.167   1.495
 9444SOL     OW29230   1.131   4.100   6.328
 9444SOL    HW129231   1.195   4.035   6.287
 9444SOL    HW229232   1.040   4.059   6.332
 9445SOL     OW29233   5.399   3.425   2.302
 9445SOL    HW129234   5.462   3.348   2.292
 9445SOL    HW229235   5.314   3.393   2.342
 9446SOL     OW29236   6.115   6.619   4.096
 9446SOL    HW129237   6.053   6.665   4.158
 9446SOL    HW229238   6.203   6.603   4.142
 9447SOL     OW29239   5.969   3.392   3.378
 9447SOL    HW129240   5.901   3.339   3.428
 9447SOL    HW229241   5.923   3.447   3.307
 9448SOL     OW29242   6.031   6.399   5.957
 9448SOL    HW129243   5.954   6.462   5.950
 9448SOL    HW229244   6.013   6.318   5.901
 9449SOL     OW29245   0.016   6.109   6.811
 9449SOL    HW129246   6.977   6.030   6.796
 9449SOL    HW229247   6.993   6.173   6.874
 9450SOL     OW29248   3.510   4.951   4.382
 9450SOL    HW129249   3.418   4.935   4.416
 9450SOL    HW229250   3.569   4.979   4.458
 9451SOL     OW29251   3.551   6.247   6.617
 9451SOL    HW129252   3.524   6.181   6.688
 9451SOL    HW229253   3.470   6.279   6.569
 9452SOL     OW29254   0.915   3.089   0.874
 9452SOL    HW129255   0.950   3.133   0.791
 9452SOL    HW229256   0.982   3.096   0.947
 9453SOL     OW29257   2.269   4.640   3.697
 9453SOL    HW129258   2.343   4.578   3.670
 9453SOL    HW229259   2.187   4.588   3.719
 9454SOL     OW29260   1.712   3.365   5.736
 9454SOL    HW129261   1.756   3.278   5.760
 9454SOL    HW229262   1.781   3.437   5.731
 9455SOL     OW29263   3.841   1.358   2.683
 9455SOL    HW129264   3.804   1.448   2.705
 9455SOL    HW229265   3.935   1.351   2.717
 9456SOL     OW29266   0.878   3.470   6.657
 9456SOL    HW129267   0.861   3.535   6.731
 9456SOL    HW229268   0.825   3.497   6.576
 9457SOL     OW29269   1.754   3.909   6.204
 9457SOL    HW129270   1.705   3.894   6.290
 9457SOL    HW229271   1.689   3.929   6.131
 9458SOL     OW29272   1.124   3.454   5.614
 9458SOL    HW129273   1.186   3.375   5.607
 9458SOL    HW229274   1.165   3.523   5.674
 9459SOL     OW29275   5.556   4.291   2.513
 9459SOL    HW129276   5.607   4.315   2.430
 9459SOL    HW229277   5.540   4.192   2.515
 9460SOL     OW29278   7.003   1.348   4.196
 9460SOL    HW129279   0.071   1.312   4.227
 9460SOL    HW229280   6.940   1.272   4.180
 9461SOL     OW29281   6.505   1.910   3.217
 9461SOL    HW129282   6.450   1.915   3.133
 9461SOL    HW229283   6.449   1.940   3.295
 9462SOL     OW29284   2.173   3.886   3.190
 9462SOL    HW129285   2.165   3.973   3.238
 9462SOL    HW229286   2.202   3.901   3.096
 9463SOL     OW29287   0.405   0.973   1.667
 9463SOL    HW129288   0.320   0.967   1.615
 9463SOL    HW229289   0.409   1.061   1.715
 9464SOL     OW29290   5.821   6.043   0.404
 9464SOL    HW129291   5.751   5.972   0.392
 9464SOL    HW229292   5.886   6.040   0.328
 9465SOL     OW29293   7.017   6.619   3.438
 9465SOL    HW129294   0.034   6.692   3.380
 9465SOL    HW229295   6.939   6.576   3.392
 9466SOL     OW29296   3.821   3.832   5.479
 9466SOL    HW129297   3.729   3.808   5.509
 9466SOL    HW229298   3.818   3.917   5.426
 9467SOL     OW29299   0.945   2.550   1.809
 9467SOL    HW129300   0.926   2.543   1.711
 9467SOL    HW229301   0.982   2.463   1.842
 9468SOL     OW29302   5.963   2.109   6.318
 9468SOL    HW129303   5.933   2.135   6.409
 9468SOL    HW229304   5.911   2.030   6.286
 9469SOL     OW29305   6.316   5.600   1.329
 9469SOL    HW129306   6.246   5.598   1.401
 9469SOL    HW229307   6.376   5.521   1.338
 9470SOL     OW29308   5.395   3.074   5.630
 9470SOL    HW129309   5.433   3.136   5.698
 9470SOL    HW229310   5.468   3.017   5.592
 9471SOL     OW29311   6.016   2.182   4.817
 9471SOL    HW129312   6.061   2.114   4.758
 9471SOL    HW229313   6.025   2.273   4.775
 9472SOL     OW29314   6.823   3.515   4.578
 9472SOL    HW129315   6.766   3.438   4.606
 9472SOL    HW229316   6.773   3.574   4.514
 9473SOL     OW29317   2.863   5.868   5.940
 9473SOL    HW129318   2.792   5.871   5.870
 9473SOL    HW229319   2.834   5.921   6.020
 9474SOL     OW29320   6.711   3.273   0.091
 9474SOL    HW129321   6.695   3.345   0.024
 9474SOL    HW229322   6.756   3.311   0.172
 9475SOL     OW29323   2.975   3.544   0.375
 9475SOL    HW129324   2.936   3.520   0.286
 9475SOL    HW229325   3.028   3.628   0.366
 9476SOL     OW29326   3.389   3.183   4.883
 9476SOL    HW129327   3.427   3.162   4.793
 9476SOL    HW229328   3.336   3.105   4.916
 9477SOL     OW29329   0.300   3.356   2.306
 9477SOL    HW129330   0.392   3.322   2.325
 9477SOL    HW229331   0.300   3.406   2.219
 9478SOL     OW29332   5.440   3.419   6.533
 9478SOL    HW129333   5.344   3.419   6.506
 9478SOL    HW229334   5.462   3.507   6.576
 9479SOL     OW29335   5.658   6.339   6.459
 9479SOL    HW129336   5.636   6.277   6.383
 9479SOL    HW229337   5.697   6.286   6.534
 9480SOL     OW29338   4.810   4.269   0.185
 9480SOL    HW129339   4.712   4.283   0.176
 9480SOL    HW229340   4.857   4.305   0.105
 9481SOL     OW29341   5.428   3.416   1.107
 9481SOL    HW129342   5.522   3.444   1.091
 9481SOL    HW229343   5.398   3.356   1.033
 9482SOL     OW29344   5.927   1.324   3.247
 9482SOL    HW129345   6.004   1.273   3.285
 9482SOL    HW229346   5.962   1.399   3.190
 9483SOL     OW29347   1.327   1.975   0.487
 9483SOL    HW129348   1.275   1.972   0.401
 9483SOL    HW229349   1.350   1.883   0.516
 9484SOL     OW29350   4.563   1.256   3.192
 9484SOL    HW129351   4.597   1.183   3.132
 9484SOL    HW229352   4.472   1.284   3.163
 9485SOL     OW29353   1.209   0.084   2.025
 9485SOL    HW129354   1.224   0.080   1.926
 9485SOL    HW229355   1.282   0.137   2.068
 9486SOL     OW29356   2.339   4.731   1.457
 9486SOL    HW129357   2.308   4.818   1.495
 9486SOL    HW229358   2.437   4.721   1.471
 9487SOL     OW29359   2.875   3.588   3.046
 9487SOL    HW129360   2.915   3.646   2.975
 9487SOL    HW229361   2.788   3.551   3.013
 9488SOL     OW29362   2.659   6.333   1.140
 9488SOL    HW129363   2.629   6.316   1.046
 9488SOL    HW229364   2.743   6.282   1.157
 9489SOL     OW29365   3.827   4.227   1.550
 9489SOL    HW129366   3.838   4.134   1.585
 9489SOL    HW229367   3.913   4.277   1.560
 9490SOL     OW29368   6.126   6.386   0.125
 9490SOL    HW129369   6.079   6.405   0.212
 9490SOL    HW229370   6.170   6.297   0.130
 9491SOL     OW29371   0.375   4.459   3.596
 9491SOL    HW129372   0.461   4.416   3.566
 9491SOL    HW229373   0.395   4.525   3.668
 9492SOL     OW29374   3.241   3.833   2.472
 9492SOL    HW129375   3.283   3.846   2.561
 9492SOL    HW229376   3.258   3.914   2.415
 9493SOL     OW29377   3.993   4.928   3.964
 9493SOL    HW129378   3.980   4.871   3.883
 9493SOL    HW229379   3.912   4.923   4.022
 9494SOL     OW29380   4.394   3.948   1.008
 9494SOL    HW129381   4.487   3.984   1.002
 9494SOL    HW229382   4.395   3.859   1.054
 9495SOL     OW29383   5.662   1.861   4.442
 9495SOL    HW129384   5.570   1.821   4.441
 9495SOL    HW229385   5.664   1.936   4.509
 9496SOL     OW29386   5.650   4.618   0.471
 9496SOL    HW129387   5.707   4.687   0.515
 9496SOL    HW229388   5.572   4.597   0.530
 9497SOL     OW29389   5.243   4.703   0.066
 9497SOL    HW129390   5.316   4.650   0.108
 9497SOL    HW229391   5.176   4.640   0.025
 9498SOL     OW29392   5.549   0.900   5.997
 9498SOL    HW129393   5.484   0.927   6.068
 9498SOL    HW229394   5.634   0.950   6.010
 9499SOL     OW29395   2.071   3.397   5.929
 9499SOL    HW129396   2.073   3.409   5.830
 9499SOL    HW229397   2.011   3.320   5.953
 9500SOL     OW29398   3.624   6.971   1.768
 9500SOL    HW129399   3.605   6.925   1.681
 9500SOL    HW229400   3.581   0.040   1.769
 9501SOL     OW29401   2.394   1.138   4.667
 9501SOL    HW129402   2.308   1.183   4.693
 9501SOL    HW229403   2.373   1.056   4.613
 9502SOL     OW29404   0.327   1.801   4.269
 9502SOL    HW129405   0.340   1.707   4.238
 9502SOL    HW229406   0.258   1.804   4.341
 9503SOL     OW29407   0.812   1.507   1.646
 9503SOL    HW129408   0.728   1.561   1.659
 9503SOL    HW229409   0.861   1.501   1.732
 9504SOL     OW29410   0.481   1.718   1.111
 9504SOL    HW129411   0.416   1.708   1.186
 9504SOL    HW229412   0.437   1.766   1.035
 9505SOL     OW29413   5.293   4.313   3.453
 9505SOL    HW129414   5.284   4.232   3.395
 9505SOL    HW229415   5.254   4.294   3.543
 9506SOL     OW29416   0.184   3.254   6.383
 9506SOL    HW129417   0.157   3.173   6.437
 9506SOL    HW229418   0.173   3.234   6.286
 9507SOL     OW29419   1.363   1.043   3.509
 9507SOL    HW129420   1.408   1.046   3.598
 9507SOL    HW229421   1.381   0.955   3.465
 9508SOL     OW29422   5.922   3.000   0.325
 9508SOL    HW129423   5.845   2.980   0.386
 9508SOL    HW229424   5.970   2.915   0.304
 9509SOL     OW29425   1.283   0.006   5.731
 9509SOL    HW129426   1.228   0.071   5.679
 9509SOL    HW229427   1.250   0.002   5.825
 9510SOL     OW29428   0.874   4.219   1.758
 9510SOL    HW129429   0.972   4.237   1.769
 9510SOL    HW229430   0.854   4.127   1.792
 9511SOL     OW29431   1.235   1.432   0.152
 9511SOL    HW129432   1.237   1.437   0.053
 9511SOL    HW229433   1.151   1.386   0.182
 9512SOL     OW29434   5.811   1.444   2.616
 9512SOL    HW129435   5.848   1.355   2.589
 9512SOL    HW229436   5.777   1.439   2.710
 9513SOL     OW29437   1.149   3.242   5.192
 9513SOL    HW129438   1.189   3.155   5.164
 9513SOL    HW229439   1.086   3.275   5.122
 9514SOL     OW29440   1.671   3.867   6.879
 9514SOL    HW129441   1.713   3.935   6.819
 9514SOL    HW229442   1.586   3.833   6.838
 9515SOL     OW29443   1.685   5.592   0.254
 9515SOL    HW129444   1.659   5.522   0.188
 9515SOL    HW229445   1.703   5.549   0.343
 9516SOL     OW29446   4.908   3.450   4.435
 9516SOL    HW129447   4.919   3.524   4.502
 9516SOL    HW229448   4.903   3.489   4.343
 9517SOL     OW29449   1.509   4.939   6.918
 9517SOL    HW129450   1.422   4.919   6.962
 9517SOL    HW229451   1.581   4.949   6.987
 9518SOL     OW29452   0.569   2.482   6.762
 9518SOL    HW129453   0.613   2.544   6.826
 9518SOL    HW229454   0.528   2.406   6.812
 9519SOL     OW29455   4.069   3.352   3.663
 9519SOL    HW129456   4.091   3.282   3.730
 9519SOL    HW229457   4.000   3.317   3.600
 9520SOL     OW29458   6.794   1.105   3.369
 9520SOL    HW129459   6.836   1.188   3.332
 9520SOL    HW229460   6.731   1.129   3.442
 9521SOL     OW29461   3.310   4.149   1.238
 9521SOL    HW129462   3.391   4.104   1.275
 9521SOL    HW229463   3.336   4.207   1.160
 9522SOL     OW29464   4.044   6.109   2.676
 9522SOL    HW129465   3.967   6.053   2.646
 9522SOL    HW229466   4.013   6.173   2.747
 9523SOL     OW29467   2.473   4.864   4.716
 9523SOL    HW129468   2.387   4.820   4.689
 9523SOL    HW229469   2.506   4.922   4.642
 9524SOL     OW29470   2.072   2.452   0.770
 9524SOL    HW129471   2.150   2.513   0.785
 9524SOL    HW229472   2.047   2.409   0.857
 9525SOL     OW29473   1.584   2.441   4.991
 9525SOL    HW129474   1.552   2.494   4.914
 9525SOL    HW229475   1.602   2.347   4.962
 9526SOL     OW29476   6.230   4.493   1.538
 9526SOL    HW129477   6.201   4.564   1.473
 9526SOL    HW229478   6.226   4.403   1.493
 9527SOL     OW29479   2.757   0.561   4.945
 9527SOL    HW129480   2.761   0.629   5.019
 9527SOL    HW229481   2.783   0.605   4.858
 9528SOL     OW29482   6.501   1.605   0.953
 9528SOL    HW129483   6.601   1.612   0.958
 9528SOL    HW229484   6.474   1.582   0.860
 9529SOL     OW29485   5.943   3.605   6.803
 9529SOL    HW129486   5.898   3.594   6.715
 9529SOL    HW229487   5.877   3.592   6.877
 9530SOL     OW29488   0.842   3.983   3.823
 9530SOL    HW129489   0.885   3.898   3.794
 9530SOL    HW229490   0.749   3.987   3.785
 9531SOL     OW29491   4.892   3.959   2.372
 9531SOL    HW129492   4.957   4.034   2.384
 9531SOL    HW229493   4.895   3.928   2.277
 9532SOL     OW29494   0.314   5.233   1.062
 9532SOL    HW129495   0.267   5.240   1.150
 9532SOL    HW229496   0.408   5.266   1.072
 9533SOL     OW29497   1.041   5.430   4.029
 9533SOL    HW129498   1.121   5.480   4.062
 9533SOL    HW229499   0.970   5.494   4.000
 9534SOL     OW29500   5.989   4.475   4.688
 9534SOL    HW129501   6.021   4.384   4.714
 9534SOL    HW229502   6.069   4.536   4.678
 9535SOL     OW29503   2.292   0.926   6.138
 9535SOL    HW129504   2.298   0.876   6.051
 9535SOL    HW229505   2.200   0.965   6.147
 9536SOL     OW29506   3.026   3.811   5.354
 9536SOL    HW129507   3.007   3.720   5.317
 9536SOL    HW229508   3.112   3.845   5.317
 9537SOL     OW29509   2.258   0.934   4.528
 9537SOL    HW129510   2.310   0.940   4.443
 9537SOL    HW229511   2.202   1.016   4.538
 9538SOL     OW29512   4.791   0.486   4.575
 9538SOL    HW129513   4.774   0.484   4.674
 9538SOL    HW229514   4.849   0.408   4.551
 9539SOL     OW29515   2.937   3.766   4.333
 9539SOL    HW129516   2.929   3.830   4.410
 9539SOL    HW229517   2.990   3.808   4.260
 9540SOL     OW29518   5.466   4.512   4.321
 9540SOL    HW129519   5.482   4.496   4.419
 9540SOL    HW229520   5.554   4.520   4.274
 9541SOL     OW29521   2.986   0.912   6.237
 9541SOL    HW129522   2.929   0.849   6.289
 9541SOL    HW229523   2.940   0.934   6.150
 9542SOL     OW29524   4.983   4.685   4.701
 9542SOL    HW129525   5.072   4.695   4.658
 9542SOL    HW229526   4.994   4.650   4.794
 9543SOL     OW29527   3.983   0.831   6.354
 9543SOL    HW129528   3.945   0.871   6.437
 9543SOL    HW229529   3.915   0.770   6.313
 9544SOL     OW29530   5.787   2.950   3.885
 9544SOL    HW129531   5.832   3.039   3.879
 9544SOL    HW229532   5.702   2.959   3.936
 9545SOL     OW29533   5.760   5.158   2.442
 9545SOL    HW129534   5.748   5.186   2.537
 9545SOL    HW229535   5.834   5.211   2.401
 9546SOL     OW29536   3.972   1.260   5.969
 9546SOL    HW129537   4.014   1.181   5.923
 9546SOL    HW229538   3.884   1.232   6.008
 9547SOL     OW29539   2.464   5.292   3.852
 9547SOL    HW129540   2.418   5.222   3.798
 9547SOL    HW229541   2.558   5.262   3.872
 9548SOL     OW29542   0.057   5.050   5.067
 9548SOL    HW129543   6.982   5.036   5.095
 9548SOL    HW229544   0.076   5.149   5.064
 9549SOL     OW29545   3.513   1.405   1.775
 9549SOL    HW129546   3.417   1.414   1.746
 9549SOL    HW229547   3.517   1.362   1.865
 9550SOL     OW29548   0.102   1.025   0.268
 9550SOL    HW129549   0.184   1.080   0.282
 9550SOL    HW229550   0.023   1.075   0.304
 9551SOL     OW29551   5.726   3.085   5.822
 9551SOL    HW129552   5.650   3.150   5.820
 9551SOL    HW229553   5.713   3.022   5.899
 9552SOL     OW29554   2.211   5.753   5.266
 9552SOL    HW129555   2.117   5.721   5.267
 9552SOL    HW229556   2.269   5.685   5.222
 9553SOL     OW29557   6.012   2.234   0.211
 9553SOL    HW129558   6.064   2.301   0.264
 9553SOL    HW229559   6.031   2.246   0.114
 9554SOL     OW29560   1.890   6.289   2.902
 9554SOL    HW129561   1.829   6.339   2.841
 9554SOL    HW229562   1.970   6.258   2.850
 9555SOL     OW29563   0.241   1.208   2.643
 9555SOL    HW129564   0.247   1.130   2.706
 9555SOL    HW229565   0.283   1.288   2.684
 9556SOL     OW29566   1.686   4.247   1.554
 9556SOL    HW129567   1.666   4.261   1.651
 9556SOL    HW229568   1.650   4.325   1.502
 9557SOL     OW29569   5.958   6.753   1.344
 9557SOL    HW129570   5.946   6.701   1.259
 9557SOL    HW229571   5.871   6.756   1.394
 9558SOL     OW29572   5.955   5.642   5.918
 9558SOL    HW129573   5.860   5.625   5.892
 9558SOL    HW229574   6.013   5.570   5.880
 9559SOL     OW29575   0.691   5.249   0.695
 9559SOL    HW129576   0.669   5.339   0.732
 9559SOL    HW229577   0.735   5.259   0.606
 9560SOL     OW29578   2.611   1.230   2.600
 9560SOL    HW129579   2.697   1.195   2.635
 9560SOL    HW229580   2.560   1.275   2.673
 9561SOL     OW29581   1.176   1.281   1.524
 9561SOL    HW129582   1.129   1.196   1.499
 9561SOL    HW229583   1.108   1.350   1.550
 9562SOL     OW29584   3.159   0.220   4.926
 9562SOL    HW129585   3.248   0.265   4.932
 9562SOL    HW229586   3.109   0.254   4.847
 9563SOL     OW29587   6.913   6.971   0.739
 9563SOL    HW129588   6.888   6.985   0.643
 9563SOL    HW229589   6.951   6.879   0.750
 9564SOL     OW29590   2.635   1.076   0.362
 9564SOL    HW129591   2.638   1.067   0.462
 9564SOL    HW229592   2.540   1.070   0.331
 9565SOL     OW29593   3.876   0.608   5.111
 9565SOL    HW129594   3.797   0.664   5.089
 9565SOL    HW229595   3.874   0.582   5.208
 9566SOL     OW29596   3.252   5.657   6.994
 9566SOL    HW129597   3.243   5.557   6.986
 9566SOL    HW229598   3.239   5.699   6.905
 9567SOL     OW29599   5.008   4.543   0.665
 9567SOL    HW129600   5.084   4.599   0.696
 9567SOL    HW229601   4.936   4.602   0.628
 9568SOL     OW29602   4.270   2.424   6.345
 9568SOL    HW129603   4.186   2.478   6.340
 9568SOL    HW229604   4.326   2.442   6.265
 9569SOL     OW29605   6.596   1.002   2.626
 9569SOL    HW129606   6.688   1.025   2.595
 9569SOL    HW229607   6.550   1.085   2.658
 9570SOL     OW29608   0.558   3.277   1.367
 9570SOL    HW129609   0.653   3.281   1.337
 9570SOL    HW229610   0.498   3.311   1.295
 9571SOL     OW29611   3.294   3.140   6.023
 9571SOL    HW129612   3.315   3.220   6.079
 9571SOL    HW229613   3.273   3.062   6.082
 9572SOL     OW29614   2.187   5.164   1.950
 9572SOL    HW129615   2.264   5.121   1.903
 9572SOL    HW229616   2.212   5.256   1.979
 9573SOL     OW29617   0.808   2.288   6.914
 9573SOL    HW129618   0.769   2.319   6.827
 9573SOL    HW229619   0.876   2.217   6.896
 9574SOL     OW29620   3.921   3.041   2.918
 9574SOL    HW129621   3.848   2.980   2.887
 9574SOL    HW229622   4.003   2.987   2.938
 9575SOL     OW29623   1.080   1.022   1.529
 9575SOL    HW129624   0.989   0.985   1.508
 9575SOL    HW229625   1.096   1.014   1.628
 9576SOL     OW29626   2.223   1.683   0.703
 9576SOL    HW129627   2.316   1.701   0.671
 9576SOL    HW229628   2.157   1.712   0.633
 9577SOL     OW29629   1.586   0.114   5.968
 9577SOL    HW129630   1.547   0.176   6.036
 9577SOL    HW229631   1.684   0.102   5.987
 9578SOL     OW29632   0.704   3.753   2.830
 9578SOL    HW129633   0.779   3.709   2.881
 9578SOL    HW229634   0.651   3.683   2.782
 9579SOL     OW29635   0.767   4.491   3.551
 9579SOL    HW129636   0.839   4.559   3.562
 9579SOL    HW229637   0.707   4.517   3.475
 9580SOL     OW29638   4.233   3.439   0.846
 9580SOL    HW129639   4.190   3.507   0.906
 9580SOL    HW229640   4.171   3.416   0.772
 9581SOL     OW29641   0.514   0.150   5.624
 9581SOL    HW129642   0.436   0.213   5.630
 9581SOL    HW229643   0.563   0.149   5.711
 9582SOL     OW29644   5.029   4.766   5.098
 9582SOL    HW129645   4.933   4.791   5.117
 9582SOL    HW229646   5.056   4.691   5.157
 9583SOL     OW29647   3.565   3.786   1.453
 9583SOL    HW129648   3.560   3.880   1.418
 9583SOL    HW229649   3.503   3.776   1.530
 9584SOL     OW29650   0.284   4.642   6.519
 9584SOL    HW129651   0.335   4.566   6.560
 9584SOL    HW229652   0.293   4.723   6.576
 9585SOL     OW29653   6.228   6.252   4.178
 9585SOL    HW129654   6.163   6.269   4.104
 9585SOL    HW229655   6.319   6.239   4.139
 9586SOL     OW29656   5.234   5.022   2.287
 9586SOL    HW129657   5.289   4.950   2.245
 9586SOL    HW229658   5.154   5.040   2.229
 9587SOL     OW29659   1.231   0.190   1.183
 9587SOL    HW129660   1.300   0.247   1.228
 9587SOL    HW229661   1.264   0.162   1.093
 9588SOL     OW29662   6.381   0.075   1.830
 9588SOL    HW129663   6.469   0.044   1.793
 9588SOL    HW229664   6.390   0.169   1.862
 9589SOL     OW29665   2.050   4.924   6.475
 9589SOL    HW129666   2.143   4.905   6.444
 9589SOL    HW229667   2.019   5.010   6.435
 9590SOL     OW29668   6.186   3.079   2.099
 9590SOL    HW129669   6.194   3.018   2.178
 9590SOL    HW229670   6.158   3.025   2.019
 9591SOL     OW29671   2.895   5.533   5.424
 9591SOL    HW129672   2.818   5.568   5.478
 9591SOL    HW229673   2.960   5.487   5.484
 9592SOL     OW29674   3.037   4.522   0.421
 9592SOL    HW129675   3.123   4.471   0.432
 9592SOL    HW229676   2.972   4.467   0.368
 9593SOL     OW29677   0.523   1.065   5.848
 9593SOL    HW129678   0.512   0.998   5.921
 9593SOL    HW229679   0.606   1.046   5.797
 9594SOL     OW29680   1.839   5.199   3.358
 9594SOL    HW129681   1.921   5.252   3.336
 9594SOL    HW229682   1.800   5.162   3.273
 9595SOL     OW29683   0.383   2.749   4.506
 9595SOL    HW129684   0.349   2.817   4.571
 9595SOL    HW229685   0.416   2.669   4.555
 9596SOL     OW29686   0.589   5.255   6.243
 9596SOL    HW129687   0.541   5.200   6.311
 9596SOL    HW229688   0.618   5.342   6.284
 9597SOL     OW29689   0.483   4.411   1.167
 9597SOL    HW129690   0.580   4.402   1.190
 9597SOL    HW229691   0.474   4.438   1.071
 9598SOL     OW29692   1.518   4.514   3.760
 9598SOL    HW129693   1.469   4.594   3.723
 9598SOL    HW229694   1.605   4.544   3.798
 9599SOL     OW29695   2.789   0.268   4.778
 9599SOL    HW129696   2.710   0.323   4.803
 9599SOL    HW229697   2.791   0.185   4.835
 9600SOL     OW29698   2.859   6.763   6.805
 9600SOL    HW129699   2.853   6.768   6.705
 9600SOL    HW229700   2.863   6.667   6.834
 9601SOL     OW29701   4.530   3.985   0.647
 9601SOL    HW129702   4.469   4.043   0.592
 9601SOL    HW229703   4.476   3.914   0.693
 9602SOL     OW29704   6.656   4.506   5.774
 9602SOL    HW129705   6.591   4.430   5.769
 9602SOL    HW229706   6.750   4.471   5.766
 9603SOL     OW29707   4.073   1.308   4.707
 9603SOL    HW129708   3.983   1.264   4.696
 9603SOL    HW229709   4.129   1.253   4.769
 9604SOL     OW29710   4.860   0.280   6.909
 9604SOL    HW129711   4.801   0.322   6.839
 9604SOL    HW229712   4.804   0.232   6.976
 9605SOL     OW29713   0.595   5.676   3.866
 9605SOL    HW129714   0.515   5.616   3.858
 9605SOL    HW229715   0.569   5.770   3.841
 9606SOL     OW29716   2.255   6.207   6.614
 9606SOL    HW129717   2.175   6.190   6.672
 9606SOL    HW229718   2.301   6.120   6.595
 9607SOL     OW29719   1.594   1.643   0.013
 9607SOL    HW129720   1.501   1.657   0.048
 9607SOL    HW229721   1.611   1.706   6.958
 9608SOL     OW29722   6.604   5.443   2.747
 9608SOL    HW129723   6.531   5.484   2.802
 9608SOL    HW229724   6.617   5.348   2.775
 9609SOL     OW29725   2.029   3.826   6.901
 9609SOL    HW129726   2.100   3.844   6.832
 9609SOL    HW229727   1.971   3.907   6.910
 9610SOL     OW29728   1.963   4.783   3.680
 9610SOL    HW129729   1.999   4.874   3.702
 9610SOL    HW229730   2.008   4.715   3.739
 9611SOL     OW29731   1.073   6.519   6.762
 9611SOL    HW129732   1.105   6.454   6.693
 9611SOL    HW229733   0.982   6.492   6.794
 9612SOL     OW29734   0.343   3.798   1.210
 9612SOL    HW129735   0.345   3.870   1.280
 9612SOL    HW229736   0.353   3.839   1.120
 9613SOL     OW29737   5.557   0.146   3.186
 9613SOL    HW129738   5.589   0.137   3.091
 9613SOL    HW229739   5.631   0.185   3.242
 9614SOL     OW29740   3.531   2.398   0.980
 9614SOL    HW129741   3.511   2.418   1.076
 9614SOL    HW229742   3.446   2.392   0.929
 9615SOL     OW29743   2.262   6.855   6.865
 9615SOL    HW129744   2.182   6.801   6.892
 9615SOL    HW229745   2.342   6.796   6.857
 9616SOL     OW29746   4.341   4.125   1.397
 9616SOL    HW129747   4.289   4.169   1.323
 9616SOL    HW229748   4.400   4.193   1.441
 9617SOL     OW29749   1.391   3.117   3.145
 9617SOL    HW129750   1.475   3.154   3.107
 9617SOL    HW229751   1.413   3.045   3.211
 9618SOL     OW29752   3.757   6.904   5.998
 9618SOL    HW129753   3.770   6.996   6.034
 9618SOL    HW229754   3.673   6.902   5.943
 9619SOL     OW29755   1.357   6.910   6.870
 9619SOL    HW129756   1.454   6.907   6.891
 9619SOL    HW229757   1.304   6.908   6.955
 9620SOL     OW29758   4.764   1.132   5.993
 9620SOL    HW129759   4.718   1.044   5.977
 9620SOL    HW229760   4.843   1.117   6.052
 9621SOL     OW29761   0.889   1.395   2.156
 9621SOL    HW129762   0.946   1.315   2.139
 9621SOL    HW229763   0.816   1.371   2.220
 9622SOL     OW29764   0.302   0.836   0.582
 9622SOL    HW129765   0.307   0.838   0.482
 9622SOL    HW229766   0.390   0.864   0.620
 9623SOL     OW29767   3.168   4.207   5.621
 9623SOL    HW129768   3.169   4.107   5.612
 9623SOL    HW229769   3.074   4.239   5.633
 9624SOL     OW29770   6.889   4.268   2.574
 9624SOL    HW129771   6.817   4.328   2.538
 9624SOL    HW229772   6.966   4.268   2.511
 9625SOL     OW29773   4.898   5.220   6.880
 9625SOL    HW129774   4.873   5.314   6.907
 9625SOL    HW229775   4.878   5.207   6.783
 9626SOL     OW29776   3.414   5.225   0.069
 9626SOL    HW129777   3.478   5.294   0.102
 9626SOL    HW229778   3.461   5.137   0.059
 9627SOL     OW29779   6.445   5.862   4.106
 9627SOL    HW129780   6.531   5.833   4.066
 9627SOL    HW229781   6.408   5.940   4.056
 9628SOL     OW29782   4.975   4.750   6.939
 9628SOL    HW129783   4.942   4.776   6.848
 9628SOL    HW229784   5.022   4.662   6.932
 9629SOL     OW29785   0.118   0.118   2.473
 9629SOL    HW129786   0.148   0.124   2.568
 9629SOL    HW229787   0.172   0.182   2.417
 9630SOL     OW29788   6.342   6.389   5.419
 9630SOL    HW129789   6.405   6.394   5.341
 9630SOL    HW229790   6.389   6.416   5.502
 9631SOL     OW29791   6.800   6.768   6.735
 9631SOL    HW129792   6.791   6.720   6.648
 9631SOL    HW229793   6.859   6.848   6.724
 9632SOL     OW29794   1.239   6.781   2.678
 9632SOL    HW129795   1.281   6.769   2.768
 9632SOL    HW229796   1.240   6.879   2.654
 9633SOL     OW29797   5.677   4.776   6.504
 9633SOL    HW129798   5.624   4.761   6.421
 9633SOL    HW229799   5.722   4.865   6.500
 9634SOL     OW29800   1.307   6.001   3.786
 9634SOL    HW129801   1.288   5.910   3.749
 9634SOL    HW229802   1.296   6.069   3.713
 9635SOL     OW29803   1.836   4.999   5.688
 9635SOL    HW129804   1.823   4.977   5.591
 9635SOL    HW229805   1.933   5.013   5.707
 9636SOL     OW29806   4.121   1.534   6.406
 9636SOL    HW129807   4.042   1.517   6.466
 9636SOL    HW229808   4.089   1.559   6.315
 9637SOL     OW29809   2.640   2.186   6.211
 9637SOL    HW129810   2.673   2.280   6.204
 9637SOL    HW229811   2.718   2.125   6.229
 9638SOL     OW29812   6.356   3.233   6.400
 9638SOL    HW129813   6.390   3.240   6.306
 9638SOL    HW229814   6.432   3.216   6.462
 9639SOL     OW29815   3.749   1.500   2.129
 9639SOL    HW129816   3.702   1.578   2.086
 9639SOL    HW229817   3.726   1.498   2.226
 9640SOL     OW29818   2.583   2.359   3.289
 9640SOL    HW129819   2.566   2.284   3.224
 9640SOL    HW229820   2.571   2.326   3.382
 9641SOL     OW29821   4.203   6.511   0.719
 9641SOL    HW129822   4.236   6.417   0.712
 9641SOL    HW229823   4.182   6.532   0.815
 9642SOL     OW29824   3.659   6.467   5.108
 9642SOL    HW129825   3.629   6.534   5.040
 9642SOL    HW229826   3.617   6.378   5.086
 9643SOL     OW29827   5.376   5.218   4.099
 9643SOL    HW129828   5.315   5.292   4.127
 9643SOL    HW229829   5.468   5.234   4.136
 9644SOL     OW29830   1.606   4.013   5.739
 9644SOL    HW129831   1.623   3.951   5.662
 9644SOL    HW229832   1.509   4.037   5.742
 9645SOL     OW29833   3.866   5.641   3.316
 9645SOL    HW129834   3.771   5.649   3.346
 9645SOL    HW229835   3.894   5.545   3.320
 9646SOL     OW29836   2.726   4.796   2.163
 9646SOL    HW129837   2.742   4.711   2.112
 9646SOL    HW229838   2.812   4.828   2.202
 9647SOL     OW29839   6.143   5.512   1.524
 9647SOL    HW129840   6.114   5.426   1.482
 9647SOL    HW229841   6.068   5.550   1.578
 9648SOL     OW29842   4.179   2.106   6.940
 9648SOL    HW129843   4.203   2.183   6.880
 9648SOL    HW229844   4.253   2.038   6.938
 9649SOL     OW29845   2.890   6.489   6.807
 9649SOL    HW129846   2.927   6.438   6.729
 9649SOL    HW229847   2.898   6.433   6.890
 9650SOL     OW29848   5.805   4.862   2.762
 9650SOL    HW129849   5.721   4.905   2.727
 9650SOL    HW229850   5.882   4.891   2.705
 9651SOL     OW29851   6.682   1.094   6.246
 9651SOL    HW129852   6.674   1.000   6.214
 9651SOL    HW229853   6.737   1.147   6.181
 9652SOL     OW29854   2.413   5.147   0.990
 9652SOL    HW129855   2.398   5.119   0.896
 9652SOL    HW229856   2.332   5.194   1.025
 9653SOL     OW29857   3.739   5.094   4.844
 9653SOL    HW129858   3.820   5.146   4.816
 9653SOL    HW229859   3.659   5.153   4.838
 9654SOL     OW29860   3.475   3.253   1.477
 9654SOL    HW129861   3.451   3.313   1.401
 9654SOL    HW229862   3.550   3.294   1.530
 9655SOL     OW29863   0.274   1.819   6.848
 9655SOL    HW129864   0.294   1.914   6.874
 9655SOL    HW229865   0.183   1.815   6.807
 9656SOL     OW29866   2.969   2.714   1.329
 9656SOL    HW129867   2.932   2.721   1.236
 9656SOL    HW229868   3.023   2.796   1.350
 9657SOL     OW29869   6.303   0.764   4.186
 9657SOL    HW129870   6.385   0.822   4.190
 9657SOL    HW229871   6.264   0.767   4.094
 9658SOL     OW29872   6.226   2.205   2.812
 9658SOL    HW129873   6.307   2.215   2.754
 9658SOL    HW229874   6.209   2.292   2.859
 9659SOL     OW29875   6.544   4.533   7.008
 9659SOL    HW129876   6.635   4.559   6.975
 9659SOL    HW229877   6.475   4.587   6.960
 9660SOL     OW29878   0.629   5.791   1.231
 9660SOL    HW129879   0.536   5.825   1.218
 9660SOL    HW229880   0.638   5.755   1.324
 9661SOL     OW29881   3.677   6.084   2.280
 9661SOL    HW129882   3.749   6.015   2.287
 9661SOL    HW229883   3.706   6.167   2.327
 9662SOL     OW29884   5.237   2.221   5.125
 9662SOL    HW129885   5.251   2.190   5.031
 9662SOL    HW229886   5.218   2.319   5.125
 9663SOL     OW29887   0.566   5.751   4.371
 9663SOL    HW129888   0.512   5.710   4.297
 9663SOL    HW229889   0.657   5.710   4.373
 9664SOL     OW29890   6.237   6.910   3.927
 9664SOL    HW129891   6.189   6.897   3.840
 9664SOL    HW229892   6.245   7.008   3.946
 9665SOL     OW29893   5.081   5.761   6.169
 9665SOL    HW129894   5.077   5.855   6.135
 9665SOL    HW229895   4.990   5.733   6.198
 9666SOL     OW29896   5.718   4.288   2.034
 9666SOL    HW129897   5.668   4.346   1.971
 9666SOL    HW229898   5.700   4.317   2.128
 9667SOL     OW29899   3.054   3.196   4.289
 9667SOL    HW129900   3.017   3.200   4.382
 9667SOL    HW229901   3.071   3.289   4.257
 9668SOL     OW29902   5.479   1.247   6.916
 9668SOL    HW129903   5.562   1.205   6.881
 9668SOL    HW229904   5.399   1.202   6.875
 9669SOL     OW29905   0.788   0.193   1.846
 9669SOL    HW129906   0.873   0.230   1.807
 9669SOL    HW229907   0.810   0.115   1.905
 9670SOL     OW29908   5.299   4.657   6.313
 9670SOL    HW129909   5.370   4.716   6.275
 9670SOL    HW229910   5.217   4.711   6.331
 9671SOL     OW29911   0.019   5.331   6.805
 9671SOL    HW129912   6.995   5.250   6.843
 9671SOL    HW229913   7.005   5.413   6.850
 9672SOL     OW29914   1.069   5.863   4.846
 9672SOL    HW129915   1.029   5.804   4.917
 9672SOL    HW229916   1.162   5.834   4.827
 9673SOL     OW29917   5.783   4.339   6.899
 9673SOL    HW129918   5.883   4.338   6.905
 9673SOL    HW229919   5.750   4.245   6.889
 9674SOL     OW29920   2.789   6.237   3.657
 9674SOL    HW129921   2.767   6.163   3.594
 9674SOL    HW229922   2.705   6.281   3.688
 9675SOL     OW29923   5.908   2.067   1.247
 9675SOL    HW129924   5.985   2.024   1.296
 9675SOL    HW229925   5.828   2.068   1.307
 9676SOL     OW29926   1.320   3.727   5.321
 9676SOL    HW129927   1.258   3.654   5.293
 9676SOL    HW229928   1.393   3.689   5.377
 9677SOL     OW29929   2.232   5.768   5.685
 9677SOL    HW129930   2.288   5.793   5.764
 9677SOL    HW229931   2.252   5.829   5.609
 9678SOL     OW29932   2.925   3.789   2.394
 9678SOL    HW129933   2.848   3.728   2.413
 9678SOL    HW229934   3.011   3.741   2.414
 9679SOL     OW29935   2.052   1.059   2.674
 9679SOL    HW129936   1.966   1.044   2.723
 9679SOL    HW229937   2.109   0.978   2.681
 9680SOL     OW29938   5.876   0.498   4.424
 9680SOL    HW129939   5.933   0.424   4.387
 9680SOL    HW229940   5.837   0.550   4.348
 9681SOL     OW29941   2.951   1.086   0.435
 9681SOL    HW129942   2.899   1.060   0.516
 9681SOL    HW229943   2.920   1.033   0.356
 9682SOL     OW29944   4.753   5.038   3.809
 9682SOL    HW129945   4.849   5.040   3.778
 9682SOL    HW229946   4.719   5.132   3.815
 9683SOL     OW29947   3.017   5.322   0.823
 9683SOL    HW129948   2.982   5.308   0.731
 9683SOL    HW229949   3.032   5.420   0.839
 9684SOL     OW29950   0.097   2.140   4.778
 9684SOL    HW129951   0.194   2.116   4.769
 9684SOL    HW229952   0.079   2.227   4.731
 9685SOL     OW29953   2.178   3.455   0.780
 9685SOL    HW129954   2.164   3.405   0.865
 9685SOL    HW229955   2.223   3.542   0.799
 9686SOL     OW29956   5.811   2.448   0.798
 9686SOL    HW129957   5.770   2.416   0.884
 9686SOL    HW229958   5.805   2.375   0.730
 9687SOL     OW29959   1.948   1.020   3.918
 9687SOL    HW129960   1.983   0.971   3.998
 9687SOL    HW229961   1.848   1.018   3.918
 9688SOL     OW29962   6.751   2.111   3.369
 9688SOL    HW129963   6.760   2.089   3.272
 9688SOL    HW229964   6.667   2.162   3.384
 9689SOL     OW29965   2.033   6.177   1.008
 9689SOL    HW129966   2.125   6.212   1.024
 9689SOL    HW229967   2.036   6.079   0.989
 9690SOL     OW29968   5.637   5.715   6.757
 9690SOL    HW129969   5.635   5.724   6.856
 9690SOL    HW229970   5.594   5.628   6.730
 9691SOL     OW29971   2.602   4.565   1.443
 9691SOL    HW129972   2.666   4.620   1.498
 9691SOL    HW229973   2.554   4.501   1.502
 9692SOL     OW29974   2.971   5.267   2.499
 9692SOL    HW129975   3.005   5.195   2.439
 9692SOL    HW229976   3.047   5.318   2.537
 9693SOL     OW29977   6.332   5.174   1.508
 9693SOL    HW129978   6.381   5.246   1.557
 9693SOL    HW229979   6.350   5.183   1.410
 9694SOL     OW29980   2.118   1.208   5.946
 9694SOL    HW129981   2.206   1.185   5.905
 9694SOL    HW229982   2.132   1.268   6.025
 9695SOL     OW29983   6.926   3.622   1.745
 9695SOL    HW129984   6.844   3.645   1.693
 9695SOL    HW229985   6.901   3.564   1.822
 9696SOL     OW29986   5.399   2.459   0.974
 9696SOL    HW129987   5.342   2.425   1.049
 9696SOL    HW229988   5.341   2.479   0.895
 9697SOL     OW29989   6.707   5.869   0.313
 9697SOL    HW129990   6.787   5.904   0.362
 9697SOL    HW229991   6.724   5.775   0.283
 9698SOL     OW29992   5.706   1.932   6.392
 9698SOL    HW129993   5.778   1.928   6.461
 9698SOL    HW229994   5.681   1.839   6.364
 9699SOL     OW29995   0.392   4.318   7.002
 9699SOL    HW129996   0.377   4.347   0.076
 9699SOL    HW229997   0.333   4.241   6.980
 9700SOL     OW29998   4.110   5.299   5.253
 9700SOL    HW129999   4.145   5.214   5.291
 9700SOL    HW230000   4.177   5.338   5.189
 9701SOL     OW30001   3.948   4.935   4.934
 9701SOL    HW130002   3.940   4.929   5.034
 9701SOL    HW230003   3.858   4.952   4.894
 9702SOL     OW30004   5.165   0.376   0.515
 9702SOL    HW130005   5.252   0.326   0.520
 9702SOL    HW230006   5.175   0.452   0.452
 9703SOL     OW30007   4.109   5.453   3.816
 9703SOL    HW130008   4.177   5.424   3.884
 9703SOL    HW230009   4.057   5.373   3.786
 9704SOL     OW30010   3.148   1.351   2.344
 9704SOL    HW130011   3.192   1.427   2.295
 9704SOL    HW230012   3.174   1.264   2.302
 9705SOL     OW30013   4.794   5.779   0.048
 9705SOL    HW130014   4.850   5.781   6.985
 9705SOL    HW230015   4.851   5.756   0.127
 9706SOL     OW30016   1.027   2.322   0.511
 9706SOL    HW130017   1.097   2.296   0.578
 9706SOL    HW230018   0.937   2.292   0.544
 9707SOL     OW30019   6.489   4.022   1.552
 9707SOL    HW130020   6.512   3.925   1.556
 9707SOL    HW230021   6.486   4.058   1.645
 9708SOL     OW30022   1.239   2.209   2.757
 9708SOL    HW130023   1.260   2.178   2.850
 9708SOL    HW230024   1.228   2.308   2.756
 9709SOL     OW30025   6.032   5.449   2.596
 9709SOL    HW130026   6.128   5.429   2.615
 9709SOL    HW230027   5.984   5.467   2.681
 9710SOL     OW30028   0.262   1.785   2.175
 9710SOL    HW130029   0.281   1.782   2.077
 9710SOL    HW230030   0.183   1.844   2.192
 9711SOL     OW30031   1.475   3.120   5.851
 9711SOL    HW130032   1.395   3.170   5.886
 9711SOL    HW230033   1.505   3.160   5.765
 9712SOL     OW30034   5.448   4.138   5.694
 9712SOL    HW130035   5.507   4.190   5.757
 9712SOL    HW230036   5.384   4.082   5.746
 9713SOL     OW30037   1.139   4.285   3.660
 9713SOL    HW130038   1.064   4.248   3.605
 9713SOL    HW230039   1.183   4.360   3.611
 9714SOL     OW30040   2.700   1.739   1.884
 9714SOL    HW130041   2.742   1.754   1.795
 9714SOL    HW230042   2.761   1.774   1.956
 9715SOL     OW30043   5.850   4.964   5.857
 9715SOL    HW130044   5.908   4.905   5.799
 9715SOL    HW230045   5.905   5.041   5.890
 9716SOL     OW30046   3.981   2.669   6.619
 9716SOL    HW130047   3.899   2.725   6.632
 9716SOL    HW230048   4.060   2.729   6.611
 9717SOL     OW30049   5.661   5.665   5.941
 9717SOL    HW130050   5.648   5.747   5.885
 9717SOL    HW230051   5.629   5.683   6.034
 9718SOL     OW30052   4.795   2.959   1.689
 9718SOL    HW130053   4.719   2.980   1.751
 9718SOL    HW230054   4.794   3.023   1.612
 9719SOL     OW30055   0.363   2.246   0.139
 9719SOL    HW130056   0.331   2.243   0.234
 9719SOL    HW230057   0.432   2.175   0.125
 9720SOL     OW30058   0.405   5.579   1.575
 9720SOL    HW130059   0.440   5.591   1.667
 9720SOL    HW230060   0.336   5.650   1.556
 9721SOL     OW30061   1.278   2.995   1.084
 9721SOL    HW130062   1.178   2.999   1.083
 9721SOL    HW230063   1.315   3.081   1.048
 9722SOL     OW30064   0.287   0.393   3.374
 9722SOL    HW130065   0.284   0.491   3.393
 9722SOL    HW230066   0.364   0.373   3.314
 9723SOL     OW30067   2.187   5.922   3.837
 9723SOL    HW130068   2.104   5.923   3.893
 9723SOL    HW230069   2.262   5.965   3.887
 9724SOL     OW30070   2.882   3.452   0.606
 9724SOL    HW130071   2.848   3.363   0.575
 9724SOL    HW230072   2.923   3.501   0.530
 9725SOL     OW30073   3.886   3.733   6.887
 9725SOL    HW130074   3.879   3.801   6.814
 9725SOL    HW230075   3.966   3.676   6.872
 9726SOL     OW30076   4.503   6.863   4.018
 9726SOL    HW130077   4.512   6.868   4.117
 9726SOL    HW230078   4.575   6.917   3.975
 9727SOL     OW30079   0.443   3.567   5.287
 9727SOL    HW130080   0.352   3.590   5.252
 9727SOL    HW230081   0.457   3.610   5.376
 9728SOL     OW30082   0.663   0.530   6.117
 9728SOL    HW130083   0.661   0.592   6.039
 9728SOL    HW230084   0.661   0.436   6.084
 9729SOL     OW30085   0.934   4.396   2.502
 9729SOL    HW130086   0.905   4.398   2.598
 9729SOL    HW230087   0.968   4.486   2.476
 9730SOL     OW30088   0.362   3.503   2.567
 9730SOL    HW130089   0.305   3.451   2.503
 9730SOL    HW230090   0.322   3.499   2.659
 9731SOL     OW30091   4.515   4.130   0.404
 9731SOL    HW130092   4.444   4.086   0.349
 9731SOL    HW230093   4.536   4.220   0.366
 9732SOL     OW30094   5.119   5.833   3.256
 9732SOL    HW130095   5.191   5.866   3.318
 9732SOL    HW230096   5.091   5.907   3.195
 9733SOL     OW30097   5.560   4.835   6.233
 9733SOL    HW130098   5.554   4.930   6.264
 9733SOL    HW230099   5.567   4.833   6.133
 9734SOL     OW30100   5.591   2.408   3.262
 9734SOL    HW130101   5.595   2.507   3.281
 9734SOL    HW230102   5.634   2.390   3.173
 9735SOL     OW30103   1.649   4.339   2.693
 9735SOL    HW130104   1.730   4.310   2.641
 9735SOL    HW230105   1.679   4.391   2.773
 9736SOL     OW30106   6.060   1.588   6.362
 9736SOL    HW130107   6.050   1.544   6.451
 9736SOL    HW230108   6.156   1.610   6.346
 9737SOL     OW30109   6.855   3.280   5.207
 9737SOL    HW130110   6.792   3.305   5.281
 9737SOL    HW230111   6.832   3.189   5.173
 9738SOL     OW30112   1.812   0.257   2.786
 9738SOL    HW130113   1.714   0.269   2.776
 9738SOL    HW230114   1.831   0.168   2.827
 9739SOL     OW30115   6.453   5.389   1.702
 9739SOL    HW130116   6.525   5.347   1.757
 9739SOL    HW230117   6.489   5.469   1.654
 9740SOL     OW30118   6.718   2.890   3.690
 9740SOL    HW130119   6.684   2.949   3.616
 9740SOL    HW230120   6.769   2.946   3.756
 9741SOL     OW30121   4.629   1.339   2.384
 9741SOL    HW130122   4.543   1.372   2.346
 9741SOL    HW230123   4.690   1.417   2.399
 9742SOL     OW30124   4.329   6.867   2.575
 9742SOL    HW130125   4.359   6.914   2.658
 9742SOL    HW230126   4.314   6.934   2.502
 9743SOL     OW30127   1.410   1.878   4.749
 9743SOL    HW130128   1.503   1.868   4.784
 9743SOL    HW230129   1.403   1.836   4.659
 9744SOL     OW30130   6.814   0.206   2.857
 9744SOL    HW130131   6.903   0.218   2.812
 9744SOL    HW230132   6.782   0.294   2.891
 9745SOL     OW30133   6.738   2.670   6.020
 9745SOL    HW130134   6.774   2.734   5.953
 9745SOL    HW230135   6.693   2.594   5.973
 9746SOL     OW30136   6.180   1.099   6.309
 9746SOL    HW130137   6.165   1.190   6.270
 9746SOL    HW230138   6.264   1.060   6.271
 9747SOL     OW30139   2.166   0.741   1.726
 9747SOL    HW130140   2.184   0.795   1.644
 9747SOL    HW230141   2.072   0.707   1.725
 9748SOL     OW30142   1.188   1.298   3.806
 9748SOL    HW130143   1.267   1.354   3.830
 9748SOL    HW230144   1.169   1.307   3.708
 9749SOL     OW30145   2.220   1.842   5.069
 9749SOL    HW130146   2.296   1.834   5.133
 9749SOL    HW230147   2.249   1.895   4.989
 9750SOL     OW30148   5.216   4.882   3.521
 9750SOL    HW130149   5.256   4.792   3.534
 9750SOL    HW230150   5.288   4.952   3.527
 9751SOL     OW30151   2.205   1.506   0.947
 9751SOL    HW130152   2.208   1.566   0.867
 9751SOL    HW230153   2.114   1.464   0.953
 9752SOL     OW30154   5.349   0.941   0.059
 9752SOL    HW130155   5.314   1.013   0.119
 9752SOL    HW230156   5.298   0.857   0.075
 9753SOL     OW30157   5.604   5.419   5.137
 9753SOL    HW130158   5.688   5.372   5.115
 9753SOL    HW230159   5.587   5.492   5.071
 9754SOL     OW30160   1.010   1.688   0.277
 9754SOL    HW130161   0.985   1.600   0.238
 9754SOL    HW230162   1.060   1.674   0.362
 9755SOL     OW30163   4.082   3.455   5.071
 9755SOL    HW130164   3.989   3.454   5.033
 9755SOL    HW230165   4.077   3.453   5.171
 9756SOL     OW30166   6.259   3.313   0.309
 9756SOL    HW130167   6.188   3.245   0.289
 9756SOL    HW230168   6.349   3.276   0.286
 9757SOL     OW30169   5.575   3.124   3.128
 9757SOL    HW130170   5.556   3.033   3.165
 9757SOL    HW230171   5.658   3.121   3.073
 9758SOL     OW30172   2.297   6.934   6.491
 9758SOL    HW130173   2.299   0.012   6.512
 9758SOL    HW230174   2.389   6.903   6.466
 9759SOL     OW30175   2.083   0.261   6.949
 9759SOL    HW130176   2.020   0.277   6.872
 9759SOL    HW230177   2.030   0.255   0.013
 9760SOL     OW30178   4.554   3.409   5.394
 9760SOL    HW130179   4.574   3.471   5.318
 9760SOL    HW230180   4.619   3.424   5.468
 9761SOL     OW30181   6.070   6.462   2.070
 9761SOL    HW130182   6.018   6.544   2.048
 9761SOL    HW230183   6.034   6.385   2.017
 9762SOL     OW30184   2.621   2.382   4.434
 9762SOL    HW130185   2.678   2.368   4.354
 9762SOL    HW230186   2.591   2.293   4.470
 9763SOL     OW30187   4.430   2.347   1.304
 9763SOL    HW130188   4.361   2.419   1.300
 9763SOL    HW230189   4.514   2.378   1.261
 9764SOL     OW30190   1.074   2.554   2.333
 9764SOL    HW130191   1.114   2.465   2.357
 9764SOL    HW230192   1.055   2.605   2.416
 9765SOL     OW30193   6.329   2.033   3.392
 9765SOL    HW130194   6.329   2.039   3.492
 9765SOL    HW230195   6.243   1.994   3.361
 9766SOL     OW30196   2.891   0.384   3.154
 9766SOL    HW130197   2.814   0.353   3.209
 9766SOL    HW230198   2.876   0.480   3.129
 9767SOL     OW30199   5.237   1.993   5.255
 9767SOL    HW130200   5.222   2.084   5.217
 9767SOL    HW230201   5.331   1.985   5.288
 9768SOL     OW30202   4.660   1.706   2.189
 9768SOL    HW130203   4.714   1.783   2.157
 9768SOL    HW230204   4.700   1.668   2.272
 9769SOL     OW30205   2.079   1.283   2.021
 9769SOL    HW130206   2.153   1.268   1.956
 9769SOL    HW230207   2.077   1.379   2.048
 9770SOL     OW30208   5.700   0.147   6.976
 9770SOL    HW130209   5.752   0.169   0.038
 9770SOL    HW230210   5.623   0.088   7.000
 9771SOL     OW30211   3.972   4.895   1.596
 9771SOL    HW130212   3.939   4.884   1.690
 9771SOL    HW230213   3.917   4.965   1.550
 9772SOL     OW30214   0.838   6.112   1.977
 9772SOL    HW130215   0.918   6.082   2.028
 9772SOL    HW230216   0.793   6.187   2.026
 9773SOL     OW30217   5.547   6.806   4.143
 9773SOL    HW130218   5.562   6.707   4.138
 9773SOL    HW230219   5.450   6.825   4.157
 9774SOL     OW30220   6.239   4.780   2.101
 9774SOL    HW130221   6.159   4.732   2.066
 9774SOL    HW230222   6.210   4.851   2.166
 9775SOL     OW30223   3.203   1.631   3.720
 9775SOL    HW130224   3.153   1.666   3.641
 9775SOL    HW230225   3.138   1.608   3.793
 9776SOL     OW30226   6.810   5.327   4.433
 9776SOL    HW130227   6.740   5.395   4.414
 9776SOL    HW230228   6.847   5.292   4.347
 9777SOL     OW30229   5.787   5.015   6.503
 9777SOL    HW130230   5.759   5.081   6.572
 9777SOL    HW230231   5.882   5.033   6.476
 9778SOL     OW30232   6.574   0.485   3.631
 9778SOL    HW130233   6.609   0.576   3.611
 9778SOL    HW230234   6.646   0.429   3.671
 9779SOL     OW30235   2.542   1.725   4.602
 9779SOL    HW130236   2.534   1.800   4.667
 9779SOL    HW230237   2.571   1.642   4.650
 9780SOL     OW30238   2.220   1.994   1.017
 9780SOL    HW130239   2.154   1.994   1.093
 9780SOL    HW230240   2.175   2.026   0.934
 9781SOL     OW30241   1.817   3.666   3.474
 9781SOL    HW130242   1.731   3.716   3.465
 9781SOL    HW230243   1.856   3.650   3.384
 9782SOL     OW30244   0.454   0.560   1.350
 9782SOL    HW130245   0.424   0.557   1.446
 9782SOL    HW230246   0.534   0.502   1.338
 9783SOL     OW30247   4.498   1.735   1.532
 9783SOL    HW130248   4.512   1.636   1.535
 9783SOL    HW230249   4.412   1.755   1.486
 9784SOL     OW30250   4.668   1.093   3.879
 9784SOL    HW130251   4.732   1.140   3.818
 9784SOL    HW230252   4.679   1.129   3.972
 9785SOL     OW30253   0.236   4.211   4.738
 9785SOL    HW130254   0.145   4.228   4.701
 9785SOL    HW230255   0.301   4.197   4.663
 9786SOL     OW30256   1.599   4.832   6.467
 9786SOL    HW130257   1.588   4.931   6.457
 9786SOL    HW230258   1.691   4.812   6.502
 9787SOL     OW30259   5.352   3.569   0.776
 9787SOL    HW130260   5.398   3.480   0.778
 9787SOL    HW230261   5.277   3.566   0.710
 9788SOL     OW30262   0.412   0.528   3.798
 9788SOL    HW130263   0.330   0.480   3.768
 9788SOL    HW230264   0.474   0.538   3.721
 9789SOL     OW30265   1.948   6.008   6.339
 9789SOL    HW130266   1.900   6.017   6.253
 9789SOL    HW230267   2.045   5.988   6.322
 9790SOL     OW30268   5.773   3.959   5.402
 9790SOL    HW130269   5.697   3.985   5.461
 9790SOL    HW230270   5.745   3.881   5.345
 9791SOL     OW30271   0.390   0.824   3.155
 9791SOL    HW130272   0.407   0.868   3.243
 9791SOL    HW230273   0.449   0.865   3.085
 9792SOL     OW30274   5.185   5.001   1.207
 9792SOL    HW130275   5.258   4.938   1.181
 9792SOL    HW230276   5.172   4.997   1.307
 9793SOL     OW30277   5.732   5.510   3.482
 9793SOL    HW130278   5.819   5.460   3.491
 9793SOL    HW230279   5.736   5.593   3.537
 9794SOL     OW30280   6.214   4.058   6.352
 9794SOL    HW130281   6.192   4.132   6.287
 9794SOL    HW230282   6.244   3.977   6.301
 9795SOL     OW30283   1.439   1.901   4.064
 9795SOL    HW130284   1.467   1.864   4.152
 9795SOL    HW230285   1.519   1.926   4.010
 9796SOL     OW30286   3.499   4.083   0.375
 9796SOL    HW130287   3.428   4.137   0.422
 9796SOL    HW230288   3.586   4.132   0.380
 9797SOL     OW30289   3.870   3.915   6.690
 9797SOL    HW130290   3.946   3.914   6.626
 9797SOL    HW230291   3.785   3.931   6.641
 9798SOL     OW30292   2.380   0.778   0.785
 9798SOL    HW130293   2.314   0.708   0.809
 9798SOL    HW230294   2.335   0.867   0.780
 9799SOL     OW30295   3.235   3.582   2.622
 9799SOL    HW130296   3.232   3.660   2.559
 9799SOL    HW230297   3.330   3.565   2.648
 9800SOL     OW30298   3.328   6.025   5.890
 9800SOL    HW130299   3.407   5.990   5.940
 9800SOL    HW230300   3.356   6.052   5.798
 9801SOL     OW30301   4.429   4.845   0.131
 9801SOL    HW130302   4.406   4.914   0.200
 9801SOL    HW230303   4.524   4.817   0.143
 9802SOL     OW30304   6.966   2.805   2.336
 9802SOL    HW130305   6.917   2.860   2.403
 9802SOL    HW230306   0.008   2.743   2.383
 9803SOL     OW30307   6.033   1.176   0.120
 9803SOL    HW130308   5.979   1.200   0.201
 9803SOL    HW230309   6.090   1.097   0.140
 9804SOL     OW30310   0.596   5.363   3.515
 9804SOL    HW130311   0.506   5.320   3.505
 9804SOL    HW230312   0.658   5.300   3.563
 9805SOL     OW30313   1.177   5.957   6.745
 9805SOL    HW130314   1.083   5.927   6.760
 9805SOL    HW230315   1.225   5.961   6.833
 9806SOL     OW30316   0.893   1.970   0.986
 9806SOL    HW130317   0.911   1.872   0.992
 9806SOL    HW230318   0.913   2.002   0.894
 9807SOL     OW30319   2.320   2.777   0.276
 9807SOL    HW130320   2.248   2.733   0.330
 9807SOL    HW230321   2.407   2.770   0.325
 9808SOL     OW30322   5.324   0.774   5.528
 9808SOL    HW130323   5.361   0.758   5.619
 9808SOL    HW230324   5.399   0.797   5.465
 9809SOL     OW30325   0.477   1.925   6.230
 9809SOL    HW130326   0.379   1.912   6.245
 9809SOL    HW230327   0.504   2.015   6.263
 9810SOL     OW30328   2.930   2.273   3.308
 9810SOL    HW130329   2.851   2.313   3.354
 9810SOL    HW230330   2.902   2.193   3.256
 9811SOL     OW30331   5.729   5.377   3.850
 9811SOL    HW130332   5.698   5.293   3.894
 9811SOL    HW230333   5.725   5.367   3.751
 9812SOL     OW30334   3.506   2.343   6.450
 9812SOL    HW130335   3.532   2.439   6.444
 9812SOL    HW230336   3.571   2.295   6.510
 9813SOL     OW30337   5.496   6.172   6.810
 9813SOL    HW130338   5.546   6.129   6.885
 9813SOL    HW230339   5.478   6.105   6.739
 9814SOL     OW30340   0.790   0.989   5.805
 9814SOL    HW130341   0.858   1.041   5.753
 9814SOL    HW230342   0.773   0.902   5.759
 9815SOL     OW30343   6.662   1.916   1.477
 9815SOL    HW130344   6.749   1.956   1.446
 9815SOL    HW230345   6.642   1.834   1.424
 9816SOL     OW30346   6.660   1.154   6.855
 9816SOL    HW130347   6.666   1.054   6.848
 9816SOL    HW230348   6.568   1.179   6.884
 9817SOL     OW30349   2.876   5.846   1.798
 9817SOL    HW130350   2.972   5.865   1.781
 9817SOL    HW230351   2.866   5.793   1.882
 9818SOL     OW30352   1.488   1.052   3.749
 9818SOL    HW130353   1.523   1.134   3.793
 9818SOL    HW230354   1.564   0.998   3.712
 9819SOL     OW30355   5.253   3.630   5.025
 9819SOL    HW130356   5.262   3.613   5.123
 9819SOL    HW230357   5.166   3.592   4.993
 9820SOL     OW30358   2.854   2.171   6.655
 9820SOL    HW130359   2.847   2.153   6.753
 9820SOL    HW230360   2.901   2.258   6.640
 9821SOL     OW30361   4.057   1.816   1.005
 9821SOL    HW130362   4.085   1.911   0.991
 9821SOL    HW230363   3.976   1.796   0.950
 9822SOL     OW30364   3.997   5.561   4.214
 9822SOL    HW130365   4.004   5.461   4.207
 9822SOL    HW230366   4.065   5.594   4.280
 9823SOL     OW30367   1.050   0.459   2.097
 9823SOL    HW130368   1.128   0.400   2.074
 9823SOL    HW230369   1.028   0.518   2.019
 9824SOL     OW30370   2.719   5.815   5.683
 9824SOL    HW130371   2.733   5.871   5.601
 9824SOL    HW230372   2.701   5.721   5.656
 9825SOL     OW30373   5.468   5.701   5.439
 9825SOL    HW130374   5.469   5.759   5.521
 9825SOL    HW230375   5.507   5.751   5.362
 9826SOL     OW30376   3.836   6.360   5.269
 9826SOL    HW130377   3.792   6.313   5.346
 9826SOL    HW230378   3.765   6.397   5.209
 9827SOL     OW30379   2.185   5.216   2.945
 9827SOL    HW130380   2.153   5.308   2.964
 9827SOL    HW230381   2.263   5.195   3.005
 9828SOL     OW30382   3.610   1.978   4.971
 9828SOL    HW130383   3.524   1.970   4.921
 9828SOL    HW230384   3.680   2.016   4.910
 9829SOL     OW30385   5.126   6.750   6.329
 9829SOL    HW130386   5.076   6.769   6.413
 9829SOL    HW230387   5.069   6.697   6.267
 9830SOL     OW30388   5.715   1.318   2.174
 9830SOL    HW130389   5.707   1.225   2.211
 9830SOL    HW230390   5.679   1.384   2.240
 9831SOL     OW30391   0.311   4.378   1.820
 9831SOL    HW130392   0.252   4.453   1.789
 9831SOL    HW230393   0.363   4.343   1.742
 9832SOL     OW30394   4.896   5.377   4.205
 9832SOL    HW130395   4.944   5.341   4.285
 9832SOL    HW230396   4.816   5.320   4.185
 9833SOL     OW30397   3.502   3.863   3.266
 9833SOL    HW130398   3.439   3.819   3.330
 9833SOL    HW230399   3.500   3.814   3.178
 9834SOL     OW30400   1.959   5.241   5.948
 9834SOL    HW130401   1.963   5.142   5.963
 9834SOL    HW230402   2.052   5.277   5.942
 9835SOL     OW30403   3.443   3.578   4.021
 9835SOL    HW130404   3.462   3.536   3.933
 9835SOL    HW230405   3.382   3.519   4.074
 9836SOL     OW30406   0.430   4.432   5.308
 9836SOL    HW130407   0.432   4.337   5.275
 9836SOL    HW230408   0.359   4.483   5.259
 9837SOL     OW30409   5.599   1.878   2.492
 9837SOL    HW130410   5.527   1.811   2.476
 9837SOL    HW230411   5.673   1.864   2.427
 9838SOL     OW30412   1.408   6.596   1.078
 9838SOL    HW130413   1.332   6.532   1.063
 9838SOL    HW230414   1.490   6.561   1.033
 9839SOL     OW30415   4.324   0.968   3.735
 9839SOL    HW130416   4.333   1.048   3.675
 9839SOL    HW230417   4.413   0.925   3.748
 9840SOL     OW30418   4.639   1.521   6.960
 9840SOL    HW130419   4.729   1.500   6.922
 9840SOL    HW230420   4.619   1.618   6.945
 9841SOL     OW30421   0.789   4.953   3.411
 9841SOL    HW130422   0.814   5.009   3.489
 9841SOL    HW230423   0.691   4.930   3.416
 9842SOL     OW30424   3.529   3.287   0.254
 9842SOL    HW130425   3.450   3.324   0.206
 9842SOL    HW230426   3.561   3.353   0.323
 9843SOL     OW30427   6.711   0.320   1.948
 9843SOL    HW130428   6.649   0.359   2.016
 9843SOL    HW230429   6.719   0.383   1.871
 9844SOL     OW30430   5.945   0.553   4.693
 9844SOL    HW130431   5.858   0.592   4.722
 9844SOL    HW230432   5.949   0.552   4.593
 9845SOL     OW30433   1.156   2.319   2.428
 9845SOL    HW130434   1.255   2.330   2.429
 9845SOL    HW230435   1.133   2.225   2.455
 9846SOL     OW30436   4.801   1.424   0.957
 9846SOL    HW130437   4.734   1.408   1.029
 9846SOL    HW230438   4.852   1.508   0.976
 9847SOL     OW30439   3.836   3.052   2.131
 9847SOL    HW130440   3.865   3.148   2.132
 9847SOL    HW230441   3.873   3.006   2.051
 9848SOL     OW30442   3.568   4.075   5.485
 9848SOL    HW130443   3.649   4.116   5.526
 9848SOL    HW230444   3.491   4.138   5.493
 9849SOL     OW30445   0.880   6.957   6.401
 9849SOL    HW130446   0.827   6.931   6.320
 9849SOL    HW230447   0.845   6.907   6.480
 9850SOL     OW30448   0.142   0.460   4.057
 9850SOL    HW130449   0.066   0.496   4.003
 9850SOL    HW230450   0.122   0.367   4.085
 9851SOL     OW30451   3.130   5.477   4.752
 9851SOL    HW130452   3.042   5.429   4.762
 9851SOL    HW230453   3.134   5.519   4.661
 9852SOL     OW30454   1.271   2.143   5.275
 9852SOL    HW130455   1.294   2.240   5.264
 9852SOL    HW230456   1.319   2.090   5.205
 9853SOL     OW30457   7.008   3.767   5.492
 9853SOL    HW130458   6.978   3.857   5.461
 9853SOL    HW230459   0.036   3.721   5.418
 9854SOL     OW30460   0.872   5.873   5.237
 9854SOL    HW130461   0.773   5.874   5.250
 9854SOL    HW230462   0.903   5.779   5.226
 9855SOL     OW30463   1.282   3.450   1.404
 9855SOL    HW130464   1.213   3.387   1.368
 9855SOL    HW230465   1.350   3.470   1.334
 9856SOL     OW30466   5.678   4.848   4.182
 9856SOL    HW130467   5.752   4.909   4.153
 9856SOL    HW230468   5.653   4.869   4.277
 9857SOL     OW30469   5.701   2.874   2.900
 9857SOL    HW130470   5.780   2.911   2.948
 9857SOL    HW230471   5.669   2.940   2.832
 9858SOL     OW30472   1.055   6.592   2.020
 9858SOL    HW130473   1.086   6.680   1.984
 9858SOL    HW230474   1.083   6.584   2.116
 9859SOL     OW30475   6.826   4.718   4.973
 9859SOL    HW130476   6.767   4.642   4.944
 9859SOL    HW230477   6.789   4.758   5.057
 9860SOL     OW30478   2.007   2.306   4.899
 9860SOL    HW130479   1.945   2.285   4.975
 9860SOL    HW230480   2.075   2.234   4.890
 9861SOL     OW30481   3.451   1.287   3.652
 9861SOL    HW130482   3.413   1.220   3.717
 9861SOL    HW230483   3.549   1.268   3.639
 9862SOL     OW30484   2.642   4.291   1.055
 9862SOL    HW130485   2.643   4.384   1.092
 9862SOL    HW230486   2.579   4.286   0.978
 9863SOL     OW30487   3.310   5.835   0.738
 9863SOL    HW130488   3.406   5.834   0.710
 9863SOL    HW230489   3.263   5.756   0.698
 9864SOL     OW30490   2.884   6.901   5.439
 9864SOL    HW130491   2.896   6.840   5.361
 9864SOL    HW230492   2.971   6.911   5.488
 9865SOL     OW30493   0.294   0.178   5.001
 9865SOL    HW130494   0.383   0.191   4.958
 9865SOL    HW230495   0.257   0.267   5.029
 9866SOL     OW30496   6.048   4.478   5.033
 9866SOL    HW130497   6.058   4.402   4.969
 9866SOL    HW230498   6.109   4.463   5.111
 9867SOL     OW30499   4.711   2.371   2.886
 9867SOL    HW130500   4.791   2.431   2.875
 9867SOL    HW230501   4.629   2.427   2.899
 9868SOL     OW30502   0.589   4.033   3.746
 9868SOL    HW130503   0.626   4.125   3.734
 9868SOL    HW230504   0.565   3.994   3.657
 9869SOL     OW30505   0.971   2.502   1.032
 9869SOL    HW130506   1.020   2.441   1.095
 9869SOL    HW230507   0.966   2.593   1.072
 9870SOL     OW30508   4.110   1.149   1.956
 9870SOL    HW130509   4.054   1.219   2.002
 9870SOL    HW230510   4.144   1.084   2.023
 9871SOL     OW30511   6.548   2.521   5.594
 9871SOL    HW130512   6.640   2.562   5.598
 9871SOL    HW230513   6.549   2.443   5.531
 9872SOL     OW30514   2.263   5.264   5.001
 9872SOL    HW130515   2.239   5.309   4.915
 9872SOL    HW230516   2.362   5.259   5.010
 9873SOL     OW30517   1.774   2.281   5.443
 9873SOL    HW130518   1.788   2.182   5.453
 9873SOL    HW230519   1.803   2.327   5.526
 9874SOL     OW30520   0.799   2.732   4.317
 9874SOL    HW130521   0.787   2.793   4.238
 9874SOL    HW230522   0.749   2.769   4.395
 9875SOL     OW30523   0.304   6.278   1.416
 9875SOL    HW130524   0.396   6.266   1.452
 9875SOL    HW230525   0.297   6.366   1.368
 9876SOL     OW30526   3.329   6.997   3.791
 9876SOL    HW130527   3.302   6.929   3.722
 9876SOL    HW230528   3.398   0.037   3.752
 9877SOL     OW30529   6.988   4.310   4.116
 9877SOL    HW130530   6.906   4.305   4.058
 9877SOL    HW230531   0.031   4.238   4.089
 9878SOL     OW30532   1.801   2.907   6.967
 9878SOL    HW130533   1.709   2.943   6.982
 9878SOL    HW230534   1.869   2.974   6.997
 9879SOL     OW30535   1.302   4.547   5.611
 9879SOL    HW130536   1.373   4.565   5.680
 9879SOL    HW230537   1.217   4.520   5.657
 9880SOL     OW30538   2.865   0.985   6.632
 9880SOL    HW130539   2.800   0.947   6.567
 9880SOL    HW230540   2.816   1.019   6.712
 9881SOL     OW30541   5.521   0.317   4.717
 9881SOL    HW130542   5.590   0.279   4.656
 9881SOL    HW230543   5.471   0.242   4.762
 9882SOL     OW30544   3.565   3.518   4.306
 9882SOL    HW130545   3.553   3.446   4.238
 9882SOL    HW230546   3.491   3.514   4.373
 9883SOL     OW30547   1.946   5.394   1.950
 9883SOL    HW130548   2.041   5.418   1.968
 9883SOL    HW230549   1.902   5.364   2.035
 9884SOL     OW30550   1.918   3.291   6.881
 9884SOL    HW130551   1.911   3.212   6.943
 9884SOL    HW230552   1.851   3.281   6.808
 9885SOL     OW30553   0.484   3.046   3.716
 9885SOL    HW130554   0.582   3.028   3.708
 9885SOL    HW230555   0.467   3.107   3.793
 9886SOL     OW30556   5.995   6.236   1.886
 9886SOL    HW130557   6.091   6.216   1.906
 9886SOL    HW230558   5.938   6.202   1.961
 9887SOL     OW30559   4.286   6.757   0.390
 9887SOL    HW130560   4.294   6.736   0.488
 9887SOL    HW230561   4.297   6.856   0.377
 9888SOL     OW30562   5.756   5.722   2.654
 9888SOL    HW130563   5.727   5.669   2.734
 9888SOL    HW230564   5.739   5.819   2.671
 9889SOL     OW30565   0.031   4.697   3.235
 9889SOL    HW130566   0.075   4.611   3.208
 9889SOL    HW230567   6.952   4.686   3.234
 9890SOL     OW30568   6.311   2.719   0.367
 9890SOL    HW130569   6.283   2.671   0.450
 9890SOL    HW230570   6.231   2.740   0.312
 9891SOL     OW30571   5.096   4.699   1.376
 9891SOL    HW130572   5.128   4.633   1.444
 9891SOL    HW230573   5.168   4.714   1.308
 9892SOL     OW30574   2.217   4.937   3.897
 9892SOL    HW130575   2.166   4.858   3.930
 9892SOL    HW230576   2.190   5.018   3.948
 9893SOL     OW30577   6.016   5.940   3.094
 9893SOL    HW130578   6.049   6.025   3.134
 9893SOL    HW230579   6.034   5.940   2.995
 9894SOL     OW30580   3.569   2.151   6.244
 9894SOL    HW130581   3.482   2.167   6.197
 9894SOL    HW230582   3.602   2.237   6.283
 9895SOL     OW30583   5.893   2.100   6.593
 9895SOL    HW130584   5.973   2.057   6.635
 9895SOL    HW230585   5.812   2.083   6.649
 9896SOL     OW30586   4.000   3.242   0.790
 9896SOL    HW130587   3.934   3.183   0.743
 9896SOL    HW230588   4.068   3.274   0.724
 9897SOL     OW30589   5.374   1.791   3.057
 9897SOL    HW130590   5.459   1.842   3.071
 9897SOL    HW230591   5.318   1.838   2.990
 9898SOL     OW30592   1.255   4.782   5.434
 9898SOL    HW130593   1.197   4.864   5.436
 9898SOL    HW230594   1.223   4.718   5.504
 9899SOL     OW30595   5.530   4.574   2.182
 9899SOL    HW130596   5.605   4.567   2.248
 9899SOL    HW230597   5.488   4.483   2.169
 9900SOL     OW30598   1.472   1.791   3.304
 9900SOL    HW130599   1.460   1.872   3.246
 9900SOL    HW230600   1.444   1.812   3.397
 9901SOL     OW30601   1.377   1.509   6.248
 9901SOL    HW130602   1.449   1.461   6.297
 9901SOL    HW230603   1.376   1.479   6.152
 9902SOL     OW30604   3.920   3.513   0.793
 9902SOL    HW130605   3.948   3.417   0.795
 9902SOL    HW230606   3.903   3.545   0.886
 9903SOL     OW30607   4.842   0.821   2.619
 9903SOL    HW130608   4.839   0.816   2.519
 9903SOL    HW230609   4.753   0.792   2.656
 9904SOL     OW30610   6.982   3.537   6.477
 9904SOL    HW130611   0.031   3.530   6.549
 9904SOL    HW230612   0.005   3.564   6.392
 9905SOL     OW30613   1.407   6.583   6.919
 9905SOL    HW130614   1.502   6.576   6.948
 9905SOL    HW230615   1.403   6.622   6.827
 9906SOL     OW30616   1.555   3.160   6.189
 9906SOL    HW130617   1.607   3.119   6.114
 9906SOL    HW230618   1.468   3.113   6.199
 9907SOL     OW30619   2.717   6.000   3.537
 9907SOL    HW130620   2.796   5.965   3.586
 9907SOL    HW230621   2.635   5.951   3.565
 9908SOL     OW30622   0.816   3.015   6.365
 9908SOL    HW130623   0.852   3.101   6.328
 9908SOL    HW230624   0.719   3.007   6.343
 9909SOL     OW30625   3.162   1.048   3.136
 9909SOL    HW130626   3.136   1.104   3.057
 9909SOL    HW230627   3.087   0.986   3.159
 9910SOL     OW30628   0.555   5.078   1.182
 9910SOL    HW130629   0.583   5.109   1.091
 9910SOL    HW230630   0.525   5.156   1.236
 9911SOL     OW30631   5.092   5.131   2.544
 9911SOL    HW130632   5.158   5.096   2.478
 9911SOL    HW230633   5.070   5.060   2.610
 9912SOL     OW30634   3.760   0.651   2.746
 9912SOL    HW130635   3.857   0.627   2.749
 9912SOL    HW230636   3.722   0.623   2.658
 9913SOL     OW30637   5.658   2.823   2.522
 9913SOL    HW130638   5.607   2.814   2.607
 9913SOL    HW230639   5.625   2.756   2.455
 9914SOL     OW30640   1.465   0.653   5.549
 9914SOL    HW130641   1.508   0.655   5.640
 9914SOL    HW230642   1.513   0.587   5.491
 9915SOL     OW30643   5.664   3.639   4.156
 9915SOL    HW130644   5.600   3.644   4.232
 9915SOL    HW230645   5.614   3.620   4.071
 9916SOL     OW30646   2.173   2.942   3.070
 9916SOL    HW130647   2.212   2.896   2.990
 9916SOL    HW230648   2.190   3.040   3.063
 9917SOL     OW30649   3.353   3.676   4.840
 9917SOL    HW130650   3.263   3.702   4.876
 9917SOL    HW230651   3.424   3.733   4.882
 9918SOL     OW30652   1.817   1.486   6.210
 9918SOL    HW130653   1.812   1.586   6.216
 9918SOL    HW230654   1.735   1.445   6.250
 9919SOL     OW30655   1.635   5.553   2.793
 9919SOL    HW130656   1.572   5.613   2.843
 9919SOL    HW230657   1.585   5.504   2.722
 9920SOL     OW30658   3.876   0.102   2.147
 9920SOL    HW130659   3.859   0.190   2.103
 9920SOL    HW230660   3.928   0.116   2.231
 9921SOL     OW30661   6.085   6.415   3.378
 9921SOL    HW130662   6.111   6.325   3.412
 9921SOL    HW230663   6.127   6.486   3.435
 9922SOL     OW30664   4.870   4.411   0.865
 9922SOL    HW130665   4.908   4.450   0.781
 9922SOL    HW230666   4.775   4.383   0.849
 9923SOL     OW30667   6.517   2.589   6.243
 9923SOL    HW130668   6.582   2.576   6.318
 9923SOL    HW230669   6.567   2.621   6.162
 9924SOL     OW30670   5.821   1.217   1.804
 9924SOL    HW130671   5.763   1.186   1.728
 9924SOL    HW230672   5.764   1.261   1.873
 9925SOL     OW30673   1.897   3.614   5.655
 9925SOL    HW130674   1.946   3.684   5.707
 9925SOL    HW230675   1.918   3.624   5.558
 9926SOL     OW30676   2.678   1.934   1.015
 9926SOL    HW130677   2.716   1.848   0.980
 9926SOL    HW230678   2.710   1.949   1.108
 9927SOL     OW30679   1.144   2.003   2.314
 9927SOL    HW130680   1.159   1.905   2.320
 9927SOL    HW230681   1.113   2.038   2.402
 9928SOL     OW30682   0.143   4.855   1.901
 9928SOL    HW130683   0.083   4.864   1.821
 9928SOL    HW230684   0.170   4.760   1.912
 9929SOL     OW30685   3.191   4.188   5.275
 9929SOL    HW130686   3.190   4.173   5.374
 9929SOL    HW230687   3.274   4.148   5.236
 9930SOL     OW30688   0.204   0.636   5.637
 9930SOL    HW130689   0.263   0.663   5.561
 9930SOL    HW230690   0.129   0.580   5.602
 9931SOL     OW30691   0.684   6.238   4.384
 9931SOL    HW130692   0.624   6.161   4.359
 9931SOL    HW230693   0.766   6.203   4.429
 9932SOL     OW30694   1.677   1.745   0.665
 9932SOL    HW130695   1.714   1.656   0.693
 9932SOL    HW230696   1.680   1.808   0.742
 9933SOL     OW30697   2.275   0.559   3.620
 9933SOL    HW130698   2.316   0.534   3.708
 9933SOL    HW230699   2.346   0.593   3.559
 9934SOL     OW30700   5.760   1.508   0.404
 9934SOL    HW130701   5.758   1.531   0.501
 9934SOL    HW230702   5.685   1.555   0.357
 9935SOL     OW30703   3.018   2.474   1.003
 9935SOL    HW130704   2.950   2.432   1.063
 9935SOL    HW230705   3.010   2.574   1.008
 9936SOL     OW30706   5.203   4.895   6.035
 9936SOL    HW130707   5.258   4.914   5.954
 9936SOL    HW230708   5.208   4.797   6.055
 9937SOL     OW30709   6.824   0.399   3.106
 9937SOL    HW130710   6.753   0.364   3.168
 9937SOL    HW230711   6.836   0.497   3.120
 9938SOL     OW30712   5.875   0.901   4.700
 9938SOL    HW130713   5.825   0.985   4.683
 9938SOL    HW230714   5.815   0.834   4.743
 9939SOL     OW30715   1.697   3.419   0.810
 9939SOL    HW130716   1.691   3.325   0.774
 9939SOL    HW230717   1.629   3.476   0.764
 9940SOL     OW30718   6.567   6.875   3.494
 9940SOL    HW130719   6.557   6.935   3.573
 9940SOL    HW230720   6.604   6.787   3.523
 9941SOL     OW30721   3.868   4.863   5.539
 9941SOL    HW130722   3.776   4.901   5.534
 9941SOL    HW230723   3.884   4.827   5.631
 9942SOL     OW30724   4.914   5.309   2.466
 9942SOL    HW130725   4.960   5.246   2.528
 9942SOL    HW230726   4.962   5.397   2.468
 9943SOL     OW30727   1.485   4.089   6.385
 9943SOL    HW130728   1.464   4.168   6.326
 9943SOL    HW230729   1.434   4.009   6.352
 9944SOL     OW30730   0.916   5.170   6.373
 9944SOL    HW130731   0.834   5.139   6.422
 9944SOL    HW230732   0.989   5.104   6.386
 9945SOL     OW30733   6.555   3.785   6.238
 9945SOL    HW130734   6.546   3.727   6.157
 9945SOL    HW230735   6.504   3.744   6.314
 9946SOL     OW30736   5.893   0.295   3.019
 9946SOL    HW130737   5.889   0.270   3.115
 9946SOL    HW230738   5.955   0.372   3.006
 9947SOL     OW30739   1.172   1.839   4.105
 9947SOL    HW130740   1.130   1.928   4.122
 9947SOL    HW230741   1.271   1.851   4.091
 9948SOL     OW30742   6.798   6.548   4.899
 9948SOL    HW130743   6.703   6.526   4.920
 9948SOL    HW230744   6.803   6.600   4.814
 9949SOL     OW30745   6.875   4.635   4.314
 9949SOL    HW130746   6.803   4.582   4.270
 9949SOL    HW230747   6.962   4.588   4.304
 9950SOL     OW30748   6.280   4.658   6.705
 9950SOL    HW130749   6.360   4.599   6.694
 9950SOL    HW230750   6.222   4.650   6.624
 9951SOL     OW30751   1.443   3.414   2.506
 9951SOL    HW130752   1.381   3.369   2.442
 9951SOL    HW230753   1.517   3.352   2.530
 9952SOL     OW30754   0.812   3.430   1.581
 9952SOL    HW130755   0.825   3.419   1.679
 9952SOL    HW230756   0.727   3.385   1.553
 9953SOL     OW30757   6.403   2.942   3.571
 9953SOL    HW130758   6.479   2.908   3.625
 9953SOL    HW230759   6.330   2.974   3.633
 9954SOL     OW30760   2.444   1.782   5.213
 9954SOL    HW130761   2.370   1.742   5.267
 9954SOL    HW230762   2.520   1.718   5.207
 9955SOL     OW30763   4.165   3.223   0.030
 9955SOL    HW130764   4.179   3.137   7.000
 9955SOL    HW230765   4.252   3.271   0.036
 9956SOL     OW30766   0.512   4.263   2.213
 9956SOL    HW130767   0.598   4.292   2.255
 9956SOL    HW230768   0.469   4.194   2.271
 9957SOL     OW30769   5.959   6.993   1.548
 9957SOL    HW130770   6.023   6.999   1.471
 9957SOL    HW230771   5.904   6.910   1.539
 9958SOL     OW30772   3.477   5.130   6.257
 9958SOL    HW130773   3.380   5.116   6.278
 9958SOL    HW230774   3.527   5.150   6.342
 9959SOL     OW30775   4.381   3.632   1.618
 9959SOL    HW130776   4.373   3.533   1.630
 9959SOL    HW230777   4.289   3.672   1.608
 9960SOL     OW30778   6.295   6.653   1.157
 9960SOL    HW130779   6.265   6.715   1.085
 9960SOL    HW230780   6.236   6.572   1.157
 9961SOL     OW30781   1.338   4.543   1.826
 9961SOL    HW130782   1.271   4.503   1.763
 9961SOL    HW230783   1.292   4.571   1.910
 9962SOL     OW30784   3.901   6.918   1.793
 9962SOL    HW130785   3.859   6.833   1.823
 9962SOL    HW230786   3.830   6.985   1.774
 9963SOL     OW30787   2.993   2.302   0.447
 9963SOL    HW130788   3.034   2.384   0.406
 9963SOL    HW230789   3.053   2.224   0.433
 9964SOL     OW30790   4.546   4.921   5.650
 9964SOL    HW130791   4.518   4.987   5.579
 9964SOL    HW230792   4.629   4.953   5.694
 9965SOL     OW30793   3.633   5.775   5.215
 9965SOL    HW130794   3.587   5.746   5.131
 9965SOL    HW230795   3.654   5.695   5.271
 9966SOL     OW30796   2.997   4.837   2.212
 9966SOL    HW130797   3.043   4.772   2.152
 9966SOL    HW230798   3.048   4.923   2.213
 9967SOL     OW30799   6.103   6.315   2.534
 9967SOL    HW130800   6.038   6.343   2.605
 9967SOL    HW230801   6.189   6.364   2.547
 9968SOL     OW30802   4.210   5.811   6.931
 9968SOL    HW130803   4.294   5.814   6.877
 9968SOL    HW230804   4.131   5.819   6.869
 9969SOL     OW30805   0.851   4.274   4.482
 9969SOL    HW130806   0.891   4.246   4.569
 9969SOL    HW230807   0.802   4.197   4.441
 9970SOL     OW30808   5.629   5.222   1.739
 9970SOL    HW130809   5.538   5.242   1.777
 9970SOL    HW230810   5.642   5.272   1.654
 9971SOL     OW30811   1.588   2.764   1.437
 9971SOL    HW130812   1.610   2.677   1.392
 9971SOL    HW230813   1.516   2.810   1.385
 9972SOL     OW30814   3.418   4.383   1.056
 9972SOL    HW130815   3.388   4.476   1.038
 9972SOL    HW230816   3.478   4.352   0.983
 9973SOL     OW30817   4.611   2.694   4.895
 9973SOL    HW130818   4.526   2.644   4.877
 9973SOL    HW230819   4.656   2.715   4.808
 9974SOL     OW30820   6.751   2.003   3.109
 9974SOL    HW130821   6.762   2.019   3.011
 9974SOL    HW230822   6.679   1.934   3.124
 9975SOL     OW30823   0.706   5.102   6.580
 9975SOL    HW130824   0.617   5.089   6.537
 9975SOL    HW230825   0.694   5.120   6.677
 9976SOL     OW30826   1.227   5.193   5.876
 9976SOL    HW130827   1.323   5.167   5.862
 9976SOL    HW230828   1.191   5.145   5.957
 9977SOL     OW30829   5.176   5.079   5.587
 9977SOL    HW130830   5.219   5.034   5.509
 9977SOL    HW230831   5.183   5.179   5.576
 9978SOL     OW30832   0.264   2.334   5.994
 9978SOL    HW130833   0.234   2.302   6.084
 9978SOL    HW230834   0.238   2.267   5.924
 9979SOL     OW30835   5.277   3.958   5.849
 9979SOL    HW130836   5.331   3.976   5.931
 9979SOL    HW230837   5.216   3.880   5.865
 9980SOL     OW30838   1.963   0.717   0.381
 9980SOL    HW130839   1.946   0.640   0.443
 9980SOL    HW230840   1.926   0.695   0.291
 9981SOL     OW30841   1.461   2.058   0.822
 9981SOL    HW130842   1.422   1.986   0.880
 9981SOL    HW230843   1.541   2.022   0.774
 9982SOL     OW30844   1.990   1.015   4.572
 9982SOL    HW130845   1.953   0.932   4.614
 9982SOL    HW230846   1.955   1.024   4.479
 9983SOL     OW30847   6.540   2.579   2.487
 9983SOL    HW130848   6.589   2.629   2.558
 9983SOL    HW230849   6.465   2.528   2.528
 9984SOL     OW30850   0.047   5.992   0.923
 9984SOL    HW130851   0.139   5.954   0.930
 9984SOL    HW230852   0.019   6.028   1.012
 9985SOL     OW30853   3.185   5.273   1.070
 9985SOL    HW130854   3.206   5.369   1.090
 9985SOL    HW230855   3.139   5.267   0.981
 9986SOL     OW30856   6.173   4.541   0.806
 9986SOL    HW130857   6.086   4.532   0.757
 9986SOL    HW230858   6.230   4.610   0.762
 9987SOL     OW30859   5.058   3.093   1.759
 9987SOL    HW130860   4.974   3.043   1.738
 9987SOL    HW230861   5.066   3.104   1.858
 9988SOL     OW30862   7.017   5.328   4.619
 9988SOL    HW130863   0.015   5.414   4.667
 9988SOL    HW230864   6.938   5.339   4.559
 9989SOL     OW30865   6.125   3.716   2.110
 9989SOL    HW130866   6.154   3.622   2.096
 9989SOL    HW230867   6.202   3.778   2.094
 9990SOL     OW30868   1.247   6.243   3.280
 9990SOL    HW130869   1.179   6.181   3.318
 9990SOL    HW230870   1.338   6.218   3.313
 9991SOL     OW30871   2.035   3.313   3.822
 9991SOL    HW130872   1.962   3.247   3.805
 9991SOL    HW230873   2.020   3.358   3.910
 9992SOL     OW30874   3.268   3.937   1.053
 9992SOL    HW130875   3.233   3.910   1.142
 9992SOL    HW230876   3.358   3.979   1.064
 9993SOL     OW30877   3.339   6.336   4.041
 9993SOL    HW130878   3.391   6.410   3.999
 9993SOL    HW230879   3.284   6.290   3.971
 9994SOL     OW30880   6.945   4.025   3.282
 9994SOL    HW130881   6.905   4.032   3.190
 9994SOL    HW230882   6.916   4.103   3.337
 9995SOL     OW30883   3.626   0.892   3.019
 9995SOL    HW130884   3.563   0.930   3.087
 9995SOL    HW230885   3.720   0.913   3.046
 9996SOL     OW30886   3.326   4.018   0.772
 9996SOL    HW130887   3.298   3.976   0.859
 9996SOL    HW230888   3.421   3.995   0.754
 9997SOL     OW30889   4.866   1.482   3.389
 9997SOL    HW130890   4.942   1.546   3.398
 9997SOL    HW230891   4.896   1.401   3.339
 9998SOL     OW30892   4.912   3.751   2.545
 9998SOL    HW130893   4.875   3.768   2.636
 9998SOL    HW230894   4.912   3.837   2.493
 9999SOL     OW30895   6.878   6.530   4.146
 9999SOL    HW130896   6.859   6.498   4.239
 9999SOL    HW230897   6.966   6.493   4.116
10000SOL     OW30898   5.704   1.538   1.510
10000SOL    HW130899   5.795   1.560   1.545
10000SOL    HW230900   5.674   1.449   1.545
10001SOL     OW30901   3.370   6.562   2.121
10001SOL    HW130902   3.287   6.507   2.124
10001SOL    HW230903   3.444   6.509   2.079
10002SOL     OW30904   2.602   1.483   1.149
10002SOL    HW130905   2.666   1.521   1.216
10002SOL    HW230906   2.613   1.532   1.062
10003SOL     OW30907   3.437   1.584   2.451
10003SOL    HW130908   3.517   1.524   2.448
10003SOL    HW230909   3.393   1.585   2.362
10004SOL     OW30910   5.344   3.788   4.676
10004SOL    HW130911   5.400   3.733   4.738
10004SOL    HW230912   5.353   3.885   4.701
10005SOL     OW30913   3.611   5.479   2.649
10005SOL    HW130914   3.677   5.504   2.720
10005SOL    HW230915   3.522   5.519   2.670
10006SOL     OW30916   5.336   0.001   5.330
10006SOL    HW130917   5.312   7.011   5.233
10006SOL    HW230918   5.386   6.940   5.361
10007SOL     OW30919   0.861   3.719   4.624
10007SOL    HW130920   0.896   3.806   4.660
10007SOL    HW230921   0.793   3.682   4.687
10008SOL     OW30922   5.051   2.052   3.912
10008SOL    HW130923   5.086   2.053   3.818
10008SOL    HW230924   5.095   2.125   3.964
10009SOL     OW30925   1.651   4.508   1.416
10009SOL    HW130926   1.635   4.606   1.401
10009SOL    HW230927   1.729   4.479   1.361
10010SOL     OW30928   3.079   6.022   0.004
10010SOL    HW130929   3.175   6.022   0.032
10010SOL    HW230930   3.035   5.937   0.032
10011SOL     OW30931   0.281   4.074   6.885
10011SOL    HW130932   0.360   4.075   6.823
10011SOL    HW230933   0.198   4.093   6.832
10012SOL     OW30934   4.863   0.381   2.473
10012SOL    HW130935   4.893   0.301   2.524
10012SOL    HW230936   4.883   0.464   2.525
10013SOL     OW30937   1.015   3.735   3.906
10013SOL    HW130938   0.969   3.696   3.826
10013SOL    HW230939   1.104   3.771   3.879
10014SOL     OW30940   1.247   6.839   2.086
10014SOL    HW130941   1.325   6.843   2.023
10014SOL    HW230942   1.206   6.930   2.094
10015SOL     OW30943   3.998   4.897   0.261
10015SOL    HW130944   4.053   4.974   0.230
10015SOL    HW230945   3.952   4.921   0.347
10016SOL     OW30946   2.417   1.406   4.813
10016SOL    HW130947   2.357   1.398   4.733
10016SOL    HW230948   2.380   1.474   4.876
10017SOL     OW30949   1.654   1.184   2.955
10017SOL    HW130950   1.572   1.201   3.010
10017SOL    HW230951   1.731   1.237   2.992
10018SOL     OW30952   6.337   3.974   5.519
10018SOL    HW130953   6.398   4.036   5.469
10018SOL    HW230954   6.384   3.939   5.600
10019SOL     OW30955   0.524   1.333   3.079
10019SOL    HW130956   0.441   1.387   3.062
10019SOL    HW230957   0.602   1.394   3.090
10020SOL     OW30958   0.429   1.067   2.043
10020SOL    HW130959   0.448   1.115   1.957
10020SOL    HW230960   0.378   0.983   2.024
10021SOL     OW30961   0.660   2.893   2.303
10021SOL    HW130962   0.641   2.797   2.280
10021SOL    HW230963   0.758   2.910   2.292
10022SOL     OW30964   3.034   5.703   0.601
10022SOL    HW130965   3.044   5.803   0.594
10022SOL    HW230966   3.035   5.663   0.510
10023SOL     OW30967   2.708   5.470   4.957
10023SOL    HW130968   2.683   5.567   4.959
10023SOL    HW230969   2.634   5.415   4.995
10024SOL     OW30970   1.116   5.147   3.025
10024SOL    HW130971   1.056   5.079   2.982
10024SOL    HW230972   1.176   5.102   3.090
10025SOL     OW30973   1.287   3.210   2.345
10025SOL    HW130974   1.380   3.219   2.310
10025SOL    HW230975   1.269   3.115   2.369
10026SOL     OW30976   5.036   7.006   3.698
10026SOL    HW130977   5.054   6.915   3.734
10026SOL    HW230978   4.986   0.039   3.766
10027SOL     OW30979   0.464   2.052   5.082
10027SOL    HW130980   0.407   1.992   5.027
10027SOL    HW230981   0.407   2.109   5.140
10028SOL     OW30982   2.474   1.566   1.414
10028SOL    HW130983   2.481   1.468   1.430
10028SOL    HW230984   2.426   1.583   1.327
10029SOL     OW30985   1.470   3.260   3.626
10029SOL    HW130986   1.388   3.272   3.682
10029SOL    HW230987   1.449   3.288   3.532
10030SOL     OW30988   3.334   0.518   5.081
10030SOL    HW130989   3.394   0.596   5.098
10030SOL    HW230990   3.372   0.463   5.007
10031SOL     OW30991   4.948   5.092   4.558
10031SOL    HW130992   4.960   5.184   4.520
10031SOL    HW230993   4.993   5.025   4.500
10032SOL     OW30994   4.134   0.522   5.900
10032SOL    HW130995   4.226   0.497   5.871
10032SOL    HW230996   4.109   0.470   5.982
10033SOL     OW30997   4.563   2.243   4.586
10033SOL    HW130998   4.537   2.191   4.667
10033SOL    HW230999   4.543   2.340   4.601
10034SOL     OW31000   2.397   1.051   3.627
10034SOL    HW131001   2.470   1.116   3.647
10034SOL    HW231002   2.309   1.090   3.653
10035SOL     OW31003   6.121   4.035   0.414
10035SOL    HW131004   6.153   4.127   0.393
10035SOL    HW231005   6.199   3.974   0.423
10036SOL     OW31006   6.949   0.577   0.458
10036SOL    HW131007   6.991   0.604   0.545
10036SOL    HW231008   6.909   0.486   0.467
10037SOL     OW31009   6.316   0.108   6.769
10037SOL    HW131010   6.286   0.059   6.851
10037SOL    HW231011   6.237   0.147   6.723
10038SOL     OW31012   4.423   0.045   6.282
10038SOL    HW131013   4.463   0.102   6.210
10038SOL    HW231014   4.461   6.973   6.277
10039SOL     OW31015   5.252   6.681   5.441
10039SOL    HW131016   5.330   6.667   5.501
10039SOL    HW231017   5.199   6.760   5.473
10040SOL     OW31018   4.116   6.200   5.834
10040SOL    HW131019   4.033   6.182   5.887
10040SOL    HW231020   4.092   6.212   5.738
10041SOL     OW31021   5.385   5.589   6.573
10041SOL    HW131022   5.312   5.622   6.513
10041SOL    HW231023   5.375   5.629   6.664
10042SOL     OW31024   0.391   1.217   5.514
10042SOL    HW131025   0.314   1.216   5.577
10042SOL    HW231026   0.427   1.124   5.505
10043SOL     OW31027   0.453   1.131   3.855
10043SOL    HW131028   0.543   1.172   3.842
10043SOL    HW231029   0.421   1.094   3.768
10044SOL     OW31030   2.696   2.224   3.505
10044SOL    HW131031   2.704   2.275   3.591
10044SOL    HW231032   2.687   2.126   3.525
10045SOL     OW31033   4.895   0.152   3.922
10045SOL    HW131034   4.851   0.230   3.966
10045SOL    HW231035   4.967   0.117   3.981
10046SOL     OW31036   1.623   2.542   1.287
10046SOL    HW131037   1.528   2.517   1.269
10046SOL    HW231038   1.684   2.475   1.243
10047SOL     OW31039   5.519   3.431   5.064
10047SOL    HW131040   5.496   3.495   5.137
10047SOL    HW231041   5.476   3.460   4.979
10048SOL     OW31042   3.625   1.903   2.370
10048SOL    HW131043   3.695   1.925   2.302
10048SOL    HW231044   3.658   1.830   2.430
10049SOL     OW31045   0.386   0.683   6.915
10049SOL    HW131046   0.418   0.720   6.828
10049SOL    HW231047   0.426   0.735   6.990
10050SOL     OW31048   6.488   2.636   5.008
10050SOL    HW131049   6.533   2.571   4.947
10050SOL    HW231050   6.451   2.587   5.087
10051SOL     OW31051   6.017   2.145   5.096
10051SOL    HW131052   6.095   2.173   5.151
10051SOL    HW231053   6.034   2.169   5.000
10052SOL     OW31054   2.369   2.537   2.611
10052SOL    HW131055   2.290   2.591   2.583
10052SOL    HW231056   2.398   2.479   2.534
10053SOL     OW31057   3.535   5.242   1.661
10053SOL    HW131058   3.613   5.301   1.639
10053SOL    HW231059   3.462   5.296   1.703
10054SOL     OW31060   4.092   5.816   5.950
10054SOL    HW131061   4.109   5.791   5.854
10054SOL    HW231062   3.997   5.797   5.972
10055SOL     OW31063   5.602   2.216   5.488
10055SOL    HW131064   5.662   2.218   5.408
10055SOL    HW231065   5.543   2.297   5.488
10056SOL     OW31066   6.638   5.205   0.974
10056SOL    HW131067   6.606   5.240   0.887
10056SOL    HW231068   6.695   5.125   0.959
10057SOL     OW31069   3.821   1.620   4.431
10057SOL    HW131070   3.910   1.576   4.445
10057SOL    HW231071   3.748   1.559   4.464
10058SOL     OW31072   0.237   3.609   4.728
10058SOL    HW131073   0.233   3.701   4.689
10058SOL    HW231074   0.307   3.556   4.681
10059SOL     OW31075   5.121   6.109   0.477
10059SOL    HW131076   5.172   6.064   0.404
10059SOL    HW231077   5.120   6.208   0.461
10060SOL     OW31078   2.446   1.503   2.415
10060SOL    HW131079   2.404   1.509   2.324
10060SOL    HW231080   2.413   1.420   2.461
10061SOL     OW31081   5.243   1.221   4.773
10061SOL    HW131082   5.196   1.166   4.704
10061SOL    HW231083   5.301   1.289   4.728
10062SOL     OW31084   6.277   6.769   4.827
10062SOL    HW131085   6.252   6.717   4.909
10062SOL    HW231086   6.374   6.756   4.807
10063SOL     OW31087   1.742   1.602   3.860
10063SOL    HW131088   1.766   1.562   3.771
10063SOL    HW231089   1.651   1.571   3.888
10064SOL     OW31090   5.163   6.178   6.640
10064SOL    HW131091   5.168   6.276   6.618
10064SOL    HW231092   5.129   6.128   6.561
10065SOL     OW31093   2.164   0.806   2.311
10065SOL    HW131094   2.219   0.879   2.352
10065SOL    HW231095   2.069   0.837   2.304
10066SOL     OW31096   1.589   1.286   3.835
10066SOL    HW131097   1.526   1.326   3.902
10066SOL    HW231098   1.683   1.292   3.870
10067SOL     OW31099   6.007   3.905   5.039
10067SOL    HW131100   6.075   3.899   4.966
10067SOL    HW231101   6.001   4.000   5.071
10068SOL     OW31102   6.249   3.241   3.656
10068SOL    HW131103   6.227   3.213   3.562
10068SOL    HW231104   6.182   3.308   3.687
10069SOL     OW31105   1.890   5.276   3.755
10069SOL    HW131106   1.803   5.312   3.788
10069SOL    HW231107   1.873   5.204   3.687
10070SOL     OW31108   6.855   0.183   5.189
10070SOL    HW131109   6.944   0.144   5.215
10070SOL    HW231110   6.788   0.109   5.178
10071SOL     OW31111   5.453   5.699   3.652
10071SOL    HW131112   5.518   5.636   3.694
10071SOL    HW231113   5.477   5.793   3.678
10072SOL     OW31114   0.139   5.747   3.629
10072SOL    HW131115   0.058   5.778   3.678
10072SOL    HW231116   0.177   5.667   3.675
10073SOL     OW31117   5.862   4.950   4.701
10073SOL    HW131118   5.916   4.897   4.767
10073SOL    HW231119   5.777   4.902   4.681
10074SOL     OW31120   1.582   1.117   5.035
10074SOL    HW131121   1.576   1.025   5.072
10074SOL    HW231122   1.498   1.138   4.984
10075SOL     OW31123   1.138   2.473   2.690
10075SOL    HW131124   1.148   2.569   2.666
10075SOL    HW231125   1.082   2.427   2.620
10076SOL     OW31126   5.966   0.094   3.998
10076SOL    HW131127   6.063   0.103   3.974
10076SOL    HW231128   5.917   0.053   3.921
10077SOL     OW31129   3.646   2.877   5.904
10077SOL    HW131130   3.645   2.876   6.004
10077SOL    HW231131   3.696   2.957   5.872
10078SOL     OW31132   0.133   5.722   3.998
10078SOL    HW131133   0.136   5.767   4.087
10078SOL    HW231134   0.039   5.696   3.977
10079SOL     OW31135   0.625   3.319   2.438
10079SOL    HW131136   0.594   3.411   2.417
10079SOL    HW231137   0.603   3.258   2.361
10080SOL     OW31138   3.570   1.315   5.481
10080SOL    HW131139   3.651   1.314   5.423
10080SOL    HW231140   3.493   1.355   5.431
10081SOL     OW31141   0.882   0.823   0.133
10081SOL    HW131142   0.880   0.909   0.081
10081SOL    HW231143   0.811   0.762   0.099
10082SOL     OW31144   0.235   4.840   2.418
10082SOL    HW131145   0.309   4.786   2.378
10082SOL    HW231146   0.198   4.902   2.348
10083SOL     OW31147   5.102   0.572   3.275
10083SOL    HW131148   5.097   0.531   3.366
10083SOL    HW231149   5.068   0.666   3.279
10084SOL     OW31150   3.289   1.411   6.500
10084SOL    HW131151   3.199   1.448   6.524
10084SOL    HW231152   3.283   1.364   6.412
10085SOL     OW31153   1.103   6.607   2.275
10085SOL    HW131154   1.198   6.592   2.303
10085SOL    HW231155   1.042   6.560   2.339
10086SOL     OW31156   5.822   5.031   1.814
10086SOL    HW131157   5.743   5.080   1.778
10086SOL    HW231158   5.862   4.974   1.742
10087SOL     OW31159   6.900   6.720   3.788
10087SOL    HW131160   6.994   6.687   3.781
10087SOL    HW231161   6.848   6.688   3.708
10088SOL     OW31162   0.059   0.339   0.231
10088SOL    HW131163   0.064   0.439   0.225
10088SOL    HW231164   0.053   0.312   0.327
10089SOL     OW31165   2.704   2.385   2.941
10089SOL    HW131166   2.791   2.404   2.985
10089SOL    HW231167   2.719   2.344   2.852
10090SOL     OW31168   1.113   5.133   1.073
10090SOL    HW131169   1.066   5.074   1.138
10090SOL    HW231170   1.049   5.161   1.001
10091SOL     OW31171   1.456   3.342   5.330
10091SOL    HW131172   1.363   3.370   5.307
10091SOL    HW231173   1.460   3.243   5.342
10092SOL     OW31174   1.859   3.516   5.059
10092SOL    HW131175   1.868   3.416   5.054
10092SOL    HW231176   1.949   3.556   5.076
10093SOL     OW31177   0.293   3.930   5.164
10093SOL    HW131178   0.285   3.912   5.262
10093SOL    HW231179   0.203   3.953   5.128
10094SOL     OW31180   1.571   6.128   2.145
10094SOL    HW131181   1.617   6.041   2.132
10094SOL    HW231182   1.626   6.201   2.104
10095SOL     OW31183   5.875   1.511   4.869
10095SOL    HW131184   5.870   1.416   4.900
10095SOL    HW231185   5.823   1.569   4.931
10096SOL     OW31186   5.460   5.059   2.412
10096SOL    HW131187   5.368   5.053   2.372
10096SOL    HW231188   5.527   5.069   2.339
10097SOL     OW31189   1.282   1.087   0.077
10097SOL    HW131190   1.341   1.166   0.088
10097SOL    HW231191   1.256   1.051   0.167
10098SOL     OW31192   2.538   0.792   4.990
10098SOL    HW131193   2.603   0.797   5.065
10098SOL    HW231194   2.473   0.868   4.997
10099SOL     OW31195   6.961   4.942   0.282
10099SOL    HW131196   6.982   4.858   0.331
10099SOL    HW231197   0.023   4.998   0.272
10100SOL     OW31198   4.814   0.011   4.667
10100SOL    HW131199   4.810   0.034   4.569
10100SOL    HW231200   4.882   0.069   4.712
10101SOL     OW31201   6.123   3.699   1.118
10101SOL    HW131202   6.165   3.789   1.122
10101SOL    HW231203   6.027   3.706   1.147
10102SOL     OW31204   1.529   0.782   2.590
10102SOL    HW131205   1.461   0.758   2.522
10102SOL    HW231206   1.597   0.844   2.550
10103SOL     OW31207   2.321   1.829   6.281
10103SOL    HW131208   2.340   1.918   6.239
10103SOL    HW231209   2.299   1.843   6.378
10104SOL     OW31210   1.284   2.936   4.482
10104SOL    HW131211   1.353   2.975   4.420
10104SOL    HW231212   1.232   2.866   4.433
10105SOL     OW31213   1.222   0.588   7.016
10105SOL    HW131214   1.210   0.686   6.996
10105SOL    HW231215   1.317   0.571   0.022
10106SOL     OW31216   4.335   6.359   0.947
10106SOL    HW131217   4.425   6.324   0.921
10106SOL    HW231218   4.345   6.435   1.011
10107SOL     OW31219   0.442   1.181   6.680
10107SOL    HW131220   0.424   1.113   6.609
10107SOL    HW231221   0.395   1.153   6.764
10108SOL     OW31222   6.593   6.540   0.329
10108SOL    HW131223   6.559   6.451   0.359
10108SOL    HW231224   6.591   6.545   0.229
10109SOL     OW31225   4.384   0.280   1.350
10109SOL    HW131226   4.426   0.220   1.282
10109SOL    HW231227   4.295   0.312   1.315
10110SOL     OW31228   4.479   5.982   4.822
10110SOL    HW131229   4.479   5.940   4.731
10110SOL    HW231230   4.389   6.022   4.840
10111SOL     OW31231   5.331   3.845   3.445
10111SOL    HW131232   5.375   3.923   3.490
10111SOL    HW231233   5.233   3.845   3.466
10112SOL     OW31234   5.757   3.887   3.773
10112SOL    HW131235   5.671   3.877   3.824
10112SOL    HW231236   5.773   3.983   3.753
10113SOL     OW31237   4.414   6.953   5.204
10113SOL    HW131238   4.407   6.884   5.131
10113SOL    HW231239   4.436   0.021   5.163
10114SOL     OW31240   5.676   1.029   1.121
10114SOL    HW131241   5.740   1.057   1.049
10114SOL    HW231242   5.699   0.937   1.153
10115SOL     OW31243   3.421   1.587   4.090
10115SOL    HW131244   3.379   1.496   4.093
10115SOL    HW231245   3.517   1.579   4.064
10116SOL     OW31246   6.832   6.089   0.504
10116SOL    HW131247   6.837   6.137   0.416
10116SOL    HW231248   6.918   6.101   0.553
10117SOL     OW31249   0.328   6.731   4.942
10117SOL    HW131250   0.414   6.695   4.907
10117SOL    HW231251   0.253   6.702   4.883
10118SOL     OW31252   1.754   5.049   3.132
10118SOL    HW131253   1.781   4.954   3.123
10118SOL    HW231254   1.823   5.108   3.088
10119SOL     OW31255   0.438   6.040   4.176
10119SOL    HW131256   0.534   6.013   4.164
10119SOL    HW231257   0.424   6.071   4.270
10120SOL     OW31258   1.677   4.089   5.007
10120SOL    HW131259   1.652   4.061   5.100
10120SOL    HW231260   1.742   4.024   4.968
10121SOL     OW31261   6.305   4.441   6.464
10121SOL    HW131262   6.377   4.457   6.397
10121SOL    HW231263   6.218   4.425   6.417
10122SOL     OW31264   6.152   2.754   0.938
10122SOL    HW131265   6.064   2.709   0.929
10122SOL    HW231266   6.143   2.851   0.915
10123SOL     OW31267   6.230   0.044   0.348
10123SOL    HW131268   6.174   0.121   0.321
10123SOL    HW231269   6.302   0.075   0.411
10124SOL     OW31270   1.944   3.654   6.705
10124SOL    HW131271   1.924   3.720   6.632
10124SOL    HW231272   1.970   3.703   6.788
10125SOL     OW31273   1.742   0.932   2.525
10125SOL    HW131274   1.820   0.885   2.483
10125SOL    HW231275   1.762   0.951   2.621
10126SOL     OW31276   0.707   0.220   5.890
10126SOL    HW131277   0.792   0.187   5.849
10126SOL    HW231278   0.671   0.151   5.953
10127SOL     OW31279   2.488   4.571   6.308
10127SOL    HW131280   2.445   4.504   6.248
10127SOL    HW231281   2.584   4.549   6.321
10128SOL     OW31282   1.919   0.933   1.479
10128SOL    HW131283   1.935   0.982   1.393
10128SOL    HW231284   1.992   0.868   1.495
10129SOL     OW31285   6.021   2.670   2.986
10129SOL    HW131286   5.972   2.689   3.070
10129SOL    HW231287   5.957   2.640   2.915
10130SOL     OW31288   1.826   4.126   2.205
10130SOL    HW131289   1.871   4.039   2.184
10130SOL    HW231290   1.885   4.201   2.176
10131SOL     OW31291   0.644   0.189   3.633
10131SOL    HW131292   0.635   0.124   3.557
10131SOL    HW231293   0.655   0.139   3.719
10132SOL     OW31294   3.192   7.007   4.794
10132SOL    HW131295   3.271   0.037   4.759
10132SOL    HW231296   3.149   0.039   4.868
10133SOL     OW31297   4.775   6.255   1.352
10133SOL    HW131298   4.835   6.246   1.273
10133SOL    HW231299   4.823   6.223   1.434
10134SOL     OW31300   0.104   6.091   3.905
10134SOL    HW131301   0.182   6.107   3.845
10134SOL    HW231302   0.032   6.044   3.854
10135SOL     OW31303   4.903   3.389   3.484
10135SOL    HW131304   4.905   3.436   3.573
10135SOL    HW231305   4.868   3.296   3.497
10136SOL     OW31306   5.142   0.532   3.553
10136SOL    HW131307   5.237   0.565   3.556
10136SOL    HW231308   5.081   0.601   3.591
10137SOL     OW31309   5.984   4.303   3.821
10137SOL    HW131310   6.072   4.262   3.846
10137SOL    HW231311   5.920   4.231   3.796
10138SOL     OW31312   5.141   2.505   0.800
10138SOL    HW131313   5.117   2.572   0.730
10138SOL    HW231314   5.126   2.543   0.891
10139SOL     OW31315   3.887   3.920   3.428
10139SOL    HW131316   3.859   3.890   3.337
10139SOL    HW231317   3.941   3.848   3.472
10140SOL     OW31318   6.159   6.183   6.373
10140SOL    HW131319   6.090   6.249   6.401
10140SOL    HW231320   6.209   6.219   6.294
10141SOL     OW31321   4.260   1.836   4.640
10141SOL    HW131322   4.164   1.847   4.613
10141SOL    HW231323   4.279   1.896   4.717
10142SOL     OW31324   6.237   0.033   5.141
10142SOL    HW131325   6.225   0.063   5.236
10142SOL    HW231326   6.153   0.048   5.090
10143SOL     OW31327   4.657   0.922   6.880
10143SOL    HW131328   4.569   0.924   6.928
10143SOL    HW231329   4.659   0.995   6.812
10144SOL     OW31330   3.597   0.225   6.639
10144SOL    HW131331   3.639   0.241   6.549
10144SOL    HW231332   3.670   0.210   6.707
10145SOL     OW31333   3.046   5.166   4.994
10145SOL    HW131334   2.977   5.139   5.061
10145SOL    HW231335   3.003   5.175   4.904
10146SOL     OW31336   3.979   5.244   4.749
10146SOL    HW131337   4.001   5.342   4.742
10146SOL    HW231338   4.057   5.195   4.786
10147SOL     OW31339   5.182   4.298   5.304
10147SOL    HW131340   5.128   4.320   5.386
10147SOL    HW231341   5.254   4.233   5.329
10148SOL     OW31342   4.242   5.546   7.002
10148SOL    HW131343   4.252   5.640   6.970
10148SOL    HW231344   4.270   5.541   0.078
10149SOL     OW31345   6.104   2.798   0.222
10149SOL    HW131346   6.114   2.885   0.174
10149SOL    HW231347   6.095   2.724   0.155
10150SOL     OW31348   3.989   3.916   0.450
10150SOL    HW131349   4.006   3.867   0.535
10150SOL    HW231350   3.987   4.014   0.467
10151SOL     OW31351   0.695   6.622   6.782
10151SOL    HW131352   0.723   6.543   6.837
10151SOL    HW231353   0.602   6.649   6.809
10152SOL     OW31354   6.805   5.965   4.502
10152SOL    HW131355   6.835   5.919   4.586
10152SOL    HW231356   6.883   6.010   4.459
10153SOL     OW31357   5.059   6.247   3.972
10153SOL    HW131358   5.096   6.226   4.062
10153SOL    HW231359   5.033   6.162   3.926
10154SOL     OW31360   5.279   6.653   5.182
10154SOL    HW131361   5.334   6.734   5.163
10154SOL    HW231362   5.273   6.639   5.280
10155SOL     OW31363   3.785   1.975   5.651
10155SOL    HW131364   3.801   2.064   5.608
10155SOL    HW231365   3.709   1.929   5.604
10156SOL     OW31366   5.932   0.950   3.083
10156SOL    HW131367   5.998   0.968   3.155
10156SOL    HW231368   5.979   0.919   3.000
10157SOL     OW31369   6.667   2.759   0.156
10157SOL    HW131370   6.725   2.784   0.078
10157SOL    HW231371   6.697   2.810   0.236
10158SOL     OW31372   5.895   4.100   0.835
10158SOL    HW131373   5.883   4.068   0.741
10158SOL    HW231374   5.917   4.023   0.894
10159SOL     OW31375   2.901   3.530   0.104
10159SOL    HW131376   2.981   3.528   0.044
10159SOL    HW231377   2.846   3.447   0.089
10160SOL     OW31378   2.117   2.887   2.062
10160SOL    HW131379   2.143   2.949   2.135
10160SOL    HW231380   2.140   2.927   1.974
10161SOL     OW31381   3.025   2.745   6.191
10161SOL    HW131382   3.085   2.673   6.226
10161SOL    HW231383   2.954   2.703   6.134
10162SOL     OW31384   3.505   4.435   0.437
10162SOL    HW131385   3.481   4.505   0.369
10162SOL    HW231386   3.597   4.400   0.418
10163SOL     OW31387   6.032   4.964   6.255
10163SOL    HW131388   5.949   4.908   6.262
10163SOL    HW231389   6.082   4.958   6.342
10164SOL     OW31390   5.672   4.185   4.817
10164SOL    HW131391   5.728   4.104   4.801
10164SOL    HW231392   5.718   4.245   4.883
10165SOL     OW31393   0.306   1.765   3.130
10165SOL    HW131394   0.209   1.785   3.142
10165SOL    HW231395   0.322   1.726   3.040
10166SOL     OW31396   3.319   2.065   1.892
10166SOL    HW131397   3.262   1.992   1.853
10166SOL    HW231398   3.312   2.146   1.834
10167SOL     OW31399   2.623   3.573   6.817
10167SOL    HW131400   2.612   3.474   6.823
10167SOL    HW231401   2.533   3.617   6.815
10168SOL     OW31402   5.993   3.594   5.884
10168SOL    HW131403   5.943   3.665   5.834
10168SOL    HW231404   5.978   3.505   5.841
10169SOL     OW31405   6.717   4.285   3.623
10169SOL    HW131406   6.619   4.266   3.633
10169SOL    HW231407   6.746   4.263   3.531
10170SOL     OW31408   0.671   5.106   5.391
10170SOL    HW131409   0.729   5.041   5.440
10170SOL    HW231410   0.666   5.192   5.442
10171SOL     OW31411   6.771   2.199   5.060
10171SOL    HW131412   6.859   2.151   5.050
10171SOL    HW231413   6.699   2.132   5.078
10172SOL     OW31414   0.109   6.589   4.850
10172SOL    HW131415   0.135   6.585   4.754
10172SOL    HW231416   0.011   6.569   4.859
10173SOL     OW31417   1.275   3.331   1.652
10173SOL    HW131418   1.342   3.366   1.718
10173SOL    HW231419   1.286   3.379   1.565
10174SOL     OW31420   5.526   5.420   2.647
10174SOL    HW131421   5.503   5.350   2.579
10174SOL    HW231422   5.547   5.506   2.601
10175SOL     OW31423   5.330   1.464   4.070
10175SOL    HW131424   5.353   1.367   4.071
10175SOL    HW231425   5.358   1.504   3.982
10176SOL     OW31426   0.934   3.694   5.390
10176SOL    HW131427   0.911   3.606   5.349
10176SOL    HW231428   0.852   3.734   5.432
10177SOL     OW31429   2.632   0.704   0.886
10177SOL    HW131430   2.640   0.724   0.983
10177SOL    HW231431   2.544   0.738   0.852
10178SOL     OW31432   0.484   0.815   6.009
10178SOL    HW131433   0.555   0.866   6.056
10178SOL    HW231434   0.440   0.753   6.074
10179SOL     OW31435   0.976   2.079   7.004
10179SOL    HW131436   0.925   2.027   0.052
10179SOL    HW231437   1.073   2.079   0.007
10180SOL     OW31438   4.359   0.811   5.746
10180SOL    HW131439   4.425   0.760   5.801
10180SOL    HW231440   4.383   0.802   5.649
10181SOL     OW31441   6.486   2.998   1.681
10181SOL    HW131442   6.458   3.072   1.619
10181SOL    HW231443   6.582   2.975   1.665
10182SOL     OW31444   4.119   1.055   1.511
10182SOL    HW131445   4.168   1.099   1.436
10182SOL    HW231446   4.183   0.998   1.563
10183SOL     OW31447   6.842   2.456   6.628
10183SOL    HW131448   6.815   2.552   6.634
10183SOL    HW231449   6.801   2.415   6.547
10184SOL     OW31450   4.799   0.957   6.262
10184SOL    HW131451   4.701   0.939   6.274
10184SOL    HW231452   4.840   0.883   6.208
10185SOL     OW31453   6.123   6.091   2.256
10185SOL    HW131454   6.116   6.010   2.315
10185SOL    HW231455   6.209   6.086   2.204
10186SOL     OW31456   5.650   3.366   3.905
10186SOL    HW131457   5.711   3.338   3.979
10186SOL    HW231458   5.687   3.448   3.860
10187SOL     OW31459   0.962   3.464   0.618
10187SOL    HW131460   0.928   3.488   0.527
10187SOL    HW231461   0.953   3.365   0.631
10188SOL     OW31462   3.822   5.606   0.864
10188SOL    HW131463   3.886   5.657   0.807
10188SOL    HW231464   3.733   5.601   0.818
10189SOL     OW31465   0.955   1.522   6.138
10189SOL    HW131466   1.004   1.477   6.213
10189SOL    HW231467   0.889   1.458   6.098
10190SOL     OW31468   4.911   3.232   1.975
10190SOL    HW131469   4.853   3.150   1.971
10190SOL    HW231470   4.901   3.284   1.890
10191SOL     OW31471   5.331   5.192   6.064
10191SOL    HW131472   5.344   5.272   6.005
10191SOL    HW231473   5.279   5.122   6.014
10192SOL     OW31474   4.083   1.075   5.218
10192SOL    HW131475   4.083   1.115   5.310
10192SOL    HW231476   4.125   1.139   5.154
10193SOL     OW31477   4.006   3.557   1.949
10193SOL    HW131478   3.939   3.630   1.954
10193SOL    HW231479   4.087   3.582   2.002
10194SOL     OW31480   5.539   5.936   5.931
10194SOL    HW131481   5.635   5.963   5.942
10194SOL    HW231482   5.492   5.944   6.019
10195SOL     OW31483   6.109   5.812   0.691
10195SOL    HW131484   6.152   5.725   0.668
10195SOL    HW231485   6.093   5.817   0.789
10196SOL     OW31486   4.853   1.398   3.687
10196SOL    HW131487   4.854   1.491   3.724
10196SOL    HW231488   4.776   1.389   3.624
10197SOL     OW31489   5.741   1.690   5.557
10197SOL    HW131490   5.738   1.750   5.477
10197SOL    HW231491   5.692   1.605   5.536
10198SOL     OW31492   2.531   6.784   2.398
10198SOL    HW131493   2.628   6.805   2.416
10198SOL    HW231494   2.524   6.725   2.318
10199SOL     OW31495   2.175   3.224   0.211
10199SOL    HW131496   2.274   3.214   0.224
10199SOL    HW231497   2.157   3.295   0.143
10200SOL     OW31498   5.135   2.259   7.000
10200SOL    HW131499   5.096   2.249   6.908
10200SOL    HW231500   5.145   2.356   0.000
10201SOL     OW31501   1.271   4.973   0.897
10201SOL    HW131502   1.228   5.040   0.957
10201SOL    HW231503   1.291   4.890   0.948
10202SOL     OW31504   3.781   4.190   0.362
10202SOL    HW131505   3.869   4.212   0.403
10202SOL    HW231506   3.741   4.273   0.322
10203SOL     OW31507   6.459   3.224   2.914
10203SOL    HW131508   6.373   3.178   2.895
10203SOL    HW231509   6.529   3.192   2.851
10204SOL     OW31510   5.097   6.403   0.065
10204SOL    HW131511   5.191   6.372   0.078
10204SOL    HW231512   5.095   6.503   0.065
10205SOL     OW31513   1.279   7.014   1.442
10205SOL    HW131514   1.210   0.047   1.393
10205SOL    HW231515   1.312   6.939   1.384
10206SOL     OW31516   6.987   0.848   0.073
10206SOL    HW131517   0.015   0.833   7.007
10206SOL    HW231518   0.012   0.921   0.124
10207SOL     OW31519   1.190   1.887   0.218
10207SOL    HW131520   1.197   1.972   0.165
10207SOL    HW231521   1.096   1.875   0.248
10208SOL     OW31522   6.242   4.244   4.168
10208SOL    HW131523   6.184   4.324   4.180
10208SOL    HW231524   6.310   4.240   4.242
10209SOL     OW31525   0.254   6.939   0.588
10209SOL    HW131526   0.250   7.018   0.527
10209SOL    HW231527   0.334   6.883   0.564
10210SOL     OW31528   4.702   6.458   1.605
10210SOL    HW131529   4.649   6.511   1.539
10210SOL    HW231530   4.755   6.520   1.663
10211SOL     OW31531   3.971   6.310   4.776
10211SOL    HW131532   3.978   6.272   4.869
10211SOL    HW231533   3.940   6.239   4.713
10212SOL     OW31534   0.804   0.565   5.314
10212SOL    HW131535   0.828   0.607   5.402
10212SOL    HW231536   0.751   0.482   5.331
10213SOL     OW31537   5.962   2.802   1.561
10213SOL    HW131538   5.990   2.893   1.591
10213SOL    HW231539   6.038   2.758   1.513
10214SOL     OW31540   1.590   1.600   2.314
10214SOL    HW131541   1.513   1.607   2.251
10214SOL    HW231542   1.573   1.656   2.395
10215SOL     OW31543   3.854   3.252   3.538
10215SOL    HW131544   3.806   3.289   3.459
10215SOL    HW231545   3.812   3.166   3.565
10216SOL     OW31546   0.144   1.212   1.616
10216SOL    HW131547   0.161   1.124   1.570
10216SOL    HW231548   0.070   1.201   1.683
10217SOL     OW31549   3.208   1.903   2.910
10217SOL    HW131550   3.266   1.976   2.872
10217SOL    HW231551   3.113   1.918   2.882
10218SOL     OW31552   2.025   1.443   1.697
10218SOL    HW131553   2.117   1.481   1.686
10218SOL    HW231554   2.024   1.348   1.665
10219SOL     OW31555   0.342   1.716   2.889
10219SOL    HW131556   0.257   1.768   2.881
10219SOL    HW231557   0.393   1.721   2.804
10220SOL     OW31558   5.162   2.090   0.950
10220SOL    HW131559   5.141   2.186   0.967
10220SOL    HW231560   5.124   2.035   1.025
10221SOL     OW31561   1.038   4.833   3.362
10221SOL    HW131562   0.959   4.893   3.352
10221SOL    HW231563   1.063   4.827   3.459
10222SOL     OW31564   3.005   3.876   5.619
10222SOL    HW131565   2.999   3.832   5.530
10222SOL    HW231566   2.914   3.901   5.651
10223SOL     OW31567   1.274   5.236   1.388
10223SOL    HW131568   1.329   5.315   1.417
10223SOL    HW231569   1.181   5.267   1.367
10224SOL     OW31570   6.796   2.869   4.781
10224SOL    HW131571   6.723   2.931   4.752
10224SOL    HW231572   6.806   2.874   4.881
10225SOL     OW31573   0.948   5.213   5.804
10225SOL    HW131574   1.004   5.216   5.887
10225SOL    HW231575   0.995   5.158   5.734
10226SOL     OW31576   2.920   1.236   6.038
10226SOL    HW131577   2.983   1.251   5.962
10226SOL    HW231578   2.934   1.306   6.108
10227SOL     OW31579   5.558   5.003   0.630
10227SOL    HW131580   5.591   5.094   0.605
10227SOL    HW231581   5.635   4.942   0.647
10228SOL     OW31582   0.260   6.637   1.964
10228SOL    HW131583   0.231   6.686   1.882
10228SOL    HW231584   0.353   6.602   1.952
10229SOL     OW31585   1.040   3.237   4.696
10229SOL    HW131586   1.129   3.193   4.684
10229SOL    HW231587   1.041   3.327   4.651
10230SOL     OW31588   5.367   5.952   3.416
10230SOL    HW131589   5.400   5.976   3.507
10230SOL    HW231590   5.433   5.890   3.372
10231SOL     OW31591   6.726   5.462   5.605
10231SOL    HW131592   6.791   5.391   5.577
10231SOL    HW231593   6.775   5.548   5.618
10232SOL     OW31594   3.173   1.191   3.374
10232SOL    HW131595   3.200   1.286   3.359
10232SOL    HW231596   3.156   1.147   3.285
10233SOL     OW31597   3.925   4.037   5.038
10233SOL    HW131598   3.908   4.095   4.958
10233SOL    HW231599   4.020   4.006   5.037
10234SOL     OW31600   6.121   1.162   1.375
10234SOL    HW131601   6.056   1.213   1.319
10234SOL    HW231602   6.206   1.150   1.324
10235SOL     OW31603   2.187   2.966   1.805
10235SOL    HW131604   2.231   3.056   1.801
10235SOL    HW231605   2.135   2.951   1.721
10236SOL     OW31606   3.006   0.467   6.930
10236SOL    HW131607   3.099   0.489   6.899
10236SOL    HW231608   2.982   0.374   6.901
10237SOL     OW31609   0.418   3.695   6.833
10237SOL    HW131610   0.435   3.681   6.931
10237SOL    HW231611   0.335   3.750   6.822
10238SOL     OW31612   3.695   4.440   1.700
10238SOL    HW131613   3.670   4.527   1.742
10238SOL    HW231614   3.708   4.371   1.771
10239SOL     OW31615   1.632   3.022   4.935
10239SOL    HW131616   1.632   3.109   4.984
10239SOL    HW231617   1.710   3.019   4.873
10240SOL     OW31618   2.337   5.190   2.469
10240SOL    HW131619   2.255   5.227   2.424
10240SOL    HW231620   2.416   5.202   2.410
10241SOL     OW31621   6.227   0.014   2.350
10241SOL    HW131622   6.212   6.984   2.265
10241SOL    HW231623   6.143   0.016   2.403
10242SOL     OW31624   0.626   1.581   0.909
10242SOL    HW131625   0.593   1.614   0.998
10242SOL    HW231626   0.583   1.635   0.836
10243SOL     OW31627   2.657   4.638   2.409
10243SOL    HW131628   2.688   4.677   2.322
10243SOL    HW231629   2.600   4.557   2.391
10244SOL     OW31630   1.895   4.548   0.665
10244SOL    HW131631   1.916   4.481   0.737
10244SOL    HW231632   1.966   4.618   0.663
10245SOL     OW31633   3.590   3.959   0.712
10245SOL    HW131634   3.657   4.034   0.707
10245SOL    HW231635   3.593   3.907   0.627
10246SOL     OW31636   3.625   4.074   4.135
10246SOL    HW131637   3.725   4.077   4.124
10246SOL    HW231638   3.600   3.993   4.189
10247SOL     OW31639   6.460   3.904   5.759
10247SOL    HW131640   6.401   3.852   5.820
10247SOL    HW231641   6.516   3.968   5.812
10248SOL     OW31642   1.684   6.444   2.785
10248SOL    HW131643   1.618   6.369   2.790
10248SOL    HW231644   1.664   6.500   2.704
10249SOL     OW31645   3.228   5.737   6.737
10249SOL    HW131646   3.183   5.682   6.667
10249SOL    HW231647   3.202   5.833   6.725
10250SOL     OW31648   6.649   3.261   1.421
10250SOL    HW131649   6.650   3.166   1.389
10250SOL    HW231650   6.566   3.278   1.474
10251SOL     OW31651   1.940   1.600   4.475
10251SOL    HW131652   1.920   1.672   4.409
10251SOL    HW231653   1.977   1.640   4.559
10252SOL     OW31654   4.186   4.430   6.181
10252SOL    HW131655   4.211   4.482   6.100
10252SOL    HW231656   4.098   4.463   6.216
10253SOL     OW31657   2.873   5.252   0.591
10253SOL    HW131658   2.811   5.270   0.515
10253SOL    HW231659   2.838   5.175   0.645
10254SOL     OW31660   5.024   1.169   5.103
10254SOL    HW131661   4.936   1.186   5.059
10254SOL    HW231662   5.095   1.160   5.033
10255SOL     OW31663   2.496   6.433   1.363
10255SOL    HW131664   2.555   6.421   1.283
10255SOL    HW231665   2.463   6.343   1.394
10256SOL     OW31666   4.179   1.888   2.107
10256SOL    HW131667   4.158   1.827   2.184
10256SOL    HW231668   4.275   1.878   2.081
10257SOL     OW31669   2.184   5.186   4.040
10257SOL    HW131670   2.196   5.227   3.950
10257SOL    HW231671   2.135   5.250   4.100
10258SOL     OW31672   3.892   2.127   3.690
10258SOL    HW131673   3.917   2.033   3.715
10258SOL    HW231674   3.795   2.142   3.709
10259SOL     OW31675   0.510   3.898   2.683
10259SOL    HW131676   0.568   3.872   2.760
10259SOL    HW231677   0.437   3.830   2.670
10260SOL     OW31678   1.279   1.658   3.010
10260SOL    HW131679   1.341   1.609   3.072
10260SOL    HW231680   1.193   1.677   3.058
10261SOL     OW31681   6.589   4.904   1.229
10261SOL    HW131682   6.498   4.876   1.262
10261SOL    HW231683   6.617   4.843   1.155
10262SOL     OW31684   2.719   0.487   5.508
10262SOL    HW131685   2.783   0.414   5.531
10262SOL    HW231686   2.632   0.447   5.478
10263SOL     OW31687   5.767   6.875   0.814
10263SOL    HW131688   5.839   6.901   0.749
10263SOL    HW231689   5.805   6.875   0.907
10264SOL     OW31690   6.800   6.604   6.956
10264SOL    HW131691   6.727   6.626   7.020
10264SOL    HW231692   6.788   6.656   6.871
10265SOL     OW31693   3.263   2.814   1.429
10265SOL    HW131694   3.222   2.782   1.514
10265SOL    HW231695   3.203   2.882   1.387
10266SOL     OW31696   3.501   2.894   3.734
10266SOL    HW131697   3.568   2.945   3.789
10266SOL    HW231698   3.468   2.816   3.787
10267SOL     OW31699   5.250   1.934   0.322
10267SOL    HW131700   5.212   1.998   0.389
10267SOL    HW231701   5.248   1.976   0.231
10268SOL     OW31702   6.531   6.737   2.113
10268SOL    HW131703   6.461   6.778   2.053
10268SOL    HW231704   6.495   6.653   2.152
10269SOL     OW31705   0.923   3.927   6.308
10269SOL    HW131706   0.843   3.971   6.267
10269SOL    HW231707   0.897   3.839   6.347
10270SOL     OW31708   3.471   5.110   2.329
10270SOL    HW131709   3.430   5.072   2.412
10270SOL    HW231710   3.450   5.051   2.251
10271SOL     OW31711   3.828   2.561   0.212
10271SOL    HW131712   3.823   2.644   0.268
10271SOL    HW231713   3.744   2.508   0.224
10272SOL     OW31714   1.288   0.828   5.453
10272SOL    HW131715   1.203   0.818   5.505
10272SOL    HW231716   1.351   0.754   5.478
10273SOL     OW31717   2.941   5.563   2.700
10273SOL    HW131718   2.941   5.663   2.703
10273SOL    HW231719   3.034   5.529   2.714
10274SOL     OW31720   0.441   4.677   6.178
10274SOL    HW131721   0.493   4.724   6.107
10274SOL    HW231722   0.347   4.711   6.179
10275SOL     OW31723   0.644   6.438   2.174
10275SOL    HW131724   0.610   6.408   2.263
10275SOL    HW231725   0.743   6.423   2.170
10276SOL     OW31726   5.639   6.338   5.398
10276SOL    HW131727   5.610   6.249   5.432
10276SOL    HW231728   5.703   6.326   5.322
10277SOL     OW31729   2.033   6.112   5.178
10277SOL    HW131730   1.946   6.158   5.163
10277SOL    HW231731   2.085   6.160   5.248
10278SOL     OW31732   1.655   1.436   3.384
10278SOL    HW131733   1.575   1.380   3.363
10278SOL    HW231734   1.692   1.474   3.299
10279SOL     OW31735   1.098   4.939   4.280
10279SOL    HW131736   1.167   4.974   4.343
10279SOL    HW231737   1.074   4.845   4.305
10280SOL     OW31738   0.084   2.691   6.316
10280SOL    HW131739   0.013   2.633   6.277
10280SOL    HW231740   0.078   2.782   6.277
10281SOL     OW31741   5.668   1.591   3.487
10281SOL    HW131742   5.672   1.492   3.503
10281SOL    HW231743   5.736   1.616   3.419
10282SOL     OW31744   5.437   3.395   4.225
10282SOL    HW131745   5.343   3.367   4.240
10282SOL    HW231746   5.475   3.434   4.310
10283SOL     OW31747   1.947   2.955   1.126
10283SOL    HW131748   1.851   2.930   1.143
10283SOL    HW231749   1.999   2.873   1.102
10284SOL     OW31750   5.047   2.110   5.425
10284SOL    HW131751   5.060   2.014   5.400
10284SOL    HW231752   5.117   2.136   5.492
10285SOL     OW31753   5.289   6.219   3.313
10285SOL    HW131754   5.318   6.126   3.334
10285SOL    HW231755   5.196   6.233   3.346
10286SOL     OW31756   3.668   1.585   3.978
10286SOL    HW131757   3.725   1.601   4.058
10286SOL    HW231758   3.686   1.656   3.909
10287SOL     OW31759   3.374   5.455   1.754
10287SOL    HW131760   3.393   5.454   1.852
10287SOL    HW231761   3.276   5.450   1.739
10288SOL     OW31762   4.723   6.016   2.845
10288SOL    HW131763   4.737   5.951   2.771
10288SOL    HW231764   4.735   5.970   2.933
10289SOL     OW31765   2.980   6.394   6.570
10289SOL    HW131766   3.038   6.466   6.608
10289SOL    HW231767   3.008   6.375   6.475
10290SOL     OW31768   2.997   3.725   2.833
10290SOL    HW131769   3.001   3.802   2.769
10290SOL    HW231770   3.085   3.715   2.879
10291SOL     OW31771   3.615   1.713   2.044
10291SOL    HW131772   3.620   1.789   1.979
10291SOL    HW231773   3.563   1.743   2.125
10292SOL     OW31774   1.603   2.170   4.972
10292SOL    HW131775   1.639   2.128   4.889
10292SOL    HW231776   1.677   2.183   5.038
10293SOL     OW31777   1.257   3.842   2.539
10293SOL    HW131778   1.279   3.851   2.636
10293SOL    HW231779   1.319   3.776   2.496
10294SOL     OW31780   4.713   1.958   3.533
10294SOL    HW131781   4.726   1.980   3.436
10294SOL    HW231782   4.617   1.972   3.558
10295SOL     OW31783   0.592   3.351   6.034
10295SOL    HW131784   0.683   3.327   5.999
10295SOL    HW231785   0.601   3.421   6.105
10296SOL     OW31786   5.264   1.442   6.974
10296SOL    HW131787   5.227   1.464   0.044
10296SOL    HW231788   5.352   1.396   6.984
10297SOL     OW31789   1.826   1.195   5.853
10297SOL    HW131790   1.770   1.141   5.915
10297SOL    HW231791   1.922   1.190   5.881
10298SOL     OW31792   2.972   4.343   0.902
10298SOL    HW131793   2.960   4.367   0.999
10298SOL    HW231794   2.997   4.247   0.894
10299SOL     OW31795   3.817   4.900   2.900
10299SOL    HW131796   3.898   4.919   2.844
10299SOL    HW231797   3.737   4.890   2.841
10300SOL     OW31798   1.545   4.162   2.205
10300SOL    HW131799   1.640   4.142   2.232
10300SOL    HW231800   1.492   4.078   2.205
10301SOL     OW31801   5.102   1.940   4.954
10301SOL    HW131802   5.091   1.906   5.047
10301SOL    HW231803   5.188   1.991   4.946
10302SOL     OW31804   2.240   6.458   4.748
10302SOL    HW131805   2.162   6.432   4.691
10302SOL    HW231806   2.309   6.385   4.744
10303SOL     OW31807   1.721   5.815   3.058
10303SOL    HW131808   1.749   5.905   3.092
10303SOL    HW231809   1.621   5.812   3.054
10304SOL     OW31810   5.485   6.909   1.554
10304SOL    HW131811   5.508   7.003   1.579
10304SOL    HW231812   5.421   6.871   1.620
10305SOL     OW31813   1.261   4.496   6.047
10305SOL    HW131814   1.248   4.408   6.001
10305SOL    HW231815   1.189   4.509   6.115
10306SOL     OW31816   4.950   5.823   6.845
10306SOL    HW131817   4.990   5.733   6.826
10306SOL    HW231818   5.022   5.891   6.850
10307SOL     OW31819   3.118   2.226   5.404
10307SOL    HW131820   3.139   2.272   5.318
10307SOL    HW231821   3.131   2.289   5.481
10308SOL     OW31822   2.041   3.709   2.879
10308SOL    HW131823   1.996   3.724   2.792
10308SOL    HW231824   2.023   3.787   2.940
10309SOL     OW31825   6.718   2.349   0.103
10309SOL    HW131826   6.800   2.384   0.149
10309SOL    HW231827   6.650   2.422   0.097
10310SOL     OW31828   3.267   4.140   0.531
10310SOL    HW131829   3.278   4.077   0.608
10310SOL    HW231830   3.199   4.105   0.467
10311SOL     OW31831   6.456   5.695   0.238
10311SOL    HW131832   6.519   5.760   0.197
10311SOL    HW231833   6.378   5.745   0.276
10312SOL     OW31834   4.213   6.097   2.405
10312SOL    HW131835   4.150   6.142   2.468
10312SOL    HW231836   4.162   6.035   2.345
10313SOL     OW31837   4.305   6.051   1.828
10313SOL    HW131838   4.340   5.988   1.897
10313SOL    HW231839   4.222   6.095   1.861
10314SOL     OW31840   6.694   0.479   1.711
10314SOL    HW131841   6.620   0.531   1.667
10314SOL    HW231842   6.770   0.470   1.648
10315SOL     OW31843   5.225   5.583   5.406
10315SOL    HW131844   5.306   5.637   5.427
10315SOL    HW231845   5.242   5.529   5.324
10316SOL     OW31846   6.212   1.822   5.452
10316SOL    HW131847   6.197   1.919   5.434
10316SOL    HW231848   6.240   1.810   5.547
10317SOL     OW31849   4.729   6.012   5.918
10317SOL    HW131850   4.668   5.979   5.991
10317SOL    HW231851   4.689   5.991   5.829
10318SOL     OW31852   5.197   0.260   6.717
10318SOL    HW131853   5.294   0.234   6.713
10318SOL    HW231854   5.159   0.261   6.624
10319SOL     OW31855   0.712   2.785   5.613
10319SOL    HW131856   0.740   2.724   5.687
10319SOL    HW231857   0.790   2.840   5.584
10320SOL     OW31858   0.563   0.208   2.295
10320SOL    HW131859   0.632   0.245   2.358
10320SOL    HW231860   0.586   0.234   2.201
10321SOL     OW31861   4.197   2.113   1.890
10321SOL    HW131862   4.248   2.165   1.959
10321SOL    HW231863   4.106   2.093   1.924
10322SOL     OW31864   5.819   5.562   5.340
10322SOL    HW131865   5.870   5.476   5.344
10322SOL    HW231866   5.734   5.553   5.392
10323SOL     OW31867   5.763   3.535   5.056
10323SOL    HW131868   5.674   3.489   5.048
10323SOL    HW231869   5.826   3.495   4.989
10324SOL     OW31870   3.248   3.086   2.059
10324SOL    HW131871   3.191   3.013   2.021
10324SOL    HW231872   3.335   3.089   2.010
10325SOL     OW31873   6.669   4.227   2.223
10325SOL    HW131874   6.749   4.277   2.190
10325SOL    HW231875   6.693   4.174   2.304
10326SOL     OW31876   3.526   5.036   0.366
10326SOL    HW131877   3.576   5.021   0.281
10326SOL    HW231878   3.445   5.091   0.348
10327SOL     OW31879   2.363   1.775   0.910
10327SOL    HW131880   2.294   1.747   0.843
10327SOL    HW231881   2.336   1.862   0.950
10328SOL     OW31882   6.798   2.719   1.291
10328SOL    HW131883   6.840   2.769   1.215
10328SOL    HW231884   6.738   2.648   1.254
10329SOL     OW31885   3.162   1.029   3.589
10329SOL    HW131886   3.155   1.091   3.511
10329SOL    HW231887   3.175   1.081   3.672
10330SOL     OW31888   4.487   1.100   2.337
10330SOL    HW131889   4.435   1.082   2.420
10330SOL    HW231890   4.533   1.189   2.345
10331SOL     OW31891   6.485   0.655   6.078
10331SOL    HW131892   6.497   0.580   6.142
10331SOL    HW231893   6.414   0.718   6.111
10332SOL     OW31894   6.827   0.453   1.188
10332SOL    HW131895   6.807   0.465   1.090
10332SOL    HW231896   6.926   0.451   1.202
10333SOL     OW31897   0.336   4.713   5.265
10333SOL    HW131898   0.342   4.813   5.267
10333SOL    HW231899   0.246   4.686   5.232
10334SOL     OW31900   3.173   0.081   3.573
10334SOL    HW131901   3.106   0.115   3.640
10334SOL    HW231902   3.232   0.156   3.543
10335SOL     OW31903   2.631   4.155   6.264
10335SOL    HW131904   2.698   4.122   6.198
10335SOL    HW231905   2.632   4.095   6.344
10336SOL     OW31906   6.716   0.079   2.222
10336SOL    HW131907   6.631   0.133   2.217
10336SOL    HW231908   6.698   7.014   2.270
10337SOL     OW31909   0.303   6.605   5.534
10337SOL    HW131910   0.294   6.537   5.461
10337SOL    HW231911   0.252   6.574   5.615
10338SOL     OW31912   1.746   5.889   2.160
10338SOL    HW131913   1.837   5.920   2.133
10338SOL    HW231914   1.754   5.829   2.240
10339SOL     OW31915   4.385   4.143   6.669
10339SOL    HW131916   4.339   4.160   6.582
10339SOL    HW231917   4.320   4.109   6.736
10340SOL     OW31918   1.602   3.827   1.340
10340SOL    HW131919   1.552   3.812   1.254
10340SOL    HW231920   1.577   3.916   1.377
10341SOL     OW31921   2.122   3.470   2.727
10341SOL    HW131922   2.114   3.502   2.633
10341SOL    HW231923   2.122   3.548   2.789
10342SOL     OW31924   1.996   0.369   5.017
10342SOL    HW131925   1.899   0.346   5.025
10342SOL    HW231926   2.035   0.383   5.109
10343SOL     OW31927   3.566   5.739   6.992
10343SOL    HW131928   3.572   5.661   0.034
10343SOL    HW231929   3.650   5.794   6.999
10344SOL     OW31930   4.592   3.495   1.199
10344SOL    HW131931   4.680   3.471   1.241
10344SOL    HW231932   4.518   3.452   1.250
10345SOL     OW31933   1.598   1.388   6.371
10345SOL    HW131934   1.583   1.360   6.466
10345SOL    HW231935   1.639   1.313   6.320
10346SOL     OW31936   0.089   5.403   1.719
10346SOL    HW131937   0.044   5.316   1.741
10346SOL    HW231938   0.174   5.385   1.669
10347SOL     OW31939   4.227   1.924   3.940
10347SOL    HW131940   4.290   1.873   3.882
10347SOL    HW231941   4.222   2.019   3.909
10348SOL     OW31942   6.782   2.278   0.726
10348SOL    HW131943   6.817   2.266   0.633
10348SOL    HW231944   6.738   2.368   0.733
10349SOL     OW31945   1.026   0.941   0.657
10349SOL    HW131946   0.998   0.874   0.588
10349SOL    HW231947   0.949   0.960   0.718
10350SOL     OW31948   2.201   6.449   5.087
10350SOL    HW131949   2.216   6.514   5.013
10350SOL    HW231950   2.270   6.462   5.158
10351SOL     OW31951   4.177   4.660   5.850
10351SOL    HW131952   4.265   4.685   5.810
10351SOL    HW231953   4.159   4.563   5.834
10352SOL     OW31954   4.053   1.604   6.147
10352SOL    HW131955   4.023   1.557   6.064
10352SOL    HW231956   4.092   1.693   6.123
10353SOL     OW31957   6.873   2.651   5.004
10353SOL    HW131958   6.971   2.646   5.020
10353SOL    HW231959   6.853   2.634   4.908
10354SOL     OW31960   5.891   2.717   2.600
10354SOL    HW131961   5.813   2.775   2.576
10354SOL    HW231962   5.866   2.621   2.588
10355SOL     OW31963   1.693   6.948   1.966
10355SOL    HW131964   1.650   0.015   1.989
10355SOL    HW231965   1.714   6.898   2.050
10356SOL     OW31966   1.045   4.602   5.307
10356SOL    HW131967   1.082   4.672   5.245
10356SOL    HW231968   1.115   4.534   5.326
10357SOL     OW31969   1.675   3.241   6.453
10357SOL    HW131970   1.724   3.327   6.438
10357SOL    HW231971   1.620   3.220   6.372
10358SOL     OW31972   6.553   3.252   3.165
10358SOL    HW131973   6.594   3.165   3.191
10358SOL    HW231974   6.522   3.249   3.070
10359SOL     OW31975   0.675   1.643   1.938
10359SOL    HW131976   0.730   1.671   2.017
10359SOL    HW231977   0.641   1.550   1.952
10360SOL     OW31978   4.927   5.353   3.279
10360SOL    HW131979   4.964   5.349   3.372
10360SOL    HW231980   4.890   5.444   3.262
10361SOL     OW31981   2.979   6.650   3.636
10361SOL    HW131982   3.028   6.656   3.549
10361SOL    HW231983   2.938   6.739   3.657
10362SOL     OW31984   0.720   5.031   4.878
10362SOL    HW131985   0.633   4.985   4.896
10362SOL    HW231986   0.770   4.981   4.808
10363SOL     OW31987   4.965   1.601   1.599
10363SOL    HW131988   4.902   1.669   1.562
10363SOL    HW231989   4.913   1.532   1.650
10364SOL     OW31990   2.858   3.628   1.082
10364SOL    HW131991   2.806   3.548   1.110
10364SOL    HW231992   2.881   3.684   1.162
10365SOL     OW31993   4.673   4.753   5.938
10365SOL    HW131994   4.681   4.844   5.899
10365SOL    HW231995   4.577   4.734   5.960
10366SOL     OW31996   3.618   1.099   4.140
10366SOL    HW131997   3.657   1.076   4.051
10366SOL    HW231998   3.651   1.189   4.169
10367SOL     OW31999   6.409   1.904   2.793
10367SOL    HW132000   6.361   1.970   2.735
10367SOL    HW232001   6.416   1.817   2.745
10368SOL     OW32002   2.170   1.251   1.528
10368SOL    HW132003   2.151   1.269   1.432
10368SOL    HW232004   2.216   1.163   1.537
10369SOL     OW32005   3.979   0.763   5.435
10369SOL    HW132006   4.067   0.770   5.387
10369SOL    HW232007   3.934   0.677   5.409
10370SOL     OW32008   5.407   1.239   5.266
10370SOL    HW132009   5.376   1.205   5.177
10370SOL    HW232010   5.346   1.312   5.296
10371SOL     OW32011   3.174   6.119   4.966
10371SOL    HW132012   3.118   6.038   4.950
10371SOL    HW232013   3.116   6.194   4.999
10372SOL     OW32014   0.891   2.010   6.680
10372SOL    HW132015   0.945   1.965   6.751
10372SOL    HW232016   0.810   2.052   6.722
10373SOL     OW32017   2.005   5.885   4.929
10373SOL    HW132018   2.028   5.949   4.856
10373SOL    HW232019   2.090   5.854   4.974
10374SOL     OW32020   3.964   1.151   2.473
10374SOL    HW132021   3.972   1.187   2.566
10374SOL    HW232022   3.870   1.161   2.441
10375SOL     OW32023   3.389   1.717   6.172
10375SOL    HW132024   3.352   1.782   6.106
10375SOL    HW232025   3.417   1.765   6.254
10376SOL     OW32026   0.916   6.315   3.627
10376SOL    HW132027   0.907   6.292   3.530
10376SOL    HW232028   1.013   6.325   3.649
10377SOL     OW32029   6.909   0.611   3.939
10377SOL    HW132030   6.877   0.516   3.930
10377SOL    HW232031   6.929   0.648   3.848
10378SOL     OW32032   6.527   0.305   5.831
10378SOL    HW132033   6.511   0.403   5.819
10378SOL    HW232034   6.466   0.269   5.901
10379SOL     OW32035   3.580   6.652   4.947
10379SOL    HW132036   3.563   6.741   4.906
10379SOL    HW232037   3.501   6.593   4.932
10380SOL     OW32038   0.284   1.101   4.057
10380SOL    HW132039   0.350   1.093   3.982
10380SOL    HW232040   0.256   1.010   4.087
10381SOL     OW32041   4.113   5.396   6.272
10381SOL    HW132042   4.167   5.382   6.355
10381SOL    HW232043   4.140   5.481   6.228
10382SOL     OW32044   2.249   4.643   6.760
10382SOL    HW132045   2.255   4.638   6.660
10382SOL    HW232046   2.317   4.582   6.801
10383SOL     OW32047   0.422   3.354   1.143
10383SOL    HW132048   0.498   3.358   1.079
10383SOL    HW232049   0.336   3.349   1.092
10384SOL     OW32050   0.559   0.147   0.673
10384SOL    HW132051   0.618   0.122   0.596
10384SOL    HW232052   0.533   0.243   0.666
10385SOL     OW32053   4.425   0.438   6.660
10385SOL    HW132054   4.392   0.369   6.595
10385SOL    HW232055   4.485   0.502   6.613
10386SOL     OW32056   6.248   3.368   5.062
10386SOL    HW132057   6.149   3.367   5.069
10386SOL    HW232058   6.282   3.273   5.058
10387SOL     OW32059   3.824   2.073   2.228
10387SOL    HW132060   3.776   2.119   2.154
10387SOL    HW232061   3.922   2.097   2.225
10388SOL     OW32062   1.267   5.776   3.367
10388SOL    HW132063   1.239   5.738   3.456
10388SOL    HW232064   1.266   5.703   3.299
10389SOL     OW32065   0.252   6.406   1.687
10389SOL    HW132066   0.267   6.357   1.601
10389SOL    HW232067   0.254   6.504   1.670
10390SOL     OW32068   1.643   3.762   1.691
10390SOL    HW132069   1.714   3.785   1.625
10390SOL    HW232070   1.683   3.704   1.763
10391SOL     OW32071   1.023   5.681   5.039
10391SOL    HW132072   0.995   5.605   4.980
10391SOL    HW232073   1.110   5.659   5.083
10392SOL     OW32074   6.553   4.060   0.085
10392SOL    HW132075   6.626   4.027   0.025
10392SOL    HW232076   6.525   4.151   0.056
10393SOL     OW32077   1.738   1.706   2.946
10393SOL    HW132078   1.773   1.797   2.923
10393SOL    HW232079   1.658   1.684   2.890
10394SOL     OW32080   2.681   6.358   5.974
10394SOL    HW132081   2.618   6.417   5.923
10394SOL    HW232082   2.709   6.404   6.058
10395SOL     OW32083   6.166   0.924   4.719
10395SOL    HW132084   6.073   0.940   4.686
10395SOL    HW232085   6.173   0.832   4.756
10396SOL     OW32086   1.742   0.169   4.264
10396SOL    HW132087   1.805   0.227   4.214
10396SOL    HW232088   1.786   0.135   4.348
10397SOL     OW32089   3.586   1.844   3.726
10397SOL    HW132090   3.514   1.833   3.795
10397SOL    HW232091   3.552   1.812   3.637
10398SOL     OW32092   6.382   2.350   0.095
10398SOL    HW132093   6.322   2.350   0.175
10398SOL    HW232094   6.449   2.424   0.104
10399SOL     OW32095   4.223   1.234   5.057
10399SOL    HW132096   4.268   1.243   5.145
10399SOL    HW232097   4.282   1.184   4.994
10400SOL     OW32098   3.467   5.759   1.789
10400SOL    HW132099   3.543   5.770   1.854
10400SOL    HW232100   3.498   5.705   1.711
10401SOL     OW32101   6.721   0.368   2.309
10401SOL    HW132102   6.727   0.274   2.275
10401SOL    HW232103   6.654   0.419   2.256
10402SOL     OW32104   0.382   2.380   5.653
10402SOL    HW132105   0.293   2.425   5.655
10402SOL    HW232106   0.446   2.428   5.712
10403SOL     OW32107   5.395   1.703   2.441
10403SOL    HW132108   5.312   1.726   2.391
10403SOL    HW232109   5.377   1.702   2.539
10404SOL     OW32110   0.490   6.594   3.437
10404SOL    HW132111   0.422   6.636   3.498
10404SOL    HW232112   0.490   6.495   3.450
10405SOL     OW32113   1.708   5.143   5.256
10405SOL    HW132114   1.618   5.183   5.274
10405SOL    HW232115   1.697   5.054   5.212
10406SOL     OW32116   1.942   3.920   4.994
10406SOL    HW132117   1.970   3.848   5.056
10406SOL    HW232118   2.022   3.974   4.967
10407SOL     OW32119   1.452   0.978   6.541
10407SOL    HW132120   1.432   0.975   6.443
10407SOL    HW232121   1.453   1.073   6.572
10408SOL     OW32122   4.247   5.955   2.729
10408SOL    HW132123   4.324   6.007   2.692
10408SOL    HW232124   4.162   5.993   2.694
10409SOL     OW32125   0.657   4.615   1.374
10409SOL    HW132126   0.710   4.693   1.407
10409SOL    HW232127   0.711   4.565   1.306
10410SOL     OW32128   5.023   1.414   1.171
10410SOL    HW132129   5.051   1.373   1.257
10410SOL    HW232130   4.923   1.417   1.166
10411SOL     OW32131   2.791   5.254   4.171
10411SOL    HW132132   2.770   5.347   4.201
10411SOL    HW232133   2.797   5.193   4.250
10412SOL     OW32134   0.673   1.348   0.775
10412SOL    HW132135   0.652   1.434   0.821
10412SOL    HW232136   0.760   1.357   0.727
10413SOL     OW32137   1.086   1.984   0.754
10413SOL    HW132138   1.054   1.939   0.670
10413SOL    HW232139   1.138   2.066   0.730
10414SOL     OW32140   4.573   6.361   6.151
10414SOL    HW132141   4.562   6.404   6.241
10414SOL    HW232142   4.499   6.294   6.137
10415SOL     OW32143   2.218   4.657   4.174
10415SOL    HW132144   2.214   4.604   4.259
10415SOL    HW232145   2.313   4.660   4.141
10416SOL     OW32146   6.848   1.871   5.893
10416SOL    HW132147   6.810   1.815   5.819
10416SOL    HW232148   6.904   1.813   5.953
10417SOL     OW32149   4.290   4.682   3.371
10417SOL    HW132150   4.350   4.647   3.299
10417SOL    HW232151   4.324   4.650   3.460
10418SOL     OW32152   6.664   4.395   5.322
10418SOL    HW132153   6.757   4.359   5.332
10418SOL    HW232154   6.657   4.483   5.370
10419SOL     OW32155   2.639   1.269   4.979
10419SOL    HW132156   2.714   1.291   4.918
10419SOL    HW232157   2.552   1.283   4.931
10420SOL     OW32158   6.758   4.040   2.448
10420SOL    HW132159   6.700   3.961   2.467
10420SOL    HW232160   6.783   4.084   2.535
10421SOL     OW32161   1.445   3.791   3.838
10421SOL    HW132162   1.374   3.828   3.899
10421SOL    HW232163   1.518   3.858   3.828
10422SOL     OW32164   6.572   3.867   5.386
10422SOL    HW132165   6.533   3.840   5.298
10422SOL    HW232166   6.531   3.813   5.459
10423SOL     OW32167   3.945   4.901   4.616
10423SOL    HW132168   3.866   4.931   4.563
10423SOL    HW232169   3.926   4.811   4.656
10424SOL     OW32170   4.827   1.533   0.443
10424SOL    HW132171   4.884   1.615   0.437
10424SOL    HW232172   4.760   1.544   0.517
10425SOL     OW32173   0.668   6.567   1.736
10425SOL    HW132174   0.757   6.521   1.729
10425SOL    HW232175   0.681   6.658   1.774
10426SOL     OW32176   4.695   3.293   5.579
10426SOL    HW132177   4.741   3.269   5.494
10426SOL    HW232178   4.604   3.251   5.581
10427SOL     OW32179   5.347   5.429   5.931
10427SOL    HW132180   5.368   5.506   5.992
10427SOL    HW232181   5.401   5.438   5.847
10428SOL     OW32182   1.362   1.680   3.858
10428SOL    HW132183   1.271   1.720   3.850
10428SOL    HW232184   1.425   1.748   3.896
10429SOL     OW32185   1.412   4.122   3.183
10429SOL    HW132186   1.400   4.031   3.142
10429SOL    HW232187   1.496   4.163   3.148
10430SOL     OW32188   3.560   5.646   4.516
10430SOL    HW132189   3.531   5.741   4.517
10430SOL    HW232190   3.597   5.623   4.425
10431SOL     OW32191   2.573   1.180   4.222
10431SOL    HW132192   2.520   1.197   4.139
10431SOL    HW232193   2.630   1.259   4.242
10432SOL     OW32194   1.074   0.898   5.650
10432SOL    HW132195   1.090   0.997   5.650
10432SOL    HW232196   1.103   0.860   5.737
10433SOL     OW32197   1.159   6.096   1.647
10433SOL    HW132198   1.157   6.112   1.548
10433SOL    HW232199   1.070   6.063   1.678
10434SOL     OW32200   5.107   6.376   4.801
10434SOL    HW132201   5.042   6.303   4.825
10434SOL    HW232202   5.096   6.399   4.704
10435SOL     OW32203   1.206   2.489   6.105
10435SOL    HW132204   1.305   2.491   6.093
10435SOL    HW232205   1.181   2.411   6.163
10436SOL     OW32206   6.431   3.905   4.719
10436SOL    HW132207   6.458   3.986   4.666
10436SOL    HW232208   6.494   3.892   4.795
10437SOL     OW32209   5.328   4.939   5.408
10437SOL    HW132210   5.386   4.874   5.457
10437SOL    HW232211   5.335   4.922   5.310
10438SOL     OW32212   6.841   6.840   5.186
10438SOL    HW132213   6.791   6.784   5.252
10438SOL    HW232214   6.931   6.862   5.222
10439SOL     OW32215   6.501   0.980   4.869
10439SOL    HW132216   6.462   1.065   4.835
10439SOL    HW232217   6.515   0.916   4.793
10440SOL     OW32218   6.885   1.291   6.895
10440SOL    HW132219   6.804   1.241   6.867
10440SOL    HW232220   6.966   1.234   6.882
10441SOL     OW32221   3.562   1.909   1.334
10441SOL    HW132222   3.539   1.962   1.416
10441SOL    HW232223   3.648   1.942   1.296
10442SOL     OW32224   3.182   0.907   5.143
10442SOL    HW132225   3.242   0.973   5.188
10442SOL    HW232226   3.217   0.815   5.156
10443SOL     OW32227   0.144   2.193   2.603
10443SOL    HW132228   0.160   2.273   2.660
10443SOL    HW232229   0.049   2.193   2.572
10444SOL     OW32230   3.317   4.902   3.418
10444SOL    HW132231   3.298   4.865   3.508
10444SOL    HW232232   3.241   4.960   3.388
10445SOL     OW32233   0.221   3.480   2.058
10445SOL    HW132234   0.230   3.401   1.996
10445SOL    HW232235   0.177   3.555   2.009
10446SOL     OW32236   2.118   4.200   5.735
10446SOL    HW132237   2.140   4.103   5.746
10446SOL    HW232238   2.023   4.215   5.762
10447SOL     OW32239   6.139   2.003   2.398
10447SOL    HW132240   6.212   2.051   2.351
10447SOL    HW232241   6.154   1.904   2.391
10448SOL     OW32242   3.242   0.696   3.673
10448SOL    HW132243   3.340   0.689   3.655
10448SOL    HW232244   3.197   0.746   3.599
10449SOL     OW32245   3.593   5.464   0.073
10449SOL    HW132246   3.670   5.425   0.123
10449SOL    HW232247   3.622   5.490   7.002
10450SOL     OW32248   6.358   0.742   6.401
10450SOL    HW132249   6.380   0.828   6.355
10450SOL    HW232250   6.410   0.735   6.486
10451SOL     OW32251   2.717   0.628   3.922
10451SOL    HW132252   2.722   0.728   3.926
10451SOL    HW232253   2.784   0.595   3.856
10452SOL     OW32254   0.204   2.397   2.790
10452SOL    HW132255   0.180   2.403   2.887
10452SOL    HW232256   0.265   2.473   2.766
10453SOL     OW32257   4.477   6.111   2.701
10453SOL    HW132258   4.552   6.098   2.766
10453SOL    HW232259   4.439   6.203   2.712
10454SOL     OW32260   6.255   1.063   6.789
10454SOL    HW132261   6.172   1.047   6.843
10454SOL    HW232262   6.319   1.119   6.842
10455SOL     OW32263   6.004   6.299   4.628
10455SOL    HW132264   6.021   6.242   4.708
10455SOL    HW232265   5.944   6.376   4.654
10456SOL     OW32266   6.850   5.278   0.127
10456SOL    HW132267   6.765   5.238   0.159
10456SOL    HW232268   6.918   5.275   0.201
10457SOL     OW32269   4.491   3.530   6.922
10457SOL    HW132270   4.429   3.507   6.847
10457SOL    HW232271   4.531   3.620   6.907
10458SOL     OW32272   6.501   0.582   5.835
10458SOL    HW132273   6.500   0.616   5.929
10458SOL    HW232274   6.543   0.650   5.775
10459SOL     OW32275   6.222   4.813   0.891
10459SOL    HW132276   6.195   4.873   0.817
10459SOL    HW232277   6.311   4.772   0.871
10460SOL     OW32278   6.928   4.302   1.903
10460SOL    HW132279   6.929   4.288   2.002
10460SOL    HW232280   6.838   4.279   1.867
10461SOL     OW32281   6.631   4.606   5.482
10461SOL    HW132282   6.587   4.576   5.566
10461SOL    HW232283   6.681   4.691   5.498
10462SOL     OW32284   4.668   1.582   1.940
10462SOL    HW132285   4.577   1.542   1.928
10462SOL    HW232286   4.674   1.624   2.031
10463SOL     OW32287   4.834   1.498   6.273
10463SOL    HW132288   4.883   1.561   6.213
10463SOL    HW232289   4.832   1.535   6.366
10464SOL     OW32290   5.611   5.633   2.209
10464SOL    HW132291   5.670   5.555   2.191
10464SOL    HW232292   5.666   5.716   2.216
10465SOL     OW32293   4.900   4.533   2.753
10465SOL    HW132294   4.932   4.613   2.805
10465SOL    HW232295   4.867   4.563   2.663
10466SOL     OW32296   4.964   4.427   6.260
10466SOL    HW132297   4.975   4.331   6.288
10466SOL    HW232298   4.870   4.456   6.277
10467SOL     OW32299   1.638   2.560   6.836
10467SOL    HW132300   1.661   2.465   6.815
10467SOL    HW232301   1.602   2.566   6.929
10468SOL     OW32302   3.744   5.594   3.689
10468SOL    HW132303   3.718   5.659   3.617
10468SOL    HW232304   3.722   5.633   3.779
10469SOL     OW32305   4.888   3.776   5.957
10469SOL    HW132306   4.835   3.702   5.998
10469SOL    HW232307   4.838   3.813   5.879
10470SOL     OW32308   2.498   1.759   3.415
10470SOL    HW132309   2.568   1.829   3.404
10470SOL    HW232310   2.526   1.675   3.368
10471SOL     OW32311   2.846   0.615   6.792
10471SOL    HW132312   2.903   0.575   6.863
10471SOL    HW232313   2.903   0.639   6.713
10472SOL     OW32314   2.496   5.550   0.908
10472SOL    HW132315   2.559   5.473   0.896
10472SOL    HW232316   2.528   5.628   0.855
10473SOL     OW32317   5.590   6.254   5.898
10473SOL    HW132318   5.665   6.189   5.908
10473SOL    HW232319   5.520   6.236   5.967
10474SOL     OW32320   4.881   0.698   4.017
10474SOL    HW132321   4.932   0.612   4.018
10474SOL    HW232322   4.915   0.756   3.942
10475SOL     OW32323   2.259   6.428   1.837
10475SOL    HW132324   2.290   6.468   1.751
10475SOL    HW232325   2.283   6.331   1.839
10476SOL     OW32326   4.924   6.345   5.932
10476SOL    HW132327   4.998   6.315   5.872
10476SOL    HW232328   4.909   6.277   6.004
10477SOL     OW32329   6.759   0.094   4.190
10477SOL    HW132330   6.845   0.044   4.191
10477SOL    HW232331   6.757   0.158   4.267
10478SOL     OW32332   6.832   6.604   0.448
10478SOL    HW132333   6.749   6.562   0.410
10478SOL    HW232334   6.811   6.698   0.476
10479SOL     OW32335   6.548   1.750   2.027
10479SOL    HW132336   6.573   1.678   1.962
10479SOL    HW232337   6.499   1.710   2.104
10480SOL     OW32338   1.426   0.470   1.728
10480SOL    HW132339   1.479   0.551   1.753
10480SOL    HW232340   1.439   0.451   1.631
10481SOL     OW32341   1.251   6.233   2.840
10481SOL    HW132342   1.196   6.287   2.777
10481SOL    HW232343   1.268   6.286   2.923
10482SOL     OW32344   6.445   4.792   4.967
10482SOL    HW132345   6.515   4.744   5.019
10482SOL    HW232346   6.441   4.754   4.874
10483SOL     OW32347   4.924   5.880   0.292
10483SOL    HW132348   4.866   5.949   0.250
10483SOL    HW232349   4.900   5.870   0.389
10484SOL     OW32350   4.417   1.333   1.338
10484SOL    HW132351   4.461   1.407   1.287
10484SOL    HW232352   4.393   1.366   1.429
10485SOL     OW32353   3.190   4.270   6.604
10485SOL    HW132354   3.096   4.301   6.617
10485SOL    HW232355   3.193   4.170   6.607
10486SOL     OW32356   6.841   1.278   1.166
10486SOL    HW132357   6.865   1.375   1.174
10486SOL    HW232358   6.750   1.263   1.206
10487SOL     OW32359   5.271   6.785   2.256
10487SOL    HW132360   5.256   6.846   2.334
10487SOL    HW232361   5.368   6.788   2.230
10488SOL     OW32362   2.829   2.602   6.066
10488SOL    HW132363   2.804   2.535   5.997
10488SOL    HW232364   2.799   2.693   6.036
10489SOL     OW32365   0.639   0.060   5.413
10489SOL    HW132366   0.569   0.020   5.355
10489SOL    HW232367   0.602   0.075   5.505
10490SOL     OW32368   6.145   1.751   1.989
10490SOL    HW132369   6.158   1.850   1.981
10490SOL    HW232370   6.055   1.732   2.029
10491SOL     OW32371   1.695   3.352   0.124
10491SOL    HW132372   1.726   3.412   0.198
10491SOL    HW232373   1.682   3.407   0.041
10492SOL     OW32374   5.895   3.406   5.486
10492SOL    HW132375   5.913   3.321   5.437
10492SOL    HW232376   5.800   3.407   5.516
10493SOL     OW32377   3.163   1.000   1.754
10493SOL    HW132378   3.092   1.065   1.727
10493SOL    HW232379   3.241   1.008   1.692
10494SOL     OW32380   4.885   2.778   5.194
10494SOL    HW132381   4.888   2.678   5.202
10494SOL    HW232382   4.912   2.819   5.281
10495SOL     OW32383   2.198   6.894   0.337
10495SOL    HW132384   2.125   6.842   0.380
10495SOL    HW232385   2.192   6.990   0.365
10496SOL     OW32386   0.605   6.459   0.849
10496SOL    HW132387   0.556   6.371   0.848
10496SOL    HW232388   0.646   6.473   0.938
10497SOL     OW32389   2.275   6.513   2.082
10497SOL    HW132390   2.277   6.476   1.989
10497SOL    HW232391   2.263   6.612   2.078
10498SOL     OW32392   3.043   6.177   1.726
10498SOL    HW132393   3.043   6.188   1.627
10498SOL    HW232394   2.960   6.218   1.764
10499SOL     OW32395   3.127   6.134   2.191
10499SOL    HW132396   3.119   6.208   2.125
10499SOL    HW232397   3.088   6.162   2.278
10500SOL     OW32398   0.597   1.281   6.018
10500SOL    HW132399   0.563   1.203   5.966
10500SOL    HW232400   0.688   1.307   5.984
10501SOL     OW32401   1.843   5.598   3.168
10501SOL    HW132402   1.792   5.662   3.110
10501SOL    HW232403   1.896   5.650   3.235
10502SOL     OW32404   3.242   0.562   0.794
10502SOL    HW132405   3.324   0.575   0.850
10502SOL    HW232406   3.238   0.467   0.761
10503SOL     OW32407   4.515   2.744   0.104
10503SOL    HW132408   4.532   2.713   0.011
10503SOL    HW232409   4.537   2.671   0.168
10504SOL     OW32410   1.976   2.106   0.299
10504SOL    HW132411   1.883   2.077   0.273
10504SOL    HW232412   1.998   2.192   0.252
10505SOL     OW32413   6.218   5.565   0.861
10505SOL    HW132414   6.197   5.571   0.959
10505SOL    HW232415   6.210   5.470   0.831
10506SOL     OW32416   0.397   5.318   6.040
10506SOL    HW132417   0.426   5.249   6.106
10506SOL    HW232418   0.476   5.371   6.010
10507SOL     OW32419   2.531   6.705   6.832
10507SOL    HW132420   2.580   6.681   6.916
10507SOL    HW232421   2.530   6.626   6.771
10508SOL     OW32422   5.904   5.906   5.006
10508SOL    HW132423   5.851   5.840   5.059
10508SOL    HW232424   5.959   5.962   5.068
10509SOL     OW32425   0.575   6.428   5.887
10509SOL    HW132426   0.491   6.438   5.834
10509SOL    HW232427   0.628   6.512   5.883
10510SOL     OW32428   5.169   5.420   6.391
10510SOL    HW132429   5.144   5.355   6.319
10510SOL    HW232430   5.182   5.511   6.351
10511SOL     OW32431   4.686   2.740   1.054
10511SOL    HW132432   4.663   2.664   0.994
10511SOL    HW232433   4.606   2.799   1.066
10512SOL     OW32434   3.702   0.682   5.770
10512SOL    HW132435   3.662   0.602   5.726
10512SOL    HW232436   3.798   0.663   5.793
10513SOL     OW32437   0.031   2.767   5.326
10513SOL    HW132438   0.105   2.705   5.302
10513SOL    HW232439   0.028   2.842   5.259
10514SOL     OW32440   0.332   3.961   0.122
10514SOL    HW132441   0.312   4.004   0.034
10514SOL    HW232442   0.421   3.916   0.118
10515SOL     OW32443   6.607   2.371   3.054
10515SOL    HW132444   6.657   2.316   2.988
10515SOL    HW232445   6.532   2.317   3.093
10516SOL     OW32446   4.763   0.773   6.658
10516SOL    HW132447   4.812   0.860   6.646
10516SOL    HW232448   4.699   0.781   6.734
10517SOL     OW32449   0.418   2.199   3.057
10517SOL    HW132450   0.427   2.210   2.958
10517SOL    HW232451   0.333   2.149   3.077
10518SOL     OW32452   1.019   4.576   6.820
10518SOL    HW132453   1.091   4.583   6.752
10518SOL    HW232454   1.056   4.537   6.905
10519SOL     OW32455   2.679   2.447   6.237
10519SOL    HW132456   2.751   2.498   6.189
10519SOL    HW232457   2.632   2.508   6.300
10520SOL     OW32458   1.749   2.385   6.429
10520SOL    HW132459   1.745   2.452   6.356
10520SOL    HW232460   1.817   2.413   6.496
10521SOL     OW32461   6.049   5.206   1.501
10521SOL    HW132462   6.008   5.214   1.592
10521SOL    HW232463   6.148   5.194   1.509
10522SOL     OW32464   6.588   0.908   0.011
10522SOL    HW132465   6.501   0.871   7.002
10522SOL    HW232466   6.608   0.879   0.104
10523SOL     OW32467   0.382   6.197   4.744
10523SOL    HW132468   0.375   6.191   4.843
10523SOL    HW232469   0.463   6.250   4.719
10524SOL     OW32470   2.220   1.566   5.023
10524SOL    HW132471   2.210   1.663   5.046
10524SOL    HW232472   2.151   1.540   4.956
10525SOL     OW32473   3.175   0.114   5.694
10525SOL    HW132474   3.264   0.139   5.731
10525SOL    HW232475   3.150   0.177   5.621
10526SOL     OW32476   0.358   6.788   3.022
10526SOL    HW132477   0.289   6.777   2.950
10526SOL    HW232478   0.379   6.885   3.033
10527SOL     OW32479   0.129   2.660   4.823
10527SOL    HW132480   0.207   2.601   4.801
10527SOL    HW232481   0.159   2.734   4.882
10528SOL     OW32482   0.710   3.992   5.885
10528SOL    HW132483   0.621   3.970   5.844
10528SOL    HW232484   0.780   3.932   5.847
10529SOL     OW32485   2.295   6.112   4.028
10529SOL    HW132486   2.198   6.136   4.019
10529SOL    HW232487   2.310   6.069   4.117
10530SOL     OW32488   1.726   1.495   5.905
10530SOL    HW132489   1.740   1.547   5.989
10530SOL    HW232490   1.800   1.429   5.893
10531SOL     OW32491   0.943   3.077   4.432
10531SOL    HW132492   0.955   3.018   4.511
10531SOL    HW232493   1.001   3.046   4.357
10532SOL     OW32494   2.316   3.801   0.275
10532SOL    HW132495   2.360   3.740   0.341
10532SOL    HW232496   2.280   3.881   0.323
10533SOL     OW32497   3.303   1.779   4.210
10533SOL    HW132498   3.334   1.864   4.168
10533SOL    HW232499   3.343   1.701   4.162
10534SOL     OW32500   6.220   5.685   1.866
10534SOL    HW132501   6.209   5.735   1.780
10534SOL    HW232502   6.155   5.721   1.933
10535SOL     OW32503   0.273   2.262   1.490
10535SOL    HW132504   0.359   2.299   1.527
10535SOL    HW232505   0.220   2.336   1.449
10536SOL     OW32506   3.932   0.877   2.695
10536SOL    HW132507   3.869   0.805   2.726
10536SOL    HW232508   3.976   0.848   2.610
10537SOL     OW32509   3.436   5.706   3.502
10537SOL    HW132510   3.522   5.755   3.519
10537SOL    HW232511   3.394   5.682   3.590
10538SOL     OW32512   5.104   3.154   7.002
10538SOL    HW132513   5.067   3.101   0.058
10538SOL    HW232514   5.085   3.107   6.916
10539SOL     OW32515   0.629   4.036   6.725
10539SOL    HW132516   0.623   3.936   6.722
10539SOL    HW232517   0.725   4.063   6.720
10540SOL     OW32518   1.455   1.996   5.106
10540SOL    HW132519   1.513   2.051   5.046
10540SOL    HW232520   1.512   1.951   5.175
10541SOL     OW32521   3.627   3.634   1.835
10541SOL    HW132522   3.640   3.542   1.871
10541SOL    HW232523   3.666   3.701   1.899
10542SOL     OW32524   6.761   1.803   0.355
10542SOL    HW132525   6.726   1.844   0.440
10542SOL    HW232526   6.838   1.743   0.376
10543SOL     OW32527   0.583   1.475   4.892
10543SOL    HW132528   0.572   1.433   4.802
10543SOL    HW232529   0.672   1.451   4.930
10544SOL     OW32530   1.159   0.057   2.639
10544SOL    HW132531   1.062   0.081   2.636
10544SOL    HW232532   1.198   0.086   2.727
10545SOL     OW32533   5.699   1.343   2.839
10545SOL    HW132534   5.640   1.376   2.913
10545SOL    HW232535   5.736   1.253   2.864
10546SOL     OW32536   0.855   1.339   5.963
10546SOL    HW132537   0.874   1.362   5.868
10546SOL    HW232538   0.926   1.277   5.997
10547SOL     OW32539   4.630   1.843   1.172
10547SOL    HW132540   4.698   1.863   1.243
10547SOL    HW232541   4.632   1.745   1.151
10548SOL     OW32542   4.946   3.883   4.823
10548SOL    HW132543   4.932   3.826   4.904
10548SOL    HW232544   5.021   3.947   4.839
10549SOL     OW32545   6.570   0.496   2.110
10549SOL    HW132546   6.515   0.571   2.147
10549SOL    HW232547   6.657   0.532   2.077
10550SOL     OW32548   4.648   6.253   4.815
10550SOL    HW132549   4.712   6.210   4.751
10550SOL    HW232550   4.698   6.297   4.888
10551SOL     OW32551   1.894   2.473   5.298
10551SOL    HW132552   1.857   2.390   5.340
10551SOL    HW232553   1.905   2.544   5.368
10552SOL     OW32554   4.332   2.186   5.791
10552SOL    HW132555   4.292   2.277   5.801
10552SOL    HW232556   4.368   2.155   5.879
10553SOL     OW32557   1.246   4.862   2.008
10553SOL    HW132558   1.314   4.925   2.044
10553SOL    HW232559   1.248   4.777   2.060
10554SOL     OW32560   5.042   4.826   6.615
10554SOL    HW132561   5.028   4.826   6.516
10554SOL    HW232562   5.137   4.851   6.635
10555SOL     OW32563   2.853   3.263   1.000
10555SOL    HW132564   2.784   3.320   1.046
10555SOL    HW232565   2.926   3.321   0.965
10556SOL     OW32566   1.938   2.841   5.259
10556SOL    HW132567   1.940   2.936   5.229
10556SOL    HW232568   1.999   2.787   5.201
10557SOL     OW32569   1.352   2.756   3.124
10557SOL    HW132570   1.404   2.673   3.104
10557SOL    HW232571   1.260   2.749   3.085
10558SOL     OW32572   4.057   0.071   4.304
10558SOL    HW132573   3.962   0.046   4.323
10558SOL    HW232574   4.061   0.121   4.217
10559SOL     OW32575   3.697   0.374   1.082
10559SOL    HW132576   3.735   0.464   1.064
10559SOL    HW232577   3.764   0.317   1.129
10560SOL     OW32578   2.989   6.123   4.148
10560SOL    HW132579   3.030   6.193   4.207
10560SOL    HW232580   2.960   6.164   4.062
10561SOL     OW32581   2.663   4.773   0.601
10561SOL    HW132582   2.628   4.682   0.623
10561SOL    HW232583   2.659   4.831   0.682
10562SOL     OW32584   5.406   6.703   0.649
10562SOL    HW132585   5.426   6.800   0.633
10562SOL    HW232586   5.490   6.655   0.673
10563SOL     OW32587   1.225   0.600   4.196
10563SOL    HW132588   1.315   0.626   4.162
10563SOL    HW232589   1.179   0.542   4.128
10564SOL     OW32590   5.962   6.406   2.334
10564SOL    HW132591   6.006   6.412   2.244
10564SOL    HW232592   6.019   6.352   2.395
10565SOL     OW32593   0.345   0.706   5.399
10565SOL    HW132594   0.358   0.663   5.309
10565SOL    HW232595   0.295   0.792   5.388
10566SOL     OW32596   3.814   3.246   6.889
10566SOL    HW132597   3.795   3.158   6.845
10566SOL    HW232598   3.797   3.238   6.987
10567SOL     OW32599   2.456   2.296   4.211
10567SOL    HW132600   2.553   2.323   4.209
10567SOL    HW232601   2.399   2.377   4.216
10568SOL     OW32602   5.568   1.286   1.574
10568SOL    HW132603   5.541   1.239   1.490
10568SOL    HW232604   5.490   1.335   1.612
10569SOL     OW32605   6.764   2.667   1.773
10569SOL    HW132606   6.690   2.703   1.830
10569SOL    HW232607   6.844   2.726   1.781
10570SOL     OW32608   1.865   4.679   3.167
10570SOL    HW132609   1.767   4.690   3.179
10570SOL    HW232610   1.910   4.676   3.256
10571SOL     OW32611   0.426   4.855   4.537
10571SOL    HW132612   0.474   4.915   4.474
10571SOL    HW232613   0.491   4.793   4.581
10572SOL     OW32614   6.640   3.616   3.371
10572SOL    HW132615   6.618   3.541   3.432
10572SOL    HW232616   6.733   3.649   3.390
10573SOL     OW32617   5.047   6.050   4.398
10573SOL    HW132618   4.995   6.101   4.329
10573SOL    HW232619   5.000   5.964   4.417
10574SOL     OW32620   1.831   1.815   4.270
10574SOL    HW132621   1.872   1.905   4.252
10574SOL    HW232622   1.738   1.827   4.305
10575SOL     OW32623   6.811   0.915   3.183
10575SOL    HW132624   6.792   0.987   3.250
10575SOL    HW232625   6.777   0.943   3.094
10576SOL     OW32626   0.047   6.580   5.264
10576SOL    HW132627   0.139   6.545   5.281
10576SOL    HW232628   0.052   6.677   5.240
10577SOL     OW32629   1.336   2.533   6.550
10577SOL    HW132630   1.409   2.589   6.589
10577SOL    HW232631   1.271   2.591   6.502
10578SOL     OW32632   6.179   0.435   3.982
10578SOL    HW132633   6.224   0.480   3.905
10578SOL    HW232634   6.121   0.502   4.030
10579SOL     OW32635   3.627   1.815   0.543
10579SOL    HW132636   3.607   1.857   0.455
10579SOL    HW232637   3.558   1.746   0.564
10580SOL     OW32638   0.114   0.297   0.534
10580SOL    HW132639   0.153   0.363   0.598
10580SOL    HW232640   0.176   0.220   0.524
10581SOL     OW32641   5.679   6.806   2.849
10581SOL    HW132642   5.682   6.823   2.947
10581SOL    HW232643   5.749   6.739   2.824
10582SOL     OW32644   4.103   4.741   6.846
10582SOL    HW132645   4.011   4.750   6.883
10582SOL    HW232646   4.106   4.667   6.779
10583SOL     OW32647   4.074   1.130   5.509
10583SOL    HW132648   4.060   1.061   5.579
10583SOL    HW232649   4.020   1.212   5.531
10584SOL     OW32650   6.277   6.896   0.990
10584SOL    HW132651   6.366   6.933   1.017
10584SOL    HW232652   6.206   6.964   1.007
10585SOL     OW32653   1.642   3.525   5.474
10585SOL    HW132654   1.713   3.482   5.530
10585SOL    HW232655   1.571   3.459   5.452
10586SOL     OW32656   1.722   5.636   5.377
10586SOL    HW132657   1.677   5.646   5.288
10586SOL    HW232658   1.656   5.601   5.444
10587SOL     OW32659   5.968   4.628   6.964
10587SOL    HW132660   5.942   4.611   0.038
10587SOL    HW232661   5.948   4.723   6.940
10588SOL     OW32662   0.850   4.288   2.019
10588SOL    HW132663   0.787   4.217   2.049
10588SOL    HW232664   0.873   4.275   1.923
10589SOL     OW32665   5.707   1.516   4.354
10589SOL    HW132666   5.733   1.535   4.449
10589SOL    HW232667   5.787   1.482   4.304
10590SOL     OW32668   1.022   0.309   1.729
10590SOL    HW132669   1.004   0.401   1.764
10590SOL    HW232670   1.022   0.311   1.629
10591SOL     OW32671   1.289   1.777   6.112
10591SOL    HW132672   1.258   1.734   6.197
10591SOL    HW232673   1.272   1.715   6.035
10592SOL     OW32674   5.817   2.537   0.289
10592SOL    HW132675   5.790   2.448   0.324
10592SOL    HW232676   5.827   2.533   0.189
10593SOL     OW32677   2.554   5.117   0.479
10593SOL    HW132678   2.632   5.055   0.485
10593SOL    HW232679   2.556   5.165   0.390
10594SOL     OW32680   5.699   1.183   3.236
10594SOL    HW132681   5.715   1.086   3.215
10594SOL    HW232682   5.784   1.234   3.223
10595SOL     OW32683   3.548   0.474   6.121
10595SOL    HW132684   3.484   0.531   6.070
10595SOL    HW232685   3.502   0.439   6.203
10596SOL     OW32686   4.437   0.271   1.642
10596SOL    HW132687   4.376   0.217   1.700
10596SOL    HW232688   4.422   0.247   1.546
10597SOL     OW32689   2.984   0.849   4.718
10597SOL    HW132690   2.995   0.910   4.797
10597SOL    HW232691   3.025   0.892   4.637
10598SOL     OW32692   2.631   2.645   0.364
10598SOL    HW132693   2.651   2.736   0.401
10598SOL    HW232694   2.709   2.613   0.311
10599SOL     OW32695   5.553   2.199   0.165
10599SOL    HW132696   5.466   2.246   0.181
10599SOL    HW232697   5.536   2.102   0.147
10600SOL     OW32698   1.943   3.237   0.569
10600SOL    HW132699   1.936   3.327   0.612
10600SOL    HW232700   1.860   3.184   0.587
10601SOL     OW32701   1.677   5.073   6.192
10601SOL    HW132702   1.662   4.983   6.152
10601SOL    HW232703   1.634   5.077   6.282
10602SOL     OW32704   5.284   1.726   3.341
10602SOL    HW132705   5.342   1.750   3.262
10602SOL    HW232706   5.341   1.689   3.414
10603SOL     OW32707   2.399   5.893   3.179
10603SOL    HW132708   2.395   5.857   3.272
10603SOL    HW232709   2.354   5.982   3.176
10604SOL     OW32710   5.769   4.358   5.014
10604SOL    HW132711   5.735   4.317   5.098
10604SOL    HW232712   5.851   4.412   5.034
10605SOL     OW32713   1.720   4.715   0.810
10605SOL    HW132714   1.773   4.674   0.736
10605SOL    HW232715   1.627   4.679   0.810
10606SOL     OW32716   5.935   0.272   2.366
10606SOL    HW132717   5.928   0.174   2.387
10606SOL    HW232718   5.843   0.312   2.363
10607SOL     OW32719   4.272   3.579   5.859
10607SOL    HW132720   4.332   3.652   5.893
10607SOL    HW232721   4.190   3.619   5.818
10608SOL     OW32722   5.757   2.165   5.247
10608SOL    HW132723   5.825   2.104   5.208
10608SOL    HW232724   5.666   2.134   5.221
10609SOL     OW32725   3.184   6.511   1.657
10609SOL    HW132726   3.235   6.427   1.677
10609SOL    HW232727   3.152   6.509   1.563
10610SOL     OW32728   0.063   3.883   6.419
10610SOL    HW132729   0.026   3.945   6.488
10610SOL    HW232730   0.033   3.789   6.438
10611SOL     OW32731   4.777   3.268   6.388
10611SOL    HW132732   4.724   3.234   6.466
10611SOL    HW232733   4.844   3.198   6.361
10612SOL     OW32734   2.754   0.025   5.641
10612SOL    HW132735   2.677   6.983   5.652
10612SOL    HW232736   2.818   7.007   5.574
10613SOL     OW32737   0.080   0.082   5.454
10613SOL    HW132738   0.079   0.015   5.380
10613SOL    HW232739   0.115   0.170   5.420
10614SOL     OW32740   6.858   1.810   4.142
10614SOL    HW132741   6.930   1.775   4.082
10614SOL    HW232742   6.772   1.812   4.092
10615SOL     OW32743   3.747   5.415   5.848
10615SOL    HW132744   3.679   5.486   5.832
10615SOL    HW232745   3.720   5.331   5.800
10616SOL     OW32746   3.353   6.405   0.838
10616SOL    HW132747   3.296   6.475   0.881
10616SOL    HW232748   3.440   6.445   0.811
10617SOL     OW32749   2.520   2.990   0.699
10617SOL    HW132750   2.572   3.056   0.754
10617SOL    HW232751   2.436   2.966   0.747
10618SOL     OW32752   5.685   3.533   6.977
10618SOL    HW132753   5.639   3.450   6.947
10618SOL    HW232754   5.627   3.612   6.960
10619SOL     OW32755   0.429   3.559   1.766
10619SOL    HW132756   0.451   3.556   1.668
10619SOL    HW232757   0.443   3.652   1.800
10620SOL     OW32758   1.056   6.161   5.658
10620SOL    HW132759   1.055   6.116   5.569
10620SOL    HW232760   0.976   6.132   5.711
10621SOL     OW32761   1.571   5.967   1.057
10621SOL    HW132762   1.609   5.874   1.051
10621SOL    HW232763   1.543   5.998   0.967
10622SOL     OW32764   4.667   1.049   1.147
10622SOL    HW132765   4.593   1.052   1.080
10622SOL    HW232766   4.755   1.059   1.100
10623SOL     OW32767   5.940   3.607   3.584
10623SOL    HW132768   5.922   3.698   3.548
10623SOL    HW232769   5.970   3.547   3.510
10624SOL     OW32770   1.130   1.071   4.749
10624SOL    HW132771   1.166   0.986   4.712
10624SOL    HW232772   1.064   1.110   4.684
10625SOL     OW32773   0.901   4.274   0.148
10625SOL    HW132774   0.844   4.268   0.067
10625SOL    HW232775   0.895   4.366   0.186
10626SOL     OW32776   1.109   2.721   1.301
10626SOL    HW132777   1.024   2.715   1.248
10626SOL    HW232778   1.186   2.735   1.239
10627SOL     OW32779   5.200   6.057   2.334
10627SOL    HW132780   5.260   5.977   2.329
10627SOL    HW232781   5.255   6.138   2.355
10628SOL     OW32782   5.780   5.274   6.140
10628SOL    HW132783   5.863   5.299   6.190
10628SOL    HW232784   5.725   5.212   6.196
10629SOL     OW32785   2.548   4.508   5.127
10629SOL    HW132786   2.645   4.521   5.147
10629SOL    HW232787   2.529   4.539   5.033
10630SOL     OW32788   6.125   0.941   3.731
10630SOL    HW132789   6.198   0.918   3.667
10630SOL    HW232790   6.038   0.904   3.697
10631SOL     OW32791   1.692   4.918   5.105
10631SOL    HW132792   1.604   4.934   5.061
10631SOL    HW232793   1.753   4.870   5.042
10632SOL     OW32794   5.640   2.185   4.064
10632SOL    HW132795   5.702   2.256   4.029
10632SOL    HW232796   5.586   2.223   4.139
10633SOL     OW32797   2.939   4.433   1.163
10633SOL    HW132798   2.853   4.466   1.202
10633SOL    HW232799   3.014   4.451   1.226
10634SOL     OW32800   3.501   5.174   0.947
10634SOL    HW132801   3.485   5.195   1.043
10634SOL    HW232802   3.420   5.132   0.908
10635SOL     OW32803   2.951   0.943   1.200
10635SOL    HW132804   3.020   0.982   1.139
10635SOL    HW232805   2.930   1.009   1.272
10636SOL     OW32806   1.566   2.257   2.265
10636SOL    HW132807   1.551   2.285   2.170
10636SOL    HW232808   1.592   2.160   2.267
10637SOL     OW32809   3.528   4.341   5.857
10637SOL    HW132810   3.483   4.277   5.919
10637SOL    HW232811   3.489   4.331   5.765
10638SOL     OW32812   0.085   5.445   2.696
10638SOL    HW132813   0.135   5.365   2.664
10638SOL    HW232814   0.052   5.497   2.617
10639SOL     OW32815   0.784   2.054   3.450
10639SOL    HW132816   0.847   2.130   3.467
10639SOL    HW232817   0.715   2.082   3.384
10640SOL     OW32818   4.031   6.996   6.583
10640SOL    HW132819   3.968   6.949   6.645
10640SOL    HW232820   4.109   0.009   6.635
10641SOL     OW32821   3.247   2.063   0.014
10641SOL    HW132822   3.278   2.036   0.105
10641SOL    HW232823   3.303   2.140   7.003
10642SOL     OW32824   0.561   2.500   1.573
10642SOL    HW132825   0.642   2.467   1.622
10642SOL    HW232826   0.506   2.556   1.634
10643SOL     OW32827   2.096   4.941   5.818
10643SOL    HW132828   2.071   4.911   5.725
10643SOL    HW232829   2.174   5.002   5.813
10644SOL     OW32830   4.804   2.313   3.610
10644SOL    HW132831   4.769   2.406   3.606
10644SOL    HW232832   4.743   2.256   3.664
10645SOL     OW32833   0.769   0.910   4.190
10645SOL    HW132834   0.703   0.984   4.203
10645SOL    HW232835   0.833   0.935   4.116
10646SOL     OW32836   0.308   1.925   4.909
10646SOL    HW132837   0.348   1.834   4.901
10646SOL    HW232838   0.343   1.984   4.836
10647SOL     OW32839   4.944   6.386   6.813
10647SOL    HW132840   5.029   6.438   6.806
10647SOL    HW232841   4.901   6.405   6.901
10648SOL     OW32842   5.236   3.110   6.476
10648SOL    HW132843   5.334   3.128   6.461
10648SOL    HW232844   5.182   3.174   6.422
10649SOL     OW32845   0.340   4.694   3.778
10649SOL    HW132846   0.407   4.681   3.852
10649SOL    HW232847   0.267   4.754   3.810
10650SOL     OW32848   1.479   6.049   3.069
10650SOL    HW132849   1.570   6.078   3.040
10650SOL    HW232850   1.461   6.083   3.162
10651SOL     OW32851   4.826   0.457   5.915
10651SOL    HW132852   4.842   0.395   5.992
10651SOL    HW232853   4.738   0.434   5.873
10652SOL     OW32854   3.390   0.243   0.281
10652SOL    HW132855   3.392   0.343   0.270
10652SOL    HW232856   3.383   0.200   0.192
10653SOL     OW32857   4.919   4.964   4.206
10653SOL    HW132858   5.016   4.984   4.221
10653SOL    HW232859   4.898   4.973   4.109
10654SOL     OW32860   4.885   0.721   1.125
10654SOL    HW132861   4.808   0.660   1.145
10654SOL    HW232862   4.856   0.816   1.138
10655SOL     OW32863   3.343   5.506   1.493
10655SOL    HW132864   3.300   5.593   1.469
10655SOL    HW232865   3.369   5.507   1.590
10656SOL     OW32866   6.061   2.108   0.593
10656SOL    HW132867   6.064   2.016   0.632
10656SOL    HW232868   6.132   2.165   0.634
10657SOL     OW32869   6.286   6.782   0.373
10657SOL    HW132870   6.255   6.874   0.348
10657SOL    HW232871   6.283   6.723   0.292
10658SOL     OW32872   0.068   3.983   5.053
10658SOL    HW132873   0.016   4.065   5.033
10658SOL    HW232874   0.083   3.931   4.969
10659SOL     OW32875   6.622   6.395   0.962
10659SOL    HW132876   6.559   6.453   0.912
10659SOL    HW232877   6.681   6.346   0.898
10660SOL     OW32878   5.365   4.459   6.500
10660SOL    HW132879   5.334   4.547   6.463
10660SOL    HW232880   5.462   4.464   6.523
10661SOL     OW32881   0.039   6.447   2.726
10661SOL    HW132882   0.061   6.431   2.822
10661SOL    HW232883   6.962   6.429   2.711
10662SOL     OW32884   5.978   0.767   2.579
10662SOL    HW132885   6.026   0.694   2.627
10662SOL    HW232886   6.036   0.802   2.505
10663SOL     OW32887   0.786   6.767   1.084
10663SOL    HW132888   0.743   6.684   1.050
10663SOL    HW232889   0.868   6.744   1.136
10664SOL     OW32890   1.889   4.286   6.382
10664SOL    HW132891   1.970   4.332   6.416
10664SOL    HW232892   1.899   4.267   6.284
10665SOL     OW32893   1.545   0.865   0.028
10665SOL    HW132894   1.467   0.832   0.081
10665SOL    HW232895   1.535   0.837   6.953
10666SOL     OW32896   3.920   4.281   0.045
10666SOL    HW132897   3.837   4.314   0.089
10666SOL    HW232898   3.903   4.268   6.967
10667SOL     OW32899   3.906   1.726   5.617
10667SOL    HW132900   3.818   1.679   5.610
10667SOL    HW232901   3.892   1.819   5.652
10668SOL     OW32902   1.214   1.831   5.141
10668SOL    HW132903   1.173   1.851   5.052
10668SOL    HW232904   1.297   1.886   5.153
10669SOL     OW32905   6.759   6.759   0.989
10669SOL    HW132906   6.795   6.852   0.985
10669SOL    HW232907   6.673   6.758   1.041
10670SOL     OW32908   4.949   4.598   5.517
10670SOL    HW132909   4.995   4.615   5.604
10670SOL    HW232910   4.886   4.672   5.497
10671SOL     OW32911   2.132   3.230   3.076
10671SOL    HW132912   2.146   3.257   3.171
10671SOL    HW232913   2.099   3.308   3.023
10672SOL     OW32914   0.019   2.956   0.750
10672SOL    HW132915   6.963   2.897   0.778
10672SOL    HW232916   7.016   3.052   0.771
10673SOL     OW32917   2.186   2.360   5.533
10673SOL    HW132918   2.159   2.353   5.437
10673SOL    HW232919   2.265   2.301   5.550
10674SOL     OW32920   3.772   3.527   0.575
10674SOL    HW132921   3.836   3.496   0.645
10674SOL    HW232922   3.819   3.593   0.515
10675SOL     OW32923   1.704   0.819   6.219
10675SOL    HW132924   1.619   0.767   6.215
10675SOL    HW232925   1.746   0.809   6.309
10676SOL     OW32926   6.284   0.018   6.440
10676SOL    HW132927   6.325   6.948   6.439
10676SOL    HW232928   6.196   0.015   6.487
10677SOL     OW32929   1.026   1.153   2.104
10677SOL    HW132930   1.117   1.183   2.129
10677SOL    HW232931   1.022   1.053   2.104
10678SOL     OW32932   3.566   5.338   3.041
10678SOL    HW132933   3.659   5.312   3.067
10678SOL    HW232934   3.568   5.430   3.001
10679SOL     OW32935   5.586   5.125   5.857
10679SOL    HW132936   5.666   5.105   5.801
10679SOL    HW232937   5.588   5.221   5.885
10680SOL     OW32938   1.693   3.160   3.463
10680SOL    HW132939   1.747   3.242   3.447
10680SOL    HW232940   1.744   3.080   3.430
10681SOL     OW32941   0.179   3.807   6.734
10681SOL    HW132942   0.213   3.748   6.661
10681SOL    HW232943   0.146   3.893   6.695
10682SOL     OW32944   1.901   2.000   3.235
10682SOL    HW132945   1.999   1.993   3.254
10682SOL    HW232946   1.865   1.911   3.208
10683SOL     OW32947   2.953   2.159   3.714
10683SOL    HW132948   2.880   2.222   3.689
10683SOL    HW232949   2.979   2.106   3.633
10684SOL     OW32950   4.561   3.833   6.860
10684SOL    HW132951   4.534   3.917   6.906
10684SOL    HW232952   4.660   3.822   6.866
10685SOL     OW32953   0.282   3.802   2.853
10685SOL    HW132954   0.349   3.803   2.927
10685SOL    HW232955   0.197   3.763   2.886
10686SOL     OW32956   3.945   6.042   6.326
10686SOL    HW132957   3.885   6.011   6.252
10686SOL    HW232958   4.039   6.011   6.308
10687SOL     OW32959   0.312   5.325   1.890
10687SOL    HW132960   0.370   5.251   1.924
10687SOL    HW232961   0.222   5.290   1.868
10688SOL     OW32962   6.383   4.242   2.196
10688SOL    HW132963   6.367   4.300   2.117
10688SOL    HW232964   6.482   4.229   2.209
10689SOL     OW32965   6.918   0.061   3.137
10689SOL    HW132966   6.920   0.157   3.165
10689SOL    HW232967   6.963   0.052   3.048
10690SOL     OW32968   4.885   5.645   3.341
10690SOL    HW132969   4.844   5.636   3.432
10690SOL    HW232970   4.969   5.699   3.348
10691SOL     OW32971   6.640   1.920   1.773
10691SOL    HW132972   6.672   1.833   1.809
10691SOL    HW232973   6.641   1.918   1.673
10692SOL     OW32974   2.895   5.813   3.907
10692SOL    HW132975   2.887   5.717   3.880
10692SOL    HW232976   2.952   5.820   3.989
10693SOL     OW32977   1.928   1.131   1.246
10693SOL    HW132978   1.956   1.082   1.163
10693SOL    HW232979   1.987   1.211   1.258
10694SOL     OW32980   3.456   6.309   1.082
10694SOL    HW132981   3.430   6.293   0.987
10694SOL    HW232982   3.477   6.406   1.094
10695SOL     OW32983   6.530   2.375   4.102
10695SOL    HW132984   6.536   2.463   4.149
10695SOL    HW232985   6.555   2.301   4.165
10696SOL     OW32986   6.857   4.977   1.208
10696SOL    HW132987   6.763   4.946   1.197
10696SOL    HW232988   6.920   4.903   1.187
10697SOL     OW32989   0.251   6.174   3.675
10697SOL    HW132990   0.184   6.243   3.646
10697SOL    HW232991   0.290   6.129   3.595
10698SOL     OW32992   2.846   0.095   3.829
10698SOL    HW132993   2.746   0.093   3.833
10698SOL    HW232994   2.883   0.072   3.919
10699SOL     OW32995   4.515   1.671   2.804
10699SOL    HW132996   4.476   1.586   2.838
10699SOL    HW232997   4.480   1.748   2.858
10700SOL     OW32998   0.558   0.028   0.079
10700SOL    HW132999   0.598   0.017   7.008
10700SOL    HW233000   0.494   0.105   0.078
10701SOL     OW33001   4.428   6.250   6.583
10701SOL    HW133002   4.333   6.282   6.574
10701SOL    HW233003   4.449   6.236   6.680
10702SOL     OW33004   5.746   2.167   1.674
10702SOL    HW133005   5.689   2.223   1.734
10702SOL    HW233006   5.775   2.085   1.723
10703SOL     OW33007   3.855   3.761   3.207
10703SOL    HW133008   3.780   3.776   3.143
10703SOL    HW233009   3.857   3.664   3.233
10704SOL     OW33010   4.792   6.802   1.970
10704SOL    HW133011   4.839   6.871   2.025
10704SOL    HW233012   4.720   6.846   1.917
10705SOL     OW33013   1.496   3.626   0.020
10705SOL    HW133014   1.467   3.722   0.014
10705SOL    HW233015   1.485   3.594   0.114
10706SOL     OW33016   4.353   0.387   2.446
10706SOL    HW133017   4.261   0.353   2.466
10706SOL    HW233018   4.359   0.410   2.349
10707SOL     OW33019   0.025   6.777   5.941
10707SOL    HW133020   6.984   6.731   6.004
10707SOL    HW233021   7.010   6.869   5.922
10708SOL     OW33022   5.063   1.079   1.395
10708SOL    HW133023   5.081   1.028   1.479
10708SOL    HW233024   5.116   1.164   1.396
10709SOL     OW33025   5.904   0.568   5.708
10709SOL    HW133026   5.979   0.523   5.756
10709SOL    HW233027   5.908   0.667   5.724
10710SOL     OW33028   6.779   6.209   4.154
10710SOL    HW133029   6.804   6.268   4.231
10710SOL    HW233030   6.858   6.152   4.129
10711SOL     OW33031   2.143   6.962   3.850
10711SOL    HW133032   2.217   6.905   3.885
10711SOL    HW233033   2.181   0.022   3.804
10712SOL     OW33034   3.773   1.342   4.179
10712SOL    HW133035   3.865   1.379   4.164
10712SOL    HW233036   3.709   1.416   4.198
10713SOL     OW33037   2.234   5.426   1.991
10713SOL    HW133038   2.251   5.477   2.075
10713SOL    HW233039   2.310   5.438   1.927
10714SOL     OW33040   0.280   4.692   4.808
10714SOL    HW133041   0.330   4.648   4.883
10714SOL    HW233042   0.281   4.791   4.821
10715SOL     OW33043   5.458   1.802   4.156
10715SOL    HW133044   5.547   1.836   4.126
10715SOL    HW233045   5.394   1.803   4.079
10716SOL     OW33046   6.554   1.122   3.622
10716SOL    HW133047   6.602   1.035   3.639
10716SOL    HW233048   6.458   1.113   3.650
10717SOL     OW33049   0.739   1.456   1.150
10717SOL    HW133050   0.717   1.464   1.053
10717SOL    HW233051   0.724   1.544   1.195
10718SOL     OW33052   6.807   5.531   0.625
10718SOL    HW133053   6.723   5.522   0.571
10718SOL    HW233054   6.845   5.440   0.642
10719SOL     OW33055   5.079   0.302   2.854
10719SOL    HW133056   5.096   0.401   2.855
10719SOL    HW233057   5.155   0.256   2.808
10720SOL     OW33058   6.705   3.379   6.022
10720SOL    HW133059   6.733   3.336   5.936
10720SOL    HW233060   6.774   3.361   6.092
10721SOL     OW33061   6.362   2.120   4.295
10721SOL    HW133062   6.283   2.170   4.259
10721SOL    HW233063   6.340   2.023   4.299
10722SOL     OW33064   6.751   3.477   6.905
10722SOL    HW133065   6.759   3.512   6.811
10722SOL    HW233066   6.761   3.553   6.969
10723SOL     OW33067   5.405   4.013   6.895
10723SOL    HW133068   5.308   4.026   6.917
10723SOL    HW233069   5.417   4.018   6.795
10724SOL     OW33070   4.482   6.855   6.026
10724SOL    HW133071   4.432   6.769   6.033
10724SOL    HW233072   4.558   6.845   5.962
10725SOL     OW33073   0.337   5.727   4.519
10725SOL    HW133074   0.311   5.639   4.480
10725SOL    HW233075   0.411   5.767   4.464
10726SOL     OW33076   5.362   0.883   4.977
10726SOL    HW133077   5.363   0.827   4.894
10726SOL    HW233078   5.338   0.825   5.055
10727SOL     OW33079   1.913   4.636   4.761
10727SOL    HW133080   1.936   4.650   4.665
10727SOL    HW233081   1.995   4.608   4.811
10728SOL     OW33082   4.995   6.861   3.048
10728SOL    HW133083   5.046   6.787   3.092
10728SOL    HW233084   5.000   6.851   2.949
10729SOL     OW33085   6.317   1.922   3.038
10729SOL    HW133086   6.323   1.934   2.939
10729SOL    HW233087   6.222   1.899   3.063
10730SOL     OW33088   2.254   5.894   2.411
10730SOL    HW133089   2.285   5.828   2.343
10730SOL    HW233090   2.312   5.976   2.406
10731SOL     OW33091   3.115   5.497   0.179
10731SOL    HW133092   3.146   5.473   0.088
10731SOL    HW233093   3.194   5.513   0.239
10732SOL     OW33094   5.647   6.550   3.072
10732SOL    HW133095   5.577   6.493   3.115
10732SOL    HW233096   5.737   6.519   3.102
10733SOL     OW33097   5.762   1.272   0.713
10733SOL    HW133098   5.733   1.368   0.715
10733SOL    HW233099   5.735   1.231   0.627
10734SOL     OW33100   0.622   0.187   6.249
10734SOL    HW133101   0.714   0.221   6.229
10734SOL    HW233102   0.582   0.148   6.166
10735SOL     OW33103   0.897   5.365   2.567
10735SOL    HW133104   0.918   5.445   2.622
10735SOL    HW233105   0.965   5.356   2.494
10736SOL     OW33106   0.249   0.740   3.890
10736SOL    HW133107   0.306   0.660   3.871
10736SOL    HW233108   0.254   0.763   3.987
10737SOL     OW33109   0.506   1.998   1.456
10737SOL    HW133110   0.467   2.046   1.534
10737SOL    HW233111   0.592   1.955   1.483
10738SOL     OW33112   2.512   0.982   2.403
10738SOL    HW133113   2.558   1.057   2.357
10738SOL    HW233114   2.565   0.954   2.483
10739SOL     OW33115   6.102   1.726   2.399
10739SOL    HW133116   6.154   1.665   2.459
10739SOL    HW233117   6.056   1.673   2.329
10740SOL     OW33118   1.349   6.423   5.569
10740SOL    HW133119   1.408   6.501   5.551
10740SOL    HW233120   1.363   6.353   5.499
10741SOL     OW33121   1.641   2.757   3.601
10741SOL    HW133122   1.696   2.706   3.668
10741SOL    HW233123   1.587   2.693   3.547
10742SOL     OW33124   5.858   5.871   1.938
10742SOL    HW133125   5.781   5.807   1.930
10742SOL    HW233126   5.928   5.830   1.996
10743SOL     OW33127   3.625   1.051   5.110
10743SOL    HW133128   3.562   1.000   5.051
10743SOL    HW233129   3.654   0.993   5.185
10744SOL     OW33130   3.188   0.866   1.341
10744SOL    HW133131   3.224   0.835   1.252
10744SOL    HW233132   3.178   0.788   1.402
10745SOL     OW33133   2.647   5.161   1.136
10745SOL    HW133134   2.728   5.175   1.080
10745SOL    HW233135   2.569   5.137   1.078
10746SOL     OW33136   2.829   5.837   1.124
10746SOL    HW133137   2.765   5.893   1.177
10746SOL    HW233138   2.874   5.893   1.055
10747SOL     OW33139   5.917   2.310   4.233
10747SOL    HW133140   5.904   2.403   4.267
10747SOL    HW233141   5.920   2.247   4.311
10748SOL     OW33142   4.705   5.570   1.038
10748SOL    HW133143   4.629   5.544   1.096
10748SOL    HW233144   4.719   5.669   1.042
10749SOL     OW33145   6.429   4.666   3.452
10749SOL    HW133146   6.505   4.704   3.505
10749SOL    HW233147   6.400   4.732   3.383
10750SOL     OW33148   4.713   4.208   3.953
10750SOL    HW133149   4.651   4.279   3.923
10750SOL    HW233150   4.717   4.207   4.053
10751SOL     OW33151   1.570   3.212   5.108
10751SOL    HW133152   1.568   3.306   5.143
10751SOL    HW233153   1.564   3.148   5.185
10752SOL     OW33154   6.147   4.978   0.138
10752SOL    HW133155   6.162   4.943   0.046
10752SOL    HW233156   6.081   4.919   0.186
10753SOL     OW33157   4.529   0.014   4.465
10753SOL    HW133158   4.444   0.062   4.484
10753SOL    HW233159   4.513   6.965   4.395
10754SOL     OW33160   0.383   3.031   1.753
10754SOL    HW133161   0.299   3.016   1.700
10754SOL    HW233162   0.446   3.088   1.700
10755SOL     OW33163   0.012   1.743   1.670
10755SOL    HW133164   0.021   1.817   1.737
10755SOL    HW233165   0.053   1.659   1.707
10756SOL     OW33166   6.163   2.263   6.991
10756SOL    HW133167   6.148   2.313   6.905
10756SOL    HW233168   6.259   2.270   7.017
10757SOL     OW33169   6.832   3.854   0.573
10757SOL    HW133170   6.891   3.903   0.637
10757SOL    HW233171   6.756   3.812   0.623
10758SOL     OW33172   0.786   5.700   6.513
10758SOL    HW133173   0.739   5.787   6.503
10758SOL    HW233174   0.782   5.671   6.609
10759SOL     OW33175   1.424   2.654   5.898
10759SOL    HW133176   1.392   2.732   5.951
10759SOL    HW233177   1.446   2.578   5.959
10760SOL     OW33178   1.272   6.170   0.338
10760SOL    HW133179   1.265   6.265   0.366
10760SOL    HW233180   1.263   6.163   0.239
10761SOL     OW33181   0.940   2.383   6.479
10761SOL    HW133182   0.943   2.461   6.542
10761SOL    HW233183   1.010   2.394   6.409
10762SOL     OW33184   3.966   0.722   5.849
10762SOL    HW133185   4.003   0.813   5.832
10762SOL    HW233186   4.041   0.655   5.853
10763SOL     OW33187   5.458   0.634   2.467
10763SOL    HW133188   5.536   0.592   2.420
10763SOL    HW233189   5.390   0.564   2.489
10764SOL     OW33190   4.600   1.120   5.190
10764SOL    HW133191   4.681   1.064   5.169
10764SOL    HW233192   4.550   1.137   5.105
10765SOL     OW33193   5.582   1.517   2.357
10765SOL    HW133194   5.504   1.574   2.382
10765SOL    HW233195   5.644   1.509   2.436
10766SOL     OW33196   1.753   4.991   0.039
10766SOL    HW133197   1.792   4.996   6.968
10766SOL    HW233198   1.786   4.909   0.085
10767SOL     OW33199   2.018   6.708   0.467
10767SOL    HW133200   2.048   6.632   0.526
10767SOL    HW233201   1.920   6.700   0.450
10768SOL     OW33202   5.030   5.332   0.360
10768SOL    HW133203   5.107   5.357   0.301
10768SOL    HW233204   5.062   5.322   0.454
10769SOL     OW33205   2.743   4.407   5.386
10769SOL    HW133206   2.804   4.449   5.319
10769SOL    HW233207   2.702   4.324   5.347
10770SOL     OW33208   5.507   6.902   4.570
10770SOL    HW133209   5.582   6.960   4.603
10770SOL    HW233210   5.538   6.848   4.492
10771SOL     OW33211   4.241   0.153   5.443
10771SOL    HW133212   4.147   0.167   5.414
10771SOL    HW233213   4.303   0.188   5.374
10772SOL     OW33214   5.860   6.860   4.441
10772SOL    HW133215   5.809   6.945   4.429
10772SOL    HW233216   5.941   6.877   4.497
10773SOL     OW33217   6.790   4.539   6.895
10773SOL    HW133218   6.859   4.527   6.823
10773SOL    HW233219   6.819   4.491   6.978
10774SOL     OW33220   1.232   2.102   1.065
10774SOL    HW133221   1.297   2.168   1.104
10774SOL    HW233222   1.278   2.015   1.048
10775SOL     OW33223   1.376   4.477   1.318
10775SOL    HW133224   1.458   4.488   1.375
10775SOL    HW233225   1.400   4.492   1.222
10776SOL     OW33226   6.185   0.442   2.930
10776SOL    HW133227   6.164   0.355   2.886
10776SOL    HW233228   6.282   0.445   2.955
10777SOL     OW33229   3.231   1.106   3.887
10777SOL    HW133230   3.144   1.143   3.920
10777SOL    HW233231   3.247   1.017   3.929
10778SOL     OW33232   6.442   6.175   5.111
10778SOL    HW133233   6.459   6.135   5.021
10778SOL    HW233234   6.358   6.229   5.108
10779SOL     OW33235   5.712   4.439   3.119
10779SOL    HW133236   5.745   4.525   3.159
10779SOL    HW233237   5.612   4.436   3.125
10780SOL     OW33238   0.091   5.858   4.529
10780SOL    HW133239   0.056   5.842   4.621
10780SOL    HW233240   0.178   5.810   4.518
10781SOL     OW33241   5.976   0.961   4.975
10781SOL    HW133242   6.056   1.013   5.004
10781SOL    HW233243   5.960   0.977   4.877
10782SOL     OW33244   6.674   3.092   5.376
10782SOL    HW133245   6.687   3.001   5.416
10782SOL    HW233246   6.752   3.150   5.398
10783SOL     OW33247   1.849   2.532   2.292
10783SOL    HW133248   1.751   2.510   2.293
10783SOL    HW233249   1.862   2.626   2.324
10784SOL     OW33250   2.740   5.994   2.166
10784SOL    HW133251   2.767   5.919   2.106
10784SOL    HW233252   2.647   5.980   2.199
10785SOL     OW33253   1.632   5.144   1.557
10785SOL    HW133254   1.665   5.180   1.470
10785SOL    HW233255   1.710   5.123   1.616
10786SOL     OW33256   4.068   2.186   2.474
10786SOL    HW133257   4.087   2.173   2.377
10786SOL    HW233258   4.028   2.277   2.488
10787SOL     OW33259   3.001   1.373   4.221
10787SOL    HW133260   3.078   1.373   4.157
10787SOL    HW233261   3.031   1.332   4.308
10788SOL     OW33262   1.342   4.391   0.417
10788SOL    HW133263   1.382   4.478   0.385
10788SOL    HW233264   1.323   4.333   0.338
10789SOL     OW33265   6.229   0.993   0.210
10789SOL    HW133266   6.192   0.980   0.302
10789SOL    HW233267   6.316   1.042   0.216
10790SOL     OW33268   0.227   1.766   5.183
10790SOL    HW133269   0.192   1.858   5.203
10790SOL    HW233270   0.206   1.743   5.088
10791SOL     OW33271   2.071   1.565   2.120
10791SOL    HW133272   2.033   1.567   2.028
10791SOL    HW233273   2.004   1.602   2.185
10792SOL     OW33274   3.529   2.455   1.262
10792SOL    HW133275   3.514   2.516   1.341
10792SOL    HW233276   3.530   2.360   1.293
10793SOL     OW33277   5.297   1.586   4.824
10793SOL    HW133278   5.308   1.628   4.733
10793SOL    HW233279   5.227   1.515   4.819
10794SOL     OW33280   4.069   3.340   1.789
10794SOL    HW133281   4.019   3.259   1.819
10794SOL    HW233282   4.055   3.415   1.854
10795SOL     OW33283   0.112   4.285   2.448
10795SOL    HW133284   0.149   4.353   2.385
10795SOL    HW233285   0.108   4.196   2.403
10796SOL     OW33286   5.746   6.868   6.633
10796SOL    HW133287   5.774   6.931   6.561
10796SOL    HW233288   5.802   6.883   6.715
10797SOL     OW33289   3.947   2.873   7.017
10797SOL    HW133290   4.038   2.866   0.036
10797SOL    HW233291   3.951   2.923   6.931
10798SOL     OW33292   2.377   0.159   6.092
10798SOL    HW133293   2.309   0.086   6.099
10798SOL    HW233294   2.445   0.148   6.164
10799SOL     OW33295   3.088   1.894   2.641
10799SOL    HW133296   3.089   1.978   2.587
10799SOL    HW233297   3.179   1.852   2.638
10800SOL     OW33298   1.601   7.009   0.439
10800SOL    HW133299   1.630   0.031   0.525
10800SOL    HW233300   1.510   0.023   0.415
10801SOL     OW33301   2.184   6.257   5.346
10801SOL    HW133302   2.205   6.178   5.403
10801SOL    HW233303   2.229   6.338   5.384
10802SOL     OW33304   1.431   3.475   3.922
10802SOL    HW133305   1.477   3.546   3.869
10802SOL    HW233306   1.335   3.499   3.935
10803SOL     OW33307   5.111   4.118   5.672
10803SOL    HW133308   5.046   4.171   5.726
10803SOL    HW233309   5.163   4.057   5.732
10804SOL     OW33310   6.082   3.857   1.449
10804SOL    HW133311   6.002   3.873   1.506
10804SOL    HW233312   6.053   3.817   1.362
10805SOL     OW33313   4.086   6.834   0.640
10805SOL    HW133314   4.183   6.813   0.642
10805SOL    HW233315   4.034   6.750   0.620
10806SOL     OW33316   5.815   3.364   0.263
10806SOL    HW133317   5.888   3.427   0.291
10806SOL    HW233318   5.835   3.329   0.172
10807SOL     OW33319   3.228   5.871   3.393
10807SOL    HW133320   3.157   5.815   3.434
10807SOL    HW233321   3.318   5.838   3.424
10808SOL     OW33322   1.184   3.492   6.833
10808SOL    HW133323   1.282   3.504   6.824
10808SOL    HW233324   1.157   3.403   6.794
10809SOL     OW33325   2.722   1.413   4.248
10809SOL    HW133326   2.692   1.483   4.313
10809SOL    HW233327   2.821   1.421   4.235
10810SOL     OW33328   0.350   1.394   5.782
10810SOL    HW133329   0.330   1.296   5.778
10810SOL    HW233330   0.372   1.419   5.876
10811SOL     OW33331   4.189   5.038   5.773
10811SOL    HW133332   4.218   5.095   5.850
10811SOL    HW233333   4.266   4.982   5.742
10812SOL     OW33334   6.855   3.067   2.453
10812SOL    HW133335   6.874   3.123   2.373
10812SOL    HW233336   6.866   3.121   2.536
10813SOL     OW33337   2.667   5.944   1.649
10813SOL    HW133338   2.624   6.021   1.696
10813SOL    HW233339   2.743   5.909   1.705
10814SOL     OW33340   2.043   0.134   5.362
10814SOL    HW133341   2.074   0.211   5.306
10814SOL    HW233342   2.090   0.136   5.450
10815SOL     OW33343   5.100   4.124   3.099
10815SOL    HW133344   5.031   4.175   3.047
10815SOL    HW233345   5.157   4.072   3.036
10816SOL     OW33346   1.915   0.939   2.283
10816SOL    HW133347   1.941   1.013   2.345
10816SOL    HW233348   1.857   0.976   2.210
10817SOL     OW33349   5.492   0.213   2.778
10817SOL    HW133350   5.504   0.189   2.681
10817SOL    HW233351   5.407   0.172   2.812
10818SOL     OW33352   5.504   3.163   6.430
10818SOL    HW133353   5.519   3.247   6.482
10818SOL    HW233354   5.563   3.090   6.466
10819SOL     OW33355   0.393   4.130   6.625
10819SOL    HW133356   0.360   4.064   6.557
10819SOL    HW233357   0.484   4.103   6.655
10820SOL     OW33358   0.303   6.810   3.896
10820SOL    HW133359   0.229   6.749   3.870
10820SOL    HW233360   0.389   6.758   3.900
10821SOL     OW33361   7.020   6.843   2.267
10821SOL    HW133362   6.965   6.763   2.243
10821SOL    HW233363   7.012   6.860   2.365
10822SOL     OW33364   1.453   3.674   2.405
10822SOL    HW133365   1.435   3.580   2.434
10822SOL    HW233366   1.390   3.700   2.332
10823SOL     OW33367   2.756   5.656   1.603
10823SOL    HW133368   2.835   5.709   1.633
10823SOL    HW233369   2.684   5.719   1.573
10824SOL     OW33370   5.276   0.292   3.574
10824SOL    HW133371   5.278   0.234   3.493
10824SOL    HW233372   5.211   0.367   3.560
10825SOL     OW33373   2.795   1.559   1.339
10825SOL    HW133374   2.746   1.644   1.360
10825SOL    HW233375   2.891   1.580   1.318
10826SOL     OW33376   6.910   3.711   2.148
10826SOL    HW133377   6.915   3.686   2.244
10826SOL    HW233378   6.839   3.780   2.135
10827SOL     OW33379   6.661   3.725   4.435
10827SOL    HW133380   6.626   3.814   4.407
10827SOL    HW233381   6.591   3.675   4.485
10828SOL     OW33382   1.208   5.911   1.126
10828SOL    HW133383   1.251   5.837   1.074
10828SOL    HW233384   1.187   5.987   1.065
10829SOL     OW33385   3.126   3.858   1.553
10829SOL    HW133386   3.123   3.949   1.513
10829SOL    HW233387   3.039   3.838   1.598
10830SOL     OW33388   6.336   3.278   4.525
10830SOL    HW133389   6.261   3.345   4.522
10830SOL    HW233390   6.311   3.198   4.471
10831SOL     OW33391   5.156   0.815   2.374
10831SOL    HW133392   5.208   0.783   2.295
10831SOL    HW233393   5.181   0.761   2.455
10832SOL     OW33394   0.852   1.914   0.202
10832SOL    HW133395   0.784   1.956   0.262
10832SOL    HW233396   0.883   1.828   0.241
10833SOL     OW33397   2.382   0.961   3.939
10833SOL    HW133398   2.466   0.920   3.974
10833SOL    HW233399   2.370   0.936   3.843
10834SOL     OW33400   0.584   0.996   5.332
10834SOL    HW133401   0.655   1.021   5.398
10834SOL    HW233402   0.598   1.046   5.247
10835SOL     OW33403   6.471   1.538   2.309
10835SOL    HW133404   6.469   1.477   2.388
10835SOL    HW233405   6.509   1.627   2.336
10836SOL     OW33406   0.408   1.282   5.256
10836SOL    HW133407   0.359   1.369   5.255
10836SOL    HW233408   0.402   1.242   5.347
10837SOL     OW33409   6.494   4.444   0.239
10837SOL    HW133410   6.569   4.464   0.302
10837SOL    HW233411   6.520   4.472   0.146
10838SOL     OW33412   6.067   0.174   6.688
10838SOL    HW133413   6.078   0.228   6.605
10838SOL    HW233414   6.021   0.228   6.758
10839SOL     OW33415   2.715   1.954   6.929
10839SOL    HW133416   2.655   1.963   6.849
10839SOL    HW233417   2.667   1.905   7.001
10840SOL     OW33418   3.309   6.130   1.397
10840SOL    HW133419   3.367   6.124   1.315
10840SOL    HW233420   3.347   6.072   1.469
10841SOL     OW33421   3.942   6.186   6.039
10841SOL    HW133422   4.016   6.229   6.090
10841SOL    HW233423   3.854   6.215   6.076
10842SOL     OW33424   6.487   2.884   0.856
10842SOL    HW133425   6.412   2.948   0.838
10842SOL    HW233426   6.571   2.919   0.815
10843SOL     OW33427   1.379   1.672   2.114
10843SOL    HW133428   1.437   1.750   2.092
10843SOL    HW233429   1.355   1.623   2.030
10844SOL     OW33430   6.530   6.100   4.576
10844SOL    HW133431   6.629   6.085   4.574
10844SOL    HW233432   6.485   6.032   4.519
10845SOL     OW33433   1.212   1.328   1.839
10845SOL    HW133434   1.284   1.290   1.897
10845SOL    HW233435   1.203   1.273   1.756
10846SOL     OW33436   4.278   1.756   0.864
10846SOL    HW133437   4.198   1.763   0.923
10846SOL    HW233438   4.249   1.732   0.771
10847SOL     OW33439   3.088   1.287   5.843
10847SOL    HW133440   3.176   1.274   5.887
10847SOL    HW233441   3.097   1.269   5.745
10848SOL     OW33442   2.556   1.589   6.871
10848SOL    HW133443   2.638   1.532   6.867
10848SOL    HW233444   2.561   1.649   6.950
10849SOL     OW33445   3.060   4.919   3.841
10849SOL    HW133446   3.037   5.006   3.799
10849SOL    HW233447   2.976   4.867   3.858
10850SOL     OW33448   4.267   6.492   6.943
10850SOL    HW133449   4.218   6.413   6.981
10850SOL    HW233450   4.250   6.572   7.000
10851SOL     OW33451   2.610   3.102   6.092
10851SOL    HW133452   2.542   3.111   6.019
10851SOL    HW233453   2.614   3.006   6.122
10852SOL     OW33454   6.865   1.174   6.034
10852SOL    HW133455   6.935   1.241   6.060
10852SOL    HW233456   6.882   1.143   5.940
10853SOL     OW33457   2.970   2.190   4.509
10853SOL    HW133458   2.961   2.233   4.419
10853SOL    HW233459   3.043   2.235   4.560
10854SOL     OW33460   5.509   0.441   6.747
10854SOL    HW133461   5.563   0.361   6.723
10854SOL    HW233462   5.506   0.451   6.847
10855SOL     OW33463   1.984   5.929   2.457
10855SOL    HW133464   1.913   5.858   2.453
10855SOL    HW233465   2.074   5.886   2.452
10856SOL     OW33466   6.014   6.433   0.356
10856SOL    HW133467   5.937   6.400   0.410
10856SOL    HW233468   6.086   6.465   0.417
10857SOL     OW33469   6.595   2.505   3.322
10857SOL    HW133470   6.621   2.469   3.232
10857SOL    HW233471   6.573   2.429   3.383
10858SOL     OW33472   1.883   3.483   0.309
10858SOL    HW133473   1.979   3.470   0.334
10858SOL    HW233474   1.861   3.580   0.312
10859SOL     OW33475   0.730   4.015   3.426
10859SOL    HW133476   0.633   4.003   3.451
10859SOL    HW233477   0.768   3.926   3.400
10860SOL     OW33478   7.004   1.348   0.514
10860SOL    HW133479   6.962   1.416   0.573
10860SOL    HW233480   0.052   1.296   0.566
10861SOL     OW33481   3.522   2.697   1.785
10861SOL    HW133482   3.551   2.726   1.876
10861SOL    HW233483   3.488   2.776   1.734
10862SOL     OW33484   2.669   2.392   5.888
10862SOL    HW133485   2.689   2.310   5.941
10862SOL    HW233486   2.715   2.386   5.799
10863SOL     OW33487   2.489   0.135   3.120
10863SOL    HW133488   2.502   0.148   3.022
10863SOL    HW233489   2.403   0.087   3.137
10864SOL     OW33490   3.046   4.744   1.404
10864SOL    HW133491   3.006   4.713   1.491
10864SOL    HW233492   3.072   4.665   1.350
10865SOL     OW33493   5.477   3.150   3.685
10865SOL    HW133494   5.479   3.108   3.776
10865SOL    HW233495   5.423   3.234   3.690
10866SOL     OW33496   6.882   2.763   0.858
10866SOL    HW133497   6.784   2.741   0.857
10866SOL    HW233498   6.935   2.679   0.865
10867SOL     OW33499   2.654   2.877   0.512
10867SOL    HW133500   2.752   2.893   0.528
10867SOL    HW233501   2.601   2.923   0.582
10868SOL     OW33502   0.626   1.741   3.301
10868SOL    HW133503   0.633   1.763   3.398
10868SOL    HW233504   0.595   1.822   3.251
10869NA      NA33505   0.376   1.941   5.951
10870NA      NA33506   4.486   4.457   5.224
10871NA      NA33507   1.916   4.980   2.751
10872NA      NA33508   5.082   4.200   3.815
10873NA      NA33509   4.167   2.229   5.171
10874NA      NA33510   3.045   5.171   1.231
10875NA      NA33511   1.263   5.297   0.545
10876NA      NA33512   3.670   4.374   1.460
10877NA      NA33513   4.708   4.135   0.605
10878NA      NA33514   3.663   1.297   6.238
10879NA      NA33515   5.055   6.057   2.128
10880NA      NA33516   1.604   0.287   5.496
10881NA      NA33517   4.971   4.910   1.743
10882NA      NA33518   3.253   3.358   7.000
   7.02034   7.02034   7.02034
