Generated by trjconv : CNT in water t= 559.00000
33518
    1C        C    1   2.848   2.772   4.750
    1C        C    2   2.902   2.726   4.872
    1C        C    3   2.847   2.781   4.988
    1C        C    4   2.856   2.779   4.264
    1C        C    5   2.906   2.731   4.386
    1C        C    6   2.855   2.779   4.508
    1C        C    7   3.017   2.641   4.630
    1C        C    8   2.902   2.723   4.629
    1C        C    9   3.079   2.605   4.751
    1C        C   10   3.007   2.631   4.870
    1C        C   11   3.183   2.490   4.981
    1C        C   12   3.064   2.563   4.979
    1C        C   13   2.853   2.769   3.777
    1C        C   14   2.902   2.718   3.900
    1C        C   15   2.850   2.773   4.019
    1C        C   16   3.015   2.640   4.143
    1C        C   17   2.904   2.727   4.141
    1C        C   18   3.083   2.612   4.263
    1C        C   19   3.023   2.651   4.385
    1C        C   20   3.210   2.555   4.507
    1C        C   21   3.079   2.607   4.507
    1C        C   22   3.279   2.532   4.628
    1C        C   23   3.209   2.547   4.750
    1C        C   24   3.414   2.488   4.870
    1C        C   25   3.272   2.502   4.869
    1C        C   26   3.490   2.484   4.988
    1C        C   27   2.858   2.772   3.284
    1C        C   28   2.906   2.722   3.407
    1C        C   29   2.854   2.771   3.530
    1C        C   30   3.020   2.642   3.654
    1C        C   31   2.906   2.726   3.653
    1C        C   32   3.076   2.599   3.777
    1C        C   33   3.014   2.633   3.899
    1C        C   34   3.207   2.548   4.018
    1C        C   35   3.076   2.599   4.022
    1C        C   36   3.276   2.527   4.139
    1C        C   37   3.211   2.552   4.262
    1C        C   38   3.417   2.510   4.388
    1C        C   39   3.278   2.534   4.385
    1C        C   40   3.489   2.509   4.509
    1C        C   41   3.418   2.509   4.632
    1C        C   42   3.633   2.483   4.749
    1C        C   43   3.491   2.486   4.750
    1C        C   44   3.708   2.495   4.868
    1C        C   45   3.629   2.486   4.984
    1C        C   46   2.840   2.754   2.795
    1C        C   47   2.896   2.710   2.917
    1C        C   48   2.849   2.764   3.039
    1C        C   49   3.019   2.637   3.164
    1C        C   50   2.903   2.719   3.161
    1C        C   51   3.080   2.603   3.287
    1C        C   52   3.019   2.637   3.409
    1C        C   53   3.208   2.545   3.529
    1C        C   54   3.077   2.599   3.532
    1C        C   55   3.277   2.529   3.651
    1C        C   56   3.207   2.546   3.772
    1C        C   57   3.414   2.505   3.897
    1C        C   58   3.275   2.531   3.895
    1C        C   59   3.485   2.499   4.019
    1C        C   60   3.416   2.507   4.143
    1C        C   61   3.628   2.508   4.263
    1C        C   62   3.487   2.502   4.265
    1C        C   63   3.701   2.516   4.384
    1C        C   64   3.630   2.506   4.506
    1C        C   65   3.834   2.554   4.627
    1C        C   66   3.701   2.507   4.628
    1C        C   67   3.908   2.569   4.747
    1C        C   68   3.845   2.529   4.866
    1C        C   69   4.054   2.588   4.976
    1C        C   70   3.925   2.534   4.981
    1C        C   71   2.825   2.735   2.313
    1C        C   72   2.886   2.689   2.432
    1C        C   73   2.841   2.752   2.550
    1C        C   74   3.008   2.626   2.677
    1C        C   75   2.891   2.704   2.673
    1C        C   76   3.076   2.596   2.797
    1C        C   77   3.013   2.630   2.919
    1C        C   78   3.210   2.551   3.041
    1C        C   79   3.077   2.599   3.041
    1C        C   80   3.277   2.528   3.163
    1C        C   81   3.209   2.546   3.286
    1C        C   82   3.417   2.503   3.407
    1C        C   83   3.277   2.523   3.408
    1C        C   84   3.487   2.498   3.530
    1C        C   85   3.416   2.504   3.652
    1C        C   86   3.627   2.501   3.773
    1C        C   87   3.485   2.497   3.776
    1C        C   88   3.696   2.516   3.896
    1C        C   89   3.626   2.511   4.018
    1C        C   90   3.833   2.558   4.138
    1C        C   91   3.696   2.524   4.140
    1C        C   92   3.900   2.582   4.260
    1C        C   93   3.836   2.554   4.383
    1C        C   94   4.028   2.644   4.500
    1C        C   95   3.902   2.579   4.506
    1C        C   96   4.095   2.672   4.621
    1C        C   97   4.034   2.634   4.743
    1C        C   98   4.200   2.767   4.863
    1C        C   99   4.102   2.663   4.864
    1C        C  100   4.224   2.841   4.979
    1C        C  101   2.830   2.731   2.075
    1C        C  102   2.995   2.593   2.193
    1C        C  103   2.885   2.684   2.195
    1C        C  104   3.065   2.569   2.314
    1C        C  105   3.002   2.609   2.434
    1C        C  106   3.202   2.537   2.554
    1C        C  107   3.069   2.584   2.556
    1C        C  108   3.273   2.520   2.675
    1C        C  109   3.203   2.535   2.797
    1C        C  110   3.413   2.501   2.917
    1C        C  111   3.274   2.522   2.918
    1C        C  112   3.483   2.495   3.040
    1C        C  113   3.416   2.504   3.164
    1C        C  114   3.629   2.501   3.282
    1C        C  115   3.488   2.498   3.285
    1C        C  116   3.696   2.516   3.406
    1C        C  117   3.628   2.509   3.529
    1C        C  118   3.833   2.553   3.648
    1C        C  119   3.697   2.514   3.652
    1C        C  120   3.897   2.579   3.771
    1C        C  121   3.830   2.560   3.894
    1C        C  122   4.026   2.645   4.012
    1C        C  123   3.899   2.584   4.015
    1C        C  124   4.088   2.678   4.134
    1C        C  125   4.027   2.643   4.257
    1C        C  126   4.196   2.774   4.378
    1C        C  127   4.087   2.683   4.378
    1C        C  128   4.248   2.823   4.499
    1C        C  129   4.201   2.765   4.619
    1C        C  130   4.330   2.937   4.741
    1C        C  131   4.248   2.821   4.740
    1C        C  132   4.363   3.004   4.861
    1C        C  133   4.295   2.960   4.975
    1C        C  134   3.179   2.477   2.081
    1C        C  135   3.044   2.513   2.084
    1C        C  136   3.264   2.481   2.193
    1C        C  137   3.198   2.519   2.312
    1C        C  138   3.408   2.480   2.430
    1C        C  139   3.270   2.509   2.433
    1C        C  140   3.482   2.480   2.551
    1C        C  141   3.410   2.487   2.672
    1C        C  142   3.623   2.497   2.793
    1C        C  143   3.482   2.489   2.794
    1C        C  144   3.695   2.508   2.914
    1C        C  145   3.624   2.499   3.036
    1C        C  146   3.831   2.547   3.156
    1C        C  147   3.695   2.507   3.158
    1C        C  148   3.899   2.574   3.278
    1C        C  149   3.833   2.554   3.401
    1C        C  150   4.024   2.640   3.524
    1C        C  151   3.897   2.579   3.524
    1C        C  152   4.082   2.681   3.647
    1C        C  153   4.020   2.649   3.769
    1C        C  154   4.197   2.771   3.891
    1C        C  155   4.083   2.688   3.890
    1C        C  156   4.248   2.818   4.014
    1C        C  157   4.196   2.770   4.136
    1C        C  158   4.344   2.926   4.255
    1C        C  159   4.251   2.820   4.256
    1C        C  160   4.380   2.988   4.376
    1C        C  161   4.333   2.936   4.499
    1C        C  162   4.449   3.115   4.618
    1C        C  163   4.377   2.993   4.620
    1C        C  164   4.475   3.186   4.737
    1C        C  165   4.441   3.122   4.858
    1C        C  166   4.520   3.320   4.975
    1C        C  167   4.481   3.187   4.976
    1C        C  168   3.484   2.443   2.074
    1C        C  169   3.404   2.462   2.187
    1C        C  170   3.620   2.472   2.310
    1C        C  171   3.478   2.468   2.307
    1C        C  172   3.694   2.494   2.428
    1C        C  173   3.622   2.491   2.550
    1C        C  174   3.826   2.555   2.668
    1C        C  175   3.694   2.504   2.671
    1C        C  176   3.896   2.577   2.789
    1C        C  177   3.830   2.552   2.911
    1C        C  178   4.024   2.634   3.035
    1C        C  179   3.896   2.573   3.034
    1C        C  180   4.084   2.673   3.157
    1C        C  181   4.025   2.637   3.280
    1C        C  182   4.199   2.758   3.400
    1C        C  183   4.087   2.672   3.402
    1C        C  184   4.252   2.807   3.522
    1C        C  185   4.198   2.762   3.644
    1C        C  186   4.339   2.921   3.765
    1C        C  187   4.248   2.813   3.766
    1C        C  188   4.377   2.981   3.887
    1C        C  189   4.337   2.927   4.012
    1C        C  190   4.451   3.109   4.131
    1C        C  191   4.378   2.988   4.132
    1C        C  192   4.481   3.175   4.252
    1C        C  193   4.449   3.111   4.374
    1C        C  194   4.512   3.316   4.494
    1C        C  195   4.476   3.179   4.495
    1C        C  196   4.532   3.390   4.612
    1C        C  197   4.514   3.322   4.735
    1C        C  198   4.558   3.535   4.854
    1C        C  199   4.536   3.393   4.856
    1C        C  200   4.588   3.620   4.965
    1C        C  201   3.622   2.419   2.075
    1C        C  202   3.831   2.511   2.184
    1C        C  203   3.696   2.463   2.190
    1C        C  204   3.900   2.547   2.303
    1C        C  205   3.832   2.525   2.425
    1C        C  206   4.024   2.620   2.548
    1C        C  207   3.895   2.563   2.545
    1C        C  208   4.087   2.663   2.667
    1C        C  209   4.025   2.635   2.790
    1C        C  210   4.204   2.747   2.909
    1C        C  211   4.086   2.670   2.913
    1C        C  212   4.252   2.798   3.031
    1C        C  213   4.198   2.756   3.155
    1C        C  214   4.338   2.915   3.273
    1C        C  215   4.251   2.804   3.277
    1C        C  216   4.376   2.976   3.395
    1C        C  217   4.339   2.919   3.519
    1C        C  218   4.443   3.102   3.642
    1C        C  219   4.377   2.978   3.641
    1C        C  220   4.468   3.170   3.764
    1C        C  221   4.444   3.105   3.887
    1C        C  222   4.515   3.309   4.007
    1C        C  223   4.476   3.173   4.007
    1C        C  224   4.528   3.381   4.127
    1C        C  225   4.511   3.313   4.249
    1C        C  226   4.523   3.526   4.370
    1C        C  227   4.516   3.385   4.371
    1C        C  228   4.520   3.601   4.490
    1C        C  229   4.537   3.531   4.611
    1C        C  230   4.505   3.743   4.729
    1C        C  231   4.541   3.605   4.731
    1C        C  232   4.499   3.817   4.849
    1C        C  233   4.550   3.755   4.963
    1C        C  234   4.020   2.618   2.066
    1C        C  235   3.902   2.544   2.068
    1C        C  236   4.087   2.653   2.184
    1C        C  237   4.025   2.616   2.305
    1C        C  238   4.204   2.733   2.424
    1C        C  239   4.089   2.649   2.426
    1C        C  240   4.263   2.782   2.543
    1C        C  241   4.203   2.744   2.665
    1C        C  242   4.348   2.900   2.786
    1C        C  243   4.261   2.789   2.786
    1C        C  244   4.387   2.963   2.907
    1C        C  245   4.344   2.905   3.029
    1C        C  246   4.446   3.094   3.151
    1C        C  247   4.382   2.968   3.150
    1C        C  248   4.466   3.163   3.272
    1C        C  249   4.441   3.101   3.397
    1C        C  250   4.499   3.305   3.517
    1C        C  251   4.469   3.167   3.519
    1C        C  252   4.516   3.373   3.640
    1C        C  253   4.508   3.305   3.763
    1C        C  254   4.530   3.519   3.882
    1C        C  255   4.526   3.377   3.884
    1C        C  256   4.524   3.591   4.003
    1C        C  257   4.529   3.523   4.126
    1C        C  258   4.498   3.734   4.243
    1C        C  259   4.524   3.595   4.247
    1C        C  260   4.479   3.804   4.363
    1C        C  261   4.487   3.738   4.488
    1C        C  262   4.427   3.943   4.607
    1C        C  263   4.480   3.812   4.608
    1C        C  264   4.402   4.010   4.729
    1C        C  265   4.435   3.943   4.849
    1C        C  266   4.323   4.132   4.961
    1C        C  267   4.396   4.014   4.964
    1C        C  268   4.259   2.780   2.063
    1C        C  269   4.201   2.737   2.183
    1C        C  270   4.351   2.890   2.302
    1C        C  271   4.258   2.782   2.304
    1C        C  272   4.389   2.955   2.422
    1C        C  273   4.350   2.893   2.543
    1C        C  274   4.452   3.083   2.662
    1C        C  275   4.386   2.958   2.663
    1C        C  276   4.485   3.149   2.782
    1C        C  277   4.454   3.087   2.905
    1C        C  278   4.511   3.293   3.028
    1C        C  279   4.473   3.156   3.027
    1C        C  280   4.521   3.366   3.148
    1C        C  281   4.505   3.299   3.272
    1C        C  282   4.522   3.512   3.392
    1C        C  283   4.515   3.371   3.393
    1C        C  284   4.519   3.583   3.515
    1C        C  285   4.524   3.514   3.638
    1C        C  286   4.498   3.727   3.755
    1C        C  287   4.525   3.588   3.759
    1C        C  288   4.479   3.796   3.877
    1C        C  289   4.501   3.731   4.001
    1C        C  290   4.428   3.934   4.117
    1C        C  291   4.484   3.804   4.120
    1C        C  292   4.398   3.998   4.240
    1C        C  293   4.434   3.938   4.363
    1C        C  294   4.328   4.125   4.483
    1C        C  295   4.401   4.005   4.483
    1C        C  296   4.287   4.188   4.603
    1C        C  297   4.328   4.131   4.726
    1C        C  298   4.201   4.313   4.840
    1C        C  299   4.288   4.200   4.844
    1C        C  300   4.174   4.406   4.946
    1C        C  301   4.350   2.886   2.064
    1C        C  302   4.468   3.072   2.178
    1C        C  303   4.396   2.948   2.181
    1C        C  304   4.486   3.144   2.299
    1C        C  305   4.459   3.077   2.421
    1C        C  306   4.522   3.284   2.537
    1C        C  307   4.484   3.148   2.540
    1C        C  308   4.524   3.356   2.659
    1C        C  309   4.515   3.287   2.782
    1C        C  310   4.532   3.499   2.901
    1C        C  311   4.526   3.358   2.903
    1C        C  312   4.525   3.573   3.021
    1C        C  313   4.527   3.507   3.146
    1C        C  314   4.488   3.715   3.266
    1C        C  315   4.523   3.578   3.268
    1C        C  316   4.473   3.787   3.388
    1C        C  317   4.497   3.722   3.511
    1C        C  318   4.428   3.925   3.630
    1C        C  319   4.477   3.792   3.632
    1C        C  320   4.390   3.985   3.752
    1C        C  321   4.423   3.925   3.876
    1C        C  322   4.317   4.113   3.995
    1C        C  323   4.395   3.996   3.995
    1C        C  324   4.273   4.170   4.117
    1C        C  325   4.323   4.117   4.238
    1C        C  326   4.187   4.281   4.357
    1C        C  327   4.283   4.177   4.360
    1C        C  328   4.136   4.337   4.476
    1C        C  329   4.196   4.296   4.597
    1C        C  330   4.028   4.434   4.714
    1C        C  331   4.145   4.354   4.716
    1C        C  332   3.972   4.492   4.830
    1C        C  333   4.054   4.479   4.943
    1C        C  334   4.554   3.273   2.064
    1C        C  335   4.538   3.133   2.069
    1C        C  336   4.540   3.354   2.178
    1C        C  337   4.517   3.283   2.298
    1C        C  338   4.528   3.499   2.415
    1C        C  339   4.532   3.358   2.417
    1C        C  340   4.520   3.571   2.536
    1C        C  341   4.528   3.497   2.657
    1C        C  342   4.492   3.707   2.777
    1C        C  343   4.523   3.569   2.779
    1C        C  344   4.475   3.778   2.898
    1C        C  345   4.493   3.711   3.021
    1C        C  346   4.426   3.914   3.143
    1C        C  347   4.474   3.781   3.142
    1C        C  348   4.391   3.980   3.262
    1C        C  349   4.423   3.919   3.386
    1C        C  350   4.317   4.103   3.504
    1C        C  351   4.397   3.987   3.507
    1C        C  352   4.274   4.160   3.626
    1C        C  353   4.315   4.104   3.749
    1C        C  354   4.179   4.268   3.871
    1C        C  355   4.275   4.164   3.870
    1C        C  356   4.123   4.317   3.990
    1C        C  357   4.176   4.273   4.113
    1C        C  358   4.013   4.406   4.236
    1C        C  359   4.129   4.325   4.236
    1C        C  360   3.954   4.451   4.356
    1C        C  361   4.020   4.417   4.475
    1C        C  362   3.831   4.524   4.595
    1C        C  363   3.959   4.464   4.594
    1C        C  364   3.766   4.544   4.718
    1C        C  365   3.841   4.543   4.838
    1C        C  366   3.629   4.587   4.956
    1C        C  367   3.767   4.572   4.953
    1C        C  368   4.503   3.570   2.057
    1C        C  369   4.523   3.494   2.173
    1C        C  370   4.503   3.708   2.291
    1C        C  371   4.521   3.568   2.293
    1C        C  372   4.487   3.780   2.411
    1C        C  373   4.506   3.711   2.534
    1C        C  374   4.421   3.906   2.651
    1C        C  375   4.480   3.777   2.656
    1C        C  376   4.393   3.972   2.773
    1C        C  377   4.424   3.910   2.895
    1C        C  378   4.314   4.090   3.014
    1C        C  379   4.391   3.971   3.018
    1C        C  380   4.267   4.147   3.134
    1C        C  381   4.309   4.095   3.258
    1C        C  382   4.175   4.259   3.378
    1C        C  383   4.271   4.155   3.381
    1C        C  384   4.123   4.305   3.501
    1C        C  385   4.175   4.261   3.625
    1C        C  386   4.010   4.392   3.745
    1C        C  387   4.124   4.309   3.747
    1C        C  388   3.948   4.430   3.867
    1C        C  389   4.008   4.400   3.991
    1C        C  390   3.820   4.495   4.113
    1C        C  391   3.949   4.439   4.114
    1C        C  392   3.753   4.527   4.233
    1C        C  393   3.826   4.511   4.353
    1C        C  394   3.620   4.560   4.480
    1C        C  395   3.761   4.544   4.474
    1C        C  396   3.547   4.564   4.601
    1C        C  397   3.626   4.563   4.718
    1C        C  398   3.413   4.558   4.843
    1C        C  399   3.553   4.578   4.838
    1C        C  400   3.344   4.525   4.961
    1C        C  401   4.507   3.709   2.052
    1C        C  402   4.458   3.919   2.168
    1C        C  403   4.496   3.783   2.171
    1C        C  404   4.414   3.980   2.288
    1C        C  405   4.436   3.912   2.409
    1C        C  406   4.329   4.098   2.528
    1C        C  407   4.398   3.975   2.530
    1C        C  408   4.273   4.146   2.649
    1C        C  409   4.317   4.091   2.771
    1C        C  410   4.171   4.247   2.892
    1C        C  411   4.274   4.150   2.892
    1C        C  412   4.120   4.299   3.013
    1C        C  413   4.171   4.251   3.135
    1C        C  414   4.000   4.377   3.254
    1C        C  415   4.122   4.305   3.256
    1C        C  416   3.944   4.414   3.378
    1C        C  417   4.006   4.384   3.502
    1C        C  418   3.817   4.482   3.622
    1C        C  419   3.945   4.423   3.623
    1C        C  420   3.751   4.506   3.745
    1C        C  421   3.817   4.483   3.868
    1C        C  422   3.616   4.548   3.990
    1C        C  423   3.754   4.515   3.990
    1C        C  424   3.543   4.548   4.111
    1C        C  425   3.614   4.549   4.233
    1C        C  426   3.407   4.556   4.359
    1C        C  427   3.548   4.558   4.358
    1C        C  428   3.336   4.543   4.481
    1C        C  429   3.407   4.554   4.603
    1C        C  430   3.197   4.520   4.727
    1C        C  431   3.337   4.547   4.725
    1C        C  432   3.128   4.502   4.850
    1C        C  433   3.208   4.498   4.965
    1C        C  434   4.385   4.124   2.051
    1C        C  435   4.459   4.006   2.058
    1C        C  436   4.306   4.165   2.163
    1C        C  437   4.334   4.097   2.285
    1C        C  438   4.183   4.250   2.404
    1C        C  439   4.287   4.154   2.405
    1C        C  440   4.126   4.298   2.524
    1C        C  441   4.176   4.249   2.646
    1C        C  442   4.006   4.375   2.768
    1C        C  443   4.119   4.290   2.768
    1C        C  444   3.946   4.419   2.888
    1C        C  445   4.004   4.379   3.010
    1C        C  446   3.818   4.484   3.133
    1C        C  447   3.943   4.419   3.132
    1C        C  448   3.751   4.501   3.256
    1C        C  449   3.818   4.477   3.379
    1C        C  450   3.613   4.537   3.502
    1C        C  451   3.750   4.504   3.499
    1C        C  452   3.544   4.548   3.625
    1C        C  453   3.615   4.543   3.747
    1C        C  454   3.404   4.549   3.868
    1C        C  455   3.545   4.558   3.869
    1C        C  456   3.335   4.534   3.991
    1C        C  457   3.402   4.546   4.114
    1C        C  458   3.197   4.511   4.238
    1C        C  459   3.334   4.544   4.239
    1C        C  460   3.133   4.484   4.361
    1C        C  461   3.199   4.510   4.483
    1C        C  462   2.999   4.443   4.605
    1C        C  463   3.129   4.499   4.605
    1C        C  464   2.935   4.407   4.726
    1C        C  465   2.994   4.451   4.848
    1C        C  466   2.807   4.338   4.965
    1C        C  467   2.913   4.430   4.964
    1C        C  468   4.127   4.288   2.042
    1C        C  469   4.193   4.252   2.161
    1C        C  470   4.011   4.372   2.278
    1C        C  471   4.132   4.297   2.281
    1C        C  472   3.945   4.399   2.400
    1C        C  473   4.009   4.377   2.525
    1C        C  474   3.816   4.469   2.646
    1C        C  475   3.946   4.414   2.646
    1C        C  476   3.748   4.498   2.766
    1C        C  477   3.818   4.480   2.888
    1C        C  478   3.612   4.527   3.014
    1C        C  479   3.751   4.501   3.010
    1C        C  480   3.541   4.537   3.135
    1C        C  481   3.613   4.529   3.257
    1C        C  482   3.402   4.540   3.379
    1C        C  483   3.543   4.542   3.379
    1C        C  484   3.334   4.534   3.503
    1C        C  485   3.403   4.543   3.626
    1C        C  486   3.195   4.504   3.747
    1C        C  487   3.331   4.542   3.747
    1C        C  488   3.134   4.477   3.871
    1C        C  489   3.199   4.497   3.995
    1C        C  490   3.007   4.414   4.117
    1C        C  491   3.128   4.486   4.117
    1C        C  492   2.945   4.385   4.241
    1C        C  493   3.005   4.424   4.362
    1C        C  494   2.835   4.303   4.487
    1C        C  495   2.941   4.397   4.485
    1C        C  496   2.778   4.260   4.608
    1C        C  497   2.823   4.320   4.728
    1C        C  498   2.674   4.167   4.849
    1C        C  499   2.759   4.279   4.847
    1C        C  500   2.603   4.122   4.961
    1C        C  501   4.010   4.362   2.041
    1C        C  502   3.820   4.470   2.157
    1C        C  503   3.948   4.410   2.158
    1C        C  504   3.751   4.485   2.280
    1C        C  505   3.817   4.458   2.402
    1C        C  506   3.610   4.511   2.521
    1C        C  507   3.749   4.487   2.523
    1C        C  508   3.540   4.523   2.643
    1C        C  509   3.609   4.521   2.767
    1C        C  510   3.401   4.527   2.889
    1C        C  511   3.542   4.531   2.891
    1C        C  512   3.328   4.523   3.010
    1C        C  513   3.400   4.535   3.131
    1C        C  514   3.197   4.497   3.261
    1C        C  515   3.333   4.534   3.255
    1C        C  516   3.129   4.472   3.382
    1C        C  517   3.196   4.504   3.502
    1C        C  518   3.004   4.414   3.629
    1C        C  519   3.127   4.483   3.624
    1C        C  520   2.948   4.373   3.752
    1C        C  521   3.007   4.414   3.873
    1C        C  522   2.836   4.288   3.997
    1C        C  523   2.947   4.376   3.995
    1C        C  524   2.789   4.239   4.121
    1C        C  525   2.835   4.296   4.242
    1C        C  526   2.698   4.139   4.369
    1C        C  527   2.786   4.250   4.366
    1C        C  528   2.654   4.082   4.490
    1C        C  529   2.688   4.151   4.608
    1C        C  530   2.590   3.964   4.735
    1C        C  531   2.646   4.094   4.731
    1C        C  532   2.546   3.905   4.857
    1C        C  533   2.529   4.003   4.959
    1C        C  534   3.623   4.560   2.041
    1C        C  535   3.758   4.521   2.043
    1C        C  536   3.543   4.536   2.157
    1C        C  537   3.612   4.514   2.279
    1C        C  538   3.398   4.523   2.400
    1C        C  539   3.539   4.521   2.399
    1C        C  540   3.329   4.515   2.523
    1C        C  541   3.399   4.522   2.646
    1C        C  542   3.190   4.486   2.770
    1C        C  543   3.328   4.517   2.768
    1C        C  544   3.125   4.462   2.893
    1C        C  545   3.191   4.489   3.015
    1C        C  546   3.004   4.402   3.140
    1C        C  547   3.128   4.470   3.140
    1C        C  548   2.947   4.364   3.263
    1C        C  549   3.005   4.404   3.385
    1C        C  550   2.837   4.279   3.510
    1C        C  551   2.946   4.369   3.508
    1C        C  552   2.783   4.234   3.633
    1C        C  553   2.836   4.287   3.753
    1C        C  554   2.703   4.123   3.877
    1C        C  555   2.788   4.236   3.875
    1C        C  556   2.663   4.068   4.001
    1C        C  557   2.702   4.127   4.123
    1C        C  558   2.601   3.947   4.249
    1C        C  559   2.667   4.073   4.248
    1C        C  560   2.577   3.882   4.372
    1C        C  561   2.599   3.952   4.493
    1C        C  562   2.532   3.753   4.617
    1C        C  563   2.571   3.889   4.617
    1C        C  564   2.517   3.685   4.740
    1C        C  565   2.522   3.764   4.859
    1C        C  566   2.527   3.550   4.977
    1C        C  567   2.525   3.689   4.977
    1C        C  568   3.329   4.482   2.044
    1C        C  569   3.402   4.515   2.159
    1C        C  570   3.189   4.479   2.284
    1C        C  571   3.325   4.518   2.279
    1C        C  572   3.122   4.460   2.407
    1C        C  573   3.190   4.489   2.527
    1C        C  574   2.996   4.401   2.652
    1C        C  575   3.121   4.467   2.649
    1C        C  576   2.935   4.362   2.773
    1C        C  577   2.998   4.400   2.894
    1C        C  578   2.830   4.278   3.018
    1C        C  579   2.941   4.366   3.018
    1C        C  580   2.785   4.227   3.141
    1C        C  581   2.838   4.273   3.263
    1C        C  582   2.698   4.119   3.386
    1C        C  583   2.792   4.225   3.388
    1C        C  584   2.656   4.064   3.509
    1C        C  585   2.696   4.123   3.631
    1C        C  586   2.599   3.938   3.758
    1C        C  587   2.660   4.066   3.755
    1C        C  588   2.571   3.877   3.882
    1C        C  589   2.601   3.941   4.004
    1C        C  590   2.542   3.741   4.130
    1C        C  591   2.575   3.879   4.129
    1C        C  592   2.526   3.674   4.254
    1C        C  593   2.544   3.745   4.375
    1C        C  594   2.514   3.537   4.501
    1C        C  595   2.521   3.678   4.497
    1C        C  596   2.514   3.467   4.623
    1C        C  597   2.512   3.543   4.742
    1C        C  598   2.537   3.329   4.866
    1C        C  599   2.528   3.470   4.861
    1C        C  600   2.539   3.250   4.981
    1C        C  601   3.198   4.438   2.049
    1C        C  602   2.984   4.400   2.164
    1C        C  603   3.120   4.443   2.165
    1C        C  604   2.926   4.367   2.289
    1C        C  605   2.994   4.400   2.408
    1C        C  606   2.828   4.270   2.532
    1C        C  607   2.934   4.363   2.531
    1C        C  608   2.774   4.220   2.652
    1C        C  609   2.827   4.271   2.773
    1C        C  610   2.690   4.114   2.898
    1C        C  611   2.779   4.224   2.898
    1C        C  612   2.655   4.056   3.022
    1C        C  613   2.701   4.113   3.143
    1C        C  614   2.593   3.931   3.268
    1C        C  615   2.660   4.056   3.265
    1C        C  616   2.570   3.867   3.392
    1C        C  617   2.597   3.936   3.512
    1C        C  618   2.530   3.738   3.639
    1C        C  619   2.571   3.873   3.636
    1C        C  620   2.522   3.671   3.763
    1C        C  621   2.535   3.741   3.886
    1C        C  622   2.516   3.531   4.010
    1C        C  623   2.529   3.671   4.009
    1C        C  624   2.519   3.464   4.134
    1C        C  625   2.515   3.533   4.257
    1C        C  626   2.542   3.325   4.383
    1C        C  627   2.517   3.464   4.380
    1C        C  628   2.558   3.257   4.506
    1C        C  629   2.539   3.328   4.626
    1C        C  630   2.597   3.120   4.748
    1C        C  631   2.553   3.255   4.747
    1C        C  632   2.615   3.049   4.870
    1C        C  633   2.562   3.112   4.988
    1C        C  634   2.788   4.305   2.058
    1C        C  635   2.896   4.395   2.051
    1C        C  636   2.753   4.235   2.173
    1C        C  637   2.813   4.280   2.293
    1C        C  638   2.683   4.109   2.414
    1C        C  639   2.769   4.221   2.413
    1C        C  640   2.639   4.051   2.535
    1C        C  641   2.685   4.110   2.655
    1C        C  642   2.583   3.926   2.782
    1C        C  643   2.651   4.050   2.778
    1C        C  644   2.557   3.860   2.904
    1C        C  645   2.591   3.930   3.022
    1C        C  646   2.535   3.728   3.149
    1C        C  647   2.570   3.865   3.146
    1C        C  648   2.520   3.660   3.272
    1C        C  649   2.536   3.729   3.394
    1C        C  650   2.515   3.523   3.522
    1C        C  651   2.520   3.664   3.518
    1C        C  652   2.520   3.456   3.646
    1C        C  653   2.516   3.530   3.767
    1C        C  654   2.547   3.320   3.892
    1C        C  655   2.520   3.458   3.888
    1C        C  656   2.564   3.256   4.017
    1C        C  657   2.541   3.324   4.138
    1C        C  658   2.611   3.124   4.264
    1C        C  659   2.559   3.256   4.260
    1C        C  660   2.637   3.057   4.385
    1C        C  661   2.606   3.124   4.506
    1C        C  662   2.714   2.940   4.627
    1C        C  663   2.636   3.058   4.627
    1C        C  664   2.756   2.880   4.748
    1C        C  665   2.698   2.933   4.867
    1C        C  666   2.742   2.871   4.985
    1C        C  667   2.682   4.027   2.061
    1C        C  668   2.685   4.111   2.174
    1C        C  669   2.593   3.914   2.296
    1C        C  670   2.645   4.046   2.293
    1C        C  671   2.560   3.850   2.417
    1C        C  672   2.579   3.924   2.537
    1C        C  673   2.522   3.722   2.662
    1C        C  674   2.554   3.860   2.660
    1C        C  675   2.506   3.654   2.785
    1C        C  676   2.519   3.724   2.906
    1C        C  677   2.508   3.514   3.032
    1C        C  678   2.518   3.655   3.030
    1C        C  679   2.509   3.446   3.156
    1C        C  680   2.509   3.519   3.277
    1C        C  681   2.542   3.313   3.404
    1C        C  682   2.512   3.451   3.401
    1C        C  683   2.562   3.248   3.528
    1C        C  684   2.540   3.316   3.650
    1C        C  685   2.617   3.118   3.773
    1C        C  686   2.558   3.247   3.771
    1C        C  687   2.646   3.057   3.897
    1C        C  688   2.614   3.124   4.017
    1C        C  689   2.719   2.943   4.141
    1C        C  690   2.647   3.064   4.141
    1C        C  691   2.763   2.886   4.263
    1C        C  692   2.712   2.938   4.385
    1C        C  693   2.760   2.884   4.506
    1C        C  694   2.633   3.896   2.062
    1C        C  695   2.523   3.708   2.174
    1C        C  696   2.577   3.839   2.177
    1C        C  697   2.507   3.641   2.297
    1C        C  698   2.523   3.714   2.417
    1C        C  699   2.496   3.509   2.544
    1C        C  700   2.508   3.649   2.542
    1C        C  701   2.508   3.440   2.667
    1C        C  702   2.505   3.513   2.789
    1C        C  703   2.530   3.303   2.911
    1C        C  704   2.505   3.442   2.911
    1C        C  705   2.549   3.237   3.035
    1C        C  706   2.534   3.306   3.157
    1C        C  707   2.614   3.115   3.282
    1C        C  708   2.560   3.245   3.281
    1C        C  709   2.644   3.053   3.405
    1C        C  710   2.614   3.117   3.527
    1C        C  711   2.717   2.932   3.654
    1C        C  712   2.648   3.055   3.650
    1C        C  713   2.762   2.876   3.775
    1C        C  714   2.720   2.937   3.896
    1C        C  715   2.761   2.883   4.020
    1C        C  716   2.451   3.503   2.065
    1C        C  717   2.500   3.634   2.058
    1C        C  718   2.469   3.425   2.184
    1C        C  719   2.488   3.500   2.303
    1C        C  720   2.515   3.291   2.426
    1C        C  721   2.495   3.431   2.426
    1C        C  722   2.543   3.226   2.548
    1C        C  723   2.534   3.302   2.667
    1C        C  724   2.603   3.102   2.794
    1C        C  725   2.552   3.233   2.790
    1C        C  726   2.630   3.039   2.917
    1C        C  727   2.601   3.105   3.039
    1C        C  728   2.714   2.926   3.163
    1C        C  729   2.637   3.045   3.161
    1C        C  730   2.764   2.877   3.286
    1C        C  731   2.720   2.933   3.408
    1C        C  732   2.759   2.875   3.531
    1C        C  733   2.491   3.199   2.075
    1C        C  734   2.488   3.283   2.187
    1C        C  735   2.590   3.089   2.306
    1C        C  736   2.530   3.218   2.306
    1C        C  737   2.622   3.026   2.429
    1C        C  738   2.594   3.095   2.549
    1C        C  739   2.704   2.915   2.674
    1C        C  740   2.630   3.035   2.672
    1C        C  741   2.749   2.862   2.797
    1C        C  742   2.706   2.920   2.918
    1C        C  743   2.756   2.870   3.040
    1C        C  744   2.544   3.071   2.078
    1C        C  745   2.692   2.899   2.187
    1C        C  746   2.611   3.015   2.188
    1C        C  747   2.728   2.839   2.310
    1C        C  748   2.691   2.903   2.430
    1C        C  749   2.745   2.856   2.552
    1C        C  750   2.739   2.836   2.071
    1C        C  751   3.664   2.311   1.983
    1C        O  752   3.697   2.200   2.034
    1C        O  753   3.712   2.326   1.853
    1C        C  754   4.628   3.054   1.982
    1C        O  755   4.592   3.030   1.864
    1C        O  756   4.765   3.048   2.010
    1C        C  757   4.418   4.208   1.934
    1C        O  758   4.529   4.267   1.935
    1C        O  759   4.381   4.171   1.804
    1C        C  760   3.599   4.665   1.940
    1C        O  761   3.601   4.790   1.957
    1C        O  762   3.588   4.628   1.806
    1C        C  763   2.911   4.483   1.933
    1C        O  764   2.926   4.424   1.823
    1C        O  765   2.819   4.589   1.924
    1C        C  766   2.338   3.485   1.971
    1C        O  767   2.365   3.423   1.865
    1C        O  768   2.211   3.543   1.954
    1C        C  769   4.699   3.593   5.059
    1C        O  770   4.657   3.594   5.178
    1C        O  771   4.817   3.668   5.065
    1C        C  772   4.277   4.450   5.042
    1C        O  773   4.276   4.412   5.163
    1C        O  774   4.334   4.577   5.036
    1C        C  775   4.129   2.565   5.102
    1C        O  776   4.194   2.457   5.105
    1C        O  777   4.093   2.610   5.230
    1C        C  778   2.902   4.527   5.075
    1C        O  779   2.884   4.650   5.055
    1C        O  780   2.921   4.496   5.210
    1C        C  781   2.473   3.041   5.082
    1C        O  782   2.402   2.948   5.035
    1C        O  783   2.501   3.044   5.218
    1C        C  784   2.406   4.025   5.040
    1C        O  785   2.310   4.097   5.002
    1C        O  786   2.410   4.037   5.179
    1C        C  787   2.954   2.432   2.000
    1C        O  788   2.950   2.441   1.874
    1C        O  789   2.903   2.307   2.035
    1C        C  790   3.173   2.356   5.045
    1C        O  791   3.134   2.251   4.989
    1C        O  792   3.243   2.331   5.164
    1C        H  793   4.315   3.004   5.071
    1C        H  794   4.155   2.830   5.060
    1C        H  795   4.533   3.132   5.052
    1C        H  796   4.507   3.377   5.065
    1C        H  797   4.595   3.818   5.037
    1C        H  798   4.477   4.018   5.034
    1C        H  799   4.296   4.178   5.054
    1C        H  800   4.025   4.533   5.031
    1C        H  801   3.820   4.623   5.032
    1C        H  802   3.588   4.623   5.048
    1C        H  803   3.394   4.513   5.055
    1C        H  804   3.161   4.528   5.056
    1C        H  805   3.869   2.570   5.065
    1C        H  806   3.676   2.441   5.069
    1C        H  807   3.012   2.569   5.072
    1C        H  808   3.448   2.439   5.075
    1C        H  809   2.867   2.732   5.082
    1C        H  810   2.720   2.915   5.080
    1C        H  811   2.542   3.304   5.074
    1C        H  812   2.540   3.505   5.073
    1C        H  813   2.536   3.741   5.070
    1C        H  814   2.571   4.201   5.025
    1C        H  815   2.743   4.337   5.051
    1C        H  816   2.749   2.896   1.983
    1C        H  817   2.806   2.655   2.003
    1C        H  818   3.217   2.440   1.988
    1C        H  819   3.436   2.456   1.980
    1C        H  820   3.872   2.494   1.979
    1C        H  821   4.031   2.674   1.975
    1C        H  822   4.233   2.744   1.966
    1C        H  823   4.348   2.945   1.975
    1C        H  824   4.558   3.318   1.967
    1C        H  825   4.464   3.529   1.966
    1C        H  826   4.518   3.766   1.962
    1C        H  827   3.811   4.531   1.950
    1C        H  828   3.973   4.387   1.944
    1C        H  829   4.140   4.222   1.958
    1C        H  830   4.515   3.973   1.973
    1C        H  831   2.624   3.857   1.963
    1C        H  832   2.718   4.067   1.969
    1C        H  833   2.732   4.286   1.969
    1C        H  834   3.380   4.470   1.951
    1C        H  835   3.177   4.360   1.979
    1C        H  836   2.525   3.011   1.992
    1C        H  837   2.445   3.234   1.985
    1C        H  838   2.571   3.647   1.979
    2V3OU   H29  839   2.810   3.553   6.159
    2V3OU   C27  840   2.780   3.505   6.256
    2V3OU   H27  841   2.725   3.572   6.327
    2V3OU   H28  842   2.728   3.407   6.235
    2V3OU   O11  843   2.909   3.486   6.313
    2V3OU   C15  844   2.925   3.397   6.418
    2V3OU   C13  845   3.055   3.371   6.465
    2V3OU   C14  846   3.078   3.268   6.556
    2V3OU   C16  847   2.968   3.195   6.601
    2V3OU    H6  848   2.990   3.113   6.671
    2V3OU   C12  849   3.216   3.231   6.596
    2V3OU    O2  850   3.235   3.132   6.668
    2V3OU   C10  851   3.327   3.306   6.536
    2V3OU    C8  852   3.460   3.269   6.554
    2V3OU   O10  853   3.491   3.157   6.625
    2V3OU   H26  854   3.407   3.115   6.651
    2V3OU    C6  855   3.569   3.350   6.509
    2V3OU    C5  856   3.543   3.472   6.446
    2V3OU    C4  857   3.706   3.293   6.513
    2V3OU    H4  858   3.726   3.231   6.605
    2V3OU    H5  859   3.714   3.229   6.420
    2V3OU    C2  860   3.817   3.398   6.506
    2V3OU    O6  861   3.807   3.476   6.626
    2V3OU   H21  862   3.767   3.556   6.589
    2V3OU    C3  863   3.787   3.495   6.392
    2V3OU    H2  864   3.862   3.578   6.399
    2V3OU    H3  865   3.789   3.443   6.293
    2V3OU   C25  866   3.955   3.334   6.497
    2V3OU    O7  867   4.005   3.300   6.390
    2V3OU   C26  868   4.035   3.291   6.619
    2V3OU   H22  869   4.059   3.388   6.669
    2V3OU   H23  870   4.126   3.234   6.587
    2V3OU    O8  871   3.968   3.215   6.717
    2V3OU   H24  872   3.931   3.272   6.786
    2V3OU    C1  873   3.652   3.565   6.404
    2V3OU    H1  874   3.628   3.618   6.307
    2V3OU    O3  875   3.661   3.664   6.507
    2V3OU   C19  876   3.625   3.800   6.481
    2V3OU    H9  877   3.529   3.804   6.422
    2V3OU    O4  878   3.723   3.844   6.389
    2V3OU   C20  879   3.848   3.883   6.448
    2V3OU   H10  880   3.898   3.783   6.460
    2V3OU   C24  881   3.611   3.861   6.620
    2V3OU   H16  882   3.549   3.800   6.690
    2V3OU   H17  883   3.569   3.964   6.608
    2V3OU   C23  884   3.752   3.877   6.678
    2V3OU   H15  885   3.793   3.774   6.706
    2V3OU    N1  886   3.742   3.959   6.797
    2V3OU   H19  887   3.817   3.930   6.856
    2V3OU   H20  888   3.654   3.939   6.840
    2V3OU   C21  889   3.847   3.956   6.583
    2V3OU   H11  890   3.954   3.934   6.613
    2V3OU    O5  891   3.834   4.097   6.579
    2V3OU   H18  892   3.788   4.111   6.663
    2V3OU   C22  893   3.915   3.953   6.331
    2V3OU   H12  894   3.859   4.048   6.312
    2V3OU   H13  895   3.902   3.892   6.237
    2V3OU   H14  896   4.025   3.961   6.347
    2V3OU   C11  897   3.163   3.471   6.455
    2V3OU    O1  898   3.132   3.590   6.433
    2V3OU    C9  899   3.303   3.425   6.462
    2V3OU    C7  900   3.407   3.508   6.422
    2V3OU    O9  901   3.385   3.629   6.359
    2V3OU   H25  902   3.288   3.635   6.352
    2V3OU   C17  903   2.817   3.316   6.461
    2V3OU    H7  904   2.715   3.346   6.437
    2V3OU   C18  905   2.839   3.215   6.554
    2V3OU    H8  906   2.760   3.146   6.587
    3SOL     OW  907   2.996   3.317   4.631
    3SOL    HW1  908   2.921   3.370   4.592
    3SOL    HW2  909   3.001   3.333   4.729
    4SOL     OW  910   0.830   6.891   0.917
    4SOL    HW1  911   0.859   6.946   0.995
    4SOL    HW2  912   0.741   6.924   0.885
    5SOL     OW  913   4.129   2.500   0.789
    5SOL    HW1  914   4.158   2.547   0.872
    5SOL    HW2  915   4.029   2.498   0.785
    6SOL     OW  916   3.748   1.696   2.599
    6SOL    HW1  917   3.660   1.741   2.609
    6SOL    HW2  918   3.778   1.700   2.504
    7SOL     OW  919   2.402   2.641   4.765
    7SOL    HW1  920   2.486   2.588   4.771
    7SOL    HW2  921   2.390   2.676   4.672
    8SOL     OW  922   0.696   2.137   5.740
    8SOL    HW1  923   0.703   2.123   5.641
    8SOL    HW2  924   0.683   2.049   5.786
    9SOL     OW  925   1.937   2.398   5.942
    9SOL    HW1  926   1.870   2.394   6.017
    9SOL    HW2  927   1.898   2.356   5.860
   10SOL     OW  928   5.616   5.492   1.238
   10SOL    HW1  929   5.635   5.559   1.166
   10SOL    HW2  930   5.618   5.400   1.199
   11SOL     OW  931   3.390   1.555   0.293
   11SOL    HW1  932   3.351   1.498   0.365
   11SOL    HW2  933   3.486   1.530   0.279
   12SOL     OW  934   5.248   4.835   1.439
   12SOL    HW1  935   5.271   4.918   1.489
   12SOL    HW2  936   5.149   4.827   1.430
   13SOL     OW  937   5.101   5.908   1.814
   13SOL    HW1  938   5.084   5.874   1.722
   13SOL    HW2  939   5.168   5.849   1.860
   14SOL     OW  940   4.008   6.058   1.122
   14SOL    HW1  941   4.092   6.042   1.070
   14SOL    HW2  942   3.966   5.970   1.143
   15SOL     OW  943   0.908   6.725   6.853
   15SOL    HW1  944   0.932   6.768   6.766
   15SOL    HW2  945   0.925   6.627   6.847
   16SOL     OW  946   1.824   5.572   5.329
   16SOL    HW1  947   1.918   5.588   5.298
   16SOL    HW2  948   1.825   5.510   5.406
   17SOL     OW  949   0.282   2.068   3.704
   17SOL    HW1  950   0.361   2.031   3.655
   17SOL    HW2  951   0.252   2.003   3.773
   18SOL     OW  952   2.708   1.291   5.626
   18SOL    HW1  953   2.676   1.372   5.576
   18SOL    HW2  954   2.786   1.252   5.578
   19SOL     OW  955   2.828   5.268   2.955
   19SOL    HW1  956   2.841   5.231   3.046
   19SOL    HW2  957   2.914   5.311   2.924
   20SOL     OW  958   0.074   1.617   5.304
   20SOL    HW1  959   0.013   1.546   5.268
   20SOL    HW2  960   0.042   1.646   5.394
   21SOL     OW  961   1.130   3.593   1.641
   21SOL    HW1  962   1.218   3.639   1.652
   21SOL    HW2  963   1.093   3.571   1.731
   22SOL     OW  964   0.672   1.090   0.265
   22SOL    HW1  965   0.601   1.031   0.226
   22SOL    HW2  966   0.653   1.185   0.239
   23SOL     OW  967   6.563   5.075   6.845
   23SOL    HW1  968   6.581   5.011   6.770
   23SOL    HW2  969   6.529   5.024   6.924
   24SOL     OW  970   5.189   1.025   7.021
   24SOL    HW1  971   5.129   1.025   0.072
   24SOL    HW2  972   5.152   1.087   6.952
   25SOL     OW  973   1.154   0.703   4.870
   25SOL    HW1  974   1.242   0.717   4.914
   25SOL    HW2  975   1.094   0.781   4.890
   26SOL     OW  976   2.159   6.992   5.852
   26SOL    HW1  977   2.122   0.013   5.929
   26SOL    HW2  978   2.093   6.922   5.824
   27SOL     OW  979   0.279   6.845   2.654
   27SOL    HW1  980   0.222   6.907   2.600
   27SOL    HW2  981   0.307   6.891   2.739
   28SOL     OW  982   1.678   0.785   5.572
   28SOL    HW1  983   1.699   0.880   5.550
   28SOL    HW2  984   1.636   0.780   5.663
   29SOL     OW  985   5.578   0.860   1.379
   29SOL    HW1  986   5.633   0.882   1.460
   29SOL    HW2  987   5.586   0.934   1.312
   30SOL     OW  988   4.208   0.222   4.639
   30SOL    HW1  989   4.274   0.291   4.668
   30SOL    HW2  990   4.233   0.188   4.548
   31SOL     OW  991   6.342   4.881   4.864
   31SOL    HW1  992   6.406   4.842   4.799
   31SOL    HW2  993   6.297   4.808   4.916
   32SOL     OW  994   3.119   1.243   1.113
   32SOL    HW1  995   3.116   1.154   1.159
   32SOL    HW2  996   3.041   1.251   1.051
   33SOL     OW  997   1.655   4.696   5.924
   33SOL    HW1  998   1.623   4.790   5.938
   33SOL    HW2  999   1.577   4.637   5.904
   34SOL     OW 1000   2.594   6.575   5.109
   34SOL    HW1 1001   2.504   6.587   5.149
   34SOL    HW2 1002   2.644   6.661   5.112
   35SOL     OW 1003   1.473   2.495   4.429
   35SOL    HW1 1004   1.522   2.475   4.513
   35SOL    HW2 1005   1.537   2.526   4.359
   36SOL     OW 1006   5.681   1.279   4.311
   36SOL    HW1 1007   5.611   1.302   4.379
   36SOL    HW2 1008   5.640   1.224   4.238
   37SOL     OW 1009   1.787   6.610   4.718
   37SOL    HW1 1010   1.771   6.520   4.677
   37SOL    HW2 1011   1.764   6.681   4.651
   38SOL     OW 1012   0.786   3.378   1.020
   38SOL    HW1 1013   0.837   3.293   1.035
   38SOL    HW2 1014   0.797   3.438   1.099
   39SOL     OW 1015   6.529   5.438   1.257
   39SOL    HW1 1016   6.485   5.394   1.335
   39SOL    HW2 1017   6.487   5.405   1.172
   40SOL     OW 1018   4.168   0.796   0.046
   40SOL    HW1 1019   4.258   0.826   0.075
   40SOL    HW2 1020   4.148   0.832   6.984
   41SOL     OW 1021   5.849   4.178   1.689
   41SOL    HW1 1022   5.862   4.277   1.690
   41SOL    HW2 1023   5.774   4.153   1.750
   42SOL     OW 1024   2.643   3.635   0.390
   42SOL    HW1 1025   2.694   3.639   0.475
   42SOL    HW2 1026   2.600   3.724   0.373
   43SOL     OW 1027   4.825   0.522   3.999
   43SOL    HW1 1028   4.814   0.474   4.086
   43SOL    HW2 1029   4.882   0.604   4.013
   44SOL     OW 1030   6.970   0.647   6.901
   44SOL    HW1 1031   6.900   0.700   6.948
   44SOL    HW2 1032   6.991   0.564   6.954
   45SOL     OW 1033   2.522   3.884   5.785
   45SOL    HW1 1034   2.609   3.933   5.777
   45SOL    HW2 1035   2.531   3.810   5.852
   46SOL     OW 1036   1.471   4.452   4.669
   46SOL    HW1 1037   1.413   4.513   4.723
   46SOL    HW2 1038   1.493   4.370   4.723
   47SOL     OW 1039   6.485   4.209   6.933
   47SOL    HW1 1040   6.512   4.113   6.933
   47SOL    HW2 1041   6.480   4.242   6.838
   48SOL     OW 1042   0.551   4.349   0.054
   48SOL    HW1 1043   0.567   4.256   0.022
   48SOL    HW2 1044   0.530   4.348   0.151
   49SOL     OW 1045   2.857   1.426   6.719
   49SOL    HW1 1046   2.948   1.426   6.679
   49SOL    HW2 1047   2.797   1.485   6.664
   50SOL     OW 1048   5.244   2.429   6.100
   50SOL    HW1 1049   5.204   2.338   6.112
   50SOL    HW2 1050   5.216   2.488   6.176
   51SOL     OW 1051   1.478   6.226   1.853
   51SOL    HW1 1052   1.544   6.293   1.821
   51SOL    HW2 1053   1.475   6.227   1.953
   52SOL     OW 1054   5.985   2.353   2.544
   52SOL    HW1 1055   6.014   2.423   2.608
   52SOL    HW2 1056   5.983   2.390   2.451
   53SOL     OW 1057   4.135   0.393   0.645
   53SOL    HW1 1058   4.122   0.490   0.624
   53SOL    HW2 1059   4.202   0.384   0.719
   54SOL     OW 1060   0.051   0.995   6.431
   54SOL    HW1 1061   0.103   0.980   6.514
   54SOL    HW2 1062   0.107   1.045   6.365
   55SOL     OW 1063   2.144   3.311   6.282
   55SOL    HW1 1064   2.183   3.221   6.263
   55SOL    HW2 1065   2.073   3.303   6.352
   56SOL     OW 1066   0.674   2.354   6.278
   56SOL    HW1 1067   0.673   2.302   6.363
   56SOL    HW2 1068   0.604   2.426   6.282
   57SOL     OW 1069   4.000   5.209   1.379
   57SOL    HW1 1070   4.069   5.137   1.385
   57SOL    HW2 1071   3.913   5.169   1.352
   58SOL     OW 1072   0.744   1.105   6.863
   58SOL    HW1 1073   0.742   1.185   6.804
   58SOL    HW2 1074   0.758   1.023   6.809
   59SOL     OW 1075   3.611   3.007   0.182
   59SOL    HW1 1076   3.668   2.994   0.263
   59SOL    HW2 1077   3.669   3.036   0.105
   60SOL     OW 1078   6.511   2.626   2.625
   60SOL    HW1 1079   6.508   2.533   2.663
   60SOL    HW2 1080   6.420   2.651   2.592
   61SOL     OW 1081   1.510   5.605   2.752
   61SOL    HW1 1082   1.415   5.619   2.725
   61SOL    HW2 1083   1.563   5.575   2.672
   62SOL     OW 1084   5.075   3.024   3.637
   62SOL    HW1 1085   5.144   2.982   3.696
   62SOL    HW2 1086   5.111   3.107   3.596
   63SOL     OW 1087   4.076   6.916   6.557
   63SOL    HW1 1088   4.046   6.931   6.651
   63SOL    HW2 1089   3.999   6.882   6.502
   64SOL     OW 1090   2.036   2.244   6.734
   64SOL    HW1 1091   1.974   2.314   6.700
   64SOL    HW2 1092   2.082   2.277   6.816
   65SOL     OW 1093   0.677   5.539   5.503
   65SOL    HW1 1094   0.695   5.526   5.406
   65SOL    HW2 1095   0.580   5.557   5.517
   66SOL     OW 1096   4.381   1.183   1.078
   66SOL    HW1 1097   4.461   1.122   1.079
   66SOL    HW2 1098   4.309   1.143   1.021
   67SOL     OW 1099   0.018   3.296   1.718
   67SOL    HW1 1100   0.058   3.213   1.678
   67SOL    HW2 1101   0.087   3.368   1.719
   68SOL     OW 1102   1.025   1.480   6.428
   68SOL    HW1 1103   1.032   1.457   6.331
   68SOL    HW2 1104   0.936   1.521   6.446
   69SOL     OW 1105   1.689   0.290   6.196
   69SOL    HW1 1106   1.690   0.307   6.294
   69SOL    HW2 1107   1.736   0.364   6.148
   70SOL     OW 1108   4.283   5.132   3.308
   70SOL    HW1 1109   4.293   5.200   3.235
   70SOL    HW2 1110   4.337   5.051   3.286
   71SOL     OW 1111   5.435   1.047   5.064
   71SOL    HW1 1112   5.447   1.082   5.157
   71SOL    HW2 1113   5.369   1.105   5.015
   72SOL     OW 1114   6.740   0.970   2.619
   72SOL    HW1 1115   6.699   1.055   2.652
   72SOL    HW2 1116   6.836   0.967   2.645
   73SOL     OW 1117   3.125   0.961   1.065
   73SOL    HW1 1118   3.170   0.976   1.153
   73SOL    HW2 1119   3.104   0.864   1.054
   74SOL     OW 1120   2.671   0.806   0.475
   74SOL    HW1 1121   2.682   0.771   0.382
   74SOL    HW2 1122   2.648   0.903   0.472
   75SOL     OW 1123   2.641   2.767   1.685
   75SOL    HW1 1124   2.570   2.719   1.737
   75SOL    HW2 1125   2.639   2.864   1.706
   76SOL     OW 1126   3.478   5.458   6.473
   76SOL    HW1 1127   3.574   5.470   6.448
   76SOL    HW2 1128   3.466   5.372   6.521
   77SOL     OW 1129   6.670   4.948   4.544
   77SOL    HW1 1130   6.752   4.894   4.564
   77SOL    HW2 1131   6.697   5.034   4.499
   78SOL     OW 1132   5.489   1.372   1.505
   78SOL    HW1 1133   5.503   1.277   1.532
   78SOL    HW2 1134   5.421   1.376   1.432
   79SOL     OW 1135   1.778   4.060   4.389
   79SOL    HW1 1136   1.788   4.153   4.424
   79SOL    HW2 1137   1.757   4.064   4.292
   80SOL     OW 1138   3.980   2.351   5.359
   80SOL    HW1 1139   3.917   2.424   5.386
   80SOL    HW2 1140   3.952   2.314   5.271
   81SOL     OW 1141   2.681   4.864   3.426
   81SOL    HW1 1142   2.710   4.843   3.519
   81SOL    HW2 1143   2.582   4.848   3.417
   82SOL     OW 1144   3.132   0.541   1.609
   82SOL    HW1 1145   3.073   0.465   1.635
   82SOL    HW2 1146   3.223   0.528   1.650
   83SOL     OW 1147   5.965   2.079   3.894
   83SOL    HW1 1148   5.888   2.026   3.857
   83SOL    HW2 1149   5.930   2.147   3.958
   84SOL     OW 1150   5.216   2.240   2.965
   84SOL    HW1 1151   5.280   2.165   2.949
   84SOL    HW2 1152   5.263   2.316   3.010
   85SOL     OW 1153   2.577   5.556   3.825
   85SOL    HW1 1154   2.616   5.560   3.917
   85SOL    HW2 1155   2.640   5.598   3.760
   86SOL     OW 1156   5.160   0.796   0.620
   86SOL    HW1 1157   5.155   0.809   0.719
   86SOL    HW2 1158   5.071   0.816   0.579
   87SOL     OW 1159   2.675   2.707   0.271
   87SOL    HW1 1160   2.631   2.636   0.325
   87SOL    HW2 1161   2.606   2.763   0.225
   88SOL     OW 1162   1.738   1.804   1.172
   88SOL    HW1 1163   1.667   1.787   1.104
   88SOL    HW2 1164   1.697   1.835   1.257
   89SOL     OW 1165   3.961   3.739   4.760
   89SOL    HW1 1166   3.963   3.832   4.797
   89SOL    HW2 1167   3.974   3.673   4.834
   90SOL     OW 1168   0.162   3.432   2.675
   90SOL    HW1 1169   0.112   3.349   2.650
   90SOL    HW2 1170   0.109   3.512   2.649
   91SOL     OW 1171   4.547   5.321   0.469
   91SOL    HW1 1172   4.629   5.264   0.471
   91SOL    HW2 1173   4.559   5.398   0.532
   92SOL     OW 1174   6.007   5.843   6.834
   92SOL    HW1 1175   6.094   5.860   6.788
   92SOL    HW2 1176   5.969   5.930   6.866
   93SOL     OW 1177   3.190   3.528   1.851
   93SOL    HW1 1178   3.156   3.610   1.896
   93SOL    HW2 1179   3.161   3.527   1.755
   94SOL     OW 1180   2.985   1.119   4.212
   94SOL    HW1 1181   3.014   1.204   4.167
   94SOL    HW2 1182   2.953   1.054   4.143
   95SOL     OW 1183   1.045   6.267   4.666
   95SOL    HW1 1184   1.102   6.279   4.585
   95SOL    HW2 1185   1.098   6.221   4.737
   96SOL     OW 1186   6.961   6.423   6.838
   96SOL    HW1 1187   0.031   6.425   6.844
   96SOL    HW2 1188   6.934   6.417   6.741
   97SOL     OW 1189   3.894   4.891   4.970
   97SOL    HW1 1190   3.952   4.858   4.895
   97SOL    HW2 1191   3.813   4.936   4.932
   98SOL     OW 1192   0.477   2.513   4.949
   98SOL    HW1 1193   0.509   2.433   4.999
   98SOL    HW2 1194   0.378   2.522   4.959
   99SOL     OW 1195   4.459   4.526   4.497
   99SOL    HW1 1196   4.535   4.466   4.473
   99SOL    HW2 1197   4.404   4.544   4.416
  100SOL     OW 1198   1.468   1.626   5.241
  100SOL    HW1 1199   1.444   1.583   5.154
  100SOL    HW2 1200   1.563   1.657   5.238
  101SOL     OW 1201   5.319   2.883   2.096
  101SOL    HW1 1202   5.274   2.797   2.073
  101SOL    HW2 1203   5.251   2.954   2.111
  102SOL     OW 1204   3.799   6.610   0.371
  102SOL    HW1 1205   3.707   6.615   0.408
  102SOL    HW2 1206   3.846   6.697   0.383
  103SOL     OW 1207   1.619   2.417   1.436
  103SOL    HW1 1208   1.691   2.348   1.436
  103SOL    HW2 1209   1.530   2.372   1.431
  104SOL     OW 1210   0.577   4.493   1.367
  104SOL    HW1 1211   0.556   4.447   1.281
  104SOL    HW2 1212   0.630   4.576   1.349
  105SOL     OW 1213   6.270   1.821   4.960
  105SOL    HW1 1214   6.331   1.893   4.927
  105SOL    HW2 1215   6.253   1.834   5.058
  106SOL     OW 1216   4.735   3.175   1.674
  106SOL    HW1 1217   4.690   3.127   1.749
  106SOL    HW2 1218   4.681   3.165   1.590
  107SOL     OW 1219   4.214   0.074   2.275
  107SOL    HW1 1220   4.212   0.174   2.284
  107SOL    HW2 1221   4.302   0.040   2.307
  108SOL     OW 1222   3.397   1.341   4.623
  108SOL    HW1 1223   3.416   1.273   4.553
  108SOL    HW2 1224   3.305   1.326   4.660
  109SOL     OW 1225   2.329   1.987   5.073
  109SOL    HW1 1226   2.289   1.954   4.988
  109SOL    HW2 1227   2.258   1.993   5.144
  110SOL     OW 1228   4.311   4.487   5.484
  110SOL    HW1 1229   4.320   4.509   5.581
  110SOL    HW2 1230   4.329   4.390   5.470
  111SOL     OW 1231   6.584   3.136   1.399
  111SOL    HW1 1232   6.615   3.124   1.305
  111SOL    HW2 1233   6.484   3.138   1.402
  112SOL     OW 1234   4.217   6.449   5.038
  112SOL    HW1 1235   4.164   6.500   4.971
  112SOL    HW2 1236   4.156   6.403   5.102
  113SOL     OW 1237   0.879   5.560   1.865
  113SOL    HW1 1238   0.883   5.578   1.963
  113SOL    HW2 1239   0.909   5.466   1.847
  114SOL     OW 1240   0.253   1.765   1.641
  114SOL    HW1 1241   0.203   1.717   1.569
  114SOL    HW2 1242   0.191   1.826   1.689
  115SOL     OW 1243   4.528   1.308   3.200
  115SOL    HW1 1244   4.628   1.298   3.206
  115SOL    HW2 1245   4.484   1.250   3.268
  116SOL     OW 1246   5.953   5.573   0.433
  116SOL    HW1 1247   5.911   5.520   0.360
  116SOL    HW2 1248   5.913   5.665   0.435
  117SOL     OW 1249   2.651   1.305   0.747
  117SOL    HW1 1250   2.567   1.359   0.758
  117SOL    HW2 1251   2.730   1.367   0.748
  118SOL     OW 1252   0.517   2.027   2.282
  118SOL    HW1 1253   0.454   2.090   2.327
  118SOL    HW2 1254   0.601   2.075   2.259
  119SOL     OW 1255   5.383   5.461   4.867
  119SOL    HW1 1256   5.323   5.381   4.854
  119SOL    HW2 1257   5.447   5.467   4.791
  120SOL     OW 1258   4.658   2.011   4.812
  120SOL    HW1 1259   4.640   1.915   4.788
  120SOL    HW2 1260   4.665   2.066   4.729
  121SOL     OW 1261   0.114   5.385   5.970
  121SOL    HW1 1262   0.198   5.434   5.992
  121SOL    HW2 1263   0.104   5.379   5.870
  122SOL     OW 1264   0.267   4.541   5.795
  122SOL    HW1 1265   0.216   4.623   5.770
  122SOL    HW2 1266   0.335   4.521   5.725
  123SOL     OW 1267   0.972   2.820   1.156
  123SOL    HW1 1268   1.069   2.841   1.146
  123SOL    HW2 1269   0.958   2.763   1.237
  124SOL     OW 1270   2.073   3.798   6.871
  124SOL    HW1 1271   2.065   3.729   6.943
  124SOL    HW2 1272   2.164   3.839   6.875
  125SOL     OW 1273   4.193   2.334   0.589
  125SOL    HW1 1274   4.185   2.386   0.675
  125SOL    HW2 1275   4.101   2.313   0.555
  126SOL     OW 1276   3.659   3.225   4.812
  126SOL    HW1 1277   3.619   3.178   4.890
  126SOL    HW2 1278   3.759   3.225   4.821
  127SOL     OW 1279   0.212   4.967   5.807
  127SOL    HW1 1280   0.198   5.064   5.788
  127SOL    HW2 1281   0.171   4.945   5.896
  128SOL     OW 1282   5.220   4.002   5.743
  128SOL    HW1 1283   5.145   3.948   5.781
  128SOL    HW2 1284   5.184   4.090   5.710
  129SOL     OW 1285   0.758   5.578   1.623
  129SOL    HW1 1286   0.793   5.578   1.717
  129SOL    HW2 1287   0.681   5.641   1.616
  130SOL     OW 1288   6.446   3.453   4.958
  130SOL    HW1 1289   6.422   3.426   4.865
  130SOL    HW2 1290   6.363   3.456   5.014
  131SOL     OW 1291   0.887   3.526   2.612
  131SOL    HW1 1292   0.942   3.523   2.695
  131SOL    HW2 1293   0.907   3.446   2.555
  132SOL     OW 1294   3.916   2.983   1.358
  132SOL    HW1 1295   3.847   3.042   1.316
  132SOL    HW2 1296   3.874   2.930   1.432
  133SOL     OW 1297   4.375   4.184   5.660
  133SOL    HW1 1298   4.275   4.182   5.653
  133SOL    HW2 1299   4.401   4.241   5.738
  134SOL     OW 1300   6.556   1.487   6.743
  134SOL    HW1 1301   6.496   1.492   6.663
  134SOL    HW2 1302   6.523   1.550   6.813
  135SOL     OW 1303   4.040   4.945   3.572
  135SOL    HW1 1304   3.985   4.982   3.497
  135SOL    HW2 1305   4.055   5.017   3.641
  136SOL     OW 1306   4.015   6.613   6.092
  136SOL    HW1 1307   4.007   6.521   6.130
  136SOL    HW2 1308   3.930   6.638   6.046
  137SOL     OW 1309   2.054   4.047   0.400
  137SOL    HW1 1310   1.970   4.060   0.453
  137SOL    HW2 1311   2.127   4.103   0.440
  138SOL     OW 1312   0.718   5.462   1.103
  138SOL    HW1 1313   0.816   5.464   1.084
  138SOL    HW2 1314   0.680   5.374   1.073
  139SOL     OW 1315   0.978   0.980   1.217
  139SOL    HW1 1316   0.943   0.937   1.134
  139SOL    HW2 1317   1.060   0.932   1.247
  140SOL     OW 1318   3.343   0.019   1.900
  140SOL    HW1 1319   3.415   0.088   1.907
  140SOL    HW2 1320   3.351   6.984   1.976
  141SOL     OW 1321   1.516   2.198   0.110
  141SOL    HW1 1322   1.455   2.276   0.124
  141SOL    HW2 1323   1.604   2.231   0.076
  142SOL     OW 1324   1.814   3.828   6.748
  142SOL    HW1 1325   1.809   3.771   6.666
  142SOL    HW2 1326   1.896   3.804   6.800
  143SOL     OW 1327   5.647   5.504   1.838
  143SOL    HW1 1328   5.696   5.505   1.925
  143SOL    HW2 1329   5.712   5.500   1.762
  144SOL     OW 1330   2.365   5.382   2.878
  144SOL    HW1 1331   2.323   5.466   2.842
  144SOL    HW2 1332   2.325   5.303   2.832
  145SOL     OW 1333   6.888   5.657   3.309
  145SOL    HW1 1334   6.943   5.713   3.247
  145SOL    HW2 1335   6.825   5.600   3.257
  146SOL     OW 1336   0.181   0.300   5.321
  146SOL    HW1 1337   0.147   0.304   5.415
  146SOL    HW2 1338   0.281   0.300   5.322
  147SOL     OW 1339   6.117   0.175   4.821
  147SOL    HW1 1340   6.025   0.210   4.836
  147SOL    HW2 1341   6.181   0.251   4.816
  148SOL     OW 1342   1.452   6.846   2.677
  148SOL    HW1 1343   1.537   6.806   2.642
  148SOL    HW2 1344   1.428   6.926   2.623
  149SOL     OW 1345   1.925   2.390   4.822
  149SOL    HW1 1346   2.011   2.366   4.777
  149SOL    HW2 1347   1.943   2.456   4.894
  150SOL     OW 1348   5.385   2.977   5.662
  150SOL    HW1 1349   5.413   2.972   5.758
  150SOL    HW2 1350   5.286   2.963   5.655
  151SOL     OW 1351   6.206   2.675   1.868
  151SOL    HW1 1352   6.231   2.752   1.926
  151SOL    HW2 1353   6.246   2.687   1.777
  152SOL     OW 1354   6.875   2.628   0.503
  152SOL    HW1 1355   6.832   2.617   0.413
  152SOL    HW2 1356   6.968   2.662   0.492
  153SOL     OW 1357   1.858   1.674   4.119
  153SOL    HW1 1358   1.793   1.606   4.084
  153SOL    HW2 1359   1.926   1.694   4.049
  154SOL     OW 1360   6.958   0.835   4.084
  154SOL    HW1 1361   6.988   0.809   3.992
  154SOL    HW2 1362   6.976   0.760   4.148
  155SOL     OW 1363   5.733   4.822   3.054
  155SOL    HW1 1364   5.795   4.887   3.098
  155SOL    HW2 1365   5.708   4.751   3.119
  156SOL     OW 1366   4.404   0.070   1.286
  156SOL    HW1 1367   4.447   0.154   1.253
  156SOL    HW2 1368   4.442   0.047   1.376
  157SOL     OW 1369   5.276   6.988   0.591
  157SOL    HW1 1370   5.287   6.936   0.677
  157SOL    HW2 1371   5.347   0.028   0.585
  158SOL     OW 1372   0.745   2.916   4.925
  158SOL    HW1 1373   0.729   3.015   4.924
  158SOL    HW2 1374   0.774   2.888   5.016
  159SOL     OW 1375   6.600   4.931   6.627
  159SOL    HW1 1376   6.511   4.904   6.591
  159SOL    HW2 1377   6.672   4.903   6.563
  160SOL     OW 1378   4.000   0.345   1.417
  160SOL    HW1 1379   4.019   0.386   1.328
  160SOL    HW2 1380   3.971   0.250   1.404
  161SOL     OW 1381   6.510   6.988   0.746
  161SOL    HW1 1382   6.554   6.909   0.704
  161SOL    HW2 1383   6.509   0.035   0.681
  162SOL     OW 1384   4.200   6.793   5.231
  162SOL    HW1 1385   4.190   6.697   5.259
  162SOL    HW2 1386   4.144   6.810   5.150
  163SOL     OW 1387   1.117   3.901   2.491
  163SOL    HW1 1388   1.159   3.822   2.445
  163SOL    HW2 1389   1.018   3.898   2.479
  164SOL     OW 1390   1.988   2.312   2.839
  164SOL    HW1 1391   2.005   2.214   2.844
  164SOL    HW2 1392   1.889   2.329   2.833
  165SOL     OW 1393   0.359   6.032   4.245
  165SOL    HW1 1394   0.296   5.962   4.279
  165SOL    HW2 1395   0.420   6.060   4.319
  166SOL     OW 1396   0.864   4.923   4.209
  166SOL    HW1 1397   0.954   4.965   4.203
  166SOL    HW2 1398   0.846   4.871   4.126
  167SOL     OW 1399   0.218   1.200   3.111
  167SOL    HW1 1400   0.186   1.144   3.034
  167SOL    HW2 1401   0.318   1.212   3.103
  168SOL     OW 1402   3.269   3.658   3.577
  168SOL    HW1 1403   3.336   3.701   3.516
  168SOL    HW2 1404   3.178   3.692   3.555
  169SOL     OW 1405   4.827   2.716   6.116
  169SOL    HW1 1406   4.861   2.623   6.099
  169SOL    HW2 1407   4.902   2.782   6.103
  170SOL     OW 1408   0.150   5.139   2.118
  170SOL    HW1 1409   0.098   5.099   2.194
  170SOL    HW2 1410   0.087   5.162   2.043
  171SOL     OW 1411   3.553   2.641   0.850
  171SOL    HW1 1412   3.542   2.706   0.925
  171SOL    HW2 1413   3.465   2.628   0.804
  172SOL     OW 1414   1.674   0.806   0.284
  172SOL    HW1 1415   1.589   0.856   0.271
  172SOL    HW2 1416   1.672   0.720   0.232
  173SOL     OW 1417   6.010   0.458   5.247
  173SOL    HW1 1418   5.911   0.470   5.242
  173SOL    HW2 1419   6.053   0.548   5.247
  174SOL     OW 1420   6.738   4.155   5.011
  174SOL    HW1 1421   6.673   4.215   4.965
  174SOL    HW2 1422   6.773   4.200   5.093
  175SOL     OW 1423   0.887   5.797   2.990
  175SOL    HW1 1424   0.829   5.768   2.914
  175SOL    HW2 1425   0.858   5.888   3.021
  176SOL     OW 1426   6.085   4.191   1.173
  176SOL    HW1 1427   6.051   4.283   1.194
  176SOL    HW2 1428   6.152   4.164   1.242
  177SOL     OW 1429   5.996   2.893   4.084
  177SOL    HW1 1430   5.966   2.853   3.997
  177SOL    HW2 1431   5.984   2.992   4.081
  178SOL     OW 1432   1.265   6.066   4.937
  178SOL    HW1 1433   1.365   6.058   4.935
  178SOL    HW2 1434   1.239   6.149   4.987
  179SOL     OW 1435   3.610   4.088   1.900
  179SOL    HW1 1436   3.535   4.091   1.834
  179SOL    HW2 1437   3.573   4.080   1.993
  180SOL     OW 1438   4.558   1.118   6.280
  180SOL    HW1 1439   4.495   1.183   6.322
  180SOL    HW2 1440   4.519   1.084   6.194
  181SOL     OW 1441   3.462   0.382   5.074
  181SOL    HW1 1442   3.494   0.301   5.025
  181SOL    HW2 1443   3.523   0.401   5.151
  182SOL     OW 1444   3.112   3.029   5.629
  182SOL    HW1 1445   3.030   3.007   5.576
  182SOL    HW2 1446   3.084   3.070   5.716
  183SOL     OW 1447   3.046   0.881   3.333
  183SOL    HW1 1448   3.123   0.836   3.289
  183SOL    HW2 1449   2.966   0.878   3.272
  184SOL     OW 1450   4.896   6.486   3.424
  184SOL    HW1 1451   4.975   6.446   3.377
  184SOL    HW2 1452   4.817   6.425   3.413
  185SOL     OW 1453   0.541   6.441   5.319
  185SOL    HW1 1454   0.476   6.436   5.396
  185SOL    HW2 1455   0.594   6.525   5.326
  186SOL     OW 1456   3.119   5.661   6.395
  186SOL    HW1 1457   3.185   5.697   6.329
  186SOL    HW2 1458   3.094   5.733   6.460
  187SOL     OW 1459   3.463   5.263   0.763
  187SOL    HW1 1460   3.488   5.267   0.860
  187SOL    HW2 1461   3.366   5.287   0.752
  188SOL     OW 1462   1.767   4.036   4.098
  188SOL    HW1 1463   1.778   4.095   4.018
  188SOL    HW2 1464   1.804   3.945   4.079
  189SOL     OW 1465   6.004   4.658   6.134
  189SOL    HW1 1466   5.973   4.712   6.056
  189SOL    HW2 1467   6.012   4.562   6.106
  190SOL     OW 1468   5.880   6.612   0.328
  190SOL    HW1 1469   5.894   6.545   0.254
  190SOL    HW2 1470   5.964   6.621   0.381
  191SOL     OW 1471   2.054   3.437   5.893
  191SOL    HW1 1472   1.981   3.417   5.828
  191SOL    HW2 1473   2.019   3.428   5.986
  192SOL     OW 1474   0.456   0.220   1.390
  192SOL    HW1 1475   0.385   0.282   1.423
  192SOL    HW2 1476   0.450   0.213   1.290
  193SOL     OW 1477   3.086   0.111   1.640
  193SOL    HW1 1478   3.043   0.191   1.682
  193SOL    HW2 1479   3.170   0.138   1.595
  194SOL     OW 1480   4.118   5.844   3.491
  194SOL    HW1 1481   4.192   5.910   3.501
  194SOL    HW2 1482   4.155   5.757   3.457
  195SOL     OW 1483   3.271   0.701   1.241
  195SOL    HW1 1484   3.223   0.694   1.154
  195SOL    HW2 1485   3.205   0.722   1.313
  196SOL     OW 1486   3.886   3.183   1.044
  196SOL    HW1 1487   3.819   3.198   0.971
  196SOL    HW2 1488   3.839   3.178   1.132
  197SOL     OW 1489   1.660   5.605   0.672
  197SOL    HW1 1490   1.709   5.689   0.696
  197SOL    HW2 1491   1.674   5.537   0.744
  198SOL     OW 1492   5.733   0.024   6.080
  198SOL    HW1 1493   5.670   0.039   6.003
  198SOL    HW2 1494   5.827   0.028   6.047
  199SOL     OW 1495   2.133   1.200   3.562
  199SOL    HW1 1496   2.036   1.205   3.540
  199SOL    HW2 1497   2.145   1.212   3.661
  200SOL     OW 1498   1.836   3.760   4.403
  200SOL    HW1 1499   1.820   3.858   4.408
  200SOL    HW2 1500   1.933   3.743   4.384
  201SOL     OW 1501   5.007   1.196   6.867
  201SOL    HW1 1502   4.988   1.250   6.949
  201SOL    HW2 1503   5.074   1.244   6.810
  202SOL     OW 1504   4.300   0.445   2.782
  202SOL    HW1 1505   4.268   0.533   2.747
  202SOL    HW2 1506   4.308   0.380   2.706
  203SOL     OW 1507   5.882   2.966   0.279
  203SOL    HW1 1508   5.964   2.911   0.296
  203SOL    HW2 1509   5.908   3.059   0.256
  204SOL     OW 1510   1.987   6.249   1.023
  204SOL    HW1 1511   1.972   6.331   0.968
  204SOL    HW2 1512   1.903   6.195   1.024
  205SOL     OW 1513   5.329   0.718   1.247
  205SOL    HW1 1514   5.368   0.712   1.339
  205SOL    HW2 1515   5.266   0.642   1.232
  206SOL     OW 1516   6.993   6.019   0.930
  206SOL    HW1 1517   6.994   6.095   0.995
  206SOL    HW2 1518   7.007   5.933   0.978
  207SOL     OW 1519   6.617   2.355   5.564
  207SOL    HW1 1520   6.701   2.401   5.594
  207SOL    HW2 1521   6.629   2.320   5.472
  208SOL     OW 1522   4.327   3.477   0.111
  208SOL    HW1 1523   4.286   3.543   0.173
  208SOL    HW2 1524   4.335   3.388   0.156
  209SOL     OW 1525   6.946   0.026   3.842
  209SOL    HW1 1526   0.000   0.007   3.892
  209SOL    HW2 1527   6.867   0.013   3.902
  210SOL     OW 1528   4.088   1.749   0.786
  210SOL    HW1 1529   4.064   1.830   0.840
  210SOL    HW2 1530   4.144   1.688   0.841
  211SOL     OW 1531   0.613   2.953   2.348
  211SOL    HW1 1532   0.688   2.971   2.284
  211SOL    HW2 1533   0.632   2.998   2.435
  212SOL     OW 1534   1.279   5.215   5.523
  212SOL    HW1 1535   1.325   5.184   5.440
  212SOL    HW2 1536   1.192   5.258   5.498
  213SOL     OW 1537   3.935   2.510   1.352
  213SOL    HW1 1538   3.958   2.554   1.439
  213SOL    HW2 1539   3.987   2.554   1.278
  214SOL     OW 1540   0.950   5.977   3.912
  214SOL    HW1 1541   0.978   5.985   3.817
  214SOL    HW2 1542   0.963   6.066   3.958
  215SOL     OW 1543   3.600   3.873   3.172
  215SOL    HW1 1544   3.672   3.805   3.183
  215SOL    HW2 1545   3.526   3.835   3.117
  216SOL     OW 1546   2.975   0.181   5.534
  216SOL    HW1 1547   2.946   0.274   5.510
  216SOL    HW2 1548   3.060   0.186   5.587
  217SOL     OW 1549   6.704   1.753   5.067
  217SOL    HW1 1550   6.699   1.817   4.991
  217SOL    HW2 1551   6.780   1.778   5.126
  218SOL     OW 1552   3.134   4.487   5.762
  218SOL    HW1 1553   3.078   4.519   5.839
  218SOL    HW2 1554   3.076   4.476   5.681
  219SOL     OW 1555   2.995   5.871   6.573
  219SOL    HW1 1556   2.925   5.806   6.544
  219SOL    HW2 1557   3.007   5.865   6.672
  220SOL     OW 1558   0.948   4.967   0.385
  220SOL    HW1 1559   1.003   4.991   0.305
  220SOL    HW2 1560   0.942   4.868   0.393
  221SOL     OW 1561   5.880   2.942   4.905
  221SOL    HW1 1562   5.784   2.936   4.876
  221SOL    HW2 1563   5.939   2.912   4.830
  222SOL     OW 1564   1.792   0.037   4.780
  222SOL    HW1 1565   1.819   0.022   4.875
  222SOL    HW2 1566   1.846   0.112   4.742
  223SOL     OW 1567   5.963   4.617   2.733
  223SOL    HW1 1568   5.987   4.704   2.688
  223SOL    HW2 1569   5.893   4.570   2.679
  224SOL     OW 1570   5.109   2.893   2.871
  224SOL    HW1 1571   5.141   2.853   2.785
  224SOL    HW2 1572   5.015   2.926   2.860
  225SOL     OW 1573   5.244   6.407   1.467
  225SOL    HW1 1574   5.289   6.377   1.383
  225SOL    HW2 1575   5.309   6.460   1.523
  226SOL     OW 1576   1.266   6.066   2.583
  226SOL    HW1 1577   1.301   5.974   2.564
  226SOL    HW2 1578   1.312   6.132   2.524
  227SOL     OW 1579   1.272   3.949   3.369
  227SOL    HW1 1580   1.352   3.950   3.310
  227SOL    HW2 1581   1.196   3.906   3.322
  228SOL     OW 1582   4.027   5.635   2.837
  228SOL    HW1 1583   4.118   5.671   2.817
  228SOL    HW2 1584   4.004   5.651   2.933
  229SOL     OW 1585   6.213   5.736   2.794
  229SOL    HW1 1586   6.201   5.653   2.850
  229SOL    HW2 1587   6.257   5.807   2.849
  230SOL     OW 1588   0.735   4.841   5.885
  230SOL    HW1 1589   0.790   4.762   5.859
  230SOL    HW2 1590   0.689   4.823   5.972
  231SOL     OW 1591   0.247   1.636   6.500
  231SOL    HW1 1592   0.183   1.583   6.557
  231SOL    HW2 1593   0.341   1.609   6.523
  232SOL     OW 1594   1.427   3.740   5.575
  232SOL    HW1 1595   1.504   3.736   5.639
  232SOL    HW2 1596   1.391   3.647   5.561
  233SOL     OW 1597   3.486   0.295   6.771
  233SOL    HW1 1598   3.474   0.265   6.866
  233SOL    HW2 1599   3.512   0.216   6.714
  234SOL     OW 1600   1.781   4.829   6.800
  234SOL    HW1 1601   1.689   4.796   6.816
  234SOL    HW2 1602   1.817   4.789   6.716
  235SOL     OW 1603   3.996   3.688   6.053
  235SOL    HW1 1604   4.037   3.638   5.976
  235SOL    HW2 1605   3.903   3.715   6.029
  236SOL     OW 1606   6.804   1.233   6.332
  236SOL    HW1 1607   6.795   1.251   6.429
  236SOL    HW2 1608   6.883   1.282   6.295
  237SOL     OW 1609   6.687   6.752   2.542
  237SOL    HW1 1610   6.697   6.722   2.447
  237SOL    HW2 1611   6.759   6.711   2.597
  238SOL     OW 1612   0.462   2.470   2.818
  238SOL    HW1 1613   0.402   2.399   2.855
  238SOL    HW2 1614   0.438   2.487   2.722
  239SOL     OW 1615   6.072   4.917   0.431
  239SOL    HW1 1616   6.079   4.833   0.377
  239SOL    HW2 1617   6.120   4.905   0.518
  240SOL     OW 1618   0.118   1.880   4.689
  240SOL    HW1 1619   0.074   1.961   4.652
  240SOL    HW2 1620   0.178   1.840   4.620
  241SOL     OW 1621   5.923   2.134   4.801
  241SOL    HW1 1622   5.979   2.055   4.774
  241SOL    HW2 1623   5.936   2.151   4.899
  242SOL     OW 1624   2.993   2.221   3.908
  242SOL    HW1 1625   3.066   2.220   3.976
  242SOL    HW2 1626   3.032   2.230   3.817
  243SOL     OW 1627   4.830   1.392   6.598
  243SOL    HW1 1628   4.801   1.330   6.524
  243SOL    HW2 1629   4.914   1.439   6.570
  244SOL     OW 1630   0.645   1.524   6.279
  244SOL    HW1 1631   0.649   1.429   6.310
  244SOL    HW2 1632   0.627   1.526   6.181
  245SOL     OW 1633   5.275   2.117   3.939
  245SOL    HW1 1634   5.357   2.146   3.889
  245SOL    HW2 1635   5.254   2.022   3.918
  246SOL     OW 1636   5.466   3.433   4.574
  246SOL    HW1 1637   5.508   3.494   4.642
  246SOL    HW2 1638   5.498   3.459   4.483
  247SOL     OW 1639   3.033   0.490   3.019
  247SOL    HW1 1640   3.066   0.410   2.970
  247SOL    HW2 1641   3.060   0.573   2.970
  248SOL     OW 1642   0.732   2.709   3.003
  248SOL    HW1 1643   0.708   2.721   3.099
  248SOL    HW2 1644   0.655   2.736   2.945
  249SOL     OW 1645   2.556   5.668   5.477
  249SOL    HW1 1646   2.512   5.747   5.434
  249SOL    HW2 1647   2.544   5.674   5.576
  250SOL     OW 1648   5.178   2.320   0.042
  250SOL    HW1 1649   5.220   2.379   0.111
  250SOL    HW2 1650   5.214   2.227   0.052
  251SOL     OW 1651   2.083   0.688   1.352
  251SOL    HW1 1652   2.005   0.685   1.414
  251SOL    HW2 1653   2.084   0.777   1.305
  252SOL     OW 1654   0.015   2.185   0.506
  252SOL    HW1 1655   6.955   2.160   0.543
  252SOL    HW2 1656   0.067   2.103   0.483
  253SOL     OW 1657   2.363   4.430   6.191
  253SOL    HW1 1658   2.286   4.372   6.166
  253SOL    HW2 1659   2.332   4.525   6.195
  254SOL     OW 1660   5.079   3.627   6.493
  254SOL    HW1 1661   4.986   3.593   6.478
  254SOL    HW2 1662   5.126   3.633   6.405
  255SOL     OW 1663   4.772   2.225   2.308
  255SOL    HW1 1664   4.690   2.200   2.359
  255SOL    HW2 1665   4.756   2.312   2.260
  256SOL     OW 1666   0.175   6.163   1.329
  256SOL    HW1 1667   0.130   6.207   1.406
  256SOL    HW2 1668   0.275   6.169   1.340
  257SOL     OW 1669   3.148   6.059   6.326
  257SOL    HW1 1670   3.152   6.056   6.426
  257SOL    HW2 1671   3.202   5.984   6.288
  258SOL     OW 1672   4.340   5.377   4.253
  258SOL    HW1 1673   4.244   5.358   4.272
  258SOL    HW2 1674   4.354   5.476   4.247
  259SOL     OW 1675   0.787   1.752   1.933
  259SOL    HW1 1676   0.819   1.845   1.916
  259SOL    HW2 1677   0.838   1.713   2.010
  260SOL     OW 1678   6.574   6.774   5.503
  260SOL    HW1 1679   6.489   6.724   5.485
  260SOL    HW2 1680   6.589   6.841   5.430
  261SOL     OW 1681   0.420   0.848   4.152
  261SOL    HW1 1682   0.364   0.818   4.229
  261SOL    HW2 1683   0.510   0.804   4.157
  262SOL     OW 1684   1.765   5.222   1.382
  262SOL    HW1 1685   1.861   5.194   1.373
  262SOL    HW2 1686   1.755   5.315   1.346
  263SOL     OW 1687   0.753   4.372   4.795
  263SOL    HW1 1688   0.662   4.404   4.822
  263SOL    HW2 1689   0.812   4.370   4.875
  264SOL     OW 1690   3.568   4.029   0.498
  264SOL    HW1 1691   3.547   4.022   0.401
  264SOL    HW2 1692   3.487   4.060   0.548
  265SOL     OW 1693   4.165   5.519   3.961
  265SOL    HW1 1694   4.240   5.494   3.900
  265SOL    HW2 1695   4.109   5.439   3.981
  266SOL     OW 1696   4.428   3.676   6.827
  266SOL    HW1 1697   4.516   3.628   6.838
  266SOL    HW2 1698   4.354   3.609   6.823
  267SOL     OW 1699   2.591   2.737   5.800
  267SOL    HW1 1700   2.674   2.757   5.851
  267SOL    HW2 1701   2.565   2.816   5.744
  268SOL     OW 1702   1.745   4.151   3.857
  268SOL    HW1 1703   1.813   4.216   3.824
  268SOL    HW2 1704   1.671   4.143   3.790
  269SOL     OW 1705   3.279   1.830   5.547
  269SOL    HW1 1706   3.344   1.756   5.529
  269SOL    HW2 1707   3.291   1.864   5.640
  270SOL     OW 1708   5.474   6.059   4.931
  270SOL    HW1 1709   5.504   6.049   5.026
  270SOL    HW2 1710   5.525   6.133   4.888
  271SOL     OW 1711   2.694   1.782   0.424
  271SOL    HW1 1712   2.638   1.837   0.362
  271SOL    HW2 1713   2.636   1.719   0.475
  272SOL     OW 1714   5.591   4.787   0.053
  272SOL    HW1 1715   5.617   4.856   0.121
  272SOL    HW2 1716   5.621   4.817   6.992
  273SOL     OW 1717   1.136   6.096   4.361
  273SOL    HW1 1718   1.039   6.118   4.350
  273SOL    HW2 1719   1.172   6.058   4.276
  274SOL     OW 1720   5.407   2.510   2.785
  274SOL    HW1 1721   5.311   2.487   2.766
  274SOL    HW2 1722   5.449   2.547   2.703
  275SOL     OW 1723   5.880   5.732   5.356
  275SOL    HW1 1724   5.891   5.634   5.372
  275SOL    HW2 1725   5.917   5.783   5.435
  276SOL     OW 1726   0.934   0.362   4.619
  276SOL    HW1 1727   0.862   0.423   4.584
  276SOL    HW2 1728   0.998   0.415   4.674
  277SOL     OW 1729   3.669   3.110   5.416
  277SOL    HW1 1730   3.764   3.083   5.401
  277SOL    HW2 1731   3.658   3.208   5.399
  278SOL     OW 1732   5.905   4.533   2.225
  278SOL    HW1 1733   5.816   4.560   2.261
  278SOL    HW2 1734   5.907   4.435   2.210
  279SOL     OW 1735   0.732   4.063   3.946
  279SOL    HW1 1736   0.802   3.992   3.942
  279SOL    HW2 1737   0.759   4.133   4.011
  280SOL     OW 1738   4.800   1.658   3.395
  280SOL    HW1 1739   4.808   1.607   3.309
  280SOL    HW2 1740   4.762   1.748   3.377
  281SOL     OW 1741   5.109   4.995   5.234
  281SOL    HW1 1742   5.023   4.948   5.253
  281SOL    HW2 1743   5.094   5.067   5.167
  282SOL     OW 1744   0.377   2.406   6.852
  282SOL    HW1 1745   0.303   2.361   6.802
  282SOL    HW2 1746   0.340   2.445   6.937
  283SOL     OW 1747   6.234   4.025   2.260
  283SOL    HW1 1748   6.221   3.929   2.236
  283SOL    HW2 1749   6.262   4.032   2.355
  284SOL     OW 1750   5.834   6.592   3.463
  284SOL    HW1 1751   5.813   6.608   3.366
  284SOL    HW2 1752   5.762   6.631   3.520
  285SOL     OW 1753   4.266   6.162   6.525
  285SOL    HW1 1754   4.236   6.067   6.521
  285SOL    HW2 1755   4.198   6.221   6.481
  286SOL     OW 1756   3.611   4.955   5.654
  286SOL    HW1 1757   3.599   5.046   5.616
  286SOL    HW2 1758   3.549   4.891   5.607
  287SOL     OW 1759   3.689   6.166   0.646
  287SOL    HW1 1760   3.766   6.133   0.700
  287SOL    HW2 1761   3.721   6.191   0.554
  288SOL     OW 1762   4.566   1.016   6.963
  288SOL    HW1 1763   4.518   1.102   6.944
  288SOL    HW2 1764   4.625   0.994   6.885
  289SOL     OW 1765   5.116   5.039   4.241
  289SOL    HW1 1766   5.169   5.124   4.246
  289SOL    HW2 1767   5.172   4.963   4.272
  290SOL     OW 1768   3.311   0.536   4.917
  290SOL    HW1 1769   3.377   0.488   4.974
  290SOL    HW2 1770   3.334   0.523   4.820
  291SOL     OW 1771   5.798   0.861   4.771
  291SOL    HW1 1772   5.758   0.932   4.829
  291SOL    HW2 1773   5.791   0.772   4.818
  292SOL     OW 1774   3.381   0.507   3.484
  292SOL    HW1 1775   3.336   0.513   3.395
  292SOL    HW2 1776   3.420   0.596   3.508
  293SOL     OW 1777   5.584   0.760   2.915
  293SOL    HW1 1778   5.527   0.841   2.906
  293SOL    HW2 1779   5.680   0.787   2.920
  294SOL     OW 1780   6.558   1.239   0.086
  294SOL    HW1 1781   6.474   1.187   0.098
  294SOL    HW2 1782   6.562   1.274   7.021
  295SOL     OW 1783   0.147   7.017   5.066
  295SOL    HW1 1784   0.111   6.936   5.018
  295SOL    HW2 1785   0.181   0.053   4.999
  296SOL     OW 1786   0.623   2.149   0.974
  296SOL    HW1 1787   0.687   2.083   1.014
  296SOL    HW2 1788   0.546   2.100   0.934
  297SOL     OW 1789   5.157   3.097   3.285
  297SOL    HW1 1790   5.204   3.129   3.202
  297SOL    HW2 1791   5.196   3.009   3.312
  298SOL     OW 1792   4.250   0.088   5.224
  298SOL    HW1 1793   4.181   0.043   5.281
  298SOL    HW2 1794   4.307   0.019   5.180
  299SOL     OW 1795   0.847   1.022   6.006
  299SOL    HW1 1796   0.805   0.931   5.997
  299SOL    HW2 1797   0.835   1.072   5.920
  300SOL     OW 1798   4.209   6.100   4.007
  300SOL    HW1 1799   4.265   6.070   3.930
  300SOL    HW2 1800   4.119   6.127   3.975
  301SOL     OW 1801   6.810   6.164   5.104
  301SOL    HW1 1802   6.779   6.093   5.041
  301SOL    HW2 1803   6.782   6.254   5.071
  302SOL     OW 1804   0.453   6.638   1.962
  302SOL    HW1 1805   0.423   6.660   2.055
  302SOL    HW2 1806   0.553   6.632   1.960
  303SOL     OW 1807   5.405   5.537   2.488
  303SOL    HW1 1808   5.396   5.494   2.398
  303SOL    HW2 1809   5.339   5.497   2.551
  304SOL     OW 1810   1.242   0.525   3.737
  304SOL    HW1 1811   1.199   0.489   3.654
  304SOL    HW2 1812   1.336   0.491   3.742
  305SOL     OW 1813   2.239   2.120   1.453
  305SOL    HW1 1814   2.272   2.078   1.538
  305SOL    HW2 1815   2.300   2.196   1.428
  306SOL     OW 1816   0.490   6.995   2.490
  306SOL    HW1 1817   0.550   6.960   2.418
  306SOL    HW2 1818   0.408   6.939   2.496
  307SOL     OW 1819   3.872   3.888   4.072
  307SOL    HW1 1820   3.844   3.948   4.147
  307SOL    HW2 1821   3.839   3.796   4.090
  308SOL     OW 1822   6.477   2.102   1.946
  308SOL    HW1 1823   6.554   2.038   1.954
  308SOL    HW2 1824   6.513   2.195   1.934
  309SOL     OW 1825   1.936   4.556   0.232
  309SOL    HW1 1826   1.994   4.552   0.151
  309SOL    HW2 1827   1.841   4.574   0.204
  310SOL     OW 1828   4.871   6.527   4.904
  310SOL    HW1 1829   4.909   6.616   4.929
  310SOL    HW2 1830   4.944   6.458   4.905
  311SOL     OW 1831   1.888   6.175   2.270
  311SOL    HW1 1832   1.820   6.248   2.279
  311SOL    HW2 1833   1.947   6.194   2.191
  312SOL     OW 1834   3.242   0.600   4.227
  312SOL    HW1 1835   3.263   0.665   4.154
  312SOL    HW2 1836   3.286   0.630   4.312
  313SOL     OW 1837   3.215   3.130   3.206
  313SOL    HW1 1838   3.193   3.223   3.236
  313SOL    HW2 1839   3.252   3.079   3.284
  314SOL     OW 1840   2.909   4.886   6.299
  314SOL    HW1 1841   2.827   4.933   6.334
  314SOL    HW2 1842   2.892   4.788   6.295
  315SOL     OW 1843   6.275   0.613   5.063
  315SOL    HW1 1844   6.287   0.542   5.132
  315SOL    HW2 1845   6.241   0.572   4.978
  316SOL     OW 1846   4.296   0.766   5.263
  316SOL    HW1 1847   4.236   0.775   5.343
  316SOL    HW2 1848   4.259   0.696   5.202
  317SOL     OW 1849   0.922   1.962   1.408
  317SOL    HW1 1850   0.875   2.040   1.449
  317SOL    HW2 1851   1.014   1.989   1.382
  318SOL     OW 1852   0.955   0.629   3.161
  318SOL    HW1 1853   1.033   0.642   3.099
  318SOL    HW2 1854   0.891   0.564   3.120
  319SOL     OW 1855   0.971   1.272   2.309
  319SOL    HW1 1856   0.935   1.219   2.386
  319SOL    HW2 1857   0.916   1.255   2.227
  320SOL     OW 1858   4.969   1.369   0.060
  320SOL    HW1 1859   4.890   1.373   7.028
  320SOL    HW2 1860   4.939   1.384   0.154
  321SOL     OW 1861   4.130   3.283   1.042
  321SOL    HW1 1862   4.038   3.250   1.059
  321SOL    HW2 1863   4.195   3.232   1.099
  322SOL     OW 1864   2.958   1.749   0.135
  322SOL    HW1 1865   2.888   1.679   0.150
  322SOL    HW2 1866   2.915   1.838   0.122
  323SOL     OW 1867   1.255   4.006   1.978
  323SOL    HW1 1868   1.236   3.954   2.062
  323SOL    HW2 1869   1.342   4.054   1.988
  324SOL     OW 1870   6.160   0.464   3.985
  324SOL    HW1 1871   6.068   0.429   3.968
  324SOL    HW2 1872   6.157   0.563   3.991
  325SOL     OW 1873   6.326   3.508   0.925
  325SOL    HW1 1874   6.371   3.474   1.008
  325SOL    HW2 1875   6.229   3.482   0.927
  326SOL     OW 1876   6.712   5.494   0.200
  326SOL    HW1 1877   6.785   5.428   0.214
  326SOL    HW2 1878   6.661   5.471   0.117
  327SOL     OW 1879   4.543   6.479   6.337
  327SOL    HW1 1880   4.563   6.392   6.292
  327SOL    HW2 1881   4.445   6.487   6.353
  328SOL     OW 1882   1.931   4.265   3.439
  328SOL    HW1 1883   1.942   4.173   3.476
  328SOL    HW2 1884   2.001   4.325   3.477
  329SOL     OW 1885   3.074   3.023   2.352
  329SOL    HW1 1886   3.099   3.054   2.261
  329SOL    HW2 1887   3.019   2.940   2.346
  330SOL     OW 1888   2.566   3.655   6.632
  330SOL    HW1 1889   2.472   3.683   6.652
  330SOL    HW2 1890   2.613   3.727   6.582
  331SOL     OW 1891   5.113   5.472   3.699
  331SOL    HW1 1892   5.100   5.394   3.760
  331SOL    HW2 1893   5.148   5.440   3.611
  332SOL     OW 1894   6.035   1.849   2.777
  332SOL    HW1 1895   5.944   1.859   2.738
  332SOL    HW2 1896   6.076   1.763   2.745
  333SOL     OW 1897   3.831   6.386   3.507
  333SOL    HW1 1898   3.876   6.297   3.513
  333SOL    HW2 1899   3.892   6.452   3.463
  334SOL     OW 1900   3.777   3.333   4.304
  334SOL    HW1 1901   3.827   3.331   4.217
  334SOL    HW2 1902   3.768   3.240   4.339
  335SOL     OW 1903   4.425   1.248   0.758
  335SOL    HW1 1904   4.379   1.180   0.815
  335SOL    HW2 1905   4.357   1.296   0.702
  336SOL     OW 1906   4.128   1.972   4.979
  336SOL    HW1 1907   4.034   1.982   5.012
  336SOL    HW2 1908   4.128   1.917   4.895
  337SOL     OW 1909   0.214   1.229   5.481
  337SOL    HW1 1910   0.149   1.297   5.448
  337SOL    HW2 1911   0.237   1.166   5.406
  338SOL     OW 1912   4.720   1.364   1.855
  338SOL    HW1 1913   4.685   1.457   1.840
  338SOL    HW2 1914   4.723   1.314   1.769
  339SOL     OW 1915   3.890   4.850   6.100
  339SOL    HW1 1916   3.895   4.879   6.004
  339SOL    HW2 1917   3.821   4.904   6.148
  340SOL     OW 1918   5.026   3.135   4.871
  340SOL    HW1 1919   5.070   3.164   4.956
  340SOL    HW2 1920   5.013   3.215   4.812
  341SOL     OW 1921   0.172   0.301   1.889
  341SOL    HW1 1922   0.088   0.347   1.917
  341SOL    HW2 1923   0.151   0.232   1.819
  342SOL     OW 1924   4.272   1.079   2.101
  342SOL    HW1 1925   4.261   1.050   2.006
  342SOL    HW2 1926   4.232   1.011   2.162
  343SOL     OW 1927   6.131   0.079   1.998
  343SOL    HW1 1928   6.227   0.081   2.026
  343SOL    HW2 1929   6.073   0.099   2.077
  344SOL     OW 1930   7.013   2.715   1.589
  344SOL    HW1 1931   0.024   2.632   1.627
  344SOL    HW2 1932   0.047   2.757   1.525
  345SOL     OW 1933   6.936   2.633   4.628
  345SOL    HW1 1934   6.961   2.552   4.575
  345SOL    HW2 1935   6.842   2.659   4.608
  346SOL     OW 1936   1.577   5.775   2.284
  346SOL    HW1 1937   1.629   5.857   2.307
  346SOL    HW2 1938   1.598   5.703   2.350
  347SOL     OW 1939   2.190   4.267   1.348
  347SOL    HW1 1940   2.257   4.335   1.377
  347SOL    HW2 1941   2.098   4.303   1.360
  348SOL     OW 1942   5.370   4.600   1.480
  348SOL    HW1 1943   5.316   4.679   1.453
  348SOL    HW2 1944   5.338   4.519   1.430
  349SOL     OW 1945   5.793   5.175   0.759
  349SOL    HW1 1946   5.719   5.164   0.825
  349SOL    HW2 1947   5.770   5.123   0.676
  350SOL     OW 1948   2.623   1.062   0.878
  350SOL    HW1 1949   2.560   1.054   0.800
  350SOL    HW2 1950   2.685   1.138   0.862
  351SOL     OW 1951   3.727   4.342   1.325
  351SOL    HW1 1952   3.745   4.297   1.413
  351SOL    HW2 1953   3.801   4.321   1.261
  352SOL     OW 1954   4.464   0.031   2.398
  352SOL    HW1 1955   4.454   6.962   2.388
  352SOL    HW2 1956   4.534   0.050   2.467
  353SOL     OW 1957   2.552   5.886   0.396
  353SOL    HW1 1958   2.591   5.801   0.360
  353SOL    HW2 1959   2.570   5.891   0.494
  354SOL     OW 1960   1.388   2.188   0.774
  354SOL    HW1 1961   1.367   2.094   0.748
  354SOL    HW2 1962   1.339   2.251   0.714
  355SOL     OW 1963   6.978   2.969   3.441
  355SOL    HW1 1964   6.904   2.939   3.380
  355SOL    HW2 1965   7.003   2.895   3.502
  356SOL     OW 1966   2.679   0.259   5.908
  356SOL    HW1 1967   2.642   0.334   5.963
  356SOL    HW2 1968   2.776   0.244   5.931
  357SOL     OW 1969   5.241   5.783   4.176
  357SOL    HW1 1970   5.147   5.751   4.189
  357SOL    HW2 1971   5.302   5.729   4.234
  358SOL     OW 1972   3.474   6.473   6.998
  358SOL    HW1 1973   3.407   6.400   6.989
  358SOL    HW2 1974   3.488   6.495   0.065
  359SOL     OW 1975   1.982   2.658   1.704
  359SOL    HW1 1976   1.964   2.751   1.739
  359SOL    HW2 1977   2.080   2.642   1.700
  360SOL     OW 1978   2.192   4.069   3.155
  360SOL    HW1 1979   2.211   4.167   3.152
  360SOL    HW2 1980   2.210   4.029   3.065
  361SOL     OW 1981   6.868   2.470   2.981
  361SOL    HW1 1982   6.965   2.459   3.000
  361SOL    HW2 1983   6.835   2.556   3.021
  362SOL     OW 1984   3.890   3.424   2.740
  362SOL    HW1 1985   3.957   3.444   2.668
  362SOL    HW2 1986   3.824   3.499   2.745
  363SOL     OW 1987   4.375   4.931   0.382
  363SOL    HW1 1988   4.417   4.993   0.316
  363SOL    HW2 1989   4.288   4.970   0.414
  364SOL     OW 1990   1.401   0.400   0.273
  364SOL    HW1 1991   1.371   0.490   0.302
  364SOL    HW2 1992   1.327   0.356   0.221
  365SOL     OW 1993   5.317   0.474   3.967
  365SOL    HW1 1994   5.285   0.423   4.047
  365SOL    HW2 1995   5.317   0.414   3.887
  366SOL     OW 1996   4.958   1.876   0.316
  366SOL    HW1 1997   4.981   1.897   0.411
  366SOL    HW2 1998   4.952   1.961   0.264
  367SOL     OW 1999   5.424   0.912   6.990
  367SOL    HW1 2000   5.446   0.903   0.057
  367SOL    HW2 2001   5.331   0.946   6.979
  368SOL     OW 2002   2.860   1.845   5.822
  368SOL    HW1 2003   2.875   1.843   5.921
  368SOL    HW2 2004   2.873   1.753   5.785
  369SOL     OW 2005   4.727   4.274   0.123
  369SOL    HW1 2006   4.657   4.305   0.187
  369SOL    HW2 2007   4.816   4.276   0.168
  370SOL     OW 2008   1.786   2.160   3.332
  370SOL    HW1 2009   1.791   2.061   3.350
  370SOL    HW2 2010   1.845   2.208   3.397
  371SOL     OW 2011   2.787   5.627   0.079
  371SOL    HW1 2012   2.878   5.660   0.106
  371SOL    HW2 2013   2.730   5.705   0.053
  372SOL     OW 2014   2.695   5.935   6.519
  372SOL    HW1 2015   2.668   5.874   6.444
  372SOL    HW2 2016   2.622   6.001   6.535
  373SOL     OW 2017   6.117   4.838   2.878
  373SOL    HW1 2018   6.078   4.886   2.799
  373SOL    HW2 2019   6.107   4.739   2.866
  374SOL     OW 2020   2.837   2.170   2.243
  374SOL    HW1 2021   2.826   2.080   2.200
  374SOL    HW2 2022   2.881   2.232   2.179
  375SOL     OW 2023   0.349   5.938   3.916
  375SOL    HW1 2024   0.284   6.004   3.878
  375SOL    HW2 2025   0.438   5.982   3.927
  376SOL     OW 2026   4.275   0.376   3.657
  376SOL    HW1 2027   4.292   0.296   3.599
  376SOL    HW2 2028   4.194   0.424   3.624
  377SOL     OW 2029   3.162   2.901   6.510
  377SOL    HW1 2030   3.181   2.941   6.600
  377SOL    HW2 2031   3.248   2.886   6.462
  378SOL     OW 2032   4.127   1.316   1.951
  378SOL    HW1 2033   4.044   1.283   1.907
  378SOL    HW2 2034   4.179   1.238   1.985
  379SOL     OW 2035   3.989   2.925   6.649
  379SOL    HW1 2036   3.900   2.940   6.692
  379SOL    HW2 2037   3.989   2.966   6.558
  380SOL     OW 2038   4.446   1.895   0.693
  380SOL    HW1 2039   4.410   1.806   0.722
  380SOL    HW2 2040   4.545   1.887   0.677
  381SOL     OW 2041   1.817   3.846   2.524
  381SOL    HW1 2042   1.852   3.935   2.496
  381SOL    HW2 2043   1.781   3.798   2.445
  382SOL     OW 2044   5.890   6.905   0.682
  382SOL    HW1 2045   5.882   6.977   0.613
  382SOL    HW2 2046   5.851   6.820   0.646
  383SOL     OW 2047   4.943   3.086   0.755
  383SOL    HW1 2048   4.986   3.056   0.670
  383SOL    HW2 2049   4.938   3.186   0.755
  384SOL     OW 2050   1.004   3.260   5.153
  384SOL    HW1 2051   1.024   3.209   5.069
  384SOL    HW2 2052   0.912   3.236   5.185
  385SOL     OW 2053   4.475   2.032   6.885
  385SOL    HW1 2054   4.434   2.117   6.851
  385SOL    HW2 2055   4.411   1.957   6.870
  386SOL     OW 2056   4.020   6.469   5.251
  386SOL    HW1 2057   3.965   6.388   5.271
  386SOL    HW2 2058   3.964   6.537   5.204
  387SOL     OW 2059   2.367   6.325   4.111
  387SOL    HW1 2060   2.334   6.273   4.190
  387SOL    HW2 2061   2.417   6.406   4.143
  388SOL     OW 2062   1.308   4.853   5.790
  388SOL    HW1 2063   1.254   4.812   5.863
  388SOL    HW2 2064   1.248   4.870   5.711
  389SOL     OW 2065   2.876   3.251   0.532
  389SOL    HW1 2066   2.941   3.270   0.458
  389SOL    HW2 2067   2.913   3.181   0.593
  390SOL     OW 2068   2.506   1.513   4.389
  390SOL    HW1 2069   2.570   1.532   4.463
  390SOL    HW2 2070   2.443   1.589   4.379
  391SOL     OW 2071   0.793   2.435   0.226
  391SOL    HW1 2072   0.887   2.467   0.237
  391SOL    HW2 2073   0.737   2.508   0.188
  392SOL     OW 2074   3.447   5.227   4.854
  392SOL    HW1 2075   3.453   5.128   4.842
  392SOL    HW2 2076   3.524   5.271   4.807
  393SOL     OW 2077   6.180   3.909   5.419
  393SOL    HW1 2078   6.141   3.897   5.510
  393SOL    HW2 2079   6.182   4.007   5.396
  394SOL     OW 2080   2.239   1.404   6.425
  394SOL    HW1 2081   2.263   1.311   6.451
  394SOL    HW2 2082   2.141   1.409   6.402
  395SOL     OW 2083   0.203   3.219   1.130
  395SOL    HW1 2084   0.289   3.197   1.177
  395SOL    HW2 2085   0.162   3.134   1.095
  396SOL     OW 2086   3.299   2.838   5.900
  396SOL    HW1 2087   3.334   2.860   5.809
  396SOL    HW2 2088   3.293   2.738   5.909
  397SOL     OW 2089   4.304   0.699   6.572
  397SOL    HW1 2090   4.358   0.666   6.494
  397SOL    HW2 2091   4.254   0.781   6.546
  398SOL     OW 2092   0.156   4.647   2.452
  398SOL    HW1 2093   0.179   4.622   2.358
  398SOL    HW2 2094   0.103   4.574   2.494
  399SOL     OW 2095   4.903   5.498   1.765
  399SOL    HW1 2096   4.876   5.403   1.781
  399SOL    HW2 2097   4.954   5.504   1.679
  400SOL     OW 2098   2.073   4.847   4.871
  400SOL    HW1 2099   2.168   4.855   4.902
  400SOL    HW2 2100   2.012   4.888   4.939
  401SOL     OW 2101   6.120   1.671   1.375
  401SOL    HW1 2102   6.081   1.621   1.452
  401SOL    HW2 2103   6.220   1.663   1.378
  402SOL     OW 2104   0.278   4.875   0.912
  402SOL    HW1 2105   0.358   4.843   0.963
  402SOL    HW2 2106   0.233   4.797   0.868
  403SOL     OW 2107   4.735   4.883   0.924
  403SOL    HW1 2108   4.766   4.788   0.925
  403SOL    HW2 2109   4.638   4.886   0.948
  404SOL     OW 2110   0.065   5.725   4.682
  404SOL    HW1 2111   0.146   5.756   4.633
  404SOL    HW2 2112   0.066   5.625   4.688
  405SOL     OW 2113   1.414   2.252   1.438
  405SOL    HW1 2114   1.322   2.281   1.412
  405SOL    HW2 2115   1.415   2.227   1.535
  406SOL     OW 2116   0.756   2.459   3.546
  406SOL    HW1 2117   0.707   2.546   3.548
  406SOL    HW2 2118   0.834   2.462   3.608
  407SOL     OW 2119   3.582   2.125   4.039
  407SOL    HW1 2120   3.535   2.148   4.124
  407SOL    HW2 2121   3.674   2.091   4.060
  408SOL     OW 2122   2.464   0.237   3.461
  408SOL    HW1 2123   2.556   0.254   3.425
  408SOL    HW2 2124   2.418   0.168   3.405
  409SOL     OW 2125   6.943   3.756   4.221
  409SOL    HW1 2126   6.889   3.695   4.279
  409SOL    HW2 2127   6.989   3.824   4.277
  410SOL     OW 2128   3.125   6.902   6.206
  410SOL    HW1 2129   3.031   6.899   6.242
  410SOL    HW2 2130   3.182   6.838   6.258
  411SOL     OW 2131   0.540   4.054   5.488
  411SOL    HW1 2132   0.522   3.956   5.487
  411SOL    HW2 2133   0.613   4.075   5.424
  412SOL     OW 2134   4.086   6.791   2.592
  412SOL    HW1 2135   4.054   6.781   2.686
  412SOL    HW2 2136   4.117   6.703   2.558
  413SOL     OW 2137   2.381   1.150   2.721
  413SOL    HW1 2138   2.316   1.225   2.735
  413SOL    HW2 2139   2.344   1.067   2.762
  414SOL     OW 2140   5.032   4.986   0.661
  414SOL    HW1 2141   4.939   5.022   0.667
  414SOL    HW2 2142   5.064   4.959   0.752
  415SOL     OW 2143   3.988   0.223   2.147
  415SOL    HW1 2144   4.029   0.276   2.221
  415SOL    HW2 2145   4.045   0.229   2.065
  416SOL     OW 2146   3.960   5.995   6.984
  416SOL    HW1 2147   4.023   6.031   6.916
  416SOL    HW2 2148   4.012   5.951   0.028
  417SOL     OW 2149   5.290   5.049   1.125
  417SOL    HW1 2150   5.344   4.977   1.170
  417SOL    HW2 2151   5.254   5.111   1.195
  418SOL     OW 2152   6.477   5.104   6.373
  418SOL    HW1 2153   6.423   5.026   6.340
  418SOL    HW2 2154   6.516   5.152   6.295
  419SOL     OW 2155   5.032   5.622   0.232
  419SOL    HW1 2156   5.006   5.565   0.154
  419SOL    HW2 2157   5.098   5.573   0.289
  420SOL     OW 2158   4.971   4.199   6.476
  420SOL    HW1 2159   4.904   4.224   6.406
  420SOL    HW2 2160   4.928   4.200   6.566
  421SOL     OW 2161   1.631   6.540   6.393
  421SOL    HW1 2162   1.563   6.562   6.463
  421SOL    HW2 2163   1.598   6.568   6.303
  422SOL     OW 2164   6.435   4.052   0.113
  422SOL    HW1 2165   6.471   4.108   0.037
  422SOL    HW2 2166   6.456   3.956   0.096
  423SOL     OW 2167   1.013   3.784   6.505
  423SOL    HW1 2168   1.050   3.859   6.451
  423SOL    HW2 2169   0.944   3.735   6.453
  424SOL     OW 2170   1.542   4.196   6.932
  424SOL    HW1 2171   1.523   4.107   6.972
  424SOL    HW2 2172   1.470   4.221   6.867
  425SOL     OW 2173   3.483   0.242   0.203
  425SOL    HW1 2174   3.471   0.342   0.203
  425SOL    HW2 2175   3.580   0.221   0.191
  426SOL     OW 2176   6.964   3.782   6.327
  426SOL    HW1 2177   6.970   3.735   6.239
  426SOL    HW2 2178   0.026   3.803   6.360
  427SOL     OW 2179   4.284   3.468   6.842
  427SOL    HW1 2180   4.287   3.445   6.939
  427SOL    HW2 2181   4.285   3.384   6.788
  428SOL     OW 2182   3.945   1.665   5.307
  428SOL    HW1 2183   3.984   1.631   5.392
  428SOL    HW2 2184   4.001   1.636   5.230
  429SOL     OW 2185   2.949   6.786   0.150
  429SOL    HW1 2186   2.905   6.859   0.203
  429SOL    HW2 2187   3.039   6.767   0.187
  430SOL     OW 2188   2.884   0.286   4.163
  430SOL    HW1 2189   2.798   0.293   4.114
  430SOL    HW2 2190   2.958   0.325   4.107
  431SOL     OW 2191   3.708   0.937   0.002
  431SOL    HW1 2192   3.748   0.960   6.942
  431SOL    HW2 2193   3.609   0.941   7.025
  432SOL     OW 2194   6.833   0.880   1.106
  432SOL    HW1 2195   6.918   0.932   1.117
  432SOL    HW2 2196   6.795   0.897   1.015
  433SOL     OW 2197   3.248   5.783   5.210
  433SOL    HW1 2198   3.331   5.771   5.157
  433SOL    HW2 2199   3.222   5.695   5.252
  434SOL     OW 2200   6.248   3.752   1.261
  434SOL    HW1 2201   6.309   3.675   1.277
  434SOL    HW2 2202   6.188   3.732   1.184
  435SOL     OW 2203   3.734   3.669   0.750
  435SOL    HW1 2204   3.808   3.621   0.798
  435SOL    HW2 2205   3.705   3.748   0.804
  436SOL     OW 2206   3.250   0.858   0.615
  436SOL    HW1 2207   3.187   0.809   0.556
  436SOL    HW2 2208   3.310   0.793   0.662
  437SOL     OW 2209   6.638   6.761   6.131
  437SOL    HW1 2210   6.687   6.841   6.095
  437SOL    HW2 2211   6.645   6.760   6.231
  438SOL     OW 2212   1.348   3.381   1.029
  438SOL    HW1 2213   1.358   3.313   0.957
  438SOL    HW2 2214   1.436   3.393   1.076
  439SOL     OW 2215   6.392   4.992   2.010
  439SOL    HW1 2216   6.369   5.089   2.018
  439SOL    HW2 2217   6.312   4.936   2.033
  440SOL     OW 2218   1.451   3.179   2.965
  440SOL    HW1 2219   1.522   3.147   2.903
  440SOL    HW2 2220   1.470   3.274   2.992
  441SOL     OW 2221   0.677   0.900   2.991
  441SOL    HW1 2222   0.746   0.840   2.951
  441SOL    HW2 2223   0.688   0.992   2.953
  442SOL     OW 2224   0.343   4.966   6.173
  442SOL    HW1 2225   0.285   5.043   6.148
  442SOL    HW2 2226   0.297   4.880   6.150
  443SOL     OW 2227   0.615   4.459   5.631
  443SOL    HW1 2228   0.655   4.541   5.671
  443SOL    HW2 2229   0.547   4.485   5.562
  444SOL     OW 2230   5.031   2.892   6.322
  444SOL    HW1 2231   5.065   2.924   6.410
  444SOL    HW2 2232   4.992   2.969   6.271
  445SOL     OW 2233   1.572   4.062   3.424
  445SOL    HW1 2234   1.657   4.054   3.373
  445SOL    HW2 2235   1.524   4.145   3.396
  446SOL     OW 2236   2.572   5.349   4.243
  446SOL    HW1 2237   2.668   5.377   4.237
  446SOL    HW2 2238   2.549   5.328   4.338
  447SOL     OW 2239   6.703   6.014   0.908
  447SOL    HW1 2240   6.778   6.071   0.876
  447SOL    HW2 2241   6.738   5.942   0.967
  448SOL     OW 2242   4.480   0.197   5.780
  448SOL    HW1 2243   4.440   0.281   5.815
  448SOL    HW2 2244   4.430   0.118   5.816
  449SOL     OW 2245   5.049   0.249   4.275
  449SOL    HW1 2246   5.056   0.155   4.308
  449SOL    HW2 2247   4.965   0.260   4.221
  450SOL     OW 2248   6.687   6.635   3.071
  450SOL    HW1 2249   6.754   6.584   3.125
  450SOL    HW2 2250   6.668   6.586   2.986
  451SOL     OW 2251   6.267   3.259   3.911
  451SOL    HW1 2252   6.206   3.317   3.856
  451SOL    HW2 2253   6.331   3.317   3.962
  452SOL     OW 2254   6.841   5.416   5.934
  452SOL    HW1 2255   6.809   5.415   5.840
  452SOL    HW2 2256   6.941   5.403   5.935
  453SOL     OW 2257   3.451   2.020   6.100
  453SOL    HW1 2258   3.376   1.958   6.123
  453SOL    HW2 2259   3.420   2.086   6.032
  454SOL     OW 2260   0.571   6.303   0.075
  454SOL    HW1 2261   0.651   6.353   0.106
  454SOL    HW2 2262   0.490   6.336   0.123
  455SOL     OW 2263   5.236   1.141   4.873
  455SOL    HW1 2264   5.266   1.066   4.814
  455SOL    HW2 2265   5.148   1.118   4.914
  456SOL     OW 2266   4.161   4.986   0.030
  456SOL    HW1 2267   4.154   4.937   0.117
  456SOL    HW2 2268   4.078   5.039   0.015
  457SOL     OW 2269   0.881   4.671   1.586
  457SOL    HW1 2270   0.923   4.717   1.664
  457SOL    HW2 2271   0.952   4.648   1.519
  458SOL     OW 2272   0.605   5.848   5.511
  458SOL    HW1 2273   0.632   5.920   5.447
  458SOL    HW2 2274   0.686   5.801   5.545
  459SOL     OW 2275   1.815   0.839   3.243
  459SOL    HW1 2276   1.774   0.929   3.254
  459SOL    HW2 2277   1.769   0.774   3.304
  460SOL     OW 2278   6.639   2.142   4.031
  460SOL    HW1 2279   6.662   2.239   4.040
  460SOL    HW2 2280   6.619   2.104   4.121
  461SOL     OW 2281   5.672   5.342   5.181
  461SOL    HW1 2282   5.604   5.409   5.150
  461SOL    HW2 2283   5.762   5.365   5.143
  462SOL     OW 2284   2.615   1.907   0.166
  462SOL    HW1 2285   2.571   1.866   0.086
  462SOL    HW2 2286   2.696   1.957   0.137
  463SOL     OW 2287   6.641   5.693   2.327
  463SOL    HW1 2288   6.652   5.702   2.228
  463SOL    HW2 2289   6.731   5.687   2.370
  464SOL     OW 2290   2.023   1.445   5.817
  464SOL    HW1 2291   2.035   1.384   5.896
  464SOL    HW2 2292   2.073   1.409   5.739
  465SOL     OW 2293   0.399   3.400   5.703
  465SOL    HW1 2294   0.461   3.365   5.633
  465SOL    HW2 2295   0.305   3.395   5.671
  466SOL     OW 2296   2.547   1.088   3.325
  466SOL    HW1 2297   2.599   1.024   3.381
  466SOL    HW2 2298   2.547   1.056   3.230
  467SOL     OW 2299   2.131   1.928   5.271
  467SOL    HW1 2300   2.102   1.843   5.227
  467SOL    HW2 2301   2.135   1.914   5.370
  468SOL     OW 2302   3.211   3.607   2.579
  468SOL    HW1 2303   3.290   3.666   2.565
  468SOL    HW2 2304   3.128   3.653   2.548
  469SOL     OW 2305   3.381   6.189   0.326
  469SOL    HW1 2306   3.412   6.121   0.260
  469SOL    HW2 2307   3.306   6.151   0.380
  470SOL     OW 2308   4.324   6.993   3.009
  470SOL    HW1 2309   4.361   6.981   3.101
  470SOL    HW2 2310   4.387   0.020   2.956
  471SOL     OW 2311   3.012   1.801   4.415
  471SOL    HW1 2312   3.057   1.873   4.362
  471SOL    HW2 2313   2.938   1.760   4.360
  472SOL     OW 2314   4.059   4.422   5.312
  472SOL    HW1 2315   3.988   4.353   5.302
  472SOL    HW2 2316   4.134   4.403   5.249
  473SOL     OW 2317   0.849   4.247   4.098
  473SOL    HW1 2318   0.899   4.219   4.180
  473SOL    HW2 2319   0.915   4.273   4.027
  474SOL     OW 2320   5.154   4.591   5.154
  474SOL    HW1 2321   5.216   4.603   5.232
  474SOL    HW2 2322   5.150   4.494   5.129
  475SOL     OW 2323   1.910   6.574   6.415
  475SOL    HW1 2324   1.905   6.507   6.342
  475SOL    HW2 2325   1.819   6.587   6.456
  476SOL     OW 2326   0.503   5.705   2.273
  476SOL    HW1 2327   0.491   5.703   2.174
  476SOL    HW2 2328   0.592   5.745   2.295
  477SOL     OW 2329   1.793   5.180   3.714
  477SOL    HW1 2330   1.854   5.247   3.672
  477SOL    HW2 2331   1.705   5.223   3.736
  478SOL     OW 2332   1.661   5.416   3.144
  478SOL    HW1 2333   1.654   5.358   3.224
  478SOL    HW2 2334   1.629   5.508   3.166
  479SOL     OW 2335   3.495   1.604   1.109
  479SOL    HW1 2336   3.550   1.603   1.193
  479SOL    HW2 2337   3.447   1.691   1.102
  480SOL     OW 2338   1.494   6.376   3.353
  480SOL    HW1 2339   1.534   6.464   3.378
  480SOL    HW2 2340   1.486   6.369   3.254
  481SOL     OW 2341   2.670   6.875   1.303
  481SOL    HW1 2342   2.584   6.855   1.257
  481SOL    HW2 2343   2.686   6.808   1.375
  482SOL     OW 2344   5.552   5.258   1.103
  482SOL    HW1 2345   5.539   5.222   1.010
  482SOL    HW2 2346   5.466   5.250   1.154
  483SOL     OW 2347   6.170   1.554   2.000
  483SOL    HW1 2348   6.079   1.514   1.996
  483SOL    HW2 2349   6.198   1.583   1.909
  484SOL     OW 2350   6.777   2.278   4.799
  484SOL    HW1 2351   6.701   2.216   4.815
  484SOL    HW2 2352   6.747   2.354   4.741
  485SOL     OW 2353   3.423   5.898   1.735
  485SOL    HW1 2354   3.337   5.912   1.783
  485SOL    HW2 2355   3.424   5.952   1.650
  486SOL     OW 2356   0.220   0.946   5.863
  486SOL    HW1 2357   0.220   0.954   5.763
  486SOL    HW2 2358   0.153   0.877   5.891
  487SOL     OW 2359   6.245   2.826   6.351
  487SOL    HW1 2360   6.191   2.742   6.353
  487SOL    HW2 2361   6.331   2.812   6.400
  488SOL     OW 2362   1.002   4.162   2.225
  488SOL    HW1 2363   1.013   4.239   2.161
  488SOL    HW2 2364   1.030   4.191   2.316
  489SOL     OW 2365   3.220   6.027   6.616
  489SOL    HW1 2366   3.142   5.968   6.633
  489SOL    HW2 2367   3.295   5.974   6.576
  490SOL     OW 2368   5.303   6.840   3.870
  490SOL    HW1 2369   5.218   6.888   3.893
  490SOL    HW2 2370   5.371   6.856   3.941
  491SOL     OW 2371   6.897   2.509   3.552
  491SOL    HW1 2372   6.879   2.468   3.462
  491SOL    HW2 2373   6.845   2.459   3.621
  492SOL     OW 2374   1.777   1.141   4.679
  492SOL    HW1 2375   1.768   1.241   4.677
  492SOL    HW2 2376   1.855   1.115   4.736
  493SOL     OW 2377   6.011   4.139   4.686
  493SOL    HW1 2378   6.052   4.054   4.655
  493SOL    HW2 2379   5.916   4.143   4.658
  494SOL     OW 2380   6.244   1.591   6.689
  494SOL    HW1 2381   6.298   1.668   6.656
  494SOL    HW2 2382   6.268   1.509   6.637
  495SOL     OW 2383   4.663   4.140   0.692
  495SOL    HW1 2384   4.752   4.109   0.725
  495SOL    HW2 2385   4.657   4.127   0.593
  496SOL     OW 2386   5.883   2.888   2.543
  496SOL    HW1 2387   5.829   2.937   2.474
  496SOL    HW2 2388   5.965   2.850   2.500
  497SOL     OW 2389   3.941   6.777   4.311
  497SOL    HW1 2390   3.894   6.818   4.389
  497SOL    HW2 2391   3.967   6.848   4.246
  498SOL     OW 2392   1.475   2.884   2.140
  498SOL    HW1 2393   1.462   2.786   2.154
  498SOL    HW2 2394   1.403   2.934   2.188
  499SOL     OW 2395   3.033   0.745   5.270
  499SOL    HW1 2396   3.119   0.711   5.231
  499SOL    HW2 2397   3.036   0.736   5.369
  500SOL     OW 2398   1.616   4.749   2.174
  500SOL    HW1 2399   1.600   4.731   2.077
  500SOL    HW2 2400   1.715   4.754   2.191
  501SOL     OW 2401   1.310   4.757   6.985
  501SOL    HW1 2402   1.257   4.812   6.920
  501SOL    HW2 2403   1.341   4.815   0.030
  502SOL     OW 2404   3.404   5.080   6.377
  502SOL    HW1 2405   3.340   5.069   6.301
  502SOL    HW2 2406   3.358   5.124   6.454
  503SOL     OW 2407   5.702   5.715   4.976
  503SOL    HW1 2408   5.711   5.772   4.895
  503SOL    HW2 2409   5.755   5.755   5.051
  504SOL     OW 2410   1.997   5.885   4.913
  504SOL    HW1 2411   1.910   5.866   4.867
  504SOL    HW2 2412   2.066   5.820   4.882
  505SOL     OW 2413   3.809   6.640   5.167
  505SOL    HW1 2414   3.712   6.661   5.175
  505SOL    HW2 2415   3.861   6.701   5.226
  506SOL     OW 2416   1.976   3.353   0.320
  506SOL    HW1 2417   2.041   3.382   0.390
  506SOL    HW2 2418   1.911   3.289   0.360
  507SOL     OW 2419   3.858   1.979   4.100
  507SOL    HW1 2420   3.940   1.922   4.092
  507SOL    HW2 2421   3.879   2.061   4.152
  508SOL     OW 2422   5.847   4.530   3.945
  508SOL    HW1 2423   5.753   4.498   3.962
  508SOL    HW2 2424   5.857   4.622   3.982
  509SOL     OW 2425   4.473   2.886   0.994
  509SOL    HW1 2426   4.560   2.909   0.950
  509SOL    HW2 2427   4.480   2.796   1.037
  510SOL     OW 2428   0.813   3.976   4.950
  510SOL    HW1 2429   0.799   4.002   5.046
  510SOL    HW2 2430   0.890   3.913   4.944
  511SOL     OW 2431   0.258   6.481   1.222
  511SOL    HW1 2432   0.295   6.476   1.315
  511SOL    HW2 2433   0.158   6.478   1.226
  512SOL     OW 2434   1.083   3.956   6.299
  512SOL    HW1 2435   1.057   3.919   6.210
  512SOL    HW2 2436   1.182   3.949   6.311
  513SOL     OW 2437   1.184   5.220   4.874
  513SOL    HW1 2438   1.260   5.155   4.882
  513SOL    HW2 2439   1.161   5.256   4.965
  514SOL     OW 2440   6.245   1.653   3.373
  514SOL    HW1 2441   6.251   1.553   3.369
  514SOL    HW2 2442   6.337   1.691   3.380
  515SOL     OW 2443   2.391   5.552   0.230
  515SOL    HW1 2444   2.394   5.509   0.140
  515SOL    HW2 2445   2.298   5.585   0.248
  516SOL     OW 2446   1.523   5.084   3.174
  516SOL    HW1 2447   1.485   4.999   3.209
  516SOL    HW2 2448   1.492   5.098   3.080
  517SOL     OW 2449   4.863   0.740   6.324
  517SOL    HW1 2450   4.880   0.822   6.378
  517SOL    HW2 2451   4.939   0.676   6.335
  518SOL     OW 2452   2.352   1.901   0.828
  518SOL    HW1 2453   2.378   1.997   0.816
  518SOL    HW2 2454   2.269   1.883   0.776
  519SOL     OW 2455   1.076   6.967   6.968
  519SOL    HW1 2456   1.009   6.960   0.013
  519SOL    HW2 2457   1.128   6.882   6.962
  520SOL     OW 2458   5.766   4.192   4.565
  520SOL    HW1 2459   5.707   4.265   4.600
  520SOL    HW2 2460   5.814   4.223   4.484
  521SOL     OW 2461   6.147   0.480   0.752
  521SOL    HW1 2462   6.131   0.519   0.843
  521SOL    HW2 2463   6.144   0.553   0.683
  522SOL     OW 2464   3.482   3.720   5.735
  522SOL    HW1 2465   3.492   3.623   5.713
  522SOL    HW2 2466   3.400   3.733   5.791
  523SOL     OW 2467   6.577   6.836   4.213
  523SOL    HW1 2468   6.536   6.918   4.252
  523SOL    HW2 2469   6.640   6.861   4.140
  524SOL     OW 2470   4.153   1.002   5.542
  524SOL    HW1 2471   4.185   1.073   5.479
  524SOL    HW2 2472   4.178   1.027   5.636
  525SOL     OW 2473   2.439   2.433   6.819
  525SOL    HW1 2474   2.497   2.455   6.897
  525SOL    HW2 2475   2.418   2.335   6.819
  526SOL     OW 2476   4.506   5.173   4.428
  526SOL    HW1 2477   4.570   5.161   4.504
  526SOL    HW2 2478   4.545   5.238   4.362
  527SOL     OW 2479   0.413   2.170   0.107
  527SOL    HW1 2480   0.506   2.137   0.091
  527SOL    HW2 2481   0.408   2.267   0.083
  528SOL     OW 2482   2.053   1.607   5.584
  528SOL    HW1 2483   1.990   1.585   5.510
  528SOL    HW2 2484   2.008   1.594   5.672
  529SOL     OW 2485   6.565   4.656   4.112
  529SOL    HW1 2486   6.558   4.633   4.209
  529SOL    HW2 2487   6.476   4.647   4.068
  530SOL     OW 2488   0.423   2.685   5.281
  530SOL    HW1 2489   0.347   2.623   5.298
  530SOL    HW2 2490   0.433   2.698   5.182
  531SOL     OW 2491   0.065   0.943   0.055
  531SOL    HW1 2492   6.996   0.929   0.045
  531SOL    HW2 2493   0.088   0.955   0.151
  532SOL     OW 2494   2.068   0.616   5.852
  532SOL    HW1 2495   2.056   0.517   5.866
  532SOL    HW2 2496   2.059   0.637   5.755
  533SOL     OW 2497   4.991   0.315   4.550
  533SOL    HW1 2498   4.998   0.327   4.451
  533SOL    HW2 2499   4.975   0.404   4.592
  534SOL     OW 2500   3.123   5.079   2.924
  534SOL    HW1 2501   3.064   5.000   2.941
  534SOL    HW2 2502   3.074   5.145   2.866
  535SOL     OW 2503   6.359   4.082   2.531
  535SOL    HW1 2504   6.382   3.985   2.531
  535SOL    HW2 2505   6.429   4.133   2.582
  536SOL     OW 2506   0.823   6.704   0.623
  536SOL    HW1 2507   0.804   6.764   0.701
  536SOL    HW2 2508   0.738   6.666   0.587
  537SOL     OW 2509   2.405   6.880   3.645
  537SOL    HW1 2510   2.322   6.927   3.675
  537SOL    HW2 2511   2.397   6.782   3.667
  538SOL     OW 2512   1.800   4.669   4.109
  538SOL    HW1 2513   1.824   4.737   4.178
  538SOL    HW2 2514   1.722   4.616   4.140
  539SOL     OW 2515   1.273   6.105   0.705
  539SOL    HW1 2516   1.326   6.160   0.641
  539SOL    HW2 2517   1.204   6.052   0.654
  540SOL     OW 2518   1.554   3.019   1.189
  540SOL    HW1 2519   1.514   3.081   1.256
  540SOL    HW2 2520   1.585   2.936   1.234
  541SOL     OW 2521   4.038   5.111   5.169
  541SOL    HW1 2522   3.989   5.184   5.122
  541SOL    HW2 2523   4.034   5.027   5.115
  542SOL     OW 2524   5.767   6.457   6.563
  542SOL    HW1 2525   5.815   6.387   6.511
  542SOL    HW2 2526   5.817   6.544   6.556
  543SOL     OW 2527   6.380   6.454   1.039
  543SOL    HW1 2528   6.338   6.508   1.112
  543SOL    HW2 2529   6.390   6.359   1.068
  544SOL     OW 2530   0.516   5.551   0.399
  544SOL    HW1 2531   0.457   5.504   0.334
  544SOL    HW2 2532   0.494   5.521   0.492
  545SOL     OW 2533   3.729   1.718   4.003
  545SOL    HW1 2534   3.784   1.801   4.012
  545SOL    HW2 2535   3.651   1.723   4.065
  546SOL     OW 2536   1.558   2.563   0.390
  546SOL    HW1 2537   1.479   2.517   0.431
  546SOL    HW2 2538   1.632   2.497   0.377
  547SOL     OW 2539   3.121   1.720   0.475
  547SOL    HW1 2540   3.062   1.801   0.468
  547SOL    HW2 2541   3.103   1.659   0.397
  548SOL     OW 2542   2.937   3.241   5.307
  548SOL    HW1 2543   2.907   3.329   5.270
  548SOL    HW2 2544   2.872   3.170   5.283
  549SOL     OW 2545   0.412   4.139   1.431
  549SOL    HW1 2546   0.453   4.171   1.345
  549SOL    HW2 2547   0.402   4.040   1.428
  550SOL     OW 2548   6.577   3.553   0.342
  550SOL    HW1 2549   6.615   3.585   0.428
  550SOL    HW2 2550   6.502   3.489   0.360
  551SOL     OW 2551   0.528   1.357   0.335
  551SOL    HW1 2552   0.562   1.446   0.304
  551SOL    HW2 2553   0.448   1.331   0.282
  552SOL     OW 2554   4.758   4.841   0.346
  552SOL    HW1 2555   4.753   4.747   0.313
  552SOL    HW2 2556   4.668   4.870   0.380
  553SOL     OW 2557   1.165   2.361   1.367
  553SOL    HW1 2558   1.138   2.323   1.279
  553SOL    HW2 2559   1.149   2.460   1.367
  554SOL     OW 2560   4.671   4.916   5.155
  554SOL    HW1 2561   4.690   4.856   5.077
  554SOL    HW2 2562   4.580   4.955   5.146
  555SOL     OW 2563   1.485   4.518   5.000
  555SOL    HW1 2564   1.500   4.492   5.095
  555SOL    HW2 2565   1.406   4.468   4.964
  556SOL     OW 2566   6.013   3.484   2.669
  556SOL    HW1 2567   5.954   3.494   2.589
  556SOL    HW2 2568   5.956   3.481   2.752
  557SOL     OW 2569   6.819   5.730   6.069
  557SOL    HW1 2570   6.911   5.766   6.055
  557SOL    HW2 2571   6.823   5.653   6.132
  558SOL     OW 2572   4.437   3.539   5.633
  558SOL    HW1 2573   4.372   3.612   5.654
  558SOL    HW2 2574   4.464   3.544   5.537
  559SOL     OW 2575   5.797   5.627   6.060
  559SOL    HW1 2576   5.829   5.561   6.127
  559SOL    HW2 2577   5.769   5.711   6.107
  560SOL     OW 2578   4.163   6.545   6.866
  560SOL    HW1 2579   4.222   6.580   6.794
  560SOL    HW2 2580   4.069   6.576   6.850
  561SOL     OW 2581   5.538   6.378   2.199
  561SOL    HW1 2582   5.526   6.383   2.100
  561SOL    HW2 2583   5.627   6.418   2.224
  562SOL     OW 2584   6.479   0.944   0.336
  562SOL    HW1 2585   6.570   0.984   0.341
  562SOL    HW2 2586   6.448   0.919   0.428
  563SOL     OW 2587   3.035   0.539   4.893
  563SOL    HW1 2588   3.135   0.526   4.896
  563SOL    HW2 2589   3.012   0.629   4.928
  564SOL     OW 2590   0.661   1.567   5.661
  564SOL    HW1 2591   0.688   1.500   5.731
  564SOL    HW2 2592   0.617   1.520   5.585
  565SOL     OW 2593   4.246   4.089   5.992
  565SOL    HW1 2594   4.180   4.016   5.974
  565SOL    HW2 2595   4.211   4.148   6.065
  566SOL     OW 2596   6.467   4.901   2.323
  566SOL    HW1 2597   6.441   4.806   2.305
  566SOL    HW2 2598   6.558   4.919   2.285
  567SOL     OW 2599   3.665   3.826   5.316
  567SOL    HW1 2600   3.615   3.775   5.246
  567SOL    HW2 2601   3.601   3.884   5.367
  568SOL     OW 2602   1.920   0.980   6.128
  568SOL    HW1 2603   1.954   0.925   6.052
  568SOL    HW2 2604   1.822   0.965   6.138
  569SOL     OW 2605   2.055   4.200   6.908
  569SOL    HW1 2606   2.064   4.272   6.839
  569SOL    HW2 2607   1.970   4.149   6.892
  570SOL     OW 2608   0.316   6.657   0.369
  570SOL    HW1 2609   0.320   6.749   0.407
  570SOL    HW2 2610   0.250   6.655   0.293
  571SOL     OW 2611   3.979   6.253   2.176
  571SOL    HW1 2612   3.932   6.164   2.175
  571SOL    HW2 2613   3.951   6.306   2.096
  572SOL     OW 2614   1.774   4.319   4.483
  572SOL    HW1 2615   1.837   4.293   4.556
  572SOL    HW2 2616   1.761   4.418   4.483
  573SOL     OW 2617   3.059   2.073   6.934
  573SOL    HW1 2618   3.136   2.042   6.989
  573SOL    HW2 2619   3.062   2.173   6.926
  574SOL     OW 2620   2.916   1.981   4.006
  574SOL    HW1 2621   2.938   2.068   3.963
  574SOL    HW2 2622   3.000   1.937   4.038
  575SOL     OW 2623   5.300   2.330   6.644
  575SOL    HW1 2624   5.346   2.270   6.710
  575SOL    HW2 2625   5.352   2.415   6.635
  576SOL     OW 2626   1.034   2.907   2.374
  576SOL    HW1 2627   1.133   2.908   2.358
  576SOL    HW2 2628   1.014   2.950   2.462
  577SOL     OW 2629   3.963   1.908   4.464
  577SOL    HW1 2630   3.898   1.837   4.492
  577SOL    HW2 2631   3.924   1.998   4.480
  578SOL     OW 2632   0.215   3.611   4.177
  578SOL    HW1 2633   0.214   3.650   4.269
  578SOL    HW2 2634   0.126   3.626   4.133
  579SOL     OW 2635   3.944   3.709   0.268
  579SOL    HW1 2636   3.959   3.611   0.280
  579SOL    HW2 2637   3.854   3.734   0.304
  580SOL     OW 2638   0.468   6.998   0.153
  580SOL    HW1 2639   0.433   6.912   0.116
  580SOL    HW2 2640   0.541   6.978   0.218
  581SOL     OW 2641   4.072   3.505   2.540
  581SOL    HW1 2642   4.098   3.423   2.488
  581SOL    HW2 2643   4.058   3.581   2.476
  582SOL     OW 2644   6.445   4.127   0.755
  582SOL    HW1 2645   6.413   4.126   0.850
  582SOL    HW2 2646   6.532   4.077   0.749
  583SOL     OW 2647   2.463   6.688   6.728
  583SOL    HW1 2648   2.475   6.620   6.656
  583SOL    HW2 2649   2.460   6.643   6.817
  584SOL     OW 2650   1.019   4.946   5.103
  584SOL    HW1 2651   0.984   4.934   5.196
  584SOL    HW2 2652   0.942   4.963   5.041
  585SOL     OW 2653   5.535   0.692   5.656
  585SOL    HW1 2654   5.588   0.732   5.581
  585SOL    HW2 2655   5.441   0.677   5.626
  586SOL     OW 2656   2.764   6.314   1.516
  586SOL    HW1 2657   2.770   6.291   1.614
  586SOL    HW2 2658   2.845   6.367   1.490
  587SOL     OW 2659   1.631   3.208   6.117
  587SOL    HW1 2660   1.634   3.308   6.122
  587SOL    HW2 2661   1.600   3.171   6.204
  588SOL     OW 2662   2.128   0.121   1.692
  588SOL    HW1 2663   2.126   0.126   1.592
  588SOL    HW2 2664   2.220   0.144   1.725
  589SOL     OW 2665   4.551   5.142   1.642
  589SOL    HW1 2666   4.533   5.191   1.556
  589SOL    HW2 2667   4.478   5.163   1.707
  590SOL     OW 2668   6.396   3.406   1.736
  590SOL    HW1 2669   6.443   3.352   1.665
  590SOL    HW2 2670   6.381   3.350   1.817
  591SOL     OW 2671   2.585   6.993   3.033
  591SOL    HW1 2672   2.674   7.006   2.989
  591SOL    HW2 2673   2.538   6.915   2.990
  592SOL     OW 2674   4.932   0.128   5.518
  592SOL    HW1 2675   4.927   0.195   5.591
  592SOL    HW2 2676   4.987   0.050   5.548
  593SOL     OW 2677   6.974   1.276   4.593
  593SOL    HW1 2678   7.013   1.244   4.680
  593SOL    HW2 2679   7.020   1.360   4.565
  594SOL     OW 2680   5.693   2.163   1.305
  594SOL    HW1 2681   5.685   2.067   1.281
  594SOL    HW2 2682   5.638   2.182   1.386
  595SOL     OW 2683   3.936   6.855   3.593
  595SOL    HW1 2684   3.957   6.761   3.567
  595SOL    HW2 2685   4.000   6.917   3.548
  596SOL     OW 2686   0.591   4.345   1.117
  596SOL    HW1 2687   0.643   4.423   1.082
  596SOL    HW2 2688   0.651   4.265   1.122
  597SOL     OW 2689   4.214   2.382   6.024
  597SOL    HW1 2690   4.157   2.462   6.042
  597SOL    HW2 2691   4.174   2.328   5.949
  598SOL     OW 2692   2.989   4.067   1.393
  598SOL    HW1 2693   2.953   3.974   1.392
  598SOL    HW2 2694   3.079   4.068   1.437
  599SOL     OW 2695   6.665   5.857   3.677
  599SOL    HW1 2696   6.581   5.894   3.639
  599SOL    HW2 2697   6.645   5.773   3.727
  600SOL     OW 2698   2.828   1.402   1.500
  600SOL    HW1 2699   2.829   1.500   1.484
  600SOL    HW2 2700   2.771   1.381   1.579
  601SOL     OW 2701   1.827   5.116   3.118
  601SOL    HW1 2702   1.732   5.145   3.110
  601SOL    HW2 2703   1.857   5.076   3.032
  602SOL     OW 2704   7.014   0.167   2.279
  602SOL    HW1 2705   0.024   0.203   2.364
  602SOL    HW2 2706   0.058   0.131   2.222
  603SOL     OW 2707   4.306   1.676   3.263
  603SOL    HW1 2708   4.234   1.608   3.248
  603SOL    HW2 2709   4.330   1.678   3.360
  604SOL     OW 2710   1.094   3.601   5.408
  604SOL    HW1 2711   1.137   3.552   5.331
  604SOL    HW2 2712   1.019   3.658   5.373
  605SOL     OW 2713   5.422   0.053   4.273
  605SOL    HW1 2714   5.461   0.089   4.357
  605SOL    HW2 2715   5.327   0.024   4.289
  606SOL     OW 2716   2.734   6.759   2.274
  606SOL    HW1 2717   2.833   6.765   2.267
  606SOL    HW2 2718   2.706   6.773   2.369
  607SOL     OW 2719   3.648   0.666   4.327
  607SOL    HW1 2720   3.684   0.754   4.361
  607SOL    HW2 2721   3.549   0.672   4.317
  608SOL     OW 2722   5.208   3.324   1.687
  608SOL    HW1 2723   5.279   3.308   1.619
  608SOL    HW2 2724   5.220   3.414   1.728
  609SOL     OW 2725   3.272   4.193   5.091
  609SOL    HW1 2726   3.197   4.233   5.039
  609SOL    HW2 2727   3.238   4.118   5.147
  610SOL     OW 2728   6.087   1.936   4.604
  610SOL    HW1 2729   6.036   1.863   4.648
  610SOL    HW2 2730   6.041   1.963   4.519
  611SOL     OW 2731   5.599   0.035   0.259
  611SOL    HW1 2732   5.641   6.974   0.255
  611SOL    HW2 2733   5.569   0.061   0.168
  612SOL     OW 2734   2.071   4.912   6.525
  612SOL    HW1 2735   2.105   4.819   6.538
  612SOL    HW2 2736   2.067   4.933   6.427
  613SOL     OW 2737   3.974   1.242   6.525
  613SOL    HW1 2738   3.918   1.318   6.559
  613SOL    HW2 2739   3.977   1.245   6.425
  614SOL     OW 2740   4.596   3.233   1.045
  614SOL    HW1 2741   4.603   3.332   1.061
  614SOL    HW2 2742   4.643   3.184   1.119
  615SOL     OW 2743   5.371   6.539   0.487
  615SOL    HW1 2744   5.287   6.497   0.522
  615SOL    HW2 2745   5.437   6.550   0.562
  616SOL     OW 2746   4.985   1.158   4.380
  616SOL    HW1 2747   4.967   1.085   4.314
  616SOL    HW2 2748   5.070   1.139   4.429
  617SOL     OW 2749   6.693   6.435   4.959
  617SOL    HW1 2750   6.783   6.473   4.982
  617SOL    HW2 2751   6.622   6.500   4.987
  618SOL     OW 2752   5.382   4.983   0.674
  618SOL    HW1 2753   5.328   5.034   0.606
  618SOL    HW2 2754   5.357   4.886   0.670
  619SOL     OW 2755   2.265   6.866   6.758
  619SOL    HW1 2756   2.348   6.811   6.748
  619SOL    HW2 2757   2.224   6.848   6.847
  620SOL     OW 2758   4.637   2.052   2.072
  620SOL    HW1 2759   4.604   2.142   2.102
  620SOL    HW2 2760   4.596   2.031   1.983
  621SOL     OW 2761   3.082   0.598   6.381
  621SOL    HW1 2762   3.032   0.551   6.454
  621SOL    HW2 2763   3.023   0.609   6.301
  622SOL     OW 2764   0.635   3.412   5.914
  622SOL    HW1 2765   0.566   3.385   5.847
  622SOL    HW2 2766   0.661   3.332   5.969
  623SOL     OW 2767   6.570   1.253   2.918
  623SOL    HW1 2768   6.502   1.230   2.987
  623SOL    HW2 2769   6.651   1.196   2.931
  624SOL     OW 2770   6.825   1.296   6.597
  624SOL    HW1 2771   6.921   1.315   6.575
  624SOL    HW2 2772   6.774   1.382   6.601
  625SOL     OW 2773   3.341   1.316   1.553
  625SOL    HW1 2774   3.247   1.324   1.519
  625SOL    HW2 2775   3.389   1.402   1.537
  626SOL     OW 2776   0.566   5.873   3.557
  626SOL    HW1 2777   0.474   5.837   3.563
  626SOL    HW2 2778   0.628   5.817   3.612
  627SOL     OW 2779   6.384   5.272   6.738
  627SOL    HW1 2780   6.463   5.291   6.680
  627SOL    HW2 2781   6.414   5.228   6.822
  628SOL     OW 2782   3.762   4.600   6.427
  628SOL    HW1 2783   3.733   4.545   6.505
  628SOL    HW2 2784   3.792   4.690   6.458
  629SOL     OW 2785   1.591   6.987   0.230
  629SOL    HW1 2786   1.609   0.051   0.261
  629SOL    HW2 2787   1.563   6.932   0.308
  630SOL     OW 2788   6.585   2.059   1.139
  630SOL    HW1 2789   6.530   2.106   1.208
  630SOL    HW2 2790   6.664   2.116   1.115
  631SOL     OW 2791   1.691   3.660   3.159
  631SOL    HW1 2792   1.714   3.627   3.067
  631SOL    HW2 2793   1.749   3.613   3.226
  632SOL     OW 2794   3.256   4.373   1.181
  632SOL    HW1 2795   3.180   4.309   1.170
  632SOL    HW2 2796   3.220   4.462   1.210
  633SOL     OW 2797   0.816   5.793   0.460
  633SOL    HW1 2798   0.814   5.841   0.548
  633SOL    HW2 2799   0.818   5.694   0.477
  634SOL     OW 2800   3.259   3.265   5.582
  634SOL    HW1 2801   3.278   3.254   5.485
  634SOL    HW2 2802   3.240   3.176   5.623
  635SOL     OW 2803   5.999   6.769   6.675
  635SOL    HW1 2804   6.002   6.787   6.773
  635SOL    HW2 2805   6.027   6.852   6.625
  636SOL     OW 2806   2.186   1.283   4.660
  636SOL    HW1 2807   2.255   1.268   4.589
  636SOL    HW2 2808   2.232   1.296   4.748
  637SOL     OW 2809   6.928   1.569   2.527
  637SOL    HW1 2810   7.028   1.568   2.521
  637SOL    HW2 2811   6.899   1.544   2.619
  638SOL     OW 2812   6.882   3.560   5.157
  638SOL    HW1 2813   6.933   3.643   5.180
  638SOL    HW2 2814   6.944   3.481   5.163
  639SOL     OW 2815   6.094   3.088   2.104
  639SOL    HW1 2816   6.015   3.027   2.112
  639SOL    HW2 2817   6.104   3.141   2.188
  640SOL     OW 2818   6.971   3.595   2.995
  640SOL    HW1 2819   6.895   3.554   3.046
  640SOL    HW2 2820   6.945   3.608   2.900
  641SOL     OW 2821   2.265   5.540   4.365
  641SOL    HW1 2822   2.229   5.484   4.440
  641SOL    HW2 2823   2.191   5.560   4.301
  642SOL     OW 2824   0.620   5.444   5.003
  642SOL    HW1 2825   0.648   5.445   5.099
  642SOL    HW2 2826   0.701   5.444   4.944
  643SOL     OW 2827   4.259   5.299   0.591
  643SOL    HW1 2828   4.245   5.358   0.671
  643SOL    HW2 2829   4.354   5.307   0.560
  644SOL     OW 2830   5.955   0.214   4.488
  644SOL    HW1 2831   5.935   0.141   4.554
  644SOL    HW2 2832   6.038   0.191   4.437
  645SOL     OW 2833   4.152   6.409   1.732
  645SOL    HW1 2834   4.069   6.394   1.679
  645SOL    HW2 2835   4.140   6.372   1.823
  646SOL     OW 2836   3.500   1.840   5.302
  646SOL    HW1 2837   3.479   1.799   5.213
  646SOL    HW2 2838   3.458   1.785   5.375
  647SOL     OW 2839   2.915   1.925   0.491
  647SOL    HW1 2840   2.827   1.896   0.453
  647SOL    HW2 2841   2.908   1.928   0.591
  648SOL     OW 2842   5.648   1.798   4.035
  648SOL    HW1 2843   5.564   1.746   4.026
  648SOL    HW2 2844   5.652   1.840   4.126
  649SOL     OW 2845   2.861   5.760   0.434
  649SOL    HW1 2846   2.767   5.741   0.406
  649SOL    HW2 2847   2.925   5.719   0.369
  650SOL     OW 2848   2.197   3.045   1.147
  650SOL    HW1 2849   2.267   3.096   1.097
  650SOL    HW2 2850   2.168   2.966   1.094
  651SOL     OW 2851   0.445   1.483   3.321
  651SOL    HW1 2852   0.381   1.554   3.291
  651SOL    HW2 2853   0.422   1.397   3.277
  652SOL     OW 2854   3.890   6.053   0.786
  652SOL    HW1 2855   3.971   5.996   0.794
  652SOL    HW2 2856   3.863   6.086   0.877
  653SOL     OW 2857   1.605   0.241   2.615
  653SOL    HW1 2858   1.657   0.294   2.682
  653SOL    HW2 2859   1.568   0.302   2.546
  654SOL     OW 2860   1.097   6.823   6.023
  654SOL    HW1 2861   1.080   6.920   6.037
  654SOL    HW2 2862   1.013   6.778   5.993
  655SOL     OW 2863   1.050   3.854   0.763
  655SOL    HW1 2864   1.008   3.924   0.705
  655SOL    HW2 2865   1.149   3.871   0.768
  656SOL     OW 2866   2.229   0.259   0.038
  656SOL    HW1 2867   2.312   0.307   0.006
  656SOL    HW2 2868   2.247   0.161   0.041
  657SOL     OW 2869   3.768   3.589   4.178
  657SOL    HW1 2870   3.709   3.619   4.253
  657SOL    HW2 2871   3.826   3.514   4.211
  658SOL     OW 2872   1.931   0.553   4.064
  658SOL    HW1 2873   2.013   0.610   4.067
  658SOL    HW2 2874   1.874   0.582   3.987
  659SOL     OW 2875   1.837   6.060   6.738
  659SOL    HW1 2876   1.895   6.077   6.818
  659SOL    HW2 2877   1.892   6.016   6.667
  660SOL     OW 2878   5.504   3.795   2.412
  660SOL    HW1 2879   5.405   3.808   2.402
  660SOL    HW2 2880   5.544   3.874   2.457
  661SOL     OW 2881   4.813   5.411   3.955
  661SOL    HW1 2882   4.835   5.384   3.861
  661SOL    HW2 2883   4.798   5.329   4.010
  662SOL     OW 2884   6.308   3.717   7.019
  662SOL    HW1 2885   6.227   3.735   0.045
  662SOL    HW2 2886   6.282   3.666   6.938
  663SOL     OW 2887   0.825   4.724   6.141
  663SOL    HW1 2888   0.740   4.776   6.131
  663SOL    HW2 2889   0.806   4.626   6.132
  664SOL     OW 2890   1.840   0.226   5.801
  664SOL    HW1 2891   1.814   0.134   5.830
  664SOL    HW2 2892   1.781   0.255   5.725
  665SOL     OW 2893   2.481   4.542   3.179
  665SOL    HW1 2894   2.504   4.628   3.224
  665SOL    HW2 2895   2.550   4.521   3.109
  666SOL     OW 2896   3.337   0.758   6.899
  666SOL    HW1 2897   3.255   0.759   6.841
  666SOL    HW2 2898   3.399   0.686   6.868
  667SOL     OW 2899   1.307   3.052   2.292
  667SOL    HW1 2900   1.328   3.066   2.388
  667SOL    HW2 2901   1.315   3.139   2.243
  668SOL     OW 2902   5.037   0.122   0.601
  668SOL    HW1 2903   5.077   0.200   0.650
  668SOL    HW2 2904   5.110   0.058   0.576
  669SOL     OW 2905   0.352   5.538   2.828
  669SOL    HW1 2906   0.310   5.583   2.907
  669SOL    HW2 2907   0.355   5.602   2.751
  670SOL     OW 2908   3.740   4.046   2.647
  670SOL    HW1 2909   3.796   4.084   2.721
  670SOL    HW2 2910   3.768   3.952   2.628
  671SOL     OW 2911   2.128   0.052   6.477
  671SOL    HW1 2912   2.048   0.050   6.417
  671SOL    HW2 2913   2.176   6.994   6.472
  672SOL     OW 2914   1.157   2.663   3.106
  672SOL    HW1 2915   1.203   2.619   3.183
  672SOL    HW2 2916   1.086   2.724   3.140
  673SOL     OW 2917   5.236   0.406   6.691
  673SOL    HW1 2918   5.246   0.505   6.697
  673SOL    HW2 2919   5.279   0.363   6.771
  674SOL     OW 2920   0.037   2.358   4.532
  674SOL    HW1 2921   0.096   2.289   4.492
  674SOL    HW2 2922   0.027   2.341   4.630
  675SOL     OW 2923   5.874   6.263   3.915
  675SOL    HW1 2924   5.872   6.244   4.013
  675SOL    HW2 2925   5.911   6.184   3.866
  676SOL     OW 2926   2.633   5.485   4.528
  676SOL    HW1 2927   2.539   5.515   4.516
  676SOL    HW2 2928   2.641   5.388   4.506
  677SOL     OW 2929   4.314   6.564   0.059
  677SOL    HW1 2930   4.262   6.573   7.003
  677SOL    HW2 2931   4.251   6.551   0.135
  678SOL     OW 2932   2.206   1.300   6.014
  678SOL    HW1 2933   2.190   1.245   6.095
  678SOL    HW2 2934   2.260   1.248   5.948
  679SOL     OW 2935   6.317   0.386   2.302
  679SOL    HW1 2936   6.321   0.299   2.350
  679SOL    HW2 2937   6.236   0.388   2.244
  680SOL     OW 2938   5.818   4.217   4.913
  680SOL    HW1 2939   5.741   4.156   4.935
  680SOL    HW2 2940   5.850   4.196   4.821
  681SOL     OW 2941   1.253   6.436   1.987
  681SOL    HW1 2942   1.277   6.380   1.907
  681SOL    HW2 2943   1.154   6.447   1.992
  682SOL     OW 2944   0.492   0.717   6.041
  682SOL    HW1 2945   0.431   0.665   5.982
  682SOL    HW2 2946   0.449   0.732   6.130
  683SOL     OW 2947   5.290   1.544   1.717
  683SOL    HW1 2948   5.348   1.624   1.734
  683SOL    HW2 2949   5.348   1.464   1.699
  684SOL     OW 2950   6.959   5.897   6.526
  684SOL    HW1 2951   7.004   5.982   6.502
  684SOL    HW2 2952   6.936   5.897   6.623
  685SOL     OW 2953   6.573   0.752   6.121
  685SOL    HW1 2954   6.662   0.778   6.082
  685SOL    HW2 2955   6.501   0.773   6.055
  686SOL     OW 2956   5.769   5.059   2.191
  686SOL    HW1 2957   5.817   4.972   2.195
  686SOL    HW2 2958   5.777   5.097   2.098
  687SOL     OW 2959   5.629   1.917   6.362
  687SOL    HW1 2960   5.563   1.973   6.311
  687SOL    HW2 2961   5.719   1.927   6.321
  688SOL     OW 2962   6.229   3.149   5.432
  688SOL    HW1 2963   6.309   3.177   5.379
  688SOL    HW2 2964   6.197   3.226   5.488
  689SOL     OW 2965   5.183   4.302   4.299
  689SOL    HW1 2966   5.282   4.312   4.286
  689SOL    HW2 2967   5.149   4.228   4.241
  690SOL     OW 2968   0.210   3.294   4.605
  690SOL    HW1 2969   0.246   3.255   4.520
  690SOL    HW2 2970   0.210   3.224   4.677
  691SOL     OW 2971   0.064   3.005   6.812
  691SOL    HW1 2972   0.126   2.926   6.809
  691SOL    HW2 2973   0.068   3.053   6.724
  692SOL     OW 2974   2.770   0.241   3.470
  692SOL    HW1 2975   2.826   0.321   3.449
  692SOL    HW2 2976   2.768   0.227   3.569
  693SOL     OW 2977   6.500   1.745   3.436
  693SOL    HW1 2978   6.526   1.797   3.517
  693SOL    HW2 2979   6.523   1.649   3.449
  694SOL     OW 2980   1.688   0.446   2.323
  694SOL    HW1 2981   1.598   0.444   2.367
  694SOL    HW2 2982   1.687   0.509   2.246
  695SOL     OW 2983   4.550   5.524   6.774
  695SOL    HW1 2984   4.639   5.547   6.813
  695SOL    HW2 2985   4.496   5.608   6.763
  696SOL     OW 2986   5.401   6.001   2.190
  696SOL    HW1 2987   5.399   5.943   2.272
  696SOL    HW2 2988   5.495   6.021   2.166
  697SOL     OW 2989   1.276   3.861   3.652
  697SOL    HW1 2990   1.283   3.958   3.628
  697SOL    HW2 2991   1.239   3.811   3.575
  698SOL     OW 2992   4.805   5.881   3.637
  698SOL    HW1 2993   4.857   5.833   3.565
  698SOL    HW2 2994   4.865   5.946   3.683
  699SOL     OW 2995   0.967   4.661   6.366
  699SOL    HW1 2996   0.945   4.716   6.285
  699SOL    HW2 2997   0.903   4.684   6.439
  700SOL     OW 2998   1.719   1.779   5.065
  700SOL    HW1 2999   1.797   1.831   5.031
  700SOL    HW2 3000   1.691   1.814   5.154
  701SOL     OW 3001   1.113   4.745   4.933
  701SOL    HW1 3002   1.186   4.774   4.872
  701SOL    HW2 3003   1.086   4.821   4.992
  702SOL     OW 3004   6.139   6.143   5.215
  702SOL    HW1 3005   6.135   6.240   5.192
  702SOL    HW2 3006   6.075   6.123   5.289
  703SOL     OW 3007   5.290   4.382   6.237
  703SOL    HW1 3008   5.275   4.445   6.160
  703SOL    HW2 3009   5.246   4.294   6.217
  704SOL     OW 3010   2.256   6.823   1.781
  704SOL    HW1 3011   2.298   6.823   1.690
  704SOL    HW2 3012   2.176   6.764   1.780
  705SOL     OW 3013   0.884   1.991   3.936
  705SOL    HW1 3014   0.935   1.961   4.017
  705SOL    HW2 3015   0.947   1.998   3.858
  706SOL     OW 3016   5.237   3.595   4.536
  706SOL    HW1 3017   5.261   3.672   4.477
  706SOL    HW2 3018   5.321   3.552   4.570
  707SOL     OW 3019   5.168   2.702   3.072
  707SOL    HW1 3020   5.138   2.774   3.008
  707SOL    HW2 3021   5.156   2.735   3.166
  708SOL     OW 3022   4.431   1.290   2.181
  708SOL    HW1 3023   4.422   1.204   2.133
  708SOL    HW2 3024   4.340   1.323   2.208
  709SOL     OW 3025   1.083   5.116   6.809
  709SOL    HW1 3026   1.099   5.018   6.803
  709SOL    HW2 3027   1.142   5.155   6.880
  710SOL     OW 3028   3.022   3.904   2.752
  710SOL    HW1 3029   3.016   3.928   2.848
  710SOL    HW2 3030   3.098   3.953   2.709
  711SOL     OW 3031   0.263   0.912   4.952
  711SOL    HW1 3032   0.240   0.985   4.887
  711SOL    HW2 3033   0.356   0.880   4.934
  712SOL     OW 3034   0.220   3.844   3.260
  712SOL    HW1 3035   0.143   3.907   3.254
  712SOL    HW2 3036   0.199   3.761   3.209
  713SOL     OW 3037   3.239   3.658   4.927
  713SOL    HW1 3038   3.180   3.650   4.847
  713SOL    HW2 3039   3.334   3.643   4.899
  714SOL     OW 3040   4.873   4.821   5.323
  714SOL    HW1 3041   4.894   4.728   5.352
  714SOL    HW2 3042   4.805   4.819   5.250
  715SOL     OW 3043   6.033   6.983   6.503
  715SOL    HW1 3044   5.952   7.022   6.460
  715SOL    HW2 3045   6.082   6.925   6.438
  716SOL     OW 3046   6.070   5.524   0.672
  716SOL    HW1 3047   6.014   5.519   0.590
  716SOL    HW2 3048   6.161   5.560   0.649
  717SOL     OW 3049   6.306   3.225   5.933
  717SOL    HW1 3050   6.283   3.315   5.970
  717SOL    HW2 3051   6.406   3.216   5.928
  718SOL     OW 3052   3.074   2.655   0.018
  718SOL    HW1 3053   3.039   2.685   0.106
  718SOL    HW2 3054   3.086   2.734   6.988
  719SOL     OW 3055   5.686   4.531   0.023
  719SOL    HW1 3056   5.623   4.608   0.023
  719SOL    HW2 3057   5.780   4.564   0.032
  720SOL     OW 3058   3.839   1.267   5.519
  720SOL    HW1 3059   3.838   1.176   5.561
  720SOL    HW2 3060   3.884   1.262   5.429
  721SOL     OW 3061   1.309   7.011   5.602
  721SOL    HW1 3062   1.331   6.970   5.690
  721SOL    HW2 3063   1.392   0.021   5.563
  722SOL     OW 3064   4.810   7.004   5.165
  722SOL    HW1 3065   4.777   0.041   5.232
  722SOL    HW2 3066   4.734   6.977   5.106
  723SOL     OW 3067   1.457   3.372   1.865
  723SOL    HW1 3068   1.506   3.342   1.784
  723SOL    HW2 3069   1.367   3.328   1.868
  724SOL     OW 3070   0.327   1.620   5.204
  724SOL    HW1 3071   0.234   1.607   5.238
  724SOL    HW2 3072   0.348   1.717   5.199
  725SOL     OW 3073   2.522   5.330   2.589
  725SOL    HW1 3074   2.464   5.407   2.613
  725SOL    HW2 3075   2.476   5.273   2.521
  726SOL     OW 3076   5.387   6.159   5.442
  726SOL    HW1 3077   5.409   6.096   5.367
  726SOL    HW2 3078   5.461   6.158   5.509
  727SOL     OW 3079   2.293   4.415   4.366
  727SOL    HW1 3080   2.199   4.417   4.332
  727SOL    HW2 3081   2.294   4.421   4.465
  728SOL     OW 3082   6.596   2.785   5.819
  728SOL    HW1 3083   6.555   2.733   5.744
  728SOL    HW2 3084   6.631   2.871   5.784
  729SOL     OW 3085   4.446   1.575   0.735
  729SOL    HW1 3086   4.543   1.569   0.712
  729SOL    HW2 3087   4.401   1.490   0.708
  730SOL     OW 3088   5.824   1.473   4.580
  730SOL    HW1 3089   5.905   1.418   4.559
  730SOL    HW2 3090   5.824   1.556   4.524
  731SOL     OW 3091   6.945   2.323   4.147
  731SOL    HW1 3092   6.861   2.362   4.110
  731SOL    HW2 3093   7.005   2.395   4.180
  732SOL     OW 3094   0.525   3.582   3.529
  732SOL    HW1 3095   0.498   3.675   3.553
  732SOL    HW2 3096   0.549   3.532   3.613
  733SOL     OW 3097   4.418   5.016   4.226
  733SOL    HW1 3098   4.359   5.058   4.157
  733SOL    HW2 3099   4.424   5.077   4.305
  734SOL     OW 3100   0.845   5.648   6.823
  734SOL    HW1 3101   0.790   5.644   6.906
  734SOL    HW2 3102   0.941   5.629   6.845
  735SOL     OW 3103   2.805   4.975   6.902
  735SOL    HW1 3104   2.769   5.030   6.978
  735SOL    HW2 3105   2.803   5.029   6.818
  736SOL     OW 3106   5.716   0.920   2.678
  736SOL    HW1 3107   5.780   0.958   2.611
  736SOL    HW2 3108   5.720   0.972   2.763
  737SOL     OW 3109   5.386   4.019   0.064
  737SOL    HW1 3110   5.486   4.023   0.059
  737SOL    HW2 3111   5.349   4.001   7.003
  738SOL     OW 3112   1.002   4.204   3.159
  738SOL    HW1 3113   0.971   4.203   3.255
  738SOL    HW2 3114   0.931   4.164   3.101
  739SOL     OW 3115   4.793   6.681   6.199
  739SOL    HW1 3116   4.755   6.600   6.154
  739SOL    HW2 3117   4.867   6.719   6.144
  740SOL     OW 3118   5.193   6.946   0.328
  740SOL    HW1 3119   5.222   6.946   0.424
  740SOL    HW2 3120   5.223   6.862   0.284
  741SOL     OW 3121   2.527   0.242   3.716
  741SOL    HW1 3122   2.492   0.239   3.623
  741SOL    HW2 3123   2.584   0.324   3.728
  742SOL     OW 3124   1.257   6.673   2.710
  742SOL    HW1 3125   1.322   6.747   2.726
  742SOL    HW2 3126   1.260   6.646   2.614
  743SOL     OW 3127   1.476   3.411   3.827
  743SOL    HW1 3128   1.428   3.498   3.825
  743SOL    HW2 3129   1.409   3.336   3.827
  744SOL     OW 3130   6.577   5.189   0.663
  744SOL    HW1 3131   6.669   5.148   0.667
  744SOL    HW2 3132   6.512   5.122   0.627
  745SOL     OW 3133   1.980   5.678   2.736
  745SOL    HW1 3134   2.023   5.714   2.654
  745SOL    HW2 3135   1.884   5.706   2.738
  746SOL     OW 3136   3.371   0.235   3.189
  746SOL    HW1 3137   3.388   0.202   3.282
  746SOL    HW2 3138   3.288   0.192   3.153
  747SOL     OW 3139   6.654   3.548   1.164
  747SOL    HW1 3140   6.606   3.465   1.136
  747SOL    HW2 3141   6.706   3.584   1.086
  748SOL     OW 3142   3.662   2.893   2.749
  748SOL    HW1 3143   3.619   2.878   2.660
  748SOL    HW2 3144   3.761   2.907   2.736
  749SOL     OW 3145   5.646   2.335   5.206
  749SOL    HW1 3146   5.596   2.391   5.140
  749SOL    HW2 3147   5.711   2.393   5.256
  750SOL     OW 3148   2.985   3.237   1.582
  750SOL    HW1 3149   3.013   3.147   1.551
  750SOL    HW2 3150   2.907   3.228   1.645
  751SOL     OW 3151   5.408   1.540   0.485
  751SOL    HW1 3152   5.413   1.610   0.555
  751SOL    HW2 3153   5.330   1.559   0.424
  752SOL     OW 3154   4.593   0.902   1.872
  752SOL    HW1 3155   4.634   0.813   1.851
  752SOL    HW2 3156   4.542   0.896   1.957
  753SOL     OW 3157   4.112   1.933   2.669
  753SOL    HW1 3158   4.043   1.861   2.661
  753SOL    HW2 3159   4.101   1.998   2.594
  754SOL     OW 3160   5.669   5.731   0.327
  754SOL    HW1 3161   5.714   5.755   0.413
  754SOL    HW2 3162   5.609   5.806   0.299
  755SOL     OW 3163   6.073   5.861   2.577
  755SOL    HW1 3164   6.131   5.816   2.645
  755SOL    HW2 3165   6.002   5.798   2.547
  756SOL     OW 3166   2.788   6.582   3.696
  756SOL    HW1 3167   2.838   6.632   3.766
  756SOL    HW2 3168   2.700   6.551   3.733
  757SOL     OW 3169   6.533   1.082   3.613
  757SOL    HW1 3170   6.591   1.164   3.616
  757SOL    HW2 3171   6.437   1.109   3.608
  758SOL     OW 3172   4.584   1.986   1.022
  758SOL    HW1 3173   4.506   2.023   0.973
  758SOL    HW2 3174   4.647   1.943   0.957
  759SOL     OW 3175   2.054   0.981   1.310
  759SOL    HW1 3176   2.086   1.029   1.391
  759SOL    HW2 3177   2.042   1.045   1.235
  760SOL     OW 3178   4.760   2.044   5.753
  760SOL    HW1 3179   4.662   2.045   5.771
  760SOL    HW2 3180   4.778   1.993   5.669
  761SOL     OW 3181   5.384   1.167   6.768
  761SOL    HW1 3182   5.370   1.089   6.829
  761SOL    HW2 3183   5.358   1.142   6.675
  762SOL     OW 3184   2.146   4.768   4.488
  762SOL    HW1 3185   2.108   4.835   4.424
  762SOL    HW2 3186   2.089   4.686   4.488
  763SOL     OW 3187   6.177   5.052   6.853
  763SOL    HW1 3188   6.215   5.105   6.929
  763SOL    HW2 3189   6.214   5.086   6.767
  764SOL     OW 3190   5.832   1.352   2.994
  764SOL    HW1 3191   5.779   1.419   3.044
  764SOL    HW2 3192   5.910   1.322   3.049
  765SOL     OW 3193   0.411   6.858   3.330
  765SOL    HW1 3194   0.440   6.774   3.285
  765SOL    HW2 3195   0.327   6.840   3.382
  766SOL     OW 3196   6.419   6.474   0.274
  766SOL    HW1 3197   6.437   6.376   0.276
  766SOL    HW2 3198   6.505   6.524   0.270
  767SOL     OW 3199   6.054   6.377   1.652
  767SOL    HW1 3200   6.026   6.473   1.651
  767SOL    HW2 3201   6.120   6.363   1.726
  768SOL     OW 3202   3.245   6.556   3.873
  768SOL    HW1 3203   3.244   6.470   3.823
  768SOL    HW2 3204   3.168   6.613   3.843
  769SOL     OW 3205   3.959   1.048   0.180
  769SOL    HW1 3206   3.996   0.971   0.127
  769SOL    HW2 3207   3.931   1.015   0.270
  770SOL     OW 3208   3.049   4.896   4.500
  770SOL    HW1 3209   3.129   4.928   4.449
  770SOL    HW2 3210   2.972   4.883   4.437
  771SOL     OW 3211   0.795   6.367   4.528
  771SOL    HW1 3212   0.728   6.312   4.579
  771SOL    HW2 3213   0.886   6.352   4.565
  772SOL     OW 3214   0.229   4.225   5.869
  772SOL    HW1 3215   0.223   4.156   5.797
  772SOL    HW2 3216   0.266   4.310   5.830
  773SOL     OW 3217   0.104   2.976   2.526
  773SOL    HW1 3218   0.059   3.065   2.531
  773SOL    HW2 3219   0.199   2.984   2.556
  774SOL     OW 3220   1.650   0.770   1.634
  774SOL    HW1 3221   1.656   0.869   1.643
  774SOL    HW2 3222   1.565   0.746   1.587
  775SOL     OW 3223   1.601   2.597   4.188
  775SOL    HW1 3224   1.612   2.695   4.205
  775SOL    HW2 3225   1.517   2.582   4.136
  776SOL     OW 3226   2.070   0.545   5.024
  776SOL    HW1 3227   2.127   0.464   5.035
  776SOL    HW2 3228   2.086   0.607   5.101
  777SOL     OW 3229   4.330   6.806   6.503
  777SOL    HW1 3230   4.248   6.861   6.515
  777SOL    HW2 3231   4.349   6.755   6.587
  778SOL     OW 3232   4.492   5.440   4.817
  778SOL    HW1 3233   4.525   5.534   4.819
  778SOL    HW2 3234   4.438   5.422   4.899
  779SOL     OW 3235   0.711   0.354   2.308
  779SOL    HW1 3236   0.768   0.272   2.303
  779SOL    HW2 3237   0.758   0.430   2.264
  780SOL     OW 3238   5.427   2.651   4.802
  780SOL    HW1 3239   5.437   2.734   4.856
  780SOL    HW2 3240   5.361   2.667   4.728
  781SOL     OW 3241   0.201   2.577   6.519
  781SOL    HW1 3242   0.232   2.557   6.612
  781SOL    HW2 3243   0.107   2.545   6.507
  782SOL     OW 3244   0.040   4.922   0.617
  782SOL    HW1 3245   0.097   4.858   0.668
  782SOL    HW2 3246   7.022   4.873   0.544
  783SOL     OW 3247   1.842   4.933   0.237
  783SOL    HW1 3248   1.810   4.856   0.181
  783SOL    HW2 3249   1.923   4.974   0.195
  784SOL     OW 3250   5.077   5.029   3.482
  784SOL    HW1 3251   5.025   5.003   3.563
  784SOL    HW2 3252   5.164   4.980   3.481
  785SOL     OW 3253   6.256   2.310   4.032
  785SOL    HW1 3254   6.212   2.236   4.083
  785SOL    HW2 3255   6.191   2.386   4.021
  786SOL     OW 3256   6.089   6.628   0.552
  786SOL    HW1 3257   6.046   6.623   0.642
  786SOL    HW2 3258   6.188   6.619   0.561
  787SOL     OW 3259   4.508   1.322   6.730
  787SOL    HW1 3260   4.516   1.391   6.803
  787SOL    HW2 3261   4.587   1.261   6.733
  788SOL     OW 3262   0.787   4.398   3.309
  788SOL    HW1 3263   0.736   4.360   3.385
  788SOL    HW2 3264   0.782   4.336   3.231
  789SOL     OW 3265   5.334   3.033   0.930
  789SOL    HW1 3266   5.372   3.115   0.887
  789SOL    HW2 3267   5.392   3.008   1.008
  790SOL     OW 3268   3.283   0.497   3.801
  790SOL    HW1 3269   3.344   0.532   3.729
  790SOL    HW2 3270   3.296   0.398   3.810
  791SOL     OW 3271   4.166   1.553   5.127
  791SOL    HW1 3272   4.193   1.457   5.128
  791SOL    HW2 3273   4.236   1.608   5.172
  792SOL     OW 3274   5.468   0.550   3.293
  792SOL    HW1 3275   5.523   0.535   3.375
  792SOL    HW2 3276   5.371   0.542   3.315
  793SOL     OW 3277   6.964   0.292   6.560
  793SOL    HW1 3278   7.006   0.376   6.593
  793SOL    HW2 3279   6.866   0.307   6.544
  794SOL     OW 3280   3.474   4.622   5.357
  794SOL    HW1 3281   3.573   4.606   5.366
  794SOL    HW2 3282   3.426   4.534   5.356
  795SOL     OW 3283   4.912   5.459   0.058
  795SOL    HW1 3284   4.842   5.474   0.128
  795SOL    HW2 3285   4.874   5.479   6.997
  796SOL     OW 3286   0.511   1.177   5.567
  796SOL    HW1 3287   0.534   1.269   5.535
  796SOL    HW2 3288   0.486   1.181   5.664
  797SOL     OW 3289   5.979   2.942   5.461
  797SOL    HW1 3290   5.941   2.866   5.407
  797SOL    HW2 3291   6.066   2.971   5.422
  798SOL     OW 3292   6.728   0.959   4.950
  798SOL    HW1 3293   6.640   0.943   4.905
  798SOL    HW2 3294   6.774   1.036   4.906
  799SOL     OW 3295   6.853   3.807   3.195
  799SOL    HW1 3296   6.908   3.768   3.269
  799SOL    HW2 3297   6.881   3.767   3.108
  800SOL     OW 3298   6.991   1.408   2.253
  800SOL    HW1 3299   0.036   1.446   2.307
  800SOL    HW2 3300   6.980   1.311   2.275
  801SOL     OW 3301   0.228   2.503   3.954
  801SOL    HW1 3302   0.314   2.552   3.942
  801SOL    HW2 3303   0.226   2.424   3.893
  802SOL     OW 3304   6.564   1.601   1.847
  802SOL    HW1 3305   6.473   1.640   1.833
  802SOL    HW2 3306   6.568   1.557   1.937
  803SOL     OW 3307   1.552   0.129   4.725
  803SOL    HW1 3308   1.537   0.124   4.626
  803SOL    HW2 3309   1.641   0.090   4.748
  804SOL     OW 3310   6.302   6.768   1.031
  804SOL    HW1 3311   6.277   6.802   0.940
  804SOL    HW2 3312   6.223   6.721   1.071
  805SOL     OW 3313   1.666   3.086   5.534
  805SOL    HW1 3314   1.619   3.173   5.521
  805SOL    HW2 3315   1.672   3.066   5.632
  806SOL     OW 3316   4.430   0.366   0.356
  806SOL    HW1 3317   4.479   0.387   0.271
  806SOL    HW2 3318   4.496   0.349   0.429
  807SOL     OW 3319   1.037   6.902   3.139
  807SOL    HW1 3320   0.939   6.904   3.118
  807SOL    HW2 3321   1.052   6.942   3.229
  808SOL     OW 3322   6.012   3.873   5.173
  808SOL    HW1 3323   6.059   3.909   5.254
  808SOL    HW2 3324   6.055   3.909   5.091
  809SOL     OW 3325   0.886   5.859   6.233
  809SOL    HW1 3326   0.907   5.814   6.146
  809SOL    HW2 3327   0.971   5.890   6.275
  810SOL     OW 3328   6.414   5.620   6.502
  810SOL    HW1 3329   6.449   5.567   6.425
  810SOL    HW2 3330   6.491   5.666   6.548
  811SOL     OW 3331   3.553   5.214   3.378
  811SOL    HW1 3332   3.542   5.242   3.474
  811SOL    HW2 3333   3.465   5.183   3.343
  812SOL     OW 3334   7.004   0.403   2.694
  812SOL    HW1 3335   6.977   0.421   2.788
  812SOL    HW2 3336   6.936   0.343   2.650
  813SOL     OW 3337   5.458   5.301   1.871
  813SOL    HW1 3338   5.513   5.384   1.861
  813SOL    HW2 3339   5.395   5.294   1.794
  814SOL     OW 3340   5.013   5.707   1.246
  814SOL    HW1 3341   4.970   5.617   1.238
  814SOL    HW2 3342   4.961   5.774   1.193
  815SOL     OW 3343   1.252   1.303   0.452
  815SOL    HW1 3344   1.235   1.401   0.447
  815SOL    HW2 3345   1.168   1.256   0.478
  816SOL     OW 3346   5.472   0.758   1.721
  816SOL    HW1 3347   5.441   0.663   1.722
  816SOL    HW2 3348   5.561   0.765   1.767
  817SOL     OW 3349   0.848   2.000   2.079
  817SOL    HW1 3350   0.804   1.925   2.130
  817SOL    HW2 3351   0.810   2.087   2.109
  818SOL     OW 3352   5.095   1.478   2.612
  818SOL    HW1 3353   5.056   1.557   2.659
  818SOL    HW2 3354   5.024   1.408   2.600
  819SOL     OW 3355   6.991   5.406   2.263
  819SOL    HW1 3356   0.054   5.388   2.297
  819SOL    HW2 3357   6.925   5.394   2.336
  820SOL     OW 3358   1.760   2.917   4.920
  820SOL    HW1 3359   1.854   2.921   4.956
  820SOL    HW2 3360   1.757   2.852   4.844
  821SOL     OW 3361   1.217   4.216   0.713
  821SOL    HW1 3362   1.316   4.201   0.704
  821SOL    HW2 3363   1.185   4.178   0.799
  822SOL     OW 3364   1.222   3.149   4.580
  822SOL    HW1 3365   1.196   3.245   4.573
  822SOL    HW2 3366   1.149   3.097   4.624
  823SOL     OW 3367   3.649   3.898   1.699
  823SOL    HW1 3368   3.676   3.980   1.748
  823SOL    HW2 3369   3.726   3.862   1.647
  824SOL     OW 3370   6.321   2.539   6.244
  824SOL    HW1 3371   6.226   2.554   6.220
  824SOL    HW2 3372   6.379   2.609   6.201
  825SOL     OW 3373   0.913   3.748   1.505
  825SOL    HW1 3374   0.820   3.743   1.542
  825SOL    HW2 3375   0.971   3.682   1.552
  826SOL     OW 3376   1.495   3.614   5.908
  826SOL    HW1 3377   1.539   3.704   5.911
  826SOL    HW2 3378   1.497   3.572   5.999
  827SOL     OW 3379   3.450   4.741   0.989
  827SOL    HW1 3380   3.376   4.677   0.972
  827SOL    HW2 3381   3.423   4.833   0.961
  828SOL     OW 3382   6.181   0.437   5.968
  828SOL    HW1 3383   6.277   0.417   5.948
  828SOL    HW2 3384   6.171   0.457   6.066
  829SOL     OW 3385   3.306   3.776   5.491
  829SOL    HW1 3386   3.324   3.714   5.568
  829SOL    HW2 3387   3.376   3.847   5.489
  830SOL     OW 3388   4.399   3.509   6.015
  830SOL    HW1 3389   4.419   3.606   6.001
  830SOL    HW2 3390   4.324   3.482   5.955
  831SOL     OW 3391   6.001   0.433   4.652
  831SOL    HW1 3392   5.996   0.355   4.590
  831SOL    HW2 3393   5.963   0.408   4.740
  832SOL     OW 3394   2.527   1.686   5.885
  832SOL    HW1 3395   2.525   1.762   5.950
  832SOL    HW2 3396   2.434   1.664   5.857
  833SOL     OW 3397   1.333   0.697   5.644
  833SOL    HW1 3398   1.402   0.641   5.691
  833SOL    HW2 3399   1.268   0.638   5.597
  834SOL     OW 3400   3.319   4.717   5.814
  834SOL    HW1 3401   3.281   4.783   5.878
  834SOL    HW2 3402   3.255   4.640   5.803
  835SOL     OW 3403   4.256   1.291   2.757
  835SOL    HW1 3404   4.190   1.355   2.717
  835SOL    HW2 3405   4.279   1.320   2.849
  836SOL     OW 3406   2.732   0.934   6.437
  836SOL    HW1 3407   2.716   0.995   6.516
  836SOL    HW2 3408   2.658   0.868   6.432
  837SOL     OW 3409   4.042   1.510   4.858
  837SOL    HW1 3410   4.065   1.515   4.955
  837SOL    HW2 3411   4.111   1.558   4.804
  838SOL     OW 3412   1.538   6.268   2.434
  838SOL    HW1 3413   1.451   6.314   2.453
  838SOL    HW2 3414   1.595   6.271   2.516
  839SOL     OW 3415   2.918   1.573   1.761
  839SOL    HW1 3416   2.943   1.561   1.665
  839SOL    HW2 3417   2.820   1.594   1.767
  840SOL     OW 3418   0.816   1.298   5.594
  840SOL    HW1 3419   0.897   1.296   5.536
  840SOL    HW2 3420   0.810   1.388   5.639
  841SOL     OW 3421   0.431   3.355   1.311
  841SOL    HW1 3422   0.334   3.366   1.335
  841SOL    HW2 3423   0.479   3.313   1.387
  842SOL     OW 3424   3.436   4.973   3.993
  842SOL    HW1 3425   3.428   5.069   3.966
  842SOL    HW2 3426   3.454   4.967   4.092
  843SOL     OW 3427   7.015   3.748   2.001
  843SOL    HW1 3428   7.022   3.651   2.027
  843SOL    HW2 3429   6.997   3.754   1.902
  844SOL     OW 3430   5.681   5.154   6.540
  844SOL    HW1 3431   5.746   5.078   6.548
  844SOL    HW2 3432   5.705   5.225   6.606
  845SOL     OW 3433   2.251   4.883   5.754
  845SOL    HW1 3434   2.331   4.906   5.698
  845SOL    HW2 3435   2.172   4.868   5.696
  846SOL     OW 3436   4.350   2.450   6.917
  846SOL    HW1 3437   4.412   2.381   6.955
  846SOL    HW2 3438   4.274   2.465   6.979
  847SOL     OW 3439   5.194   3.846   2.373
  847SOL    HW1 3440   5.130   3.922   2.385
  847SOL    HW2 3441   5.190   3.814   2.278
  848SOL     OW 3442   6.129   6.851   5.288
  848SOL    HW1 3443   6.170   6.921   5.346
  848SOL    HW2 3444   6.134   6.762   5.334
  849SOL     OW 3445   0.894   5.706   4.313
  849SOL    HW1 3446   0.904   5.793   4.361
  849SOL    HW2 3447   0.953   5.637   4.356
  850SOL     OW 3448   3.844   0.762   3.244
  850SOL    HW1 3449   3.834   0.663   3.255
  850SOL    HW2 3450   3.940   0.784   3.228
  851SOL     OW 3451   0.034   0.766   5.718
  851SOL    HW1 3452   7.009   0.751   5.636
  851SOL    HW2 3453   0.108   0.831   5.698
  852SOL     OW 3454   2.802   4.581   5.677
  852SOL    HW1 3455   2.852   4.668   5.682
  852SOL    HW2 3456   2.718   4.594   5.624
  853SOL     OW 3457   0.786   4.525   0.694
  853SOL    HW1 3458   0.775   4.433   0.657
  853SOL    HW2 3459   0.705   4.549   0.748
  854SOL     OW 3460   6.160   5.478   1.383
  854SOL    HW1 3461   6.147   5.476   1.284
  854SOL    HW2 3462   6.109   5.555   1.422
  855SOL     OW 3463   5.199   0.323   0.700
  855SOL    HW1 3464   5.282   0.320   0.645
  855SOL    HW2 3465   5.136   0.391   0.662
  856SOL     OW 3466   1.679   0.219   5.181
  856SOL    HW1 3467   1.585   0.219   5.148
  856SOL    HW2 3468   1.721   0.130   5.162
  857SOL     OW 3469   5.286   3.521   1.348
  857SOL    HW1 3470   5.186   3.526   1.354
  857SOL    HW2 3471   5.318   3.436   1.389
  858SOL     OW 3472   3.693   3.822   2.152
  858SOL    HW1 3473   3.708   3.786   2.244
  858SOL    HW2 3474   3.738   3.911   2.143
  859SOL     OW 3475   0.403   4.355   0.702
  859SOL    HW1 3476   0.415   4.421   0.627
  859SOL    HW2 3477   0.424   4.400   0.789
  860SOL     OW 3478   1.653   3.674   6.347
  860SOL    HW1 3479   1.569   3.689   6.398
  860SOL    HW2 3480   1.709   3.606   6.393
  861SOL     OW 3481   3.795   4.161   5.894
  861SOL    HW1 3482   3.861   4.229   5.860
  861SOL    HW2 3483   3.721   4.208   5.942
  862SOL     OW 3484   4.456   4.562   3.209
  862SOL    HW1 3485   4.438   4.583   3.305
  862SOL    HW2 3486   4.451   4.463   3.195
  863SOL     OW 3487   5.878   2.473   1.515
  863SOL    HW1 3488   5.934   2.460   1.433
  863SOL    HW2 3489   5.858   2.385   1.556
  864SOL     OW 3490   0.565   5.184   2.768
  864SOL    HW1 3491   0.560   5.261   2.704
  864SOL    HW2 3492   0.562   5.219   2.862
  865SOL     OW 3493   1.942   0.936   3.743
  865SOL    HW1 3494   1.936   0.990   3.659
  865SOL    HW2 3495   1.937   0.839   3.721
  866SOL     OW 3496   4.835   0.888   1.115
  866SOL    HW1 3497   4.830   0.881   1.214
  866SOL    HW2 3498   4.929   0.875   1.085
  867SOL     OW 3499   2.425   1.842   6.551
  867SOL    HW1 3500   2.442   1.830   6.649
  867SOL    HW2 3501   2.499   1.898   6.512
  868SOL     OW 3502   5.375   2.398   3.326
  868SOL    HW1 3503   5.350   2.302   3.344
  868SOL    HW2 3504   5.366   2.417   3.229
  869SOL     OW 3505   6.842   3.672   1.003
  869SOL    HW1 3506   6.790   3.696   0.921
  869SOL    HW2 3507   6.921   3.733   1.011
  870SOL     OW 3508   6.397   1.867   0.534
  870SOL    HW1 3509   6.339   1.787   0.522
  870SOL    HW2 3510   6.492   1.838   0.548
  871SOL     OW 3511   6.635   4.597   0.685
  871SOL    HW1 3512   6.654   4.551   0.598
  871SOL    HW2 3513   6.570   4.543   0.738
  872SOL     OW 3514   0.057   1.906   1.762
  872SOL    HW1 3515   0.052   1.980   1.696
  872SOL    HW2 3516   0.036   1.941   1.854
  873SOL     OW 3517   3.801   6.728   4.668
  873SOL    HW1 3518   3.720   6.685   4.708
  873SOL    HW2 3519   3.877   6.663   4.669
  874SOL     OW 3520   0.578   4.140   6.566
  874SOL    HW1 3521   0.589   4.211   6.497
  874SOL    HW2 3522   0.666   4.124   6.611
  875SOL     OW 3523   6.286   5.865   6.336
  875SOL    HW1 3524   6.361   5.819   6.383
  875SOL    HW2 3525   6.230   5.798   6.289
  876SOL     OW 3526   1.967   2.113   1.521
  876SOL    HW1 3527   1.957   2.073   1.612
  876SOL    HW2 3528   2.063   2.137   1.505
  877SOL     OW 3529   5.418   5.768   6.701
  877SOL    HW1 3530   5.369   5.828   6.764
  877SOL    HW2 3531   5.510   5.752   6.735
  878SOL     OW 3532   3.615   2.959   0.819
  878SOL    HW1 3533   3.660   2.940   0.731
  878SOL    HW2 3534   3.545   2.890   0.837
  879SOL     OW 3535   4.819   3.134   3.776
  879SOL    HW1 3536   4.750   3.078   3.731
  879SOL    HW2 3537   4.910   3.095   3.760
  880SOL     OW 3538   4.229   5.737   1.356
  880SOL    HW1 3539   4.285   5.754   1.275
  880SOL    HW2 3540   4.253   5.803   1.427
  881SOL     OW 3541   4.916   4.530   2.925
  881SOL    HW1 3542   5.016   4.522   2.929
  881SOL    HW2 3543   4.889   4.623   2.950
  882SOL     OW 3544   0.775   2.220   4.519
  882SOL    HW1 3545   0.844   2.163   4.473
  882SOL    HW2 3546   0.684   2.191   4.491
  883SOL     OW 3547   3.213   4.845   6.950
  883SOL    HW1 3548   3.188   4.910   6.877
  883SOL    HW2 3549   3.221   4.753   6.911
  884SOL     OW 3550   4.085   3.978   1.595
  884SOL    HW1 3551   4.048   4.068   1.575
  884SOL    HW2 3552   4.158   3.986   1.663
  885SOL     OW 3553   4.865   6.085   5.630
  885SOL    HW1 3554   4.818   6.129   5.553
  885SOL    HW2 3555   4.956   6.055   5.601
  886SOL     OW 3556   3.593   2.554   6.463
  886SOL    HW1 3557   3.678   2.580   6.509
  886SOL    HW2 3558   3.516   2.567   6.526
  887SOL     OW 3559   6.049   5.980   5.019
  887SOL    HW1 3560   6.114   6.051   5.045
  887SOL    HW2 3561   5.961   6.022   4.998
  888SOL     OW 3562   6.166   0.325   3.516
  888SOL    HW1 3563   6.164   0.349   3.418
  888SOL    HW2 3564   6.193   0.405   3.569
  889SOL     OW 3565   0.680   0.238   4.363
  889SOL    HW1 3566   0.663   0.237   4.461
  889SOL    HW2 3567   0.645   0.323   4.324
  890SOL     OW 3568   1.492   4.033   1.577
  890SOL    HW1 3569   1.553   3.954   1.582
  890SOL    HW2 3570   1.523   4.095   1.505
  891SOL     OW 3571   5.933   3.724   6.572
  891SOL    HW1 3572   5.881   3.779   6.639
  891SOL    HW2 3573   5.916   3.760   6.480
  892SOL     OW 3574   2.002   5.459   1.856
  892SOL    HW1 3575   1.943   5.415   1.924
  892SOL    HW2 3576   1.945   5.506   1.788
  893SOL     OW 3577   2.059   0.462   2.295
  893SOL    HW1 3578   2.062   0.375   2.344
  893SOL    HW2 3579   1.975   0.511   2.318
  894SOL     OW 3580   1.403   5.569   4.819
  894SOL    HW1 3581   1.309   5.536   4.811
  894SOL    HW2 3582   1.454   5.509   4.880
  895SOL     OW 3583   2.370   0.543   4.594
  895SOL    HW1 3584   2.342   0.501   4.507
  895SOL    HW2 3585   2.318   0.628   4.607
  896SOL     OW 3586   5.137   6.336   3.303
  896SOL    HW1 3587   5.168   6.407   3.366
  896SOL    HW2 3588   5.211   6.269   3.288
  897SOL     OW 3589   5.849   1.156   6.210
  897SOL    HW1 3590   5.948   1.141   6.209
  897SOL    HW2 3591   5.829   1.247   6.247
  898SOL     OW 3592   5.069   6.676   3.626
  898SOL    HW1 3593   5.096   6.622   3.706
  898SOL    HW2 3594   4.976   6.652   3.599
  899SOL     OW 3595   1.400   4.927   0.153
  899SOL    HW1 3596   1.399   4.952   0.250
  899SOL    HW2 3597   1.480   4.969   0.109
  900SOL     OW 3598   0.552   4.965   3.644
  900SOL    HW1 3599   0.530   4.983   3.740
  900SOL    HW2 3600   0.468   4.972   3.590
  901SOL     OW 3601   6.040   2.162   3.615
  901SOL    HW1 3602   6.004   2.132   3.527
  901SOL    HW2 3603   5.974   2.142   3.687
  902SOL     OW 3604   1.535   6.177   6.828
  902SOL    HW1 3605   1.450   6.124   6.831
  902SOL    HW2 3606   1.609   6.120   6.793
  903SOL     OW 3607   0.377   4.878   6.454
  903SOL    HW1 3608   0.295   4.896   6.509
  903SOL    HW2 3609   0.366   4.921   6.364
  904SOL     OW 3610   2.354   1.119   4.403
  904SOL    HW1 3611   2.394   1.194   4.455
  904SOL    HW2 3612   2.341   1.147   4.308
  905SOL     OW 3613   6.020   3.386   3.782
  905SOL    HW1 3614   6.041   3.288   3.785
  905SOL    HW2 3615   6.033   3.420   3.689
  906SOL     OW 3616   6.262   3.721   5.258
  906SOL    HW1 3617   6.275   3.752   5.164
  906SOL    HW2 3618   6.229   3.798   5.314
  907SOL     OW 3619   0.355   3.670   2.648
  907SOL    HW1 3620   0.324   3.581   2.681
  907SOL    HW2 3621   0.452   3.681   2.667
  908SOL     OW 3622   2.407   0.990   3.676
  908SOL    HW1 3623   2.314   0.981   3.642
  908SOL    HW2 3624   2.472   0.958   3.607
  909SOL     OW 3625   4.179   6.838   1.462
  909SOL    HW1 3626   4.219   6.876   1.379
  909SOL    HW2 3627   4.079   6.836   1.453
  910SOL     OW 3628   1.717   1.095   1.900
  910SOL    HW1 3629   1.784   1.022   1.896
  910SOL    HW2 3630   1.758   1.177   1.940
  911SOL     OW 3631   1.032   3.546   0.898
  911SOL    HW1 3632   0.951   3.587   0.939
  911SOL    HW2 3633   1.061   3.600   0.819
  912SOL     OW 3634   1.758   1.316   6.931
  912SOL    HW1 3635   1.700   1.256   6.875
  912SOL    HW2 3636   1.813   1.374   6.872
  913SOL     OW 3637   1.960   1.771   2.736
  913SOL    HW1 3638   1.921   1.827   2.663
  913SOL    HW2 3639   2.060   1.775   2.732
  914SOL     OW 3640   2.288   5.085   1.808
  914SOL    HW1 3641   2.199   5.129   1.795
  914SOL    HW2 3642   2.352   5.152   1.845
  915SOL     OW 3643   2.370   2.187   0.767
  915SOL    HW1 3644   2.381   2.240   0.851
  915SOL    HW2 3645   2.431   2.223   0.696
  916SOL     OW 3646   1.172   3.351   2.502
  916SOL    HW1 3647   1.165   3.318   2.596
  916SOL    HW2 3648   1.083   3.340   2.456
  917SOL     OW 3649   3.548   0.907   5.882
  917SOL    HW1 3650   3.536   0.868   5.973
  917SOL    HW2 3651   3.463   0.897   5.830
  918SOL     OW 3652   0.528   2.093   4.567
  918SOL    HW1 3653   0.483   2.069   4.653
  918SOL    HW2 3654   0.553   2.009   4.518
  919SOL     OW 3655   1.562   0.689   0.998
  919SOL    HW1 3656   1.642   0.635   1.025
  919SOL    HW2 3657   1.579   0.786   1.018
  920SOL     OW 3658   1.764   1.401   3.189
  920SOL    HW1 3659   1.671   1.429   3.167
  920SOL    HW2 3660   1.818   1.481   3.213
  921SOL     OW 3661   3.870   4.515   0.129
  921SOL    HW1 3662   3.816   4.432   0.142
  921SOL    HW2 3663   3.967   4.492   0.135
  922SOL     OW 3664   2.335   6.114   0.105
  922SOL    HW1 3665   2.269   6.163   0.162
  922SOL    HW2 3666   2.309   6.017   0.100
  923SOL     OW 3667   4.293   1.154   0.021
  923SOL    HW1 3668   4.337   1.097   0.091
  923SOL    HW2 3669   4.209   1.193   0.058
  924SOL     OW 3670   6.159   4.558   2.057
  924SOL    HW1 3671   6.088   4.532   2.123
  924SOL    HW2 3672   6.163   4.489   1.984
  925SOL     OW 3673   6.662   2.293   2.153
  925SOL    HW1 3674   6.576   2.332   2.121
  925SOL    HW2 3675   6.738   2.340   2.108
  926SOL     OW 3676   3.739   5.993   1.485
  926SOL    HW1 3677   3.724   6.042   1.571
  926SOL    HW2 3678   3.804   5.919   1.499
  927SOL     OW 3679   4.746   5.357   4.779
  927SOL    HW1 3680   4.649   5.379   4.790
  927SOL    HW2 3681   4.757   5.291   4.705
  928SOL     OW 3682   0.490   1.857   1.508
  928SOL    HW1 3683   0.572   1.799   1.507
  928SOL    HW2 3684   0.417   1.810   1.557
  929SOL     OW 3685   0.291   2.137   2.419
  929SOL    HW1 3686   0.249   2.200   2.352
  929SOL    HW2 3687   0.221   2.076   2.455
  930SOL     OW 3688   6.296   5.236   2.078
  930SOL    HW1 3689   6.303   5.332   2.104
  930SOL    HW2 3690   6.244   5.185   2.146
  931SOL     OW 3691   1.060   2.825   1.839
  931SOL    HW1 3692   1.149   2.866   1.858
  931SOL    HW2 3693   1.071   2.751   1.772
  932SOL     OW 3694   4.604   5.912   1.378
  932SOL    HW1 3695   4.630   5.827   1.424
  932SOL    HW2 3696   4.524   5.952   1.423
  933SOL     OW 3697   0.897   6.373   3.304
  933SOL    HW1 3698   0.980   6.330   3.268
  933SOL    HW2 3699   0.837   6.303   3.342
  934SOL     OW 3700   3.126   1.388   5.373
  934SOL    HW1 3701   3.087   1.452   5.439
  934SOL    HW2 3702   3.211   1.350   5.409
  935SOL     OW 3703   1.560   3.882   4.289
  935SOL    HW1 3704   1.516   3.968   4.313
  935SOL    HW2 3705   1.610   3.847   4.368
  936SOL     OW 3706   1.116   1.461   2.150
  936SOL    HW1 3707   1.074   1.393   2.210
  936SOL    HW2 3708   1.212   1.439   2.137
  937SOL     OW 3709   5.143   2.318   3.748
  937SOL    HW1 3710   5.077   2.379   3.705
  937SOL    HW2 3711   5.097   2.260   3.814
  938SOL     OW 3712   0.597   0.632   6.535
  938SOL    HW1 3713   0.559   0.660   6.447
  938SOL    HW2 3714   0.644   0.544   6.524
  939SOL     OW 3715   6.228   0.891   4.546
  939SOL    HW1 3716   6.247   0.796   4.524
  939SOL    HW2 3717   6.240   0.905   4.644
  940SOL     OW 3718   6.447   0.344   3.736
  940SOL    HW1 3719   6.410   0.364   3.645
  940SOL    HW2 3720   6.479   0.250   3.739
  941SOL     OW 3721   5.933   2.470   5.618
  941SOL    HW1 3722   5.896   2.378   5.632
  941SOL    HW2 3723   5.903   2.530   5.692
  942SOL     OW 3724   4.422   6.980   5.080
  942SOL    HW1 3725   4.486   6.903   5.084
  942SOL    HW2 3726   4.368   6.974   4.996
  943SOL     OW 3727   5.251   2.493   0.229
  943SOL    HW1 3728   5.160   2.484   0.268
  943SOL    HW2 3729   5.314   2.527   0.299
  944SOL     OW 3730   4.917   4.337   3.832
  944SOL    HW1 3731   4.915   4.413   3.766
  944SOL    HW2 3732   4.858   4.263   3.799
  945SOL     OW 3733   5.853   3.293   6.753
  945SOL    HW1 3734   5.837   3.381   6.799
  945SOL    HW2 3735   5.939   3.254   6.786
  946SOL     OW 3736   6.196   3.751   6.641
  946SOL    HW1 3737   6.255   3.671   6.653
  946SOL    HW2 3738   6.103   3.721   6.619
  947SOL     OW 3739   0.696   2.984   5.376
  947SOL    HW1 3740   0.652   2.936   5.452
  947SOL    HW2 3741   0.629   3.006   5.306
  948SOL     OW 3742   3.633   1.714   0.469
  948SOL    HW1 3743   3.646   1.652   0.545
  948SOL    HW2 3744   3.536   1.728   0.453
  949SOL     OW 3745   5.203   6.228   6.262
  949SOL    HW1 3746   5.104   6.225   6.271
  949SOL    HW2 3747   5.245   6.220   6.352
  950SOL     OW 3748   3.254   5.217   1.036
  950SOL    HW1 3749   3.289   5.137   0.987
  950SOL    HW2 3750   3.191   5.187   1.108
  951SOL     OW 3751   1.378   2.850   3.967
  951SOL    HW1 3752   1.435   2.926   3.995
  951SOL    HW2 3753   1.384   2.839   3.868
  952SOL     OW 3754   5.079   1.237   1.087
  952SOL    HW1 3755   5.117   1.203   1.000
  952SOL    HW2 3756   5.132   1.199   1.163
  953SOL     OW 3757   4.594   6.650   5.931
  953SOL    HW1 3758   4.527   6.662   6.004
  953SOL    HW2 3759   4.567   6.704   5.852
  954SOL     OW 3760   6.127   0.254   1.535
  954SOL    HW1 3761   6.106   0.341   1.579
  954SOL    HW2 3762   6.163   0.270   1.444
  955SOL     OW 3763   0.796   5.996   2.761
  955SOL    HW1 3764   0.848   6.050   2.695
  955SOL    HW2 3765   0.747   6.058   2.823
  956SOL     OW 3766   1.804   2.712   0.827
  956SOL    HW1 3767   1.745   2.702   0.746
  956SOL    HW2 3768   1.846   2.803   0.826
  957SOL     OW 3769   1.933   6.365   4.971
  957SOL    HW1 3770   2.023   6.326   4.989
  957SOL    HW2 3771   1.862   6.298   4.993
  958SOL     OW 3772   4.581   2.670   6.773
  958SOL    HW1 3773   4.640   2.679   6.693
  958SOL    HW2 3774   4.611   2.591   6.827
  959SOL     OW 3775   1.568   3.996   0.606
  959SOL    HW1 3776   1.585   3.897   0.610
  959SOL    HW2 3777   1.505   4.021   0.680
  960SOL     OW 3778   1.426   4.541   5.856
  960SOL    HW1 3779   1.469   4.457   5.822
  960SOL    HW2 3780   1.383   4.589   5.779
  961SOL     OW 3781   3.493   6.701   6.852
  961SOL    HW1 3782   3.405   6.694   6.804
  961SOL    HW2 3783   3.508   6.619   6.906
  962SOL     OW 3784   0.944   0.211   3.424
  962SOL    HW1 3785   0.906   0.235   3.335
  962SOL    HW2 3786   0.996   0.126   3.417
  963SOL     OW 3787   5.826   6.866   2.137
  963SOL    HW1 3788   5.738   6.859   2.091
  963SOL    HW2 3789   5.821   6.822   2.226
  964SOL     OW 3790   5.823   4.024   1.345
  964SOL    HW1 3791   5.761   3.990   1.416
  964SOL    HW2 3792   5.828   3.957   1.270
  965SOL     OW 3793   1.963   1.622   0.325
  965SOL    HW1 3794   1.925   1.714   0.334
  965SOL    HW2 3795   1.934   1.583   0.238
  966SOL     OW 3796   6.236   2.406   1.900
  966SOL    HW1 3797   6.253   2.497   1.939
  966SOL    HW2 3798   6.138   2.388   1.900
  967SOL     OW 3799   1.198   5.344   2.839
  967SOL    HW1 3800   1.176   5.401   2.760
  967SOL    HW2 3801   1.242   5.400   2.909
  968SOL     OW 3802   6.732   4.129   0.249
  968SOL    HW1 3803   6.757   4.087   0.161
  968SOL    HW2 3804   6.654   4.189   0.236
  969SOL     OW 3805   4.047   6.307   6.410
  969SOL    HW1 3806   3.965   6.254   6.387
  969SOL    HW2 3807   4.020   6.399   6.438
  970SOL     OW 3808   5.380   3.368   6.399
  970SOL    HW1 3809   5.440   3.374   6.320
  970SOL    HW2 3810   5.293   3.326   6.372
  971SOL     OW 3811   0.260   2.825   6.825
  971SOL    HW1 3812   0.311   2.820   6.739
  971SOL    HW2 3813   0.323   2.816   6.902
  972SOL     OW 3814   4.860   6.649   0.549
  972SOL    HW1 3815   4.816   6.560   0.561
  972SOL    HW2 3816   4.951   6.646   0.592
  973SOL     OW 3817   6.420   3.587   5.649
  973SOL    HW1 3818   6.392   3.683   5.647
  973SOL    HW2 3819   6.503   3.578   5.704
  974SOL     OW 3820   1.773   0.327   4.483
  974SOL    HW1 3821   1.759   0.422   4.457
  974SOL    HW2 3822   1.792   0.321   4.581
  975SOL     OW 3823   2.793   0.058   5.696
  975SOL    HW1 3824   2.842   0.097   5.619
  975SOL    HW2 3825   2.853   0.059   5.777
  976SOL     OW 3826   0.292   4.704   3.877
  976SOL    HW1 3827   0.233   4.778   3.845
  976SOL    HW2 3828   0.337   4.661   3.799
  977SOL     OW 3829   0.721   2.206   2.213
  977SOL    HW1 3830   0.773   2.277   2.165
  977SOL    HW2 3831   0.736   2.214   2.311
  978SOL     OW 3832   5.482   2.830   4.504
  978SOL    HW1 3833   5.405   2.784   4.549
  978SOL    HW2 3834   5.514   2.906   4.560
  979SOL     OW 3835   6.365   1.857   2.792
  979SOL    HW1 3836   6.369   1.791   2.867
  979SOL    HW2 3837   6.457   1.870   2.754
  980SOL     OW 3838   6.560   6.912   5.771
  980SOL    HW1 3839   6.654   6.923   5.805
  980SOL    HW2 3840   6.562   6.877   5.678
  981SOL     OW 3841   6.345   2.910   6.100
  981SOL    HW1 3842   6.276   2.951   6.041
  981SOL    HW2 3843   6.300   2.859   6.174
  982SOL     OW 3844   1.410   4.480   0.892
  982SOL    HW1 3845   1.476   4.483   0.967
  982SOL    HW2 3846   1.430   4.400   0.835
  983SOL     OW 3847   5.546   1.653   3.649
  983SOL    HW1 3848   5.503   1.604   3.725
  983SOL    HW2 3849   5.629   1.604   3.621
  984SOL     OW 3850   4.785   3.051   5.226
  984SOL    HW1 3851   4.802   3.143   5.262
  984SOL    HW2 3852   4.710   3.009   5.278
  985SOL     OW 3853   1.721   4.553   0.463
  985SOL    HW1 3854   1.690   4.459   0.447
  985SOL    HW2 3855   1.754   4.592   0.378
  986SOL     OW 3856   4.984   4.290   5.963
  986SOL    HW1 3857   4.897   4.245   5.942
  986SOL    HW2 3858   5.011   4.269   6.057
  987SOL     OW 3859   3.640   7.029   2.540
  987SOL    HW1 3860   3.651   6.930   2.552
  987SOL    HW2 3861   3.703   0.031   2.470
  988SOL     OW 3862   3.515   2.841   1.519
  988SOL    HW1 3863   3.425   2.797   1.525
  988SOL    HW2 3864   3.578   2.780   1.471
  989SOL     OW 3865   0.733   0.969   4.291
  989SOL    HW1 3866   0.651   1.025   4.302
  989SOL    HW2 3867   0.707   0.874   4.279
  990SOL     OW 3868   5.490   6.372   1.929
  990SOL    HW1 3869   5.563   6.405   1.868
  990SOL    HW2 3870   5.476   6.274   1.913
  991SOL     OW 3871   5.858   1.882   5.803
  991SOL    HW1 3872   5.921   1.811   5.834
  991SOL    HW2 3873   5.768   1.865   5.842
  992SOL     OW 3874   0.335   2.871   1.228
  992SOL    HW1 3875   0.296   2.807   1.163
  992SOL    HW2 3876   0.358   2.956   1.181
  993SOL     OW 3877   4.091   6.602   4.616
  993SOL    HW1 3878   4.084   6.678   4.553
  993SOL    HW2 3879   4.161   6.538   4.585
  994SOL     OW 3880   2.871   3.447   3.018
  994SOL    HW1 3881   2.775   3.462   3.040
  994SOL    HW2 3882   2.890   3.349   3.016
  995SOL     OW 3883   0.499   1.477   4.822
  995SOL    HW1 3884   0.415   1.524   4.797
  995SOL    HW2 3885   0.508   1.392   4.769
  996SOL     OW 3886   0.631   3.417   0.074
  996SOL    HW1 3887   0.719   3.402   0.027
  996SOL    HW2 3888   0.645   3.412   0.173
  997SOL     OW 3889   0.187   1.916   0.762
  997SOL    HW1 3890   0.164   1.908   0.665
  997SOL    HW2 3891   0.174   1.828   0.807
  998SOL     OW 3892   5.112   6.842   3.084
  998SOL    HW1 3893   5.074   6.916   3.138
  998SOL    HW2 3894   5.206   6.824   3.113
  999SOL     OW 3895   6.427   5.836   1.055
  999SOL    HW1 3896   6.386   5.840   1.146
  999SOL    HW2 3897   6.526   5.841   1.063
 1000SOL     OW 3898   4.379   1.948   4.639
 1000SOL    HW1 3899   4.423   1.866   4.675
 1000SOL    HW2 3900   4.303   1.921   4.580
 1001SOL     OW 3901   4.594   1.166   5.286
 1001SOL    HW1 3902   4.552   1.094   5.231
 1001SOL    HW2 3903   4.686   1.138   5.313
 1002SOL     OW 3904   0.776   1.401   0.494
 1002SOL    HW1 3905   0.686   1.367   0.468
 1002SOL    HW2 3906   0.802   1.476   0.433
 1003SOL     OW 3907   4.175   5.210   2.649
 1003SOL    HW1 3908   4.085   5.192   2.611
 1003SOL    HW2 3909   4.211   5.295   2.611
 1004SOL     OW 3910   5.954   5.939   0.158
 1004SOL    HW1 3911   6.037   5.890   0.134
 1004SOL    HW2 3912   5.874   5.884   0.132
 1005SOL     OW 3913   6.892   5.807   3.537
 1005SOL    HW1 3914   6.873   5.768   3.446
 1005SOL    HW2 3915   6.809   5.804   3.592
 1006SOL     OW 3916   1.706   4.686   0.142
 1006SOL    HW1 3917   1.660   4.753   0.084
 1006SOL    HW2 3918   1.659   4.598   0.136
 1007SOL     OW 3919   6.970   1.421   3.064
 1007SOL    HW1 3920   6.937   1.503   3.110
 1007SOL    HW2 3921   0.035   1.404   3.091
 1008SOL     OW 3922   2.905   2.216   5.128
 1008SOL    HW1 3923   2.994   2.227   5.082
 1008SOL    HW2 3924   2.906   2.266   5.214
 1009SOL     OW 3925   3.151   6.310   6.247
 1009SOL    HW1 3926   3.077   6.341   6.187
 1009SOL    HW2 3927   3.133   6.216   6.277
 1010SOL     OW 3928   5.487   6.970   5.432
 1010SOL    HW1 3929   5.454   6.950   5.524
 1010SOL    HW2 3930   5.452   6.901   5.368
 1011SOL     OW 3931   2.788   5.617   4.003
 1011SOL    HW1 3932   2.749   5.709   4.004
 1011SOL    HW2 3933   2.792   5.582   4.097
 1012SOL     OW 3934   3.773   6.199   1.015
 1012SOL    HW1 3935   3.845   6.182   1.082
 1012SOL    HW2 3936   3.792   6.285   0.967
 1013SOL     OW 3937   0.862   0.320   7.029
 1013SOL    HW1 3938   0.932   0.277   0.057
 1013SOL    HW2 3939   0.904   0.395   6.977
 1014SOL     OW 3940   6.014   6.799   5.809
 1014SOL    HW1 3941   5.921   6.788   5.843
 1014SOL    HW2 3942   6.023   6.748   5.723
 1015SOL     OW 3943   2.782   0.384   4.852
 1015SOL    HW1 3944   2.828   0.422   4.772
 1015SOL    HW2 3945   2.683   0.393   4.841
 1016SOL     OW 3946   4.156   2.853   1.667
 1016SOL    HW1 3947   4.131   2.949   1.676
 1016SOL    HW2 3948   4.235   2.844   1.607
 1017SOL     OW 3949   5.007   0.748   5.998
 1017SOL    HW1 3950   5.084   0.687   6.016
 1017SOL    HW2 3951   5.026   0.838   6.038
 1018SOL     OW 3952   1.571   2.867   1.533
 1018SOL    HW1 3953   1.621   2.791   1.576
 1018SOL    HW2 3954   1.530   2.924   1.604
 1019SOL     OW 3955   6.245   1.877   0.777
 1019SOL    HW1 3956   6.168   1.814   0.767
 1019SOL    HW2 3957   6.301   1.874   0.694
 1020SOL     OW 3958   3.606   2.075   1.803
 1020SOL    HW1 3959   3.655   2.133   1.868
 1020SOL    HW2 3960   3.671   2.014   1.757
 1021SOL     OW 3961   6.787   1.178   1.217
 1021SOL    HW1 3962   6.842   1.097   1.195
 1021SOL    HW2 3963   6.736   1.162   1.301
 1022SOL     OW 3964   3.279   2.721   6.766
 1022SOL    HW1 3965   3.225   2.680   6.693
 1022SOL    HW2 3966   3.307   2.650   6.831
 1023SOL     OW 3967   0.080   0.741   4.720
 1023SOL    HW1 3968   0.148   0.668   4.712
 1023SOL    HW2 3969   0.066   0.763   4.817
 1024SOL     OW 3970   6.304   2.778   3.833
 1024SOL    HW1 3971   6.251   2.699   3.802
 1024SOL    HW2 3972   6.253   2.861   3.816
 1025SOL     OW 3973   3.021   4.685   1.405
 1025SOL    HW1 3974   3.058   4.635   1.483
 1025SOL    HW2 3975   3.035   4.784   1.419
 1026SOL     OW 3976   0.596   2.115   6.096
 1026SOL    HW1 3977   0.601   2.215   6.103
 1026SOL    HW2 3978   0.614   2.087   6.002
 1027SOL     OW 3979   2.473   4.809   1.165
 1027SOL    HW1 3980   2.540   4.777   1.231
 1027SOL    HW2 3981   2.434   4.896   1.196
 1028SOL     OW 3982   0.056   5.486   0.291
 1028SOL    HW1 3983   7.024   5.560   0.316
 1028SOL    HW2 3984   0.003   5.408   0.257
 1029SOL     OW 3985   3.737   0.370   4.842
 1029SOL    HW1 3986   3.748   0.386   4.744
 1029SOL    HW2 3987   3.747   0.457   4.891
 1030SOL     OW 3988   3.934   4.840   5.224
 1030SOL    HW1 3989   3.904   4.854   5.130
 1030SOL    HW2 3990   3.902   4.915   5.281
 1031SOL     OW 3991   2.494   5.883   0.964
 1031SOL    HW1 3992   2.399   5.870   0.937
 1031SOL    HW2 3993   2.516   5.821   1.039
 1032SOL     OW 3994   1.179   1.545   5.025
 1032SOL    HW1 3995   1.272   1.543   4.989
 1032SOL    HW2 3996   1.148   1.640   5.032
 1033SOL     OW 3997   2.476   6.985   2.044
 1033SOL    HW1 3998   2.561   6.936   2.023
 1033SOL    HW2 3999   2.452   0.015   1.968
 1034SOL     OW 4000   0.991   6.512   1.913
 1034SOL    HW1 4001   1.006   6.417   1.885
 1034SOL    HW2 4002   1.037   6.573   1.849
 1035SOL     OW 4003   3.517   1.761   2.762
 1035SOL    HW1 4004   3.422   1.752   2.791
 1035SOL    HW2 4005   3.539   1.858   2.748
 1036SOL     OW 4006   4.581   6.799   6.790
 1036SOL    HW1 4007   4.638   6.722   6.760
 1036SOL    HW2 4008   4.638   6.867   6.836
 1037SOL     OW 4009   3.720   1.449   6.223
 1037SOL    HW1 4010   3.657   1.507   6.274
 1037SOL    HW2 4011   3.812   1.488   6.228
 1038SOL     OW 4012   2.605   2.163   5.533
 1038SOL    HW1 4013   2.525   2.106   5.519
 1038SOL    HW2 4014   2.686   2.105   5.544
 1039SOL     OW 4015   5.027   1.761   3.639
 1039SOL    HW1 4016   4.934   1.797   3.638
 1039SOL    HW2 4017   5.092   1.834   3.621
 1040SOL     OW 4018   6.276   4.017   4.068
 1040SOL    HW1 4019   6.341   3.943   4.084
 1040SOL    HW2 4020   6.214   3.991   3.993
 1041SOL     OW 4021   1.701   6.775   4.529
 1041SOL    HW1 4022   1.714   6.865   4.488
 1041SOL    HW2 4023   1.610   6.741   4.506
 1042SOL     OW 4024   4.510   3.879   0.415
 1042SOL    HW1 4025   4.505   3.837   0.506
 1042SOL    HW2 4026   4.484   3.812   0.346
 1043SOL     OW 4027   4.364   0.376   6.723
 1043SOL    HW1 4028   4.361   0.336   6.631
 1043SOL    HW2 4029   4.296   0.449   6.729
 1044SOL     OW 4030   3.963   3.788   2.947
 1044SOL    HW1 4031   4.042   3.764   2.891
 1044SOL    HW2 4032   3.879   3.758   2.901
 1045SOL     OW 4033   4.113   0.835   3.268
 1045SOL    HW1 4034   4.063   0.914   3.305
 1045SOL    HW2 4035   4.209   0.859   3.256
 1046SOL     OW 4036   3.114   0.662   2.236
 1046SOL    HW1 4037   3.041   0.635   2.300
 1046SOL    HW2 4038   3.186   0.593   2.239
 1047SOL     OW 4039   0.580   6.006   1.851
 1047SOL    HW1 4040   0.647   6.003   1.925
 1047SOL    HW2 4041   0.598   6.085   1.792
 1048SOL     OW 4042   6.184   3.969   4.980
 1048SOL    HW1 4043   6.158   3.952   4.885
 1048SOL    HW2 4044   6.267   3.918   5.002
 1049SOL     OW 4045   0.589   3.467   5.274
 1049SOL    HW1 4046   0.576   3.537   5.204
 1049SOL    HW2 4047   0.681   3.474   5.312
 1050SOL     OW 4048   2.434   0.728   1.169
 1050SOL    HW1 4049   2.481   0.786   1.236
 1050SOL    HW2 4050   2.398   0.784   1.095
 1051SOL     OW 4051   4.853   4.609   1.805
 1051SOL    HW1 4052   4.848   4.672   1.727
 1051SOL    HW2 4053   4.946   4.607   1.840
 1052SOL     OW 4054   3.593   0.332   3.822
 1052SOL    HW1 4055   3.575   0.422   3.861
 1052SOL    HW2 4056   3.688   0.306   3.840
 1053SOL     OW 4057   3.418   5.006   3.699
 1053SOL    HW1 4058   3.432   5.104   3.683
 1053SOL    HW2 4059   3.452   4.982   3.789
 1054SOL     OW 4060   4.374   5.785   4.723
 1054SOL    HW1 4061   4.377   5.736   4.636
 1054SOL    HW2 4062   4.421   5.731   4.793
 1055SOL     OW 4063   3.722   4.912   4.531
 1055SOL    HW1 4064   3.808   4.900   4.582
 1055SOL    HW2 4065   3.649   4.933   4.595
 1056SOL     OW 4066   2.575   6.193   7.027
 1056SOL    HW1 4067   2.483   6.179   0.035
 1056SOL    HW2 4068   2.640   6.136   0.047
 1057SOL     OW 4069   3.946   4.153   1.414
 1057SOL    HW1 4070   3.851   4.121   1.419
 1057SOL    HW2 4071   3.955   4.238   1.466
 1058SOL     OW 4072   2.990   6.450   2.073
 1058SOL    HW1 4073   3.078   6.418   2.108
 1058SOL    HW2 4074   3.005   6.519   2.002
 1059SOL     OW 4075   4.092   0.648   0.572
 1059SOL    HW1 4076   4.012   0.610   0.526
 1059SOL    HW2 4077   4.062   0.716   0.639
 1060SOL     OW 4078   3.495   1.476   4.029
 1060SOL    HW1 4079   3.569   1.480   4.096
 1060SOL    HW2 4080   3.409   1.501   4.073
 1061SOL     OW 4081   2.309   5.655   1.306
 1061SOL    HW1 4082   2.231   5.713   1.280
 1061SOL    HW2 4083   2.275   5.570   1.346
 1062SOL     OW 4084   4.981   4.447   4.432
 1062SOL    HW1 4085   5.071   4.417   4.402
 1062SOL    HW2 4086   4.981   4.455   4.532
 1063SOL     OW 4087   2.959   2.475   6.294
 1063SOL    HW1 4088   2.891   2.487   6.221
 1063SOL    HW2 4089   2.913   2.479   6.383
 1064SOL     OW 4090   0.387   2.939   2.101
 1064SOL    HW1 4091   0.365   3.005   2.173
 1064SOL    HW2 4092   0.308   2.879   2.085
 1065SOL     OW 4093   4.639   4.909   6.130
 1065SOL    HW1 4094   4.730   4.913   6.172
 1065SOL    HW2 4095   4.569   4.906   6.202
 1066SOL     OW 4096   4.640   0.323   3.599
 1066SOL    HW1 4097   4.581   0.327   3.518
 1066SOL    HW2 4098   4.634   0.410   3.648
 1067SOL     OW 4099   3.034   3.841   0.069
 1067SOL    HW1 4100   3.070   3.930   0.044
 1067SOL    HW2 4101   3.064   3.816   0.161
 1068SOL     OW 4102   0.514   5.052   1.528
 1068SOL    HW1 4103   0.473   5.143   1.519
 1068SOL    HW2 4104   0.459   4.998   1.591
 1069SOL     OW 4105   3.566   2.857   2.519
 1069SOL    HW1 4106   3.617   2.905   2.447
 1069SOL    HW2 4107   3.574   2.758   2.505
 1070SOL     OW 4108   2.154   6.605   0.456
 1070SOL    HW1 4109   2.154   6.651   0.545
 1070SOL    HW2 4110   2.127   6.509   0.468
 1071SOL     OW 4111   5.040   5.415   3.252
 1071SOL    HW1 4112   5.036   5.372   3.161
 1071SOL    HW2 4113   4.948   5.442   3.280
 1072SOL     OW 4114   3.922   5.729   3.087
 1072SOL    HW1 4115   3.876   5.648   3.124
 1072SOL    HW2 4116   3.856   5.787   3.040
 1073SOL     OW 4117   2.775   5.464   3.491
 1073SOL    HW1 4118   2.828   5.428   3.414
 1073SOL    HW2 4119   2.810   5.554   3.517
 1074SOL     OW 4120   1.725   4.911   3.330
 1074SOL    HW1 4121   1.659   4.950   3.394
 1074SOL    HW2 4122   1.771   4.986   3.281
 1075SOL     OW 4123   0.553   3.888   2.537
 1075SOL    HW1 4124   0.464   3.932   2.540
 1075SOL    HW2 4125   0.555   3.812   2.602
 1076SOL     OW 4126   6.288   3.694   2.927
 1076SOL    HW1 4127   6.367   3.657   2.878
 1076SOL    HW2 4128   6.317   3.731   3.015
 1077SOL     OW 4129   4.802   7.016   2.031
 1077SOL    HW1 4130   4.761   6.964   1.957
 1077SOL    HW2 4131   4.874   0.046   1.995
 1078SOL     OW 4132   6.990   2.903   2.311
 1078SOL    HW1 4133   0.031   2.884   2.243
 1078SOL    HW2 4134   0.003   2.922   2.399
 1079SOL     OW 4135   1.640   4.656   3.257
 1079SOL    HW1 4136   1.649   4.751   3.286
 1079SOL    HW2 4137   1.665   4.595   3.333
 1080SOL     OW 4138   2.020   5.523   3.913
 1080SOL    HW1 4139   2.102   5.545   3.860
 1080SOL    HW2 4140   1.943   5.511   3.851
 1081SOL     OW 4141   1.509   0.728   0.057
 1081SOL    HW1 4142   1.445   0.785   0.109
 1081SOL    HW2 4143   1.547   0.658   0.117
 1082SOL     OW 4144   2.103   0.061   1.231
 1082SOL    HW1 4145   2.028   0.049   1.167
 1082SOL    HW2 4146   2.177   0.113   1.187
 1083SOL     OW 4147   3.728   2.695   1.797
 1083SOL    HW1 4148   3.680   2.737   1.874
 1083SOL    HW2 4149   3.663   2.642   1.743
 1084SOL     OW 4150   6.912   3.911   1.258
 1084SOL    HW1 4151   6.854   3.856   1.319
 1084SOL    HW2 4152   6.857   3.982   1.215
 1085SOL     OW 4153   1.596   5.567   4.351
 1085SOL    HW1 4154   1.568   5.657   4.383
 1085SOL    HW2 4155   1.620   5.510   4.430
 1086SOL     OW 4156   2.877   5.551   2.370
 1086SOL    HW1 4157   2.780   5.574   2.377
 1086SOL    HW2 4158   2.915   5.592   2.287
 1087SOL     OW 4159   3.674   3.063   5.023
 1087SOL    HW1 4160   3.602   3.002   4.989
 1087SOL    HW2 4161   3.729   3.014   5.090
 1088SOL     OW 4162   0.245   4.323   2.548
 1088SOL    HW1 4163   0.160   4.273   2.531
 1088SOL    HW2 4164   0.245   4.357   2.642
 1089SOL     OW 4165   6.860   0.248   3.192
 1089SOL    HW1 4166   6.792   0.186   3.153
 1089SOL    HW2 4167   6.941   0.251   3.132
 1090SOL     OW 4168   1.960   2.376   6.437
 1090SOL    HW1 4169   2.049   2.381   6.482
 1090SOL    HW2 4170   1.952   2.290   6.387
 1091SOL     OW 4171   0.553   2.371   5.474
 1091SOL    HW1 4172   0.610   2.288   5.472
 1091SOL    HW2 4173   0.611   2.450   5.455
 1092SOL     OW 4174   2.524   4.754   1.596
 1092SOL    HW1 4175   2.568   4.711   1.517
 1092SOL    HW2 4176   2.459   4.690   1.637
 1093SOL     OW 4177   0.023   2.756   1.886
 1093SOL    HW1 4178   7.007   2.780   1.800
 1093SOL    HW2 4179   0.122   2.763   1.874
 1094SOL     OW 4180   1.008   6.123   2.648
 1094SOL    HW1 4181   1.100   6.095   2.623
 1094SOL    HW2 4182   1.006   6.222   2.663
 1095SOL     OW 4183   0.823   3.580   6.413
 1095SOL    HW1 4184   0.752   3.629   6.464
 1095SOL    HW2 4185   0.781   3.508   6.358
 1096SOL     OW 4186   3.632   3.060   2.052
 1096SOL    HW1 4187   3.697   3.093   1.984
 1096SOL    HW2 4188   3.550   3.117   2.050
 1097SOL     OW 4189   2.937   4.561   5.920
 1097SOL    HW1 4190   2.855   4.546   5.865
 1097SOL    HW2 4191   2.945   4.658   5.943
 1098SOL     OW 4192   3.497   0.236   2.505
 1098SOL    HW1 4193   3.554   0.154   2.505
 1098SOL    HW2 4194   3.539   0.307   2.448
 1099SOL     OW 4195   3.555   0.199   1.977
 1099SOL    HW1 4196   3.495   0.243   1.909
 1099SOL    HW2 4197   3.605   0.269   2.028
 1100SOL     OW 4198   6.717   0.985   0.455
 1100SOL    HW1 4199   6.783   1.013   0.525
 1100SOL    HW2 4200   6.751   0.904   0.408
 1101SOL     OW 4201   5.077   2.913   0.920
 1101SOL    HW1 4202   5.172   2.940   0.934
 1101SOL    HW2 4203   5.027   2.986   0.873
 1102SOL     OW 4204   0.392   3.408   4.188
 1102SOL    HW1 4205   0.342   3.492   4.209
 1102SOL    HW2 4206   0.380   3.387   4.091
 1103SOL     OW 4207   0.200   3.188   6.963
 1103SOL    HW1 4208   0.159   3.115   6.908
 1103SOL    HW2 4209   0.127   3.248   6.997
 1104SOL     OW 4210   2.435   5.663   5.840
 1104SOL    HW1 4211   2.379   5.589   5.876
 1104SOL    HW2 4212   2.528   5.628   5.822
 1105SOL     OW 4213   4.008   5.303   0.949
 1105SOL    HW1 4214   3.995   5.207   0.972
 1105SOL    HW2 4215   3.943   5.359   1.000
 1106SOL     OW 4216   0.852   1.358   6.685
 1106SOL    HW1 4217   0.800   1.416   6.748
 1106SOL    HW2 4218   0.949   1.381   6.691
 1107SOL     OW 4219   6.825   0.224   2.038
 1107SOL    HW1 4220   6.843   0.304   2.095
 1107SOL    HW2 4221   6.908   0.169   2.031
 1108SOL     OW 4222   1.169   1.362   0.109
 1108SOL    HW1 4223   1.081   1.354   0.155
 1108SOL    HW2 4224   1.195   1.458   0.104
 1109SOL     OW 4225   4.124   1.041   3.748
 1109SOL    HW1 4226   4.107   1.074   3.841
 1109SOL    HW2 4227   4.117   0.941   3.746
 1110SOL     OW 4228   3.339   2.920   2.752
 1110SOL    HW1 4229   3.309   2.972   2.672
 1110SOL    HW2 4230   3.337   2.822   2.731
 1111SOL     OW 4231   4.372   6.652   6.706
 1111SOL    HW1 4232   4.434   6.706   6.764
 1111SOL    HW2 4233   4.406   6.558   6.701
 1112SOL     OW 4234   1.292   1.395   2.432
 1112SOL    HW1 4235   1.357   1.365   2.501
 1112SOL    HW2 4236   1.292   1.331   2.356
 1113SOL     OW 4237   6.506   3.619   1.379
 1113SOL    HW1 4238   6.493   3.536   1.432
 1113SOL    HW2 4239   6.583   3.608   1.317
 1114SOL     OW 4240   5.857   1.299   5.634
 1114SOL    HW1 4241   5.784   1.346   5.684
 1114SOL    HW2 4242   5.945   1.319   5.677
 1115SOL     OW 4243   2.439   4.763   0.743
 1115SOL    HW1 4244   2.402   4.697   0.809
 1115SOL    HW2 4245   2.384   4.760   0.660
 1116SOL     OW 4246   3.725   6.298   6.420
 1116SOL    HW1 4247   3.722   6.396   6.400
 1116SOL    HW2 4248   3.693   6.282   6.514
 1117SOL     OW 4249   2.938   3.355   1.062
 1117SOL    HW1 4250   2.912   3.443   1.020
 1117SOL    HW2 4251   2.932   3.363   1.161
 1118SOL     OW 4252   1.487   3.224   1.385
 1118SOL    HW1 4253   1.505   3.221   1.483
 1118SOL    HW2 4254   1.399   3.267   1.368
 1119SOL     OW 4255   3.027   3.754   3.438
 1119SOL    HW1 4256   3.003   3.734   3.343
 1119SOL    HW2 4257   3.073   3.843   3.442
 1120SOL     OW 4258   3.947   1.175   4.145
 1120SOL    HW1 4259   3.965   1.270   4.118
 1120SOL    HW2 4260   4.019   1.116   4.108
 1121SOL     OW 4261   5.224   3.511   3.502
 1121SOL    HW1 4262   5.236   3.490   3.404
 1121SOL    HW2 4263   5.166   3.592   3.512
 1122SOL     OW 4264   4.548   5.476   6.499
 1122SOL    HW1 4265   4.588   5.511   6.584
 1122SOL    HW2 4266   4.590   5.388   6.476
 1123SOL     OW 4267   3.587   0.973   2.166
 1123SOL    HW1 4268   3.521   0.960   2.240
 1123SOL    HW2 4269   3.540   0.972   2.078
 1124SOL     OW 4270   1.913   5.268   4.257
 1124SOL    HW1 4271   1.977   5.286   4.183
 1124SOL    HW2 4272   1.820   5.285   4.225
 1125SOL     OW 4273   3.140   3.552   5.194
 1125SOL    HW1 4274   3.148   3.567   5.095
 1125SOL    HW2 4275   3.232   3.546   5.234
 1126SOL     OW 4276   6.064   0.524   2.489
 1126SOL    HW1 4277   5.965   0.530   2.472
 1126SOL    HW2 4278   6.113   0.577   2.420
 1127SOL     OW 4279   2.295   5.698   6.354
 1127SOL    HW1 4280   2.306   5.797   6.352
 1127SOL    HW2 4281   2.214   5.674   6.407
 1128SOL     OW 4282   2.626   2.409   4.508
 1128SOL    HW1 4283   2.663   2.433   4.598
 1128SOL    HW2 4284   2.605   2.312   4.506
 1129SOL     OW 4285   4.143   6.122   6.114
 1129SOL    HW1 4286   4.151   6.040   6.170
 1129SOL    HW2 4287   4.119   6.096   6.020
 1130SOL     OW 4288   0.410   5.170   5.663
 1130SOL    HW1 4289   0.317   5.166   5.626
 1130SOL    HW2 4290   0.471   5.118   5.604
 1131SOL     OW 4291   6.965   4.755   5.989
 1131SOL    HW1 4292   6.895   4.707   6.042
 1131SOL    HW2 4293   6.950   4.737   5.891
 1132SOL     OW 4294   5.797   6.404   4.898
 1132SOL    HW1 4295   5.699   6.414   4.914
 1132SOL    HW2 4296   5.832   6.488   4.856
 1133SOL     OW 4297   6.739   2.425   6.905
 1133SOL    HW1 4298   6.718   2.515   6.944
 1133SOL    HW2 4299   6.657   2.387   6.863
 1134SOL     OW 4300   0.232   2.794   6.105
 1134SOL    HW1 4301   0.302   2.722   6.106
 1134SOL    HW2 4302   0.258   2.864   6.039
 1135SOL     OW 4303   6.857   1.598   4.405
 1135SOL    HW1 4304   6.799   1.589   4.486
 1135SOL    HW2 4305   6.843   1.520   4.345
 1136SOL     OW 4306   3.497   5.451   4.340
 1136SOL    HW1 4307   3.586   5.488   4.316
 1136SOL    HW2 4308   3.451   5.513   4.404
 1137SOL     OW 4309   1.440   0.986   0.230
 1137SOL    HW1 4310   1.429   1.081   0.200
 1137SOL    HW2 4311   1.351   0.949   0.256
 1138SOL     OW 4312   1.113   3.921   5.947
 1138SOL    HW1 4313   1.046   3.923   5.872
 1138SOL    HW2 4314   1.117   3.829   5.985
 1139SOL     OW 4315   0.621   0.195   2.672
 1139SOL    HW1 4316   0.707   0.167   2.714
 1139SOL    HW2 4317   0.570   0.113   2.644
 1140SOL     OW 4318   4.027   2.150   3.071
 1140SOL    HW1 4319   4.075   2.062   3.070
 1140SOL    HW2 4320   4.031   2.190   3.162
 1141SOL     OW 4321   6.796   6.215   6.305
 1141SOL    HW1 4322   6.710   6.223   6.255
 1141SOL    HW2 4323   6.872   6.243   6.246
 1142SOL     OW 4324   6.937   0.346   4.898
 1142SOL    HW1 4325   6.872   0.369   4.825
 1142SOL    HW2 4326   6.926   0.412   4.973
 1143SOL     OW 4327   4.936   2.402   1.273
 1143SOL    HW1 4328   4.888   2.314   1.278
 1143SOL    HW2 4329   5.031   2.390   1.301
 1144SOL     OW 4330   0.929   6.262   5.029
 1144SOL    HW1 4331   1.005   6.326   5.029
 1144SOL    HW2 4332   0.846   6.309   5.060
 1145SOL     OW 4333   1.955   5.003   4.636
 1145SOL    HW1 4334   2.011   5.080   4.604
 1145SOL    HW2 4335   2.003   4.956   4.710
 1146SOL     OW 4336   5.962   1.581   1.578
 1146SOL    HW1 4337   5.934   1.642   1.652
 1146SOL    HW2 4338   5.894   1.582   1.506
 1147SOL     OW 4339   6.471   3.785   1.846
 1147SOL    HW1 4340   6.400   3.818   1.908
 1147SOL    HW2 4341   6.429   3.746   1.764
 1148SOL     OW 4342   5.490   0.827   6.172
 1148SOL    HW1 4343   5.509   0.925   6.181
 1148SOL    HW2 4344   5.428   0.813   6.095
 1149SOL     OW 4345   5.672   2.871   2.931
 1149SOL    HW1 4346   5.611   2.882   2.853
 1149SOL    HW2 4347   5.621   2.837   3.010
 1150SOL     OW 4348   1.650   5.651   5.720
 1150SOL    HW1 4349   1.640   5.677   5.816
 1150SOL    HW2 4350   1.745   5.663   5.692
 1151SOL     OW 4351   2.453   5.374   0.034
 1151SOL    HW1 4352   2.548   5.384   0.004
 1151SOL    HW2 4353   2.441   5.284   0.075
 1152SOL     OW 4354   0.360   1.036   3.396
 1152SOL    HW1 4355   0.456   1.064   3.392
 1152SOL    HW2 4356   0.311   1.093   3.462
 1153SOL     OW 4357   2.497   4.972   2.586
 1153SOL    HW1 4358   2.497   4.906   2.511
 1153SOL    HW2 4359   2.588   4.979   2.626
 1154SOL     OW 4360   1.307   4.645   2.163
 1154SOL    HW1 4361   1.342   4.709   2.232
 1154SOL    HW2 4362   1.381   4.587   2.131
 1155SOL     OW 4363   4.417   0.532   2.170
 1155SOL    HW1 4364   4.453   0.452   2.122
 1155SOL    HW2 4365   4.484   0.565   2.237
 1156SOL     OW 4366   1.793   0.859   4.225
 1156SOL    HW1 4367   1.794   0.933   4.292
 1156SOL    HW2 4368   1.838   0.889   4.141
 1157SOL     OW 4369   1.658   3.192   3.809
 1157SOL    HW1 4370   1.604   3.272   3.837
 1157SOL    HW2 4371   1.622   3.110   3.855
 1158SOL     OW 4372   4.600   6.238   6.230
 1158SOL    HW1 4373   4.686   6.208   6.270
 1158SOL    HW2 4374   4.557   6.161   6.182
 1159SOL     OW 4375   6.077   4.162   2.516
 1159SOL    HW1 4376   6.165   4.116   2.507
 1159SOL    HW2 4377   6.091   4.255   2.551
 1160SOL     OW 4378   2.553   2.689   1.018
 1160SOL    HW1 4379   2.627   2.748   1.050
 1160SOL    HW2 4380   2.505   2.733   0.943
 1161SOL     OW 4381   4.123   0.773   3.762
 1161SOL    HW1 4382   4.033   0.738   3.735
 1161SOL    HW2 4383   4.139   0.750   3.858
 1162SOL     OW 4384   3.167   4.957   1.467
 1162SOL    HW1 4385   3.204   4.941   1.376
 1162SOL    HW2 4386   3.102   5.033   1.464
 1163SOL     OW 4387   5.180   6.935   2.234
 1163SOL    HW1 4388   5.267   6.887   2.224
 1163SOL    HW2 4389   5.148   6.927   2.328
 1164SOL     OW 4390   6.469   3.872   4.520
 1164SOL    HW1 4391   6.555   3.837   4.557
 1164SOL    HW2 4392   6.477   3.971   4.506
 1165SOL     OW 4393   0.734   4.638   2.207
 1165SOL    HW1 4394   0.821   4.673   2.242
 1165SOL    HW2 4395   0.739   4.538   2.200
 1166SOL     OW 4396   3.272   1.117   6.851
 1166SOL    HW1 4397   3.288   1.210   6.819
 1166SOL    HW2 4398   3.354   1.084   6.898
 1167SOL     OW 4399   4.327   1.807   5.646
 1167SOL    HW1 4400   4.416   1.774   5.613
 1167SOL    HW2 4401   4.280   1.855   5.573
 1168SOL     OW 4402   5.716   0.570   3.471
 1168SOL    HW1 4403   5.679   0.543   3.560
 1168SOL    HW2 4404   5.804   0.617   3.485
 1169SOL     OW 4405   1.136   3.031   1.052
 1169SOL    HW1 4406   1.221   2.979   1.044
 1169SOL    HW2 4407   1.141   3.113   0.995
 1170SOL     OW 4408   2.623   0.866   1.494
 1170SOL    HW1 4409   2.677   0.943   1.525
 1170SOL    HW2 4410   2.602   0.806   1.572
 1171SOL     OW 4411   3.943   0.943   0.437
 1171SOL    HW1 4412   3.848   0.921   0.460
 1171SOL    HW2 4413   4.003   0.871   0.472
 1172SOL     OW 4414   3.213   3.544   5.657
 1172SOL    HW1 4415   3.115   3.543   5.679
 1172SOL    HW2 4416   3.230   3.481   5.581
 1173SOL     OW 4417   5.421   6.884   5.659
 1173SOL    HW1 4418   5.458   6.934   5.736
 1173SOL    HW2 4419   5.351   6.820   5.691
 1174SOL     OW 4420   3.762   5.801   6.937
 1174SOL    HW1 4421   3.743   5.757   7.025
 1174SOL    HW2 4422   3.849   5.851   6.942
 1175SOL     OW 4423   7.024   5.229   4.474
 1175SOL    HW1 4424   0.014   5.237   4.571
 1175SOL    HW2 4425   0.010   5.318   4.430
 1176SOL     OW 4426   5.798   2.821   1.161
 1176SOL    HW1 4427   5.880   2.808   1.216
 1176SOL    HW2 4428   5.717   2.805   1.218
 1177SOL     OW 4429   6.611   3.347   6.376
 1177SOL    HW1 4430   6.600   3.280   6.450
 1177SOL    HW2 4431   6.691   3.324   6.321
 1178SOL     OW 4432   5.205   4.729   2.556
 1178SOL    HW1 4433   5.252   4.647   2.524
 1178SOL    HW2 4434   5.212   4.734   2.656
 1179SOL     OW 4435   1.258   5.553   6.127
 1179SOL    HW1 4436   1.285   5.468   6.172
 1179SOL    HW2 4437   1.191   5.601   6.184
 1180SOL     OW 4438   2.325   0.581   4.287
 1180SOL    HW1 4439   2.275   0.648   4.343
 1180SOL    HW2 4440   2.259   0.521   4.242
 1181SOL     OW 4441   1.604   4.953   2.495
 1181SOL    HW1 4442   1.571   4.860   2.481
 1181SOL    HW2 4443   1.629   4.965   2.591
 1182SOL     OW 4444   1.522   3.816   4.021
 1182SOL    HW1 4445   1.600   3.867   3.985
 1182SOL    HW2 4446   1.512   3.834   4.119
 1183SOL     OW 4447   4.219   5.437   0.844
 1183SOL    HW1 4448   4.222   5.532   0.877
 1183SOL    HW2 4449   4.142   5.390   0.887
 1184SOL     OW 4450   3.279   2.563   6.414
 1184SOL    HW1 4451   3.309   2.516   6.331
 1184SOL    HW2 4452   3.325   2.651   6.420
 1185SOL     OW 4453   3.151   1.318   6.328
 1185SOL    HW1 4454   3.199   1.382   6.387
 1185SOL    HW2 4455   3.053   1.318   6.350
 1186SOL     OW 4456   4.076   0.913   4.898
 1186SOL    HW1 4457   4.007   0.986   4.895
 1186SOL    HW2 4458   4.030   0.824   4.890
 1187SOL     OW 4459   1.301   1.843   4.745
 1187SOL    HW1 4460   1.226   1.785   4.778
 1187SOL    HW2 4461   1.389   1.797   4.763
 1188SOL     OW 4462   1.715   0.859   4.999
 1188SOL    HW1 4463   1.789   0.795   4.976
 1188SOL    HW2 4464   1.663   0.823   5.076
 1189SOL     OW 4465   0.689   1.025   1.361
 1189SOL    HW1 4466   0.781   0.999   1.330
 1189SOL    HW2 4467   0.652   1.094   1.299
 1190SOL     OW 4468   3.974   5.553   1.888
 1190SOL    HW1 4469   3.913   5.623   1.925
 1190SOL    HW2 4470   4.061   5.557   1.937
 1191SOL     OW 4471   2.361   4.487   1.421
 1191SOL    HW1 4472   2.286   4.551   1.407
 1191SOL    HW2 4473   2.363   4.459   1.517
 1192SOL     OW 4474   3.803   5.420   2.723
 1192SOL    HW1 4475   3.723   5.467   2.760
 1192SOL    HW2 4476   3.886   5.466   2.753
 1193SOL     OW 4477   3.099   0.416   4.024
 1193SOL    HW1 4478   3.147   0.431   3.937
 1193SOL    HW2 4479   3.116   0.493   4.085
 1194SOL     OW 4480   6.364   1.741   2.060
 1194SOL    HW1 4481   6.327   1.829   2.029
 1194SOL    HW2 4482   6.289   1.674   2.067
 1195SOL     OW 4483   3.416   0.166   6.993
 1195SOL    HW1 4484   3.411   0.066   6.998
 1195SOL    HW2 4485   3.446   0.202   0.052
 1196SOL     OW 4486   1.578   5.504   3.550
 1196SOL    HW1 4487   1.614   5.456   3.470
 1196SOL    HW2 4488   1.492   5.461   3.578
 1197SOL     OW 4489   3.658   5.008   6.895
 1197SOL    HW1 4490   3.719   5.054   6.959
 1197SOL    HW2 4491   3.706   4.931   6.853
 1198SOL     OW 4492   3.673   0.431   2.861
 1198SOL    HW1 4493   3.668   0.391   2.952
 1198SOL    HW2 4494   3.668   0.531   2.868
 1199SOL     OW 4495   3.578   3.803   3.914
 1199SOL    HW1 4496   3.512   3.733   3.886
 1199SOL    HW2 4497   3.590   3.868   3.838
 1200SOL     OW 4498   4.596   3.500   1.111
 1200SOL    HW1 4499   4.597   3.548   1.023
 1200SOL    HW2 4500   4.661   3.544   1.173
 1201SOL     OW 4501   1.572   2.260   5.033
 1201SOL    HW1 4502   1.575   2.221   4.941
 1201SOL    HW2 4503   1.489   2.316   5.043
 1202SOL     OW 4504   6.575   6.918   4.537
 1202SOL    HW1 4505   6.629   6.841   4.502
 1202SOL    HW2 4506   6.505   6.884   4.599
 1203SOL     OW 4507   6.178   6.945   2.861
 1203SOL    HW1 4508   6.139   7.019   2.806
 1203SOL    HW2 4509   6.145   6.953   2.955
 1204SOL     OW 4510   1.852   0.133   0.110
 1204SOL    HW1 4511   1.906   0.216   0.096
 1204SOL    HW2 4512   1.796   0.143   0.192
 1205SOL     OW 4513   0.781   2.978   5.952
 1205SOL    HW1 4514   0.872   2.937   5.962
 1205SOL    HW2 4515   0.789   3.070   5.913
 1206SOL     OW 4516   6.853   1.049   4.494
 1206SOL    HW1 4517   6.903   1.047   4.407
 1206SOL    HW2 4518   6.882   1.127   4.548
 1207SOL     OW 4519   6.308   6.221   6.278
 1207SOL    HW1 4520   6.319   6.246   6.182
 1207SOL    HW2 4521   6.223   6.169   6.290
 1208SOL     OW 4522   3.495   3.510   2.811
 1208SOL    HW1 4523   3.415   3.519   2.870
 1208SOL    HW2 4524   3.481   3.435   2.747
 1209SOL     OW 4525   0.166   4.253   4.595
 1209SOL    HW1 4526   0.154   4.178   4.659
 1209SOL    HW2 4527   0.168   4.217   4.501
 1210SOL     OW 4528   2.209   0.279   2.747
 1210SOL    HW1 4529   2.210   0.365   2.695
 1210SOL    HW2 4530   2.127   0.275   2.804
 1211SOL     OW 4531   0.449   3.433   3.277
 1211SOL    HW1 4532   0.516   3.365   3.249
 1211SOL    HW2 4533   0.488   3.490   3.351
 1212SOL     OW 4534   1.283   4.334   4.001
 1212SOL    HW1 4535   1.375   4.365   3.976
 1212SOL    HW2 4536   1.272   4.337   4.100
 1213SOL     OW 4537   5.858   3.697   5.504
 1213SOL    HW1 4538   5.764   3.730   5.493
 1213SOL    HW2 4539   5.891   3.722   5.595
 1214SOL     OW 4540   1.354   1.723   1.515
 1214SOL    HW1 4541   1.284   1.652   1.501
 1214SOL    HW2 4542   1.359   1.746   1.612
 1215SOL     OW 4543   0.433   5.676   2.026
 1215SOL    HW1 4544   0.417   5.714   1.935
 1215SOL    HW2 4545   0.376   5.594   2.038
 1216SOL     OW 4546   2.387   0.127   1.371
 1216SOL    HW1 4547   2.366   0.045   1.316
 1216SOL    HW2 4548   2.468   0.172   1.334
 1217SOL     OW 4549   2.073   2.476   3.062
 1217SOL    HW1 4550   2.045   2.400   3.003
 1217SOL    HW2 4551   2.060   2.562   3.013
 1218SOL     OW 4552   0.783   3.773   3.361
 1218SOL    HW1 4553   0.770   3.866   3.397
 1218SOL    HW2 4554   0.821   3.779   3.269
 1219SOL     OW 4555   2.464   5.787   2.948
 1219SOL    HW1 4556   2.552   5.775   2.902
 1219SOL    HW2 4557   2.467   5.742   3.037
 1220SOL     OW 4558   6.379   5.125   2.610
 1220SOL    HW1 4559   6.397   5.159   2.518
 1220SOL    HW2 4560   6.388   5.025   2.610
 1221SOL     OW 4561   4.626   4.664   5.596
 1221SOL    HW1 4562   4.630   4.597   5.523
 1221SOL    HW2 4563   4.531   4.691   5.612
 1222SOL     OW 4564   7.014   4.297   1.577
 1222SOL    HW1 4565   6.915   4.308   1.572
 1222SOL    HW2 4566   0.008   4.231   1.648
 1223SOL     OW 4567   0.024   4.794   4.838
 1223SOL    HW1 4568   6.988   4.784   4.763
 1223SOL    HW2 4569   0.080   4.712   4.845
 1224SOL     OW 4570   4.595   4.166   1.261
 1224SOL    HW1 4571   4.632   4.134   1.349
 1224SOL    HW2 4572   4.526   4.236   1.277
 1225SOL     OW 4573   4.654   2.051   6.653
 1225SOL    HW1 4574   4.578   2.039   6.717
 1225SOL    HW2 4575   4.740   2.039   6.702
 1226SOL     OW 4576   6.107   5.805   0.892
 1226SOL    HW1 4577   6.160   5.882   0.855
 1226SOL    HW2 4578   6.125   5.723   0.838
 1227SOL     OW 4579   4.710   3.993   0.055
 1227SOL    HW1 4580   4.668   4.068   0.106
 1227SOL    HW2 4581   4.802   3.977   0.090
 1228SOL     OW 4582   3.798   3.932   4.330
 1228SOL    HW1 4583   3.797   3.986   4.414
 1228SOL    HW2 4584   3.763   3.840   4.349
 1229SOL     OW 4585   2.246   5.518   2.424
 1229SOL    HW1 4586   2.309   5.575   2.477
 1229SOL    HW2 4587   2.183   5.472   2.486
 1230SOL     OW 4588   4.623   4.140   0.429
 1230SOL    HW1 4589   4.554   4.206   0.460
 1230SOL    HW2 4590   4.579   4.068   0.377
 1231SOL     OW 4591   2.426   1.378   0.441
 1231SOL    HW1 4592   2.356   1.422   0.384
 1231SOL    HW2 4593   2.447   1.437   0.520
 1232SOL     OW 4594   2.759   2.169   5.905
 1232SOL    HW1 4595   2.827   2.239   5.885
 1232SOL    HW2 4596   2.670   2.197   5.869
 1233SOL     OW 4597   0.441   5.265   4.434
 1233SOL    HW1 4598   0.421   5.167   4.426
 1233SOL    HW2 4599   0.465   5.301   4.344
 1234SOL     OW 4600   6.319   4.549   6.058
 1234SOL    HW1 4601   6.380   4.579   5.984
 1234SOL    HW2 4602   6.370   4.493   6.123
 1235SOL     OW 4603   6.116   5.121   0.869
 1235SOL    HW1 4604   6.195   5.105   0.811
 1235SOL    HW2 4605   6.036   5.140   0.812
 1236SOL     OW 4606   0.638   1.160   2.910
 1236SOL    HW1 4607   0.715   1.203   2.957
 1236SOL    HW2 4608   0.624   1.204   2.821
 1237SOL     OW 4609   1.005   0.407   4.202
 1237SOL    HW1 4610   1.019   0.447   4.112
 1237SOL    HW2 4611   0.932   0.339   4.198
 1238SOL     OW 4612   0.218   0.908   3.983
 1238SOL    HW1 4613   0.196   0.811   3.993
 1238SOL    HW2 4614   0.304   0.928   4.031
 1239SOL     OW 4615   4.966   4.537   3.632
 1239SOL    HW1 4616   5.052   4.537   3.582
 1239SOL    HW2 4617   4.893   4.573   3.573
 1240SOL     OW 4618   0.452   3.870   1.315
 1240SOL    HW1 4619   0.501   3.783   1.311
 1240SOL    HW2 4620   0.508   3.943   1.274
 1241SOL     OW 4621   3.358   5.523   5.861
 1241SOL    HW1 4622   3.417   5.604   5.866
 1241SOL    HW2 4623   3.346   5.497   5.765
 1242SOL     OW 4624   2.126   5.535   0.770
 1242SOL    HW1 4625   2.217   5.495   0.786
 1242SOL    HW2 4626   2.102   5.523   0.673
 1243SOL     OW 4627   0.011   3.749   3.711
 1243SOL    HW1 4628   7.014   3.834   3.755
 1243SOL    HW2 4629   0.108   3.753   3.684
 1244SOL     OW 4630   6.925   6.572   4.935
 1244SOL    HW1 4631   6.860   6.631   4.887
 1244SOL    HW2 4632   7.015   6.615   4.935
 1245SOL     OW 4633   4.781   6.722   1.142
 1245SOL    HW1 4634   4.855   6.673   1.188
 1245SOL    HW2 4635   4.740   6.787   1.206
 1246SOL     OW 4636   5.696   2.384   1.845
 1246SOL    HW1 4637   5.720   2.345   1.757
 1246SOL    HW2 4638   5.597   2.397   1.850
 1247SOL     OW 4639   5.112   6.611   2.122
 1247SOL    HW1 4640   5.194   6.607   2.179
 1247SOL    HW2 4641   5.068   6.700   2.133
 1248SOL     OW 4642   0.686   0.039   4.964
 1248SOL    HW1 4643   0.642   6.996   4.911
 1248SOL    HW2 4644   0.622   0.072   5.034
 1249SOL     OW 4645   6.149   6.494   6.576
 1249SOL    HW1 4646   6.091   6.544   6.641
 1249SOL    HW2 4647   6.123   6.398   6.575
 1250SOL     OW 4648   0.314   4.486   5.085
 1250SOL    HW1 4649   0.239   4.497   5.019
 1250SOL    HW2 4650   0.349   4.575   5.111
 1251SOL     OW 4651   2.709   0.411   2.850
 1251SOL    HW1 4652   2.765   0.351   2.907
 1251SOL    HW2 4653   2.615   0.412   2.884
 1252SOL     OW 4654   2.346   5.118   6.328
 1252SOL    HW1 4655   2.259   5.068   6.323
 1252SOL    HW2 4656   2.337   5.195   6.390
 1253SOL     OW 4657   3.023   5.708   0.210
 1253SOL    HW1 4658   3.088   5.773   0.249
 1253SOL    HW2 4659   3.069   5.651   0.142
 1254SOL     OW 4660   6.405   1.284   3.911
 1254SOL    HW1 4661   6.441   1.374   3.936
 1254SOL    HW2 4662   6.447   1.214   3.968
 1255SOL     OW 4663   6.148   2.152   6.119
 1255SOL    HW1 4664   6.132   2.055   6.099
 1255SOL    HW2 4665   6.133   2.205   6.036
 1256SOL     OW 4666   6.813   5.397   5.657
 1256SOL    HW1 4667   6.838   5.349   5.573
 1256SOL    HW2 4668   6.748   5.469   5.636
 1257SOL     OW 4669   0.100   6.325   3.404
 1257SOL    HW1 4670   0.167   6.253   3.421
 1257SOL    HW2 4671   0.109   6.356   3.309
 1258SOL     OW 4672   4.357   5.333   6.771
 1258SOL    HW1 4673   4.265   5.357   6.802
 1258SOL    HW2 4674   4.419   5.411   6.787
 1259SOL     OW 4675   5.522   6.880   5.034
 1259SOL    HW1 4676   5.607   6.901   5.082
 1259SOL    HW2 4677   5.536   6.803   4.972
 1260SOL     OW 4678   3.154   0.992   0.394
 1260SOL    HW1 4679   3.096   0.912   0.396
 1260SOL    HW2 4680   3.177   1.020   0.488
 1261SOL     OW 4681   0.245   4.511   4.646
 1261SOL    HW1 4682   0.218   4.418   4.624
 1261SOL    HW2 4683   0.206   4.574   4.578
 1262SOL     OW 4684   3.926   5.830   1.684
 1262SOL    HW1 4685   3.989   5.753   1.694
 1262SOL    HW2 4686   3.970   5.914   1.713
 1263SOL     OW 4687   6.913   1.487   1.507
 1263SOL    HW1 4688   6.821   1.524   1.494
 1263SOL    HW2 4689   6.911   1.388   1.495
 1264SOL     OW 4690   6.146   2.314   4.746
 1264SOL    HW1 4691   6.104   2.241   4.801
 1264SOL    HW2 4692   6.228   2.347   4.793
 1265SOL     OW 4693   6.075   5.730   4.915
 1265SOL    HW1 4694   6.047   5.743   4.820
 1265SOL    HW2 4695   6.060   5.816   4.966
 1266SOL     OW 4696   2.968   0.857   3.638
 1266SOL    HW1 4697   3.007   0.841   3.548
 1266SOL    HW2 4698   2.992   0.781   3.699
 1267SOL     OW 4699   0.537   4.316   2.163
 1267SOL    HW1 4700   0.441   4.344   2.153
 1267SOL    HW2 4701   0.590   4.354   2.087
 1268SOL     OW 4702   5.975   4.469   6.790
 1268SOL    HW1 4703   5.924   4.412   6.853
 1268SOL    HW2 4704   6.070   4.438   6.786
 1269SOL     OW 4705   6.763   4.788   6.452
 1269SOL    HW1 4706   6.738   4.691   6.444
 1269SOL    HW2 4707   6.862   4.796   6.462
 1270SOL     OW 4708   1.433   1.803   3.883
 1270SOL    HW1 4709   1.531   1.793   3.904
 1270SOL    HW2 4710   1.417   1.891   3.839
 1271SOL     OW 4711   5.805   2.745   3.161
 1271SOL    HW1 4712   5.780   2.789   3.075
 1271SOL    HW2 4713   5.851   2.658   3.142
 1272SOL     OW 4714   6.270   6.495   0.041
 1272SOL    HW1 4715   6.249   6.570   7.008
 1272SOL    HW2 4716   6.315   6.532   0.122
 1273SOL     OW 4717   2.569   6.945   4.938
 1273SOL    HW1 4718   2.665   6.936   4.966
 1273SOL    HW2 4719   2.563   6.940   4.839
 1274SOL     OW 4720   5.703   2.339   2.154
 1274SOL    HW1 4721   5.671   2.342   2.059
 1274SOL    HW2 4722   5.648   2.274   2.206
 1275SOL     OW 4723   4.116   1.583   3.803
 1275SOL    HW1 4724   4.018   1.601   3.788
 1275SOL    HW2 4725   4.153   1.533   3.725
 1276SOL     OW 4726   5.790   6.931   2.652
 1276SOL    HW1 4727   5.809   6.887   2.740
 1276SOL    HW2 4728   5.695   6.959   2.649
 1277SOL     OW 4729   1.255   1.390   4.544
 1277SOL    HW1 4730   1.205   1.475   4.526
 1277SOL    HW2 4731   1.278   1.384   4.641
 1278SOL     OW 4732   3.422   1.715   5.062
 1278SOL    HW1 4733   3.455   1.767   4.982
 1278SOL    HW2 4734   3.325   1.694   5.050
 1279SOL     OW 4735   2.186   5.250   0.525
 1279SOL    HW1 4736   2.138   5.242   0.438
 1279SOL    HW2 4737   2.228   5.340   0.532
 1280SOL     OW 4738   1.438   5.993   2.852
 1280SOL    HW1 4739   1.500   5.996   2.931
 1280SOL    HW2 4740   1.359   6.050   2.870
 1281SOL     OW 4741   0.724   6.563   3.994
 1281SOL    HW1 4742   0.673   6.516   3.922
 1281SOL    HW2 4743   0.740   6.500   4.070
 1282SOL     OW 4744   1.634   6.323   2.673
 1282SOL    HW1 4745   1.591   6.288   2.756
 1282SOL    HW2 4746   1.725   6.358   2.694
 1283SOL     OW 4747   5.019   4.095   5.233
 1283SOL    HW1 4748   5.006   4.018   5.295
 1283SOL    HW2 4749   5.077   4.164   5.277
 1284SOL     OW 4750   3.040   1.748   2.997
 1284SOL    HW1 4751   2.973   1.806   2.949
 1284SOL    HW2 4752   2.992   1.688   3.061
 1285SOL     OW 4753   5.842   2.912   6.074
 1285SOL    HW1 4754   5.843   2.966   6.158
 1285SOL    HW2 4755   5.927   2.859   6.068
 1286SOL     OW 4756   5.729   5.698   1.081
 1286SOL    HW1 4757   5.817   5.670   1.119
 1286SOL    HW2 4758   5.738   5.789   1.041
 1287SOL     OW 4759   6.351   3.838   5.706
 1287SOL    HW1 4760   6.279   3.854   5.774
 1287SOL    HW2 4761   6.425   3.904   5.719
 1288SOL     OW 4762   6.734   3.703   3.754
 1288SOL    HW1 4763   6.824   3.671   3.784
 1288SOL    HW2 4764   6.715   3.666   3.663
 1289SOL     OW 4765   0.202   5.098   2.763
 1289SOL    HW1 4766   0.278   5.079   2.826
 1289SOL    HW2 4767   0.193   5.197   2.752
 1290SOL     OW 4768   0.572   0.018   1.850
 1290SOL    HW1 4769   0.520   0.054   1.773
 1290SOL    HW2 4770   0.585   0.091   1.918
 1291SOL     OW 4771   1.501   6.032   1.265
 1291SOL    HW1 4772   1.417   6.064   1.222
 1291SOL    HW2 4773   1.496   5.933   1.279
 1292SOL     OW 4774   1.478   5.881   6.742
 1292SOL    HW1 4775   1.500   5.802   6.799
 1292SOL    HW2 4776   1.405   5.934   6.786
 1293SOL     OW 4777   6.343   2.053   6.622
 1293SOL    HW1 4778   6.413   2.029   6.555
 1293SOL    HW2 4779   6.320   2.150   6.613
 1294SOL     OW 4780   0.456   1.605   3.591
 1294SOL    HW1 4781   0.359   1.620   3.612
 1294SOL    HW2 4782   0.464   1.551   3.507
 1295SOL     OW 4783   5.021   3.566   1.420
 1295SOL    HW1 4784   4.956   3.596   1.350
 1295SOL    HW2 4785   4.986   3.483   1.464
 1296SOL     OW 4786   3.551   1.940   6.962
 1296SOL    HW1 4787   3.639   1.979   6.989
 1296SOL    HW2 4788   3.506   1.900   0.012
 1297SOL     OW 4789   6.903   0.554   5.797
 1297SOL    HW1 4790   6.872   0.590   5.885
 1297SOL    HW2 4791   6.985   0.604   5.768
 1298SOL     OW 4792   6.529   3.136   3.366
 1298SOL    HW1 4793   6.605   3.076   3.390
 1298SOL    HW2 4794   6.477   3.096   3.291
 1299SOL     OW 4795   1.765   3.213   4.368
 1299SOL    HW1 4796   1.836   3.250   4.308
 1299SOL    HW2 4797   1.789   3.119   4.395
 1300SOL     OW 4798   4.071   3.267   2.882
 1300SOL    HW1 4799   4.158   3.315   2.894
 1300SOL    HW2 4800   4.001   3.332   2.850
 1301SOL     OW 4801   1.338   1.649   2.261
 1301SOL    HW1 4802   1.269   1.722   2.261
 1301SOL    HW2 4803   1.300   1.566   2.302
 1302SOL     OW 4804   2.396   6.284   5.741
 1302SOL    HW1 4805   2.357   6.301   5.651
 1302SOL    HW2 4806   2.353   6.203   5.781
 1303SOL     OW 4807   3.280   0.428   1.261
 1303SOL    HW1 4808   3.279   0.527   1.275
 1303SOL    HW2 4809   3.217   0.404   1.187
 1304SOL     OW 4810   3.733   1.055   5.789
 1304SOL    HW1 4811   3.763   1.035   5.696
 1304SOL    HW2 4812   3.649   1.004   5.809
 1305SOL     OW 4813   5.802   6.539   3.835
 1305SOL    HW1 4814   5.797   6.439   3.835
 1305SOL    HW2 4815   5.767   6.574   3.748
 1306SOL     OW 4816   1.598   5.458   4.640
 1306SOL    HW1 4817   1.541   5.494   4.713
 1306SOL    HW2 4818   1.659   5.388   4.677
 1307SOL     OW 4819   1.021   0.867   4.186
 1307SOL    HW1 4820   1.111   0.911   4.198
 1307SOL    HW2 4821   0.951   0.922   4.231
 1308SOL     OW 4822   4.544   5.949   3.222
 1308SOL    HW1 4823   4.621   5.959   3.285
 1308SOL    HW2 4824   4.576   5.964   3.129
 1309SOL     OW 4825   5.083   3.124   4.539
 1309SOL    HW1 4826   5.142   3.179   4.480
 1309SOL    HW2 4827   5.139   3.055   4.586
 1310SOL     OW 4828   5.166   3.362   5.727
 1310SOL    HW1 4829   5.217   3.421   5.790
 1310SOL    HW2 4830   5.169   3.267   5.761
 1311SOL     OW 4831   4.817   5.047   5.827
 1311SOL    HW1 4832   4.904   5.071   5.782
 1311SOL    HW2 4833   4.804   4.948   5.821
 1312SOL     OW 4834   6.695   0.565   1.881
 1312SOL    HW1 4835   6.632   0.504   1.928
 1312SOL    HW2 4836   6.679   0.659   1.910
 1313SOL     OW 4837   3.120   5.181   4.871
 1313SOL    HW1 4838   3.193   5.115   4.890
 1313SOL    HW2 4839   3.105   5.238   4.952
 1314SOL     OW 4840   6.514   1.223   5.863
 1314SOL    HW1 4841   6.571   1.170   5.800
 1314SOL    HW2 4842   6.423   1.182   5.869
 1315SOL     OW 4843   1.840   6.819   3.528
 1315SOL    HW1 4844   1.799   6.883   3.462
 1315SOL    HW2 4845   1.827   6.725   3.495
 1316SOL     OW 4846   3.057   6.432   3.243
 1316SOL    HW1 4847   3.015   6.362   3.186
 1316SOL    HW2 4848   3.014   6.520   3.224
 1317SOL     OW 4849   0.566   3.586   4.036
 1317SOL    HW1 4850   0.589   3.669   4.087
 1317SOL    HW2 4851   0.549   3.511   4.101
 1318SOL     OW 4852   1.008   6.396   1.455
 1318SOL    HW1 4853   0.976   6.319   1.399
 1318SOL    HW2 4854   1.082   6.443   1.408
 1319SOL     OW 4855   6.531   0.176   0.568
 1319SOL    HW1 4856   6.542   0.155   0.471
 1319SOL    HW2 4857   6.466   0.251   0.578
 1320SOL     OW 4858   5.155   5.716   4.597
 1320SOL    HW1 4859   5.231   5.764   4.641
 1320SOL    HW2 4860   5.081   5.781   4.579
 1321SOL     OW 4861   3.683   1.364   0.403
 1321SOL    HW1 4862   3.750   1.418   0.353
 1321SOL    HW2 4863   3.649   1.290   0.345
 1322SOL     OW 4864   5.254   1.353   6.401
 1322SOL    HW1 4865   5.172   1.334   6.347
 1322SOL    HW2 4866   5.317   1.408   6.347
 1323SOL     OW 4867   6.623   0.645   3.786
 1323SOL    HW1 4868   6.662   0.735   3.771
 1323SOL    HW2 4869   6.583   0.641   3.877
 1324SOL     OW 4870   1.172   2.424   0.586
 1324SOL    HW1 4871   1.075   2.447   0.581
 1324SOL    HW2 4872   1.224   2.504   0.613
 1325SOL     OW 4873   4.194   5.647   4.198
 1325SOL    HW1 4874   4.139   5.730   4.206
 1325SOL    HW2 4875   4.181   5.607   4.107
 1326SOL     OW 4876   5.611   4.001   4.952
 1326SOL    HW1 4877   5.627   3.917   4.901
 1326SOL    HW2 4878   5.515   4.007   4.978
 1327SOL     OW 4879   3.003   6.178   4.413
 1327SOL    HW1 4880   2.924   6.227   4.378
 1327SOL    HW2 4881   3.085   6.234   4.403
 1328SOL     OW 4882   2.550   1.288   1.268
 1328SOL    HW1 4883   2.550   1.290   1.368
 1328SOL    HW2 4884   2.626   1.343   1.234
 1329SOL     OW 4885   1.369   6.576   1.650
 1329SOL    HW1 4886   1.403   6.571   1.744
 1329SOL    HW2 4887   1.394   6.664   1.610
 1330SOL     OW 4888   4.715   6.453   1.098
 1330SOL    HW1 4889   4.810   6.428   1.082
 1330SOL    HW2 4890   4.701   6.550   1.078
 1331SOL     OW 4891   1.013   2.115   1.895
 1331SOL    HW1 4892   0.992   2.074   1.984
 1331SOL    HW2 4893   1.064   2.200   1.909
 1332SOL     OW 4894   4.569   2.120   1.256
 1332SOL    HW1 4895   4.599   2.083   1.168
 1332SOL    HW2 4896   4.532   2.212   1.242
 1333SOL     OW 4897   4.151   3.623   4.957
 1333SOL    HW1 4898   4.173   3.569   4.876
 1333SOL    HW2 4899   4.143   3.719   4.932
 1334SOL     OW 4900   0.759   3.166   3.960
 1334SOL    HW1 4901   0.799   3.079   3.932
 1334SOL    HW2 4902   0.828   3.221   4.007
 1335SOL     OW 4903   1.541   5.657   3.174
 1335SOL    HW1 4904   1.516   5.701   3.260
 1335SOL    HW2 4905   1.489   5.698   3.099
 1336SOL     OW 4906   6.999   6.974   5.555
 1336SOL    HW1 4907   6.991   6.881   5.519
 1336SOL    HW2 4908   0.066   6.998   5.562
 1337SOL     OW 4909   4.164   6.991   0.243
 1337SOL    HW1 4910   4.138   0.028   0.313
 1337SOL    HW2 4911   4.131   7.021   0.154
 1338SOL     OW 4912   3.024   5.135   1.198
 1338SOL    HW1 4913   2.945   5.110   1.141
 1338SOL    HW2 4914   2.995   5.202   1.266
 1339SOL     OW 4915   0.159   4.155   6.799
 1339SOL    HW1 4916   0.242   4.188   6.844
 1339SOL    HW2 4917   0.168   4.166   6.700
 1340SOL     OW 4918   2.813   1.303   6.014
 1340SOL    HW1 4919   2.906   1.337   5.997
 1340SOL    HW2 4920   2.753   1.379   6.039
 1341SOL     OW 4921   5.662   2.640   4.404
 1341SOL    HW1 4922   5.588   2.577   4.381
 1341SOL    HW2 4923   5.623   2.724   4.444
 1342SOL     OW 4924   0.497   6.833   1.517
 1342SOL    HW1 4925   0.587   6.866   1.546
 1342SOL    HW2 4926   0.464   6.766   1.583
 1343SOL     OW 4927   2.642   6.062   4.160
 1343SOL    HW1 4928   2.728   6.060   4.210
 1343SOL    HW2 4929   2.566   6.047   4.224
 1344SOL     OW 4930   5.473   1.657   2.772
 1344SOL    HW1 4931   5.421   1.679   2.689
 1344SOL    HW2 4932   5.527   1.736   2.798
 1345SOL     OW 4933   0.331   5.730   2.623
 1345SOL    HW1 4934   0.415   5.779   2.646
 1345SOL    HW2 4935   0.272   5.788   2.566
 1346SOL     OW 4936   0.070   1.537   3.327
 1346SOL    HW1 4937   0.119   1.624   3.325
 1346SOL    HW2 4938   0.122   1.471   3.381
 1347SOL     OW 4939   4.464   0.774   3.785
 1347SOL    HW1 4940   4.408   0.718   3.846
 1347SOL    HW2 4941   4.424   0.773   3.693
 1348SOL     OW 4942   4.614   5.693   4.504
 1348SOL    HW1 4943   4.608   5.783   4.548
 1348SOL    HW2 4944   4.592   5.702   4.407
 1349SOL     OW 4945   4.574   2.061   0.235
 1349SOL    HW1 4946   4.633   1.986   0.205
 1349SOL    HW2 4947   4.594   2.082   0.331
 1350SOL     OW 4948   2.948   0.809   4.978
 1350SOL    HW1 4949   2.856   0.839   4.952
 1350SOL    HW2 4950   2.950   0.787   5.076
 1351SOL     OW 4951   1.912   1.679   3.539
 1351SOL    HW1 4952   1.989   1.646   3.485
 1351SOL    HW2 4953   1.944   1.743   3.608
 1352SOL     OW 4954   1.154   6.479   4.432
 1352SOL    HW1 4955   1.237   6.428   4.453
 1352SOL    HW2 4956   1.150   6.561   4.488
 1353SOL     OW 4957   2.184   3.137   5.358
 1353SOL    HW1 4958   2.281   3.163   5.361
 1353SOL    HW2 4959   2.144   3.148   5.449
 1354SOL     OW 4960   0.714   0.079   6.934
 1354SOL    HW1 4961   0.789   0.141   6.957
 1354SOL    HW2 4962   0.645   0.129   6.882
 1355SOL     OW 4963   4.122   2.985   6.895
 1355SOL    HW1 4964   4.179   2.904   6.912
 1355SOL    HW2 4965   4.058   2.966   6.820
 1356SOL     OW 4966   3.355   2.557   1.697
 1356SOL    HW1 4967   3.292   2.602   1.760
 1356SOL    HW2 4968   3.306   2.490   1.642
 1357SOL     OW 4969   3.645   2.683   5.742
 1357SOL    HW1 4970   3.624   2.592   5.706
 1357SOL    HW2 4971   3.609   2.752   5.680
 1358SOL     OW 4972   1.617   3.495   5.696
 1358SOL    HW1 4973   1.695   3.555   5.678
 1358SOL    HW2 4974   1.566   3.531   5.775
 1359SOL     OW 4975   0.254   1.811   6.273
 1359SOL    HW1 4976   0.254   1.750   6.351
 1359SOL    HW2 4977   0.340   1.863   6.271
 1360SOL     OW 4978   3.269   3.609   4.137
 1360SOL    HW1 4979   3.350   3.568   4.095
 1360SOL    HW2 4980   3.193   3.607   4.073
 1361SOL     OW 4981   0.862   6.642   1.067
 1361SOL    HW1 4982   0.861   6.727   1.014
 1361SOL    HW2 4983   0.942   6.587   1.041
 1362SOL     OW 4984   3.379   1.853   6.752
 1362SOL    HW1 4985   3.282   1.833   6.769
 1362SOL    HW2 4986   3.423   1.876   6.839
 1363SOL     OW 4987   7.010   6.623   0.865
 1363SOL    HW1 4988   7.003   6.589   0.771
 1363SOL    HW2 4989   7.012   6.723   0.864
 1364SOL     OW 4990   1.388   3.581   0.844
 1364SOL    HW1 4991   1.422   3.659   0.896
 1364SOL    HW2 4992   1.348   3.513   0.906
 1365SOL     OW 4993   0.969   3.293   6.347
 1365SOL    HW1 4994   1.051   3.286   6.290
 1365SOL    HW2 4995   0.984   3.359   6.420
 1366SOL     OW 4996   3.664   0.133   1.286
 1366SOL    HW1 4997   3.629   0.226   1.298
 1366SOL    HW2 4998   3.762   0.133   1.306
 1367SOL     OW 4999   1.203   0.008   4.552
 1367SOL    HW1 5000   1.222   0.097   4.511
 1367SOL    HW2 5001   1.112   0.010   4.594
 1368SOL     OW 5002   1.662   6.382   4.572
 1368SOL    HW1 5003   1.673   6.283   4.578
 1368SOL    HW2 5004   1.699   6.414   4.485
 1369SOL     OW 5005   2.066   5.590   4.175
 1369SOL    HW1 5006   2.000   5.636   4.236
 1369SOL    HW2 5007   2.024   5.579   4.084
 1370SOL     OW 5008   6.594   2.360   3.203
 1370SOL    HW1 5009   6.584   2.420   3.123
 1370SOL    HW2 5010   6.660   2.401   3.267
 1371SOL     OW 5011   5.973   2.110   5.710
 1371SOL    HW1 5012   5.946   2.020   5.745
 1371SOL    HW2 5013   5.892   2.163   5.687
 1372SOL     OW 5014   5.594   2.552   1.485
 1372SOL    HW1 5015   5.553   2.550   1.576
 1372SOL    HW2 5016   5.690   2.523   1.491
 1373SOL     OW 5017   5.905   3.159   1.605
 1373SOL    HW1 5018   5.874   3.071   1.639
 1373SOL    HW2 5019   5.912   3.155   1.505
 1374SOL     OW 5020   4.087   3.255   2.410
 1374SOL    HW1 5021   4.009   3.192   2.420
 1374SOL    HW2 5022   4.109   3.265   2.313
 1375SOL     OW 5023   5.325   4.657   4.390
 1375SOL    HW1 5024   5.417   4.656   4.351
 1375SOL    HW2 5025   5.316   4.737   4.449
 1376SOL     OW 5026   2.975   4.126   5.606
 1376SOL    HW1 5027   2.967   4.105   5.509
 1376SOL    HW2 5028   2.944   4.220   5.622
 1377SOL     OW 5029   1.154   1.790   3.081
 1377SOL    HW1 5030   1.135   1.733   3.162
 1377SOL    HW2 5031   1.222   1.859   3.104
 1378SOL     OW 5032   4.967   2.184   4.280
 1378SOL    HW1 5033   4.898   2.252   4.255
 1378SOL    HW2 5034   5.053   2.230   4.303
 1379SOL     OW 5035   4.290   5.440   0.248
 1379SOL    HW1 5036   4.364   5.387   0.289
 1379SOL    HW2 5037   4.259   5.395   0.164
 1380SOL     OW 5038   0.568   6.114   3.741
 1380SOL    HW1 5039   0.619   6.057   3.806
 1380SOL    HW2 5040   0.530   6.057   3.669
 1381SOL     OW 5041   6.308   2.721   5.872
 1381SOL    HW1 5042   6.402   2.720   5.906
 1381SOL    HW2 5043   6.301   2.786   5.796
 1382SOL     OW 5044   4.082   2.198   6.409
 1382SOL    HW1 5045   4.130   2.127   6.357
 1382SOL    HW2 5046   4.141   2.278   6.419
 1383SOL     OW 5047   6.357   0.698   1.024
 1383SOL    HW1 5048   6.386   0.630   0.958
 1383SOL    HW2 5049   6.436   0.727   1.080
 1384SOL     OW 5050   6.010   1.979   1.852
 1384SOL    HW1 5051   6.095   1.978   1.905
 1384SOL    HW2 5052   5.933   2.002   1.912
 1385SOL     OW 5053   0.070   5.964   1.868
 1385SOL    HW1 5054   0.163   5.959   1.905
 1385SOL    HW2 5055   0.050   5.882   1.815
 1386SOL     OW 5056   1.948   6.296   4.017
 1386SOL    HW1 5057   1.965   6.352   4.098
 1386SOL    HW2 5058   2.033   6.286   3.965
 1387SOL     OW 5059   1.911   5.881   1.642
 1387SOL    HW1 5060   1.920   5.808   1.710
 1387SOL    HW2 5061   1.992   5.882   1.583
 1388SOL     OW 5062   6.563   0.372   1.675
 1388SOL    HW1 5063   6.480   0.385   1.730
 1388SOL    HW2 5064   6.550   0.295   1.613
 1389SOL     OW 5065   6.074   0.987   2.053
 1389SOL    HW1 5066   6.168   0.954   2.044
 1389SOL    HW2 5067   6.064   1.036   2.140
 1390SOL     OW 5068   1.475   1.693   4.370
 1390SOL    HW1 5069   1.532   1.774   4.361
 1390SOL    HW2 5070   1.407   1.692   4.297
 1391SOL     OW 5071   0.368   2.850   3.616
 1391SOL    HW1 5072   0.321   2.826   3.701
 1391SOL    HW2 5073   0.348   2.781   3.547
 1392SOL     OW 5074   5.156   4.106   4.098
 1392SOL    HW1 5075   5.243   4.056   4.092
 1392SOL    HW2 5076   5.086   4.057   4.047
 1393SOL     OW 5077   3.889   5.110   6.346
 1393SOL    HW1 5078   3.911   5.184   6.282
 1393SOL    HW2 5079   3.974   5.062   6.370
 1394SOL     OW 5080   1.264   6.044   6.828
 1394SOL    HW1 5081   1.182   6.093   6.799
 1394SOL    HW2 5082   1.238   5.960   6.877
 1395SOL     OW 5083   3.844   4.605   5.988
 1395SOL    HW1 5084   3.830   4.649   5.899
 1395SOL    HW2 5085   3.845   4.674   6.059
 1396SOL     OW 5086   5.690   6.044   3.581
 1396SOL    HW1 5087   5.737   6.057   3.668
 1396SOL    HW2 5088   5.629   5.965   3.588
 1397SOL     OW 5089   4.886   6.261   5.227
 1397SOL    HW1 5090   4.858   6.355   5.244
 1397SOL    HW2 5091   4.982   6.250   5.254
 1398SOL     OW 5092   1.749   0.601   4.387
 1398SOL    HW1 5093   1.784   0.666   4.320
 1398SOL    HW2 5094   1.762   0.637   4.479
 1399SOL     OW 5095   2.835   5.727   2.146
 1399SOL    HW1 5096   2.786   5.669   2.081
 1399SOL    HW2 5097   2.771   5.793   2.187
 1400SOL     OW 5098   1.260   0.386   2.819
 1400SOL    HW1 5099   1.311   0.361   2.901
 1400SOL    HW2 5100   1.321   0.435   2.756
 1401SOL     OW 5101   6.698   1.806   4.249
 1401SOL    HW1 5102   6.743   1.760   4.325
 1401SOL    HW2 5103   6.599   1.807   4.265
 1402SOL     OW 5104   6.558   3.010   6.848
 1402SOL    HW1 5105   6.583   3.066   6.769
 1402SOL    HW2 5106   6.543   3.068   6.928
 1403SOL     OW 5107   3.692   0.623   2.070
 1403SOL    HW1 5108   3.652   0.653   1.983
 1403SOL    HW2 5109   3.782   0.665   2.082
 1404SOL     OW 5110   4.959   1.946   0.571
 1404SOL    HW1 5111   4.873   1.902   0.596
 1404SOL    HW2 5112   4.947   2.045   0.568
 1405SOL     OW 5113   3.263   2.735   1.447
 1405SOL    HW1 5114   3.300   2.650   1.409
 1405SOL    HW2 5115   3.163   2.732   1.442
 1406SOL     OW 5116   1.183   4.002   1.660
 1406SOL    HW1 5117   1.153   3.958   1.745
 1406SOL    HW2 5118   1.277   4.034   1.671
 1407SOL     OW 5119   6.658   2.232   2.475
 1407SOL    HW1 5120   6.649   2.254   2.378
 1407SOL    HW2 5121   6.752   2.204   2.494
 1408SOL     OW 5122   6.096   6.058   6.317
 1408SOL    HW1 5123   6.061   6.024   6.404
 1408SOL    HW2 5124   6.171   5.998   6.285
 1409SOL     OW 5125   0.620   1.358   3.809
 1409SOL    HW1 5126   0.643   1.452   3.832
 1409SOL    HW2 5127   0.548   1.325   3.870
 1410SOL     OW 5128   6.331   2.263   7.013
 1410SOL    HW1 5129   6.303   2.170   6.988
 1410SOL    HW2 5130   6.257   2.307   0.034
 1411SOL     OW 5131   1.713   0.696   2.103
 1411SOL    HW1 5132   1.645   0.742   2.047
 1411SOL    HW2 5133   1.797   0.684   2.051
 1412SOL     OW 5134   1.072   2.672   6.692
 1412SOL    HW1 5135   1.118   2.761   6.691
 1412SOL    HW2 5136   1.112   2.615   6.764
 1413SOL     OW 5137   2.437   6.700   3.264
 1413SOL    HW1 5138   2.513   6.692   3.200
 1413SOL    HW2 5139   2.402   6.610   3.287
 1414SOL     OW 5140   2.707   0.969   1.890
 1414SOL    HW1 5141   2.621   0.933   1.854
 1414SOL    HW2 5142   2.744   0.905   1.958
 1415SOL     OW 5143   4.864   6.037   4.730
 1415SOL    HW1 5144   4.926   6.085   4.668
 1415SOL    HW2 5145   4.915   5.973   4.786
 1416SOL     OW 5146   4.363   5.438   3.773
 1416SOL    HW1 5147   4.452   5.484   3.771
 1416SOL    HW2 5148   4.368   5.353   3.721
 1417SOL     OW 5149   3.162   3.141   6.138
 1417SOL    HW1 5150   3.155   3.088   6.222
 1417SOL    HW2 5151   3.205   3.230   6.159
 1418SOL     OW 5152   3.405   4.115   2.966
 1418SOL    HW1 5153   3.439   4.186   3.028
 1418SOL    HW2 5154   3.337   4.059   3.014
 1419SOL     OW 5155   3.995   6.211   3.865
 1419SOL    HW1 5156   3.998   6.131   3.804
 1419SOL    HW2 5157   4.013   6.294   3.811
 1420SOL     OW 5158   0.326   5.970   1.954
 1420SOL    HW1 5159   0.330   5.949   2.052
 1420SOL    HW2 5160   0.412   6.011   1.925
 1421SOL     OW 5161   3.853   1.069   2.109
 1421SOL    HW1 5162   3.757   1.090   2.128
 1421SOL    HW2 5163   3.877   0.982   2.152
 1422SOL     OW 5164   2.732   0.344   0.347
 1422SOL    HW1 5165   2.646   0.356   0.396
 1422SOL    HW2 5166   2.783   0.268   0.388
 1423SOL     OW 5167   5.072   0.624   1.789
 1423SOL    HW1 5168   5.002   0.693   1.809
 1423SOL    HW2 5169   5.068   0.551   1.857
 1424SOL     OW 5170   0.113   4.925   2.553
 1424SOL    HW1 5171   0.126   4.830   2.524
 1424SOL    HW2 5172   0.194   4.957   2.603
 1425SOL     OW 5173   1.511   0.205   4.442
 1425SOL    HW1 5174   1.474   0.219   4.350
 1425SOL    HW2 5175   1.488   0.284   4.500
 1426SOL     OW 5176   1.951   1.274   5.316
 1426SOL    HW1 5177   2.050   1.268   5.310
 1426SOL    HW2 5178   1.925   1.369   5.336
 1427SOL     OW 5179   5.739   0.507   5.216
 1427SOL    HW1 5180   5.665   0.447   5.246
 1427SOL    HW2 5181   5.711   0.602   5.227
 1428SOL     OW 5182   5.455   1.148   0.362
 1428SOL    HW1 5183   5.357   1.158   0.346
 1428SOL    HW2 5184   5.475   1.163   0.458
 1429SOL     OW 5185   5.906   6.651   6.967
 1429SOL    HW1 5186   5.878   6.746   6.986
 1429SOL    HW2 5187   6.004   6.648   6.951
 1430SOL     OW 5188   2.090   4.506   3.009
 1430SOL    HW1 5189   2.155   4.579   2.989
 1430SOL    HW2 5190   2.136   4.418   3.000
 1431SOL     OW 5191   1.552   0.009   1.015
 1431SOL    HW1 5192   1.616   0.028   1.089
 1431SOL    HW2 5193   1.601   6.996   0.939
 1432SOL     OW 5194   2.974   0.228   0.822
 1432SOL    HW1 5195   3.064   0.223   0.779
 1432SOL    HW2 5196   2.912   0.280   0.763
 1433SOL     OW 5197   4.146   0.214   4.184
 1433SOL    HW1 5198   4.178   0.305   4.158
 1433SOL    HW2 5199   4.134   0.158   4.102
 1434SOL     OW 5200   1.187   1.089   5.097
 1434SOL    HW1 5201   1.129   1.080   5.016
 1434SOL    HW2 5202   1.172   1.179   5.139
 1435SOL     OW 5203   6.886   2.170   3.364
 1435SOL    HW1 5204   6.880   2.256   3.313
 1435SOL    HW2 5205   6.838   2.178   3.451
 1436SOL     OW 5206   4.447   3.684   0.584
 1436SOL    HW1 5207   4.395   3.703   0.668
 1436SOL    HW2 5208   4.532   3.636   0.608
 1437SOL     OW 5209   4.480   1.591   2.202
 1437SOL    HW1 5210   4.545   1.657   2.165
 1437SOL    HW2 5211   4.520   1.499   2.198
 1438SOL     OW 5212   2.530   0.766   1.758
 1438SOL    HW1 5213   2.458   0.698   1.769
 1438SOL    HW2 5214   2.607   0.743   1.816
 1439SOL     OW 5215   0.348   5.944   2.241
 1439SOL    HW1 5216   0.262   5.945   2.291
 1439SOL    HW2 5217   0.402   5.864   2.268
 1440SOL     OW 5218   2.072   3.024   2.024
 1440SOL    HW1 5219   2.040   3.018   2.119
 1440SOL    HW2 5220   2.147   2.960   2.010
 1441SOL     OW 5221   5.373   6.104   0.468
 1441SOL    HW1 5222   5.285   6.057   0.465
 1441SOL    HW2 5223   5.366   6.191   0.421
 1442SOL     OW 5224   5.184   5.190   0.596
 1442SOL    HW1 5225   5.133   5.258   0.649
 1442SOL    HW2 5226   5.130   5.107   0.587
 1443SOL     OW 5227   0.251   2.298   2.138
 1443SOL    HW1 5228   0.307   2.350   2.203
 1443SOL    HW2 5229   0.304   2.219   2.106
 1444SOL     OW 5230   0.492   5.498   6.266
 1444SOL    HW1 5231   0.511   5.516   6.362
 1444SOL    HW2 5232   0.406   5.543   6.240
 1445SOL     OW 5233   0.604   2.809   1.429
 1445SOL    HW1 5234   0.667   2.749   1.380
 1445SOL    HW2 5235   0.518   2.762   1.446
 1446SOL     OW 5236   6.592   5.735   0.682
 1446SOL    HW1 5237   6.629   5.651   0.721
 1446SOL    HW2 5238   6.540   5.784   0.752
 1447SOL     OW 5239   6.493   5.418   4.265
 1447SOL    HW1 5240   6.434   5.358   4.210
 1447SOL    HW2 5241   6.480   5.398   4.362
 1448SOL     OW 5242   0.946   1.765   6.125
 1448SOL    HW1 5243   0.960   1.768   6.027
 1448SOL    HW2 5244   0.848   1.777   6.145
 1449SOL     OW 5245   2.097   3.458   3.005
 1449SOL    HW1 5246   2.079   3.524   3.078
 1449SOL    HW2 5247   2.131   3.506   2.924
 1450SOL     OW 5248   3.281   2.152   3.821
 1450SOL    HW1 5249   3.366   2.106   3.797
 1450SOL    HW2 5250   3.286   2.185   3.916
 1451SOL     OW 5251   3.131   1.368   2.387
 1451SOL    HW1 5252   3.139   1.461   2.422
 1451SOL    HW2 5253   3.041   1.356   2.344
 1452SOL     OW 5254   4.258   2.864   6.672
 1452SOL    HW1 5255   4.262   2.789   6.737
 1452SOL    HW2 5256   4.163   2.893   6.660
 1453SOL     OW 5257   0.639   3.762   5.505
 1453SOL    HW1 5258   0.550   3.734   5.469
 1453SOL    HW2 5259   0.668   3.699   5.577
 1454SOL     OW 5260   3.509   2.048   2.892
 1454SOL    HW1 5261   3.590   2.105   2.904
 1454SOL    HW2 5262   3.496   1.991   2.972
 1455SOL     OW 5263   0.199   5.331   2.424
 1455SOL    HW1 5264   0.270   5.400   2.412
 1455SOL    HW2 5265   0.236   5.241   2.402
 1456SOL     OW 5266   6.351   5.758   4.048
 1456SOL    HW1 5267   6.291   5.690   4.089
 1456SOL    HW2 5268   6.446   5.732   4.061
 1457SOL     OW 5269   0.960   4.981   6.364
 1457SOL    HW1 5270   0.937   4.903   6.422
 1457SOL    HW2 5271   0.896   5.055   6.381
 1458SOL     OW 5272   6.007   5.303   4.989
 1458SOL    HW1 5273   6.044   5.386   5.031
 1458SOL    HW2 5274   6.072   5.228   4.999
 1459SOL     OW 5275   6.474   6.667   5.033
 1459SOL    HW1 5276   6.377   6.686   5.017
 1459SOL    HW2 5277   6.483   6.596   5.102
 1460SOL     OW 5278   1.572   6.343   5.061
 1460SOL    HW1 5279   1.518   6.419   5.024
 1460SOL    HW2 5280   1.664   6.374   5.082
 1461SOL     OW 5281   5.843   3.118   4.015
 1461SOL    HW1 5282   5.807   3.149   3.927
 1461SOL    HW2 5283   5.802   3.172   4.089
 1462SOL     OW 5284   0.594   1.491   1.932
 1462SOL    HW1 5285   0.501   1.518   1.907
 1462SOL    HW2 5286   0.652   1.572   1.940
 1463SOL     OW 5287   1.506   5.373   6.932
 1463SOL    HW1 5288   1.449   5.380   7.014
 1463SOL    HW2 5289   1.450   5.344   6.854
 1464SOL     OW 5290   1.080   4.244   4.636
 1464SOL    HW1 5291   1.170   4.228   4.595
 1464SOL    HW2 5292   1.025   4.162   4.630
 1465SOL     OW 5293   1.495   2.971   4.897
 1465SOL    HW1 5294   1.495   2.976   4.797
 1465SOL    HW2 5295   1.589   2.958   4.930
 1466SOL     OW 5296   5.409   1.117   2.673
 1466SOL    HW1 5297   5.482   1.055   2.643
 1466SOL    HW2 5298   5.377   1.088   2.764
 1467SOL     OW 5299   0.659   6.979   3.387
 1467SOL    HW1 5300   0.709   6.919   3.449
 1467SOL    HW2 5301   0.576   6.934   3.356
 1468SOL     OW 5302   3.363   5.582   2.533
 1468SOL    HW1 5303   3.268   5.610   2.544
 1468SOL    HW2 5304   3.413   5.654   2.485
 1469SOL     OW 5305   6.149   4.186   2.980
 1469SOL    HW1 5306   6.105   4.134   2.907
 1469SOL    HW2 5307   6.098   4.173   3.065
 1470SOL     OW 5308   6.397   1.909   2.298
 1470SOL    HW1 5309   6.316   1.924   2.354
 1470SOL    HW2 5310   6.372   1.853   2.218
 1471SOL     OW 5311   4.848   0.283   0.492
 1471SOL    HW1 5312   4.911   0.215   0.530
 1471SOL    HW2 5313   4.811   0.249   0.406
 1472SOL     OW 5314   1.908   0.911   6.396
 1472SOL    HW1 5315   1.977   0.849   6.433
 1472SOL    HW2 5316   1.917   0.915   6.296
 1473SOL     OW 5317   1.287   5.812   3.653
 1473SOL    HW1 5318   1.297   5.732   3.713
 1473SOL    HW2 5319   1.265   5.892   3.707
 1474SOL     OW 5320   2.207   4.819   1.727
 1474SOL    HW1 5321   2.207   4.916   1.749
 1474SOL    HW2 5322   2.260   4.803   1.644
 1475SOL     OW 5323   5.809   0.213   6.579
 1475SOL    HW1 5324   5.823   0.307   6.609
 1475SOL    HW2 5325   5.862   0.196   6.496
 1476SOL     OW 5326   5.476   7.015   6.339
 1476SOL    HW1 5327   5.389   0.034   6.345
 1476SOL    HW2 5328   5.471   6.946   6.267
 1477SOL     OW 5329   3.381   4.192   1.752
 1477SOL    HW1 5330   3.291   4.236   1.743
 1477SOL    HW2 5331   3.371   4.093   1.741
 1478SOL     OW 5332   4.721   4.781   6.378
 1478SOL    HW1 5333   4.809   4.799   6.423
 1478SOL    HW2 5334   4.655   4.850   6.405
 1479SOL     OW 5335   5.014   3.917   0.988
 1479SOL    HW1 5336   5.015   3.885   1.083
 1479SOL    HW2 5337   4.990   3.840   0.928
 1480SOL     OW 5338   2.700   0.862   4.357
 1480SOL    HW1 5339   2.794   0.830   4.344
 1480SOL    HW2 5340   2.644   0.832   4.280
 1481SOL     OW 5341   4.533   2.474   6.027
 1481SOL    HW1 5342   4.466   2.543   6.051
 1481SOL    HW2 5343   4.490   2.404   5.969
 1482SOL     OW 5344   6.346   1.133   1.723
 1482SOL    HW1 5345   6.254   1.170   1.715
 1482SOL    HW2 5346   6.399   1.188   1.788
 1483SOL     OW 5347   6.409   0.263   7.022
 1483SOL    HW1 5348   6.396   0.331   0.064
 1483SOL    HW2 5349   6.331   0.265   6.960
 1484SOL     OW 5350   3.970   5.925   5.424
 1484SOL    HW1 5351   4.010   5.883   5.506
 1484SOL    HW2 5352   3.871   5.929   5.434
 1485SOL     OW 5353   4.949   3.625   3.553
 1485SOL    HW1 5354   4.922   3.529   3.556
 1485SOL    HW2 5355   4.912   3.673   3.634
 1486SOL     OW 5356   4.962   5.967   4.104
 1486SOL    HW1 5357   4.901   5.918   4.041
 1486SOL    HW2 5358   4.908   6.007   4.178
 1487SOL     OW 5359   6.350   1.235   0.729
 1487SOL    HW1 5360   6.379   1.167   0.797
 1487SOL    HW2 5361   6.294   1.304   0.774
 1488SOL     OW 5362   6.440   2.088   2.522
 1488SOL    HW1 5363   6.432   2.017   2.452
 1488SOL    HW2 5364   6.511   2.153   2.495
 1489SOL     OW 5365   2.884   4.978   0.239
 1489SOL    HW1 5366   2.983   4.994   0.242
 1489SOL    HW2 5367   2.844   5.034   0.166
 1490SOL     OW 5368   6.709   3.244   2.270
 1490SOL    HW1 5369   6.746   3.189   2.344
 1490SOL    HW2 5370   6.721   3.195   2.183
 1491SOL     OW 5371   5.251   2.877   3.784
 1491SOL    HW1 5372   5.348   2.900   3.792
 1491SOL    HW2 5373   5.238   2.780   3.803
 1492SOL     OW 5374   0.447   2.337   2.568
 1492SOL    HW1 5375   0.545   2.328   2.550
 1492SOL    HW2 5376   0.407   2.246   2.580
 1493SOL     OW 5377   6.312   2.331   6.600
 1493SOL    HW1 5378   6.219   2.353   6.571
 1493SOL    HW2 5379   6.378   2.374   6.539
 1494SOL     OW 5380   0.174   4.142   6.323
 1494SOL    HW1 5381   0.206   4.216   6.264
 1494SOL    HW2 5382   0.206   4.158   6.417
 1495SOL     OW 5383   6.892   3.962   4.392
 1495SOL    HW1 5384   6.843   4.046   4.412
 1495SOL    HW2 5385   6.834   3.900   4.339
 1496SOL     OW 5386   6.708   6.357   5.896
 1496SOL    HW1 5387   6.632   6.412   5.862
 1496SOL    HW2 5388   6.756   6.406   5.968
 1497SOL     OW 5389   6.052   2.257   2.129
 1497SOL    HW1 5390   6.005   2.319   2.192
 1497SOL    HW2 5391   6.028   2.281   2.035
 1498SOL     OW 5392   3.522   4.360   0.622
 1498SOL    HW1 5393   3.519   4.454   0.656
 1498SOL    HW2 5394   3.528   4.361   0.523
 1499SOL     OW 5395   0.135   4.514   4.205
 1499SOL    HW1 5396   0.201   4.492   4.133
 1499SOL    HW2 5397   0.075   4.436   4.221
 1500SOL     OW 5398   1.518   5.637   2.056
 1500SOL    HW1 5399   1.457   5.569   2.096
 1500SOL    HW2 5400   1.562   5.690   2.128
 1501SOL     OW 5401   6.799   1.450   0.635
 1501SOL    HW1 5402   6.860   1.427   0.711
 1501SOL    HW2 5403   6.721   1.388   0.635
 1502SOL     OW 5404   0.223   6.630   6.371
 1502SOL    HW1 5405   0.200   6.723   6.397
 1502SOL    HW2 5406   0.266   6.630   6.280
 1503SOL     OW 5407   0.048   4.854   1.703
 1503SOL    HW1 5408   6.988   4.821   1.735
 1503SOL    HW2 5409   0.064   4.821   1.610
 1504SOL     OW 5410   1.692   6.960   3.340
 1504SOL    HW1 5411   1.764   6.960   3.270
 1504SOL    HW2 5412   1.605   6.934   3.299
 1505SOL     OW 5413   6.343   5.318   4.995
 1505SOL    HW1 5414   6.319   5.328   5.092
 1505SOL    HW2 5415   6.336   5.407   4.950
 1506SOL     OW 5416   1.366   0.945   0.883
 1506SOL    HW1 5417   1.427   0.937   0.962
 1506SOL    HW2 5418   1.417   0.924   0.800
 1507SOL     OW 5419   3.122   2.174   3.338
 1507SOL    HW1 5420   3.070   2.090   3.326
 1507SOL    HW2 5421   3.158   2.204   3.249
 1508SOL     OW 5422   1.879   0.434   1.846
 1508SOL    HW1 5423   1.859   0.354   1.902
 1508SOL    HW2 5424   1.919   0.506   1.903
 1509SOL     OW 5425   5.319   1.012   3.942
 1509SOL    HW1 5426   5.278   1.102   3.927
 1509SOL    HW2 5427   5.393   0.998   3.876
 1510SOL     OW 5428   3.706   6.201   4.941
 1510SOL    HW1 5429   3.737   6.295   4.925
 1510SOL    HW2 5430   3.757   6.139   4.881
 1511SOL     OW 5431   3.207   3.954   5.204
 1511SOL    HW1 5432   3.129   3.965   5.142
 1511SOL    HW2 5433   3.174   3.936   5.297
 1512SOL     OW 5434   5.118   6.449   0.624
 1512SOL    HW1 5435   5.158   6.373   0.676
 1512SOL    HW2 5436   5.033   6.418   0.580
 1513SOL     OW 5437   2.861   1.005   5.610
 1513SOL    HW1 5438   2.891   1.077   5.547
 1513SOL    HW2 5439   2.762   0.998   5.608
 1514SOL     OW 5440   2.790   2.205   6.791
 1514SOL    HW1 5441   2.823   2.288   6.836
 1514SOL    HW2 5442   2.807   2.212   6.693
 1515SOL     OW 5443   3.442   0.521   2.682
 1515SOL    HW1 5444   3.478   0.458   2.614
 1515SOL    HW2 5445   3.478   0.497   2.772
 1516SOL     OW 5446   6.182   6.834   6.033
 1516SOL    HW1 5447   6.281   6.842   6.026
 1516SOL    HW2 5448   6.144   6.806   5.945
 1517SOL     OW 5449   2.676   6.131   2.936
 1517SOL    HW1 5450   2.627   6.183   3.006
 1517SOL    HW2 5451   2.708   6.045   2.975
 1518SOL     OW 5452   0.809   2.979   6.660
 1518SOL    HW1 5453   0.798   2.900   6.599
 1518SOL    HW2 5454   0.773   3.061   6.615
 1519SOL     OW 5455   0.219   4.432   6.978
 1519SOL    HW1 5456   0.167   4.512   7.006
 1519SOL    HW2 5457   0.304   4.427   7.029
 1520SOL     OW 5458   0.182   6.833   3.492
 1520SOL    HW1 5459   0.118   6.811   3.566
 1520SOL    HW2 5460   0.179   6.931   3.474
 1521SOL     OW 5461   1.917   5.152   6.544
 1521SOL    HW1 5462   1.973   5.208   6.483
 1521SOL    HW2 5463   1.947   5.057   6.538
 1522SOL     OW 5464   5.270   6.339   4.202
 1522SOL    HW1 5465   5.170   6.337   4.198
 1522SOL    HW2 5466   5.308   6.282   4.130
 1523SOL     OW 5467   2.771   6.652   0.485
 1523SOL    HW1 5468   2.742   6.588   0.557
 1523SOL    HW2 5469   2.797   6.739   0.527
 1524SOL     OW 5470   1.969   2.090   3.635
 1524SOL    HW1 5471   1.954   2.150   3.714
 1524SOL    HW2 5472   2.017   2.140   3.564
 1525SOL     OW 5473   4.777   4.321   6.332
 1525SOL    HW1 5474   4.734   4.382   6.266
 1525SOL    HW2 5475   4.782   4.367   6.421
 1526SOL     OW 5476   1.131   1.563   1.220
 1526SOL    HW1 5477   1.103   1.479   1.172
 1526SOL    HW2 5478   1.112   1.553   1.317
 1527SOL     OW 5479   4.960   1.538   4.569
 1527SOL    HW1 5480   4.942   1.441   4.587
 1527SOL    HW2 5481   5.051   1.549   4.529
 1528SOL     OW 5482   3.743   3.464   2.476
 1528SOL    HW1 5483   3.654   3.420   2.472
 1528SOL    HW2 5484   3.789   3.441   2.562
 1529SOL     OW 5485   4.346   1.397   5.924
 1529SOL    HW1 5486   4.298   1.459   5.861
 1529SOL    HW2 5487   4.413   1.449   5.976
 1530SOL     OW 5488   2.132   6.966   0.959
 1530SOL    HW1 5489   2.069   7.026   0.909
 1530SOL    HW2 5490   2.210   7.019   0.991
 1531SOL     OW 5491   4.782   6.036   4.359
 1531SOL    HW1 5492   4.711   6.032   4.429
 1531SOL    HW2 5493   4.758   6.104   4.290
 1532SOL     OW 5494   2.626   6.091   1.499
 1532SOL    HW1 5495   2.626   6.088   1.399
 1532SOL    HW2 5496   2.633   6.185   1.529
 1533SOL     OW 5497   5.702   6.322   1.073
 1533SOL    HW1 5498   5.720   6.251   1.141
 1533SOL    HW2 5499   5.739   6.409   1.106
 1534SOL     OW 5500   2.614   5.007   6.417
 1534SOL    HW1 5501   2.609   4.917   6.461
 1534SOL    HW2 5502   2.523   5.035   6.388
 1535SOL     OW 5503   5.189   4.237   3.435
 1535SOL    HW1 5504   5.231   4.279   3.355
 1535SOL    HW2 5505   5.110   4.183   3.408
 1536SOL     OW 5506   4.403   4.009   6.488
 1536SOL    HW1 5507   4.347   3.961   6.555
 1536SOL    HW2 5508   4.458   4.079   6.533
 1537SOL     OW 5509   2.756   5.018   2.712
 1537SOL    HW1 5510   2.764   4.976   2.802
 1537SOL    HW2 5511   2.826   5.089   2.702
 1538SOL     OW 5512   2.982   1.512   0.330
 1538SOL    HW1 5513   3.007   1.417   0.309
 1538SOL    HW2 5514   2.901   1.538   0.278
 1539SOL     OW 5515   6.873   3.247   1.059
 1539SOL    HW1 5516   6.790   3.286   1.020
 1539SOL    HW2 5517   6.949   3.311   1.050
 1540SOL     OW 5518   3.673   6.522   3.283
 1540SOL    HW1 5519   3.681   6.500   3.381
 1540SOL    HW2 5520   3.655   6.439   3.231
 1541SOL     OW 5521   4.565   2.919   5.558
 1541SOL    HW1 5522   4.612   3.005   5.541
 1541SOL    HW2 5523   4.497   2.904   5.486
 1542SOL     OW 5524   6.890   5.262   2.818
 1542SOL    HW1 5525   6.950   5.205   2.875
 1542SOL    HW2 5526   6.930   5.353   2.809
 1543SOL     OW 5527   3.022   5.489   0.404
 1543SOL    HW1 5528   3.071   5.404   0.384
 1543SOL    HW2 5529   3.054   5.562   0.344
 1544SOL     OW 5530   4.042   3.276   4.087
 1544SOL    HW1 5531   4.098   3.298   4.008
 1544SOL    HW2 5532   3.952   3.244   4.057
 1545SOL     OW 5533   5.770   5.359   1.642
 1545SOL    HW1 5534   5.738   5.268   1.615
 1545SOL    HW2 5535   5.859   5.351   1.687
 1546SOL     OW 5536   6.113   6.331   5.525
 1546SOL    HW1 5537   6.168   6.253   5.496
 1546SOL    HW2 5538   6.060   6.307   5.606
 1547SOL     OW 5539   1.925   3.729   5.964
 1547SOL    HW1 5540   1.929   3.642   6.013
 1547SOL    HW2 5541   2.018   3.761   5.945
 1548SOL     OW 5542   6.621   2.424   0.815
 1548SOL    HW1 5543   6.543   2.363   0.824
 1548SOL    HW2 5544   6.615   2.496   0.885
 1549SOL     OW 5545   5.166   0.721   4.638
 1549SOL    HW1 5546   5.082   0.690   4.682
 1549SOL    HW2 5547   5.168   0.690   4.543
 1550SOL     OW 5548   3.162   3.148   4.050
 1550SOL    HW1 5549   3.174   3.075   4.118
 1550SOL    HW2 5550   3.118   3.227   4.094
 1551SOL     OW 5551   6.812   5.138   6.015
 1551SOL    HW1 5552   6.875   5.102   6.084
 1551SOL    HW2 5553   6.834   5.234   5.997
 1552SOL     OW 5554   1.959   4.385   1.418
 1552SOL    HW1 5555   1.903   4.302   1.424
 1552SOL    HW2 5556   1.912   4.453   1.361
 1553SOL     OW 5557   1.551   2.261   5.816
 1553SOL    HW1 5558   1.481   2.297   5.877
 1553SOL    HW2 5559   1.560   2.162   5.829
 1554SOL     OW 5560   4.389   1.753   3.513
 1554SOL    HW1 5561   4.297   1.789   3.525
 1554SOL    HW2 5562   4.455   1.828   3.517
 1555SOL     OW 5563   5.925   5.015   5.520
 1555SOL    HW1 5564   5.994   5.052   5.582
 1555SOL    HW2 5565   5.943   4.917   5.506
 1556SOL     OW 5566   1.969   1.096   5.742
 1556SOL    HW1 5567   1.899   1.151   5.788
 1556SOL    HW2 5568   2.043   1.155   5.712
 1557SOL     OW 5569   0.797   1.910   4.896
 1557SOL    HW1 5570   0.877   1.970   4.883
 1557SOL    HW2 5571   0.715   1.958   4.865
 1558SOL     OW 5572   0.185   6.370   4.470
 1558SOL    HW1 5573   0.194   6.281   4.517
 1558SOL    HW2 5574   0.139   6.356   4.382
 1559SOL     OW 5575   1.304   1.374   5.575
 1559SOL    HW1 5576   1.261   1.463   5.561
 1559SOL    HW2 5577   1.356   1.349   5.493
 1560SOL     OW 5578   0.078   0.432   0.003
 1560SOL    HW1 5579   0.113   0.460   0.092
 1560SOL    HW2 5580   0.142   0.368   6.990
 1561SOL     OW 5581   6.217   6.606   1.989
 1561SOL    HW1 5582   6.151   6.681   1.983
 1561SOL    HW2 5583   6.302   6.640   2.028
 1562SOL     OW 5584   5.551   0.448   4.163
 1562SOL    HW1 5585   5.455   0.425   4.149
 1562SOL    HW2 5586   5.607   0.402   4.093
 1563SOL     OW 5587   3.239   6.845   5.772
 1563SOL    HW1 5588   3.239   6.919   5.839
 1563SOL    HW2 5589   3.322   6.790   5.783
 1564SOL     OW 5590   1.247   2.032   3.235
 1564SOL    HW1 5591   1.334   2.020   3.282
 1564SOL    HW2 5592   1.259   2.093   3.157
 1565SOL     OW 5593   6.317   4.343   1.118
 1565SOL    HW1 5594   6.235   4.388   1.153
 1565SOL    HW2 5595   6.291   4.259   1.070
 1566SOL     OW 5596   6.116   4.512   2.399
 1566SOL    HW1 5597   6.037   4.517   2.338
 1566SOL    HW2 5598   6.184   4.450   2.360
 1567SOL     OW 5599   6.682   5.640   5.559
 1567SOL    HW1 5600   6.582   5.630   5.552
 1567SOL    HW2 5601   6.716   5.683   5.475
 1568SOL     OW 5602   0.172   6.968   0.190
 1568SOL    HW1 5603   0.172   6.878   0.146
 1568SOL    HW2 5604   0.219   0.004   0.132
 1569SOL     OW 5605   3.451   6.405   5.519
 1569SOL    HW1 5606   3.509   6.448   5.450
 1569SOL    HW2 5607   3.358   6.443   5.513
 1570SOL     OW 5608   3.156   2.296   1.749
 1570SOL    HW1 5609   3.094   2.346   1.809
 1570SOL    HW2 5610   3.184   2.211   1.794
 1571SOL     OW 5611   0.451   3.516   0.722
 1571SOL    HW1 5612   0.406   3.488   0.637
 1571SOL    HW2 5613   0.523   3.450   0.746
 1572SOL     OW 5614   0.881   5.627   2.735
 1572SOL    HW1 5615   0.960   5.568   2.717
 1572SOL    HW2 5616   0.806   5.571   2.771
 1573SOL     OW 5617   4.369   6.818   0.266
 1573SOL    HW1 5618   4.357   6.732   0.217
 1573SOL    HW2 5619   4.284   6.870   0.263
 1574SOL     OW 5620   5.456   2.956   2.444
 1574SOL    HW1 5621   5.493   2.880   2.389
 1574SOL    HW2 5622   5.408   3.020   2.384
 1575SOL     OW 5623   3.377   1.815   0.483
 1575SOL    HW1 5624   3.434   1.828   0.564
 1575SOL    HW2 5625   3.299   1.757   0.506
 1576SOL     OW 5626   5.954   5.215   3.188
 1576SOL    HW1 5627   5.964   5.143   3.257
 1576SOL    HW2 5628   5.957   5.304   3.234
 1577SOL     OW 5629   1.650   0.215   0.324
 1577SOL    HW1 5630   1.690   0.237   0.413
 1577SOL    HW2 5631   1.563   0.265   0.314
 1578SOL     OW 5632   5.656   5.620   4.496
 1578SOL    HW1 5633   5.645   5.719   4.486
 1578SOL    HW2 5634   5.738   5.591   4.447
 1579SOL     OW 5635   0.125   0.211   3.150
 1579SOL    HW1 5636   0.149   0.144   3.220
 1579SOL    HW2 5637   0.080   0.164   3.074
 1580SOL     OW 5638   3.068   3.964   6.024
 1580SOL    HW1 5639   3.100   3.964   6.118
 1580SOL    HW2 5640   3.146   3.966   5.961
 1581SOL     OW 5641   6.236   3.220   4.817
 1581SOL    HW1 5642   6.218   3.274   4.900
 1581SOL    HW2 5643   6.193   3.265   4.739
 1582SOL     OW 5644   6.230   5.963   4.718
 1582SOL    HW1 5645   6.181   6.044   4.750
 1582SOL    HW2 5646   6.164   5.894   4.689
 1583SOL     OW 5647   2.145   2.310   2.353
 1583SOL    HW1 5648   2.164   2.404   2.382
 1583SOL    HW2 5649   2.088   2.312   2.271
 1584SOL     OW 5650   2.499   0.421   6.452
 1584SOL    HW1 5651   2.521   0.422   6.549
 1584SOL    HW2 5652   2.420   0.480   6.434
 1585SOL     OW 5653   6.245   1.152   5.975
 1585SOL    HW1 5654   6.154   1.149   5.932
 1585SOL    HW2 5655   6.240   1.109   6.065
 1586SOL     OW 5656   4.112   3.516   3.074
 1586SOL    HW1 5657   4.110   3.587   3.144
 1586SOL    HW2 5658   4.090   3.555   2.985
 1587SOL     OW 5659   2.423   6.613   6.046
 1587SOL    HW1 5660   2.420   6.531   6.102
 1587SOL    HW2 5661   2.340   6.667   6.061
 1588SOL     OW 5662   5.880   3.702   1.021
 1588SOL    HW1 5663   5.908   3.794   1.049
 1588SOL    HW2 5664   5.784   3.703   0.994
 1589SOL     OW 5665   4.609   5.175   3.314
 1589SOL    HW1 5666   4.551   5.097   3.291
 1589SOL    HW2 5667   4.555   5.259   3.309
 1590SOL     OW 5668   2.355   6.637   5.210
 1590SOL    HW1 5669   2.273   6.586   5.234
 1590SOL    HW2 5670   2.370   6.710   5.277
 1591SOL     OW 5671   1.369   3.644   0.587
 1591SOL    HW1 5672   1.378   3.611   0.681
 1591SOL    HW2 5673   1.350   3.743   0.589
 1592SOL     OW 5674   3.918   3.916   3.781
 1592SOL    HW1 5675   3.903   3.893   3.877
 1592SOL    HW2 5676   3.966   3.841   3.736
 1593SOL     OW 5677   1.544   4.582   4.457
 1593SOL    HW1 5678   1.580   4.672   4.483
 1593SOL    HW2 5679   1.528   4.527   4.539
 1594SOL     OW 5680   1.134   5.025   3.337
 1594SOL    HW1 5681   1.049   5.045   3.288
 1594SOL    HW2 5682   1.113   4.968   3.416
 1595SOL     OW 5683   0.031   4.124   5.168
 1595SOL    HW1 5684   0.055   4.205   5.115
 1595SOL    HW2 5685   6.981   4.144   5.226
 1596SOL     OW 5686   2.722   5.383   7.019
 1596SOL    HW1 5687   2.778   5.392   6.937
 1596SOL    HW2 5688   2.745   5.457   0.053
 1597SOL     OW 5689   2.348   0.482   0.338
 1597SOL    HW1 5690   2.255   0.497   0.372
 1597SOL    HW2 5691   2.375   0.558   0.280
 1598SOL     OW 5692   6.956   5.405   1.399
 1598SOL    HW1 5693   6.876   5.464   1.407
 1598SOL    HW2 5694   6.929   5.309   1.410
 1599SOL     OW 5695   3.096   5.262   0.304
 1599SOL    HW1 5696   3.099   5.195   0.230
 1599SOL    HW2 5697   3.112   5.216   0.391
 1600SOL     OW 5698   3.098   0.981   5.430
 1600SOL    HW1 5699   3.176   0.973   5.368
 1600SOL    HW2 5700   3.014   0.955   5.382
 1601SOL     OW 5701   1.556   5.422   4.987
 1601SOL    HW1 5702   1.592   5.329   4.981
 1601SOL    HW2 5703   1.508   5.434   5.073
 1602SOL     OW 5704   0.613   3.851   2.156
 1602SOL    HW1 5705   0.625   3.795   2.238
 1602SOL    HW2 5706   0.532   3.819   2.106
 1603SOL     OW 5707   5.748   6.674   0.568
 1603SOL    HW1 5708   5.698   6.595   0.602
 1603SOL    HW2 5709   5.794   6.650   0.483
 1604SOL     OW 5710   0.844   5.666   5.005
 1604SOL    HW1 5711   0.834   5.622   4.916
 1604SOL    HW2 5712   0.933   5.644   5.043
 1605SOL     OW 5713   5.483   5.663   2.747
 1605SOL    HW1 5714   5.475   5.608   2.664
 1605SOL    HW2 5715   5.413   5.635   2.813
 1606SOL     OW 5716   5.720   5.908   4.783
 1606SOL    HW1 5717   5.634   5.892   4.735
 1606SOL    HW2 5718   5.725   6.003   4.813
 1607SOL     OW 5719   4.334   3.168   1.171
 1607SOL    HW1 5720   4.362   3.110   1.094
 1607SOL    HW2 5721   4.414   3.195   1.224
 1608SOL     OW 5722   2.756   0.553   0.614
 1608SOL    HW1 5723   2.727   0.642   0.579
 1608SOL    HW2 5724   2.686   0.485   0.593
 1609SOL     OW 5725   5.126   0.863   5.499
 1609SOL    HW1 5726   5.044   0.879   5.555
 1609SOL    HW2 5727   5.152   0.948   5.453
 1610SOL     OW 5728   4.989   6.223   2.739
 1610SOL    HW1 5729   4.998   6.277   2.822
 1610SOL    HW2 5730   5.024   6.275   2.661
 1611SOL     OW 5731   4.292   3.517   1.456
 1611SOL    HW1 5732   4.304   3.611   1.423
 1611SOL    HW2 5733   4.235   3.467   1.391
 1612SOL     OW 5734   3.408   0.518   4.649
 1612SOL    HW1 5735   3.394   0.616   4.656
 1612SOL    HW2 5736   3.502   0.499   4.621
 1613SOL     OW 5737   1.692   0.562   0.791
 1613SOL    HW1 5738   1.645   0.474   0.796
 1613SOL    HW2 5739   1.656   0.623   0.861
 1614SOL     OW 5740   6.995   2.409   5.162
 1614SOL    HW1 5741   6.989   2.322   5.210
 1614SOL    HW2 5742   6.980   2.484   5.228
 1615SOL     OW 5743   6.549   4.860   5.626
 1615SOL    HW1 5744   6.627   4.828   5.681
 1615SOL    HW2 5745   6.581   4.927   5.559
 1616SOL     OW 5746   2.428   2.170   6.588
 1616SOL    HW1 5747   2.335   2.160   6.551
 1616SOL    HW2 5748   2.424   2.160   6.687
 1617SOL     OW 5749   3.870   0.806   4.128
 1617SOL    HW1 5750   3.806   0.858   4.071
 1617SOL    HW2 5751   3.907   0.865   4.200
 1618SOL     OW 5752   5.577   2.730   2.337
 1618SOL    HW1 5753   5.674   2.748   2.320
 1618SOL    HW2 5754   5.537   2.685   2.257
 1619SOL     OW 5755   1.667   2.864   4.231
 1619SOL    HW1 5756   1.668   2.905   4.322
 1619SOL    HW2 5757   1.761   2.848   4.201
 1620SOL     OW 5758   3.665   6.150   2.116
 1620SOL    HW1 5759   3.689   6.241   2.149
 1620SOL    HW2 5760   3.597   6.158   2.043
 1621SOL     OW 5761   2.011   1.613   2.215
 1621SOL    HW1 5762   1.964   1.541   2.267
 1621SOL    HW2 5763   1.980   1.612   2.120
 1622SOL     OW 5764   2.387   2.279   4.856
 1622SOL    HW1 5765   2.351   2.260   4.947
 1622SOL    HW2 5766   2.312   2.303   4.794
 1623SOL     OW 5767   2.278   1.921   4.786
 1623SOL    HW1 5768   2.378   1.913   4.787
 1623SOL    HW2 5769   2.239   1.849   4.729
 1624SOL     OW 5770   2.376   0.710   0.607
 1624SOL    HW1 5771   2.438   0.697   0.530
 1624SOL    HW2 5772   2.292   0.659   0.592
 1625SOL     OW 5773   0.598   6.311   1.081
 1625SOL    HW1 5774   0.499   6.318   1.068
 1625SOL    HW2 5775   0.626   6.215   1.082
 1626SOL     OW 5776   2.170   3.131   5.962
 1626SOL    HW1 5777   2.118   3.216   5.962
 1626SOL    HW2 5778   2.195   3.107   6.056
 1627SOL     OW 5779   4.880   3.758   3.784
 1627SOL    HW1 5780   4.924   3.760   3.873
 1627SOL    HW2 5781   4.811   3.830   3.779
 1628SOL     OW 5782   2.752   3.302   0.128
 1628SOL    HW1 5783   2.752   3.398   0.156
 1628SOL    HW2 5784   2.806   3.249   0.193
 1629SOL     OW 5785   3.261   2.110   2.752
 1629SOL    HW1 5786   3.259   2.091   2.654
 1629SOL    HW2 5787   3.355   2.108   2.785
 1630SOL     OW 5788   5.964   4.750   4.252
 1630SOL    HW1 5789   6.025   4.825   4.277
 1630SOL    HW2 5790   5.953   4.689   4.330
 1631SOL     OW 5791   1.017   0.109   6.004
 1631SOL    HW1 5792   1.011   0.120   5.905
 1631SOL    HW2 5793   0.927   0.122   6.045
 1632SOL     OW 5794   4.735   6.816   0.080
 1632SOL    HW1 5795   4.755   6.896   0.023
 1632SOL    HW2 5796   4.686   6.845   0.162
 1633SOL     OW 5797   6.227   3.505   3.330
 1633SOL    HW1 5798   6.296   3.562   3.372
 1633SOL    HW2 5799   6.270   3.427   3.285
 1634SOL     OW 5800   3.942   1.153   1.164
 1634SOL    HW1 5801   4.018   1.218   1.154
 1634SOL    HW2 5802   3.972   1.076   1.220
 1635SOL     OW 5803   1.153   4.888   4.026
 1635SOL    HW1 5804   1.248   4.918   4.033
 1635SOL    HW2 5805   1.143   4.797   4.067
 1636SOL     OW 5806   2.687   6.288   0.301
 1636SOL    HW1 5807   2.749   6.364   0.287
 1636SOL    HW2 5808   2.595   6.322   0.320
 1637SOL     OW 5809   0.829   2.676   2.429
 1637SOL    HW1 5810   0.915   2.689   2.379
 1637SOL    HW2 5811   0.846   2.621   2.511
 1638SOL     OW 5812   1.385   2.469   5.541
 1638SOL    HW1 5813   1.440   2.510   5.614
 1638SOL    HW2 5814   1.290   2.462   5.571
 1639SOL     OW 5815   4.225   4.968   2.415
 1639SOL    HW1 5816   4.220   5.037   2.487
 1639SOL    HW2 5817   4.187   4.882   2.449
 1640SOL     OW 5818   5.166   0.499   1.195
 1640SOL    HW1 5819   5.174   0.419   1.254
 1640SOL    HW2 5820   5.103   0.479   1.120
 1641SOL     OW 5821   6.670   2.492   5.071
 1641SOL    HW1 5822   6.724   2.545   5.006
 1641SOL    HW2 5823   6.728   2.424   5.116
 1642SOL     OW 5824   0.796   2.420   1.718
 1642SOL    HW1 5825   0.891   2.403   1.744
 1642SOL    HW2 5826   0.737   2.408   1.798
 1643SOL     OW 5827   3.618   0.636   5.475
 1643SOL    HW1 5828   3.609   0.657   5.573
 1643SOL    HW2 5829   3.535   0.666   5.427
 1644SOL     OW 5830   4.274   1.229   0.386
 1644SOL    HW1 5831   4.212   1.178   0.446
 1644SOL    HW2 5832   4.233   1.316   0.361
 1645SOL     OW 5833   2.002   6.191   6.418
 1645SOL    HW1 5834   1.909   6.156   6.429
 1645SOL    HW2 5835   1.998   6.281   6.374
 1646SOL     OW 5836   1.944   3.711   0.544
 1646SOL    HW1 5837   1.853   3.707   0.585
 1646SOL    HW2 5838   1.952   3.794   0.488
 1647SOL     OW 5839   5.841   2.845   2.265
 1647SOL    HW1 5840   5.933   2.810   2.287
 1647SOL    HW2 5841   5.838   2.870   2.169
 1648SOL     OW 5842   3.652   6.750   2.813
 1648SOL    HW1 5843   3.639   6.788   2.721
 1648SOL    HW2 5844   3.599   6.803   2.878
 1649SOL     OW 5845   2.405   0.096   3.206
 1649SOL    HW1 5846   2.349   0.022   3.244
 1649SOL    HW2 5847   2.477   0.058   3.148
 1650SOL     OW 5848   3.046   6.868   4.118
 1650SOL    HW1 5849   3.128   6.921   4.095
 1650SOL    HW2 5850   3.048   6.845   4.215
 1651SOL     OW 5851   1.126   0.180   2.006
 1651SOL    HW1 5852   1.163   0.219   2.090
 1651SOL    HW2 5853   1.064   0.104   2.029
 1652SOL     OW 5854   3.174   3.218   1.855
 1652SOL    HW1 5855   3.140   3.312   1.840
 1652SOL    HW2 5856   3.124   3.155   1.795
 1653SOL     OW 5857   1.166   5.282   1.200
 1653SOL    HW1 5858   1.258   5.297   1.237
 1653SOL    HW2 5859   1.162   5.193   1.156
 1654SOL     OW 5860   0.449   1.905   3.951
 1654SOL    HW1 5861   0.351   1.899   3.929
 1654SOL    HW2 5862   0.471   1.999   3.978
 1655SOL     OW 5863   4.609   4.299   5.543
 1655SOL    HW1 5864   4.560   4.317   5.628
 1655SOL    HW2 5865   4.546   4.260   5.476
 1656SOL     OW 5866   0.188   3.626   2.303
 1656SOL    HW1 5867   0.124   3.609   2.228
 1656SOL    HW2 5868   0.140   3.671   2.378
 1657SOL     OW 5869   1.103   0.328   5.305
 1657SOL    HW1 5870   1.164   0.306   5.229
 1657SOL    HW2 5871   1.028   0.386   5.272
 1658SOL     OW 5872   6.095   6.313   3.040
 1658SOL    HW1 5873   6.020   6.316   3.106
 1658SOL    HW2 5874   6.147   6.399   3.044
 1659SOL     OW 5875   5.319   2.200   6.382
 1659SOL    HW1 5876   5.242   2.217   6.320
 1659SOL    HW2 5877   5.320   2.269   6.453
 1660SOL     OW 5878   2.406   6.212   3.435
 1660SOL    HW1 5879   2.447   6.143   3.495
 1660SOL    HW2 5880   2.333   6.171   3.380
 1661SOL     OW 5881   3.111   0.271   2.866
 1661SOL    HW1 5882   3.071   0.250   2.776
 1661SOL    HW2 5883   3.207   0.244   2.866
 1662SOL     OW 5884   6.485   0.963   2.829
 1662SOL    HW1 5885   6.582   0.982   2.847
 1662SOL    HW2 5886   6.454   1.020   2.753
 1663SOL     OW 5887   2.102   0.255   3.854
 1663SOL    HW1 5888   2.077   0.343   3.813
 1663SOL    HW2 5889   2.201   0.245   3.852
 1664SOL     OW 5890   2.168   5.404   4.588
 1664SOL    HW1 5891   2.090   5.464   4.604
 1664SOL    HW2 5892   2.137   5.319   4.545
 1665SOL     OW 5893   0.380   1.242   3.608
 1665SOL    HW1 5894   0.405   1.173   3.676
 1665SOL    HW2 5895   0.457   1.303   3.593
 1666SOL     OW 5896   5.581   2.814   6.103
 1666SOL    HW1 5897   5.679   2.837   6.100
 1666SOL    HW2 5898   5.554   2.771   6.017
 1667SOL     OW 5899   6.829   0.739   0.353
 1667SOL    HW1 5900   6.820   0.640   0.343
 1667SOL    HW2 5901   6.921   0.760   0.387
 1668SOL     OW 5902   1.812   0.363   4.981
 1668SOL    HW1 5903   1.779   0.297   5.049
 1668SOL    HW2 5904   1.882   0.421   5.022
 1669SOL     OW 5905   5.825   5.872   6.186
 1669SOL    HW1 5906   5.811   5.965   6.219
 1669SOL    HW2 5907   5.910   5.868   6.132
 1670SOL     OW 5908   6.584   3.177   6.624
 1670SOL    HW1 5909   6.487   3.195   6.642
 1670SOL    HW2 5910   6.640   3.245   6.672
 1671SOL     OW 5911   5.446   5.347   0.421
 1671SOL    HW1 5912   5.351   5.373   0.411
 1671SOL    HW2 5913   5.482   5.384   0.507
 1672SOL     OW 5914   1.821   5.472   2.498
 1672SOL    HW1 5915   1.888   5.518   2.555
 1672SOL    HW2 5916   1.802   5.381   2.535
 1673SOL     OW 5917   6.200   2.866   3.306
 1673SOL    HW1 5918   6.141   2.935   3.264
 1673SOL    HW2 5919   6.154   2.828   3.386
 1674SOL     OW 5920   2.596   5.825   0.019
 1674SOL    HW1 5921   2.552   5.902   0.066
 1674SOL    HW2 5922   2.546   5.804   6.965
 1675SOL     OW 5923   4.562   2.090   0.515
 1675SOL    HW1 5924   4.586   2.150   0.591
 1675SOL    HW2 5925   4.470   2.055   0.528
 1676SOL     OW 5926   2.761   1.159   4.359
 1676SOL    HW1 5927   2.842   1.134   4.305
 1676SOL    HW2 5928   2.715   1.076   4.390
 1677SOL     OW 5929   5.945   0.285   5.921
 1677SOL    HW1 5930   5.892   0.354   5.970
 1677SOL    HW2 5931   6.043   0.306   5.931
 1678SOL     OW 5932   5.193   6.988   1.471
 1678SOL    HW1 5933   5.210   7.003   1.569
 1678SOL    HW2 5934   5.279   6.963   1.426
 1679SOL     OW 5935   5.536   4.463   0.271
 1679SOL    HW1 5936   5.600   4.469   0.194
 1679SOL    HW2 5937   5.451   4.510   0.247
 1680SOL     OW 5938   0.745   2.511   5.302
 1680SOL    HW1 5939   0.838   2.544   5.284
 1680SOL    HW2 5940   0.679   2.575   5.262
 1681SOL     OW 5941   4.447   5.142   0.231
 1681SOL    HW1 5942   4.502   5.182   0.157
 1681SOL    HW2 5943   4.484   5.173   0.319
 1682SOL     OW 5944   6.759   2.850   5.467
 1682SOL    HW1 5945   6.715   2.931   5.429
 1682SOL    HW2 5946   6.705   2.769   5.443
 1683SOL     OW 5947   5.317   5.514   5.955
 1683SOL    HW1 5948   5.339   5.573   6.033
 1683SOL    HW2 5949   5.389   5.445   5.944
 1684SOL     OW 5950   0.372   6.609   4.095
 1684SOL    HW1 5951   0.388   6.614   3.997
 1684SOL    HW2 5952   0.402   6.694   4.139
 1685SOL     OW 5953   0.574   1.790   0.591
 1685SOL    HW1 5954   0.524   1.872   0.564
 1685SOL    HW2 5955   0.654   1.779   0.531
 1686SOL     OW 5956   2.086   6.449   6.609
 1686SOL    HW1 5957   2.039   6.364   6.585
 1686SOL    HW2 5958   2.075   6.516   6.536
 1687SOL     OW 5959   3.255   6.440   2.191
 1687SOL    HW1 5960   3.305   6.374   2.248
 1687SOL    HW2 5961   3.319   6.485   2.129
 1688SOL     OW 5962   0.699   1.530   3.369
 1688SOL    HW1 5963   0.736   1.621   3.387
 1688SOL    HW2 5964   0.604   1.538   3.338
 1689SOL     OW 5965   3.245   1.961   1.618
 1689SOL    HW1 5966   3.296   2.047   1.623
 1689SOL    HW2 5967   3.147   1.980   1.627
 1690SOL     OW 5968   0.928   2.567   0.445
 1690SOL    HW1 5969   0.863   2.493   0.461
 1690SOL    HW2 5970   0.879   2.655   0.443
 1691SOL     OW 5971   4.222   4.669   2.510
 1691SOL    HW1 5972   4.233   4.649   2.413
 1691SOL    HW2 5973   4.294   4.623   2.562
 1692SOL     OW 5974   1.075   0.416   3.544
 1692SOL    HW1 5975   1.018   0.345   3.500
 1692SOL    HW2 5976   1.019   0.498   3.559
 1693SOL     OW 5977   3.671   1.892   3.569
 1693SOL    HW1 5978   3.696   1.975   3.519
 1693SOL    HW2 5979   3.723   1.814   3.533
 1694SOL     OW 5980   6.170   5.842   5.245
 1694SOL    HW1 5981   6.132   5.856   5.154
 1694SOL    HW2 5982   6.166   5.927   5.297
 1695SOL     OW 5983   3.878   1.175   5.978
 1695SOL    HW1 5984   3.876   1.132   6.069
 1695SOL    HW2 5985   3.822   1.122   5.915
 1696SOL     OW 5986   3.146   6.098   2.020
 1696SOL    HW1 5987   3.130   6.030   1.948
 1696SOL    HW2 5988   3.068   6.098   2.083
 1697SOL     OW 5989   1.161   1.886   1.847
 1697SOL    HW1 5990   1.145   1.847   1.757
 1697SOL    HW2 5991   1.102   1.966   1.860
 1698SOL     OW 5992   4.845   2.152   0.951
 1698SOL    HW1 5993   4.759   2.112   0.984
 1698SOL    HW2 5994   4.853   2.245   0.987
 1699SOL     OW 5995   2.664   4.660   0.439
 1699SOL    HW1 5996   2.617   4.572   0.444
 1699SOL    HW2 5997   2.597   4.734   0.444
 1700SOL     OW 5998   5.880   2.621   4.620
 1700SOL    HW1 5999   5.797   2.623   4.565
 1700SOL    HW2 6000   5.920   2.712   4.625
 1701SOL     OW 6001   6.190   2.953   5.211
 1701SOL    HW1 6002   6.094   2.930   5.194
 1701SOL    HW2 6003   6.196   3.047   5.243
 1702SOL     OW 6004   4.520   2.806   1.765
 1702SOL    HW1 6005   4.543   2.802   1.668
 1702SOL    HW2 6006   4.555   2.892   1.804
 1703SOL     OW 6007   1.710   3.601   0.320
 1703SOL    HW1 6008   1.700   3.652   0.405
 1703SOL    HW2 6009   1.804   3.612   0.286
 1704SOL     OW 6010   0.117   1.188   2.502
 1704SOL    HW1 6011   0.148   1.211   2.594
 1704SOL    HW2 6012   0.053   1.111   2.507
 1705SOL     OW 6013   3.823   3.133   2.682
 1705SOL    HW1 6014   3.898   3.177   2.731
 1705SOL    HW2 6015   3.849   3.120   2.586
 1706SOL     OW 6016   2.221   0.502   6.470
 1706SOL    HW1 6017   2.146   0.458   6.422
 1706SOL    HW2 6018   2.213   0.486   6.569
 1707SOL     OW 6019   4.918   1.311   2.511
 1707SOL    HW1 6020   4.834   1.362   2.530
 1707SOL    HW2 6021   4.953   1.338   2.421
 1708SOL     OW 6022   0.368   4.868   1.647
 1708SOL    HW1 6023   0.379   4.790   1.585
 1708SOL    HW2 6024   0.284   4.856   1.700
 1709SOL     OW 6025   2.734   5.480   4.897
 1709SOL    HW1 6026   2.796   5.493   4.975
 1709SOL    HW2 6027   2.784   5.436   4.822
 1710SOL     OW 6028   6.758   5.146   4.404
 1710SOL    HW1 6029   6.744   5.210   4.329
 1710SOL    HW2 6030   6.836   5.176   4.460
 1711SOL     OW 6031   1.478   4.387   5.243
 1711SOL    HW1 6032   1.438   4.440   5.318
 1711SOL    HW2 6033   1.417   4.311   5.221
 1712SOL     OW 6034   2.078   5.009   1.463
 1712SOL    HW1 6035   2.074   5.108   1.445
 1712SOL    HW2 6036   2.172   4.984   1.487
 1713SOL     OW 6037   1.904   2.975   0.776
 1713SOL    HW1 6038   1.984   3.035   0.777
 1713SOL    HW2 6039   1.821   3.029   0.765
 1714SOL     OW 6040   4.214   1.121   1.477
 1714SOL    HW1 6041   4.184   1.117   1.572
 1714SOL    HW2 6042   4.312   1.100   1.471
 1715SOL     OW 6043   0.347   3.026   3.876
 1715SOL    HW1 6044   0.323   2.941   3.829
 1715SOL    HW2 6045   0.411   3.079   3.819
 1716SOL     OW 6046   0.378   0.352   6.697
 1716SOL    HW1 6047   0.476   0.337   6.708
 1716SOL    HW2 6048   0.360   0.450   6.686
 1717SOL     OW 6049   3.228   0.418   6.735
 1717SOL    HW1 6050   3.319   0.378   6.726
 1717SOL    HW2 6051   3.218   0.458   6.826
 1718SOL     OW 6052   1.783   4.340   5.317
 1718SOL    HW1 6053   1.795   4.303   5.409
 1718SOL    HW2 6054   1.691   4.318   5.284
 1719SOL     OW 6055   1.828   3.469   1.186
 1719SOL    HW1 6056   1.847   3.539   1.256
 1719SOL    HW2 6057   1.904   3.405   1.182
 1720SOL     OW 6058   6.983   1.961   2.240
 1720SOL    HW1 6059   6.994   1.953   2.141
 1720SOL    HW2 6060   6.885   1.964   2.262
 1721SOL     OW 6061   1.419   6.436   4.673
 1721SOL    HW1 6062   1.511   6.437   4.633
 1721SOL    HW2 6063   1.368   6.358   4.638
 1722SOL     OW 6064   5.784   0.264   2.103
 1722SOL    HW1 6065   5.706   0.324   2.122
 1722SOL    HW2 6066   5.832   0.296   2.021
 1723SOL     OW 6067   5.672   1.060   2.902
 1723SOL    HW1 6068   5.610   1.109   2.964
 1723SOL    HW2 6069   5.763   1.100   2.907
 1724SOL     OW 6070   5.027   0.498   0.559
 1724SOL    HW1 6071   4.970   0.435   0.507
 1724SOL    HW2 6072   5.017   0.591   0.522
 1725SOL     OW 6073   3.535   5.444   1.943
 1725SOL    HW1 6074   3.519   5.515   1.873
 1725SOL    HW2 6075   3.498   5.357   1.910
 1726SOL     OW 6076   6.689   3.768   4.661
 1726SOL    HW1 6077   6.745   3.719   4.595
 1726SOL    HW2 6078   6.671   3.709   4.740
 1727SOL     OW 6079   2.595   3.513   5.441
 1727SOL    HW1 6080   2.580   3.605   5.478
 1727SOL    HW2 6081   2.662   3.517   5.367
 1728SOL     OW 6082   4.030   5.216   3.427
 1728SOL    HW1 6083   4.115   5.172   3.398
 1728SOL    HW2 6084   3.954   5.181   3.372
 1729SOL     OW 6085   1.383   3.647   1.774
 1729SOL    HW1 6086   1.448   3.721   1.757
 1729SOL    HW2 6087   1.429   3.575   1.826
 1730SOL     OW 6088   5.403   1.856   4.941
 1730SOL    HW1 6089   5.419   1.768   4.896
 1730SOL    HW2 6090   5.472   1.869   5.012
 1731SOL     OW 6091   0.276   6.916   0.446
 1731SOL    HW1 6092   0.271   6.969   0.362
 1731SOL    HW2 6093   0.194   6.933   0.501
 1732SOL     OW 6094   0.726   4.669   0.083
 1732SOL    HW1 6095   0.762   4.616   0.007
 1732SOL    HW2 6096   0.781   4.652   0.165
 1733SOL     OW 6097   1.080   4.335   6.737
 1733SOL    HW1 6098   1.106   4.401   6.666
 1733SOL    HW2 6099   1.083   4.242   6.700
 1734SOL     OW 6100   5.359   4.065   1.223
 1734SOL    HW1 6101   5.337   4.161   1.203
 1734SOL    HW2 6102   5.407   4.025   1.144
 1735SOL     OW 6103   5.180   5.824   0.099
 1735SOL    HW1 6104   5.132   5.762   0.162
 1735SOL    HW2 6105   5.274   5.838   0.131
 1736SOL     OW 6106   3.094   3.444   0.467
 1736SOL    HW1 6107   3.148   3.359   0.472
 1736SOL    HW2 6108   3.138   3.514   0.523
 1737SOL     OW 6109   0.589   5.573   3.394
 1737SOL    HW1 6110   0.670   5.575   3.336
 1737SOL    HW2 6111   0.591   5.493   3.453
 1738SOL     OW 6112   0.955   1.363   1.895
 1738SOL    HW1 6113   0.916   1.292   1.955
 1738SOL    HW2 6114   1.002   1.431   1.951
 1739SOL     OW 6115   4.225   2.429   6.389
 1739SOL    HW1 6116   4.236   2.467   6.297
 1739SOL    HW2 6117   4.313   2.426   6.434
 1740SOL     OW 6118   0.401   1.736   5.573
 1740SOL    HW1 6119   0.328   1.762   5.510
 1740SOL    HW2 6120   0.487   1.775   5.542
 1741SOL     OW 6121   1.736   1.100   2.309
 1741SOL    HW1 6122   1.784   1.121   2.393
 1741SOL    HW2 6123   1.762   1.009   2.277
 1742SOL     OW 6124   5.795   6.208   4.165
 1742SOL    HW1 6125   5.721   6.275   4.163
 1742SOL    HW2 6126   5.860   6.232   4.238
 1743SOL     OW 6127   4.908   1.545   0.298
 1743SOL    HW1 6128   4.876   1.458   0.338
 1743SOL    HW2 6129   4.829   1.598   0.267
 1744SOL     OW 6130   3.262   6.305   1.880
 1744SOL    HW1 6131   3.222   6.227   1.928
 1744SOL    HW2 6132   3.202   6.333   1.805
 1745SOL     OW 6133   7.019   3.289   4.977
 1745SOL    HW1 6134   0.057   3.288   5.050
 1745SOL    HW2 6135   7.027   3.206   4.922
 1746SOL     OW 6136   2.349   1.117   5.865
 1746SOL    HW1 6137   2.359   1.151   5.772
 1746SOL    HW2 6138   2.422   1.155   5.922
 1747SOL     OW 6139   4.926   6.755   5.160
 1747SOL    HW1 6140   5.001   6.758   5.093
 1747SOL    HW2 6141   4.867   6.834   5.148
 1748SOL     OW 6142   5.772   0.947   1.577
 1748SOL    HW1 6143   5.768   1.046   1.587
 1748SOL    HW2 6144   5.855   0.912   1.621
 1749SOL     OW 6145   5.104   0.319   6.262
 1749SOL    HW1 6146   5.167   0.304   6.186
 1749SOL    HW2 6147   5.050   0.236   6.278
 1750SOL     OW 6148   4.321   0.208   4.385
 1750SOL    HW1 6149   4.245   0.206   4.320
 1750SOL    HW2 6150   4.389   0.139   4.359
 1751SOL     OW 6151   1.731   5.886   4.767
 1751SOL    HW1 6152   1.752   5.978   4.735
 1751SOL    HW2 6153   1.634   5.866   4.753
 1752SOL     OW 6154   6.963   1.820   6.186
 1752SOL    HW1 6155   6.962   1.787   6.091
 1752SOL    HW2 6156   0.028   1.841   6.213
 1753SOL     OW 6157   2.501   6.338   2.455
 1753SOL    HW1 6158   2.497   6.402   2.531
 1753SOL    HW2 6159   2.527   6.387   2.372
 1754SOL     OW 6160   3.291   2.924   1.884
 1754SOL    HW1 6161   3.315   3.019   1.906
 1754SOL    HW2 6162   3.207   2.922   1.830
 1755SOL     OW 6163   6.481   4.417   0.468
 1755SOL    HW1 6164   6.488   4.375   0.377
 1755SOL    HW2 6165   6.540   4.369   0.532
 1756SOL     OW 6166   5.676   5.227   4.377
 1756SOL    HW1 6167   5.649   5.207   4.283
 1756SOL    HW2 6168   5.594   5.228   4.435
 1757SOL     OW 6169   3.655   0.391   5.322
 1757SOL    HW1 6170   3.662   0.473   5.380
 1757SOL    HW2 6171   3.643   0.310   5.381
 1758SOL     OW 6172   3.451   1.620   3.301
 1758SOL    HW1 6173   3.393   1.697   3.275
 1758SOL    HW2 6174   3.397   1.536   3.301
 1759SOL     OW 6175   0.296   5.640   6.014
 1759SOL    HW1 6176   0.314   5.675   6.106
 1759SOL    HW2 6177   0.380   5.600   5.977
 1760SOL     OW 6178   4.876   6.780   2.142
 1760SOL    HW1 6179   4.865   6.878   2.126
 1760SOL    HW2 6180   4.815   6.729   2.080
 1761SOL     OW 6181   5.428   3.287   1.454
 1761SOL    HW1 6182   5.508   3.309   1.398
 1761SOL    HW2 6183   5.369   3.224   1.403
 1762SOL     OW 6184   5.756   2.895   0.532
 1762SOL    HW1 6185   5.657   2.903   0.517
 1762SOL    HW2 6186   5.804   2.956   0.469
 1763SOL     OW 6187   2.222   2.885   3.761
 1763SOL    HW1 6188   2.215   2.976   3.721
 1763SOL    HW2 6189   2.257   2.892   3.855
 1764SOL     OW 6190   6.706   3.462   3.984
 1764SOL    HW1 6191   6.677   3.443   3.889
 1764SOL    HW2 6192   6.777   3.397   4.010
 1765SOL     OW 6193   2.227   3.798   6.183
 1765SOL    HW1 6194   2.231   3.806   6.084
 1765SOL    HW2 6195   2.274   3.713   6.211
 1766SOL     OW 6196   6.201   3.542   5.833
 1766SOL    HW1 6197   6.137   3.471   5.804
 1766SOL    HW2 6198   6.280   3.543   5.771
 1767SOL     OW 6199   6.535   4.718   1.069
 1767SOL    HW1 6200   6.589   4.694   0.988
 1767SOL    HW2 6201   6.442   4.681   1.059
 1768SOL     OW 6202   6.344   6.472   3.438
 1768SOL    HW1 6203   6.302   6.387   3.407
 1768SOL    HW2 6204   6.272   6.540   3.456
 1769SOL     OW 6205   4.805   0.773   3.388
 1769SOL    HW1 6206   4.851   0.727   3.463
 1769SOL    HW2 6207   4.806   0.872   3.402
 1770SOL     OW 6208   3.546   5.790   5.565
 1770SOL    HW1 6209   3.640   5.767   5.589
 1770SOL    HW2 6210   3.544   5.875   5.513
 1771SOL     OW 6211   4.718   6.586   6.707
 1771SOL    HW1 6212   4.815   6.575   6.729
 1771SOL    HW2 6213   4.671   6.499   6.721
 1772SOL     OW 6214   2.744   6.306   2.726
 1772SOL    HW1 6215   2.761   6.249   2.646
 1772SOL    HW2 6216   2.732   6.248   2.807
 1773SOL     OW 6217   1.080   0.253   0.728
 1773SOL    HW1 6218   1.133   0.292   0.652
 1773SOL    HW2 6219   0.989   0.230   0.696
 1774SOL     OW 6220   2.922   4.833   2.545
 1774SOL    HW1 6221   2.884   4.916   2.585
 1774SOL    HW2 6222   3.021   4.841   2.539
 1775SOL     OW 6223   0.860   4.857   1.129
 1775SOL    HW1 6224   0.947   4.899   1.101
 1775SOL    HW2 6225   0.787   4.887   1.068
 1776SOL     OW 6226   3.183   6.509   5.555
 1776SOL    HW1 6227   3.130   6.593   5.559
 1776SOL    HW2 6228   3.171   6.458   5.641
 1777SOL     OW 6229   3.179   6.569   0.185
 1777SOL    HW1 6230   3.156   6.538   0.277
 1777SOL    HW2 6231   3.212   6.491   0.131
 1778SOL     OW 6232   6.948   3.139   5.872
 1778SOL    HW1 6233   6.925   3.231   5.903
 1778SOL    HW2 6234   6.866   3.094   5.838
 1779SOL     OW 6235   3.780   0.320   5.599
 1779SOL    HW1 6236   3.734   0.238   5.565
 1779SOL    HW2 6237   3.714   0.376   5.649
 1780SOL     OW 6238   3.080   3.283   6.921
 1780SOL    HW1 6239   3.033   3.197   6.939
 1780SOL    HW2 6240   3.139   3.306   6.999
 1781SOL     OW 6241   2.989   5.699   3.602
 1781SOL    HW1 6242   2.982   5.773   3.669
 1781SOL    HW2 6243   3.078   5.655   3.610
 1782SOL     OW 6244   3.204   1.624   4.471
 1782SOL    HW1 6245   3.209   1.609   4.570
 1782SOL    HW2 6246   3.144   1.703   4.453
 1783SOL     OW 6247   2.047   6.078   6.927
 1783SOL    HW1 6248   2.042   6.048   7.022
 1783SOL    HW2 6249   2.131   6.042   6.885
 1784SOL     OW 6250   2.839   0.287   6.168
 1784SOL    HW1 6251   2.761   0.304   6.228
 1784SOL    HW2 6252   2.839   0.354   6.094
 1785SOL     OW 6253   6.792   5.366   1.698
 1785SOL    HW1 6254   6.715   5.346   1.638
 1785SOL    HW2 6255   6.766   5.349   1.793
 1786SOL     OW 6256   3.949   2.613   1.618
 1786SOL    HW1 6257   3.863   2.614   1.668
 1786SOL    HW2 6258   3.992   2.703   1.623
 1787SOL     OW 6259   3.756   0.682   5.193
 1787SOL    HW1 6260   3.748   0.598   5.248
 1787SOL    HW2 6261   3.667   0.728   5.190
 1788SOL     OW 6262   1.146   4.965   5.618
 1788SOL    HW1 6263   1.193   5.039   5.570
 1788SOL    HW2 6264   1.102   5.002   5.700
 1789SOL     OW 6265   5.962   6.937   6.894
 1789SOL    HW1 6266   5.929   6.979   6.978
 1789SOL    HW2 6267   6.008   7.006   6.838
 1790SOL     OW 6268   2.786   6.863   2.673
 1790SOL    HW1 6269   2.721   6.826   2.739
 1790SOL    HW2 6270   2.827   6.787   2.622
 1791SOL     OW 6271   0.410   6.414   2.661
 1791SOL    HW1 6272   0.387   6.323   2.693
 1791SOL    HW2 6273   0.508   6.419   2.641
 1792SOL     OW 6274   1.292   3.601   4.147
 1792SOL    HW1 6275   1.320   3.590   4.052
 1792SOL    HW2 6276   1.365   3.570   4.208
 1793SOL     OW 6277   0.314   0.463   3.727
 1793SOL    HW1 6278   0.309   0.412   3.641
 1793SOL    HW2 6279   0.394   0.522   3.726
 1794SOL     OW 6280   4.270   5.914   6.336
 1794SOL    HW1 6281   4.353   5.858   6.332
 1794SOL    HW2 6282   4.196   5.868   6.287
 1795SOL     OW 6283   0.499   3.198   6.690
 1795SOL    HW1 6284   0.425   3.265   6.681
 1795SOL    HW2 6285   0.506   3.169   6.785
 1796SOL     OW 6286   3.680   0.655   5.744
 1796SOL    HW1 6287   3.687   0.752   5.770
 1796SOL    HW2 6288   3.770   0.612   5.752
 1797SOL     OW 6289   0.280   1.431   1.566
 1797SOL    HW1 6290   0.336   1.452   1.486
 1797SOL    HW2 6291   0.324   1.469   1.648
 1798SOL     OW 6292   5.721   1.583   3.099
 1798SOL    HW1 6293   5.641   1.601   3.042
 1798SOL    HW2 6294   5.800   1.634   3.064
 1799SOL     OW 6295   2.303   1.754   0.128
 1799SOL    HW1 6296   2.380   1.720   0.074
 1799SOL    HW2 6297   2.265   1.834   0.083
 1800SOL     OW 6298   3.199   4.911   2.543
 1800SOL    HW1 6299   3.173   4.932   2.449
 1800SOL    HW2 6300   3.286   4.955   2.565
 1801SOL     OW 6301   5.589   6.900   0.667
 1801SOL    HW1 6302   5.625   6.924   0.757
 1801SOL    HW2 6303   5.647   6.831   0.625
 1802SOL     OW 6304   5.907   4.775   3.637
 1802SOL    HW1 6305   5.956   4.858   3.611
 1802SOL    HW2 6306   5.940   4.698   3.582
 1803SOL     OW 6307   5.783   5.130   1.183
 1803SOL    HW1 6308   5.699   5.139   1.129
 1803SOL    HW2 6309   5.760   5.128   1.280
 1804SOL     OW 6310   3.154   3.651   6.142
 1804SOL    HW1 6311   3.169   3.737   6.189
 1804SOL    HW2 6312   3.083   3.598   6.189
 1805SOL     OW 6313   5.919   3.022   6.617
 1805SOL    HW1 6314   5.927   3.072   6.704
 1805SOL    HW2 6315   5.952   2.928   6.630
 1806SOL     OW 6316   6.846   0.474   0.333
 1806SOL    HW1 6317   6.802   0.397   0.289
 1806SOL    HW2 6318   6.945   0.457   0.339
 1807SOL     OW 6319   6.405   2.133   5.874
 1807SOL    HW1 6320   6.379   2.131   5.971
 1807SOL    HW2 6321   6.323   2.140   5.818
 1808SOL     OW 6322   2.364   4.863   4.370
 1808SOL    HW1 6323   2.444   4.806   4.388
 1808SOL    HW2 6324   2.285   4.827   4.421
 1809SOL     OW 6325   3.873   0.529   6.410
 1809SOL    HW1 6326   3.881   0.611   6.467
 1809SOL    HW2 6327   3.903   0.551   6.317
 1810SOL     OW 6328   3.186   6.590   2.805
 1810SOL    HW1 6329   3.252   6.581   2.880
 1810SOL    HW2 6330   3.106   6.640   2.836
 1811SOL     OW 6331   5.911   5.807   2.888
 1811SOL    HW1 6332   5.965   5.780   2.967
 1811SOL    HW2 6333   5.968   5.862   2.826
 1812SOL     OW 6334   4.506   4.975   6.384
 1812SOL    HW1 6335   4.557   5.047   6.431
 1812SOL    HW2 6336   4.444   4.930   6.450
 1813SOL     OW 6337   6.683   5.517   5.203
 1813SOL    HW1 6338   6.754   5.569   5.157
 1813SOL    HW2 6339   6.655   5.439   5.146
 1814SOL     OW 6340   4.625   6.296   2.511
 1814SOL    HW1 6341   4.591   6.202   2.511
 1814SOL    HW2 6342   4.724   6.295   2.498
 1815SOL     OW 6343   0.229   1.232   2.747
 1815SOL    HW1 6344   0.224   1.148   2.802
 1815SOL    HW2 6345   0.319   1.274   2.758
 1816SOL     OW 6346   1.227   5.037   1.081
 1816SOL    HW1 6347   1.145   5.009   1.031
 1816SOL    HW2 6348   1.303   4.975   1.058
 1817SOL     OW 6349   1.232   5.591   1.891
 1817SOL    HW1 6350   1.196   5.592   1.798
 1817SOL    HW2 6351   1.294   5.668   1.904
 1818SOL     OW 6352   1.071   1.623   3.269
 1818SOL    HW1 6353   1.154   1.568   3.276
 1818SOL    HW2 6354   1.019   1.617   3.354
 1819SOL     OW 6355   0.366   4.055   2.304
 1819SOL    HW1 6356   0.353   4.146   2.266
 1819SOL    HW2 6357   0.459   4.024   2.286
 1820SOL     OW 6358   5.719   0.211   2.804
 1820SOL    HW1 6359   5.787   0.228   2.875
 1820SOL    HW2 6360   5.723   0.285   2.736
 1821SOL     OW 6361   1.599   1.776   3.608
 1821SOL    HW1 6362   1.655   1.771   3.691
 1821SOL    HW2 6363   1.573   1.684   3.579
 1822SOL     OW 6364   2.940   3.668   2.102
 1822SOL    HW1 6365   3.026   3.702   2.065
 1822SOL    HW2 6366   2.869   3.671   2.031
 1823SOL     OW 6367   4.477   0.366   2.426
 1823SOL    HW1 6368   4.457   0.462   2.408
 1823SOL    HW2 6369   4.547   0.334   2.363
 1824SOL     OW 6370   5.389   2.241   1.327
 1824SOL    HW1 6371   5.373   2.191   1.412
 1824SOL    HW2 6372   5.409   2.176   1.253
 1825SOL     OW 6373   0.674   0.256   1.989
 1825SOL    HW1 6374   0.582   0.289   2.013
 1825SOL    HW2 6375   0.742   0.318   2.028
 1826SOL     OW 6376   2.864   6.053   6.349
 1826SOL    HW1 6377   2.837   5.994   6.425
 1826SOL    HW2 6378   2.963   6.046   6.335
 1827SOL     OW 6379   6.003   0.070   1.753
 1827SOL    HW1 6380   6.047   0.086   1.842
 1827SOL    HW2 6381   6.062   0.104   1.680
 1828SOL     OW 6382   1.576   2.768   6.857
 1828SOL    HW1 6383   1.524   2.837   6.909
 1828SOL    HW2 6384   1.521   2.684   6.849
 1829SOL     OW 6385   5.998   5.302   1.853
 1829SOL    HW1 6386   5.951   5.369   1.909
 1829SOL    HW2 6387   6.096   5.324   1.850
 1830SOL     OW 6388   5.146   6.526   3.870
 1830SOL    HW1 6389   5.147   6.427   3.884
 1830SOL    HW2 6390   5.100   6.571   3.946
 1831SOL     OW 6391   5.464   0.852   3.372
 1831SOL    HW1 6392   5.401   0.905   3.315
 1831SOL    HW2 6393   5.473   0.760   3.334
 1832SOL     OW 6394   4.482   2.303   0.100
 1832SOL    HW1 6395   4.469   2.394   0.139
 1832SOL    HW2 6396   4.517   2.241   0.171
 1833SOL     OW 6397   5.370   1.854   5.793
 1833SOL    HW1 6398   5.288   1.832   5.846
 1833SOL    HW2 6399   5.436   1.778   5.800
 1834SOL     OW 6400   2.554   3.962   0.333
 1834SOL    HW1 6401   2.621   3.972   0.407
 1834SOL    HW2 6402   2.484   4.033   0.342
 1835SOL     OW 6403   1.649   4.497   6.838
 1835SOL    HW1 6404   1.695   4.448   6.764
 1835SOL    HW2 6405   1.600   4.431   6.895
 1836SOL     OW 6406   0.996   6.798   0.430
 1836SOL    HW1 6407   0.957   6.765   0.516
 1836SOL    HW2 6408   1.094   6.775   0.427
 1837SOL     OW 6409   0.513   2.502   4.661
 1837SOL    HW1 6410   0.494   2.480   4.757
 1837SOL    HW2 6411   0.606   2.471   4.638
 1838SOL     OW 6412   0.790   2.826   5.161
 1838SOL    HW1 6413   0.752   2.867   5.244
 1838SOL    HW2 6414   0.859   2.758   5.186
 1839SOL     OW 6415   0.800   1.684   6.469
 1839SOL    HW1 6416   0.865   1.727   6.408
 1839SOL    HW2 6417   0.729   1.638   6.416
 1840SOL     OW 6418   1.027   5.494   1.080
 1840SOL    HW1 6419   1.108   5.527   1.032
 1840SOL    HW2 6420   1.047   5.404   1.120
 1841SOL     OW 6421   1.091   2.824   3.730
 1841SOL    HW1 6422   1.096   2.788   3.823
 1841SOL    HW2 6423   1.148   2.906   3.723
 1842SOL     OW 6424   0.799   5.485   6.437
 1842SOL    HW1 6425   0.830   5.406   6.384
 1842SOL    HW2 6426   0.711   5.464   6.479
 1843SOL     OW 6427   4.600   2.097   5.055
 1843SOL    HW1 6428   4.619   2.081   4.958
 1843SOL    HW2 6429   4.588   2.195   5.071
 1844SOL     OW 6430   5.497   4.010   3.716
 1844SOL    HW1 6431   5.507   4.087   3.778
 1844SOL    HW2 6432   5.477   4.043   3.624
 1845SOL     OW 6433   4.345   6.282   1.088
 1845SOL    HW1 6434   4.311   6.373   1.063
 1845SOL    HW2 6435   4.367   6.280   1.186
 1846SOL     OW 6436   3.710   1.512   5.419
 1846SOL    HW1 6437   3.763   1.436   5.455
 1846SOL    HW2 6438   3.772   1.580   5.380
 1847SOL     OW 6439   1.428   6.626   6.612
 1847SOL    HW1 6440   1.422   6.660   6.706
 1847SOL    HW2 6441   1.406   6.528   6.611
 1848SOL     OW 6442   1.997   0.261   2.920
 1848SOL    HW1 6443   2.032   0.183   2.972
 1848SOL    HW2 6444   2.009   0.345   2.974
 1849SOL     OW 6445   3.088   0.700   6.740
 1849SOL    HW1 6446   3.139   0.622   6.704
 1849SOL    HW2 6447   2.997   0.702   6.698
 1850SOL     OW 6448   5.416   1.877   2.097
 1850SOL    HW1 6449   5.462   1.961   2.070
 1850SOL    HW2 6450   5.335   1.899   2.152
 1851SOL     OW 6451   6.377   3.806   2.557
 1851SOL    HW1 6452   6.323   3.750   2.620
 1851SOL    HW2 6453   6.382   3.761   2.468
 1852SOL     OW 6454   5.066   1.904   5.720
 1852SOL    HW1 6455   5.112   1.924   5.633
 1852SOL    HW2 6456   5.000   1.976   5.740
 1853SOL     OW 6457   1.169   4.589   0.705
 1853SOL    HW1 6458   1.244   4.532   0.739
 1853SOL    HW2 6459   1.086   4.567   0.757
 1854SOL     OW 6460   2.635   5.062   3.932
 1854SOL    HW1 6461   2.591   4.977   3.902
 1854SOL    HW2 6462   2.566   5.121   3.976
 1855SOL     OW 6463   6.318   4.341   2.313
 1855SOL    HW1 6464   6.410   4.377   2.328
 1855SOL    HW2 6465   6.322   4.242   2.299
 1856SOL     OW 6466   5.349   3.066   6.460
 1856SOL    HW1 6467   5.418   3.139   6.461
 1856SOL    HW2 6468   5.259   3.106   6.443
 1857SOL     OW 6469   5.087   1.589   3.406
 1857SOL    HW1 6470   5.030   1.647   3.464
 1857SOL    HW2 6471   5.035   1.558   3.327
 1858SOL     OW 6472   5.775   3.489   2.851
 1858SOL    HW1 6473   5.697   3.445   2.807
 1858SOL    HW2 6474   5.764   3.588   2.849
 1859SOL     OW 6475   6.084   1.603   2.702
 1859SOL    HW1 6476   6.012   1.544   2.666
 1859SOL    HW2 6477   6.157   1.547   2.741
 1860SOL     OW 6478   3.964   2.164   4.738
 1860SOL    HW1 6479   4.023   2.239   4.767
 1860SOL    HW2 6480   3.907   2.134   4.815
 1861SOL     OW 6481   5.434   5.844   2.399
 1861SOL    HW1 6482   5.399   5.750   2.398
 1861SOL    HW2 6483   5.528   5.844   2.434
 1862SOL     OW 6484   2.383   1.459   0.732
 1862SOL    HW1 6485   2.351   1.364   0.737
 1862SOL    HW2 6486   2.359   1.507   0.816
 1863SOL     OW 6487   1.790   2.337   1.771
 1863SOL    HW1 6488   1.790   2.328   1.871
 1863SOL    HW2 6489   1.732   2.266   1.731
 1864SOL     OW 6490   0.917   6.308   2.919
 1864SOL    HW1 6491   0.820   6.297   2.900
 1864SOL    HW2 6492   0.966   6.326   2.834
 1865SOL     OW 6493   5.000   2.622   6.719
 1865SOL    HW1 6494   4.979   2.573   6.804
 1865SOL    HW2 6495   5.066   2.695   6.737
 1866SOL     OW 6496   5.151   5.233   2.070
 1866SOL    HW1 6497   5.229   5.236   2.133
 1866SOL    HW2 6498   5.166   5.161   2.003
 1867SOL     OW 6499   0.525   4.655   6.562
 1867SOL    HW1 6500   0.619   4.681   6.586
 1867SOL    HW2 6501   0.487   4.722   6.499
 1868SOL     OW 6502   6.953   4.307   5.569
 1868SOL    HW1 6503   0.012   4.325   5.526
 1868SOL    HW2 6504   6.909   4.230   5.524
 1869SOL     OW 6505   6.432   1.740   4.394
 1869SOL    HW1 6506   6.450   1.642   4.399
 1869SOL    HW2 6507   6.387   1.770   4.478
 1870SOL     OW 6508   2.206   4.431   4.613
 1870SOL    HW1 6509   2.213   4.358   4.682
 1870SOL    HW2 6510   2.132   4.493   4.637
 1871SOL     OW 6511   1.556   0.326   0.826
 1871SOL    HW1 6512   1.528   0.257   0.759
 1871SOL    HW2 6513   1.476   0.375   0.859
 1872SOL     OW 6514   1.831   4.655   6.540
 1872SOL    HW1 6515   1.926   4.623   6.536
 1872SOL    HW2 6516   1.770   4.584   6.505
 1873SOL     OW 6517   4.934   0.181   0.071
 1873SOL    HW1 6518   4.862   0.153   0.135
 1873SOL    HW2 6519   5.007   0.113   0.072
 1874SOL     OW 6520   0.731   4.186   2.531
 1874SOL    HW1 6521   0.823   4.223   2.520
 1874SOL    HW2 6522   0.694   4.159   2.442
 1875SOL     OW 6523   1.103   6.611   1.643
 1875SOL    HW1 6524   1.060   6.530   1.604
 1875SOL    HW2 6525   1.202   6.599   1.644
 1876SOL     OW 6526   2.372   6.612   3.698
 1876SOL    HW1 6527   2.278   6.613   3.732
 1876SOL    HW2 6528   2.407   6.518   3.702
 1877SOL     OW 6529   0.533   6.787   3.715
 1877SOL    HW1 6530   0.619   6.825   3.750
 1877SOL    HW2 6531   0.457   6.846   3.742
 1878SOL     OW 6532   6.459   2.463   5.898
 1878SOL    HW1 6533   6.452   2.529   5.972
 1878SOL    HW2 6534   6.491   2.375   5.933
 1879SOL     OW 6535   1.135   4.476   5.860
 1879SOL    HW1 6536   1.234   4.465   5.865
 1879SOL    HW2 6537   1.100   4.431   5.778
 1880SOL     OW 6538   6.222   0.478   4.836
 1880SOL    HW1 6539   6.144   0.518   4.788
 1880SOL    HW2 6540   6.302   0.480   4.775
 1881SOL     OW 6541   6.716   2.226   0.063
 1881SOL    HW1 6542   6.713   2.311   0.010
 1881SOL    HW2 6543   6.788   2.233   0.133
 1882SOL     OW 6544   1.573   6.452   6.874
 1882SOL    HW1 6545   1.587   6.353   6.866
 1882SOL    HW2 6546   1.662   6.496   6.890
 1883SOL     OW 6547   0.498   1.736   4.147
 1883SOL    HW1 6548   0.489   1.808   4.078
 1883SOL    HW2 6549   0.588   1.694   4.139
 1884SOL     OW 6550   6.835   2.318   1.196
 1884SOL    HW1 6551   6.830   2.310   1.097
 1884SOL    HW2 6552   6.755   2.368   1.230
 1885SOL     OW 6553   2.657   1.387   4.197
 1885SOL    HW1 6554   2.670   1.296   4.236
 1885SOL    HW2 6555   2.627   1.450   4.269
 1886SOL     OW 6556   0.635   6.215   2.890
 1886SOL    HW1 6557   0.571   6.202   2.814
 1886SOL    HW2 6558   0.590   6.191   2.976
 1887SOL     OW 6559   2.509   6.142   6.196
 1887SOL    HW1 6560   2.541   6.237   6.203
 1887SOL    HW2 6561   2.587   6.082   6.179
 1888SOL     OW 6562   2.538   0.604   3.192
 1888SOL    HW1 6563   2.486   0.519   3.185
 1888SOL    HW2 6564   2.632   0.588   3.160
 1889SOL     OW 6565   0.743   3.469   3.101
 1889SOL    HW1 6566   0.655   3.512   3.080
 1889SOL    HW2 6567   0.763   3.480   3.198
 1890SOL     OW 6568   1.256   5.983   4.682
 1890SOL    HW1 6569   1.176   5.988   4.623
 1890SOL    HW2 6570   1.227   5.973   4.777
 1891SOL     OW 6571   3.420   3.521   3.257
 1891SOL    HW1 6572   3.424   3.570   3.344
 1891SOL    HW2 6573   3.466   3.433   3.265
 1892SOL     OW 6574   0.830   0.115   2.812
 1892SOL    HW1 6575   0.878   0.050   2.871
 1892SOL    HW2 6576   0.882   0.200   2.807
 1893SOL     OW 6577   3.705   3.103   4.432
 1893SOL    HW1 6578   3.754   3.055   4.505
 1893SOL    HW2 6579   3.614   3.129   4.465
 1894SOL     OW 6580   3.309   3.371   4.303
 1894SOL    HW1 6581   3.287   3.464   4.274
 1894SOL    HW2 6582   3.390   3.339   4.254
 1895SOL     OW 6583   1.777   5.865   0.202
 1895SOL    HW1 6584   1.696   5.887   0.256
 1895SOL    HW2 6585   1.813   5.776   0.231
 1896SOL     OW 6586   6.360   2.738   1.290
 1896SOL    HW1 6587   6.404   2.651   1.268
 1896SOL    HW2 6588   6.427   2.801   1.326
 1897SOL     OW 6589   1.115   4.300   4.278
 1897SOL    HW1 6590   1.194   4.332   4.331
 1897SOL    HW2 6591   1.091   4.208   4.308
 1898SOL     OW 6592   1.727   5.989   2.806
 1898SOL    HW1 6593   1.745   5.899   2.845
 1898SOL    HW2 6594   1.628   6.002   2.797
 1899SOL     OW 6595   0.201   1.094   2.235
 1899SOL    HW1 6596   0.183   1.126   2.328
 1899SOL    HW2 6597   0.287   1.042   2.234
 1900SOL     OW 6598   2.997   6.764   6.710
 1900SOL    HW1 6599   2.998   6.804   6.618
 1900SOL    HW2 6600   3.023   6.833   6.777
 1901SOL     OW 6601   2.785   3.450   1.946
 1901SOL    HW1 6602   2.700   3.473   1.993
 1901SOL    HW2 6603   2.854   3.423   2.013
 1902SOL     OW 6604   1.376   6.999   5.234
 1902SOL    HW1 6605   1.444   0.012   5.294
 1902SOL    HW2 6606   1.421   6.936   5.171
 1903SOL     OW 6607   1.145   1.624   4.406
 1903SOL    HW1 6608   1.170   1.714   4.442
 1903SOL    HW2 6609   1.170   1.619   4.309
 1904SOL     OW 6610   5.988   5.883   1.826
 1904SOL    HW1 6611   5.983   5.867   1.727
 1904SOL    HW2 6612   5.904   5.850   1.869
 1905SOL     OW 6613   0.794   1.646   4.199
 1905SOL    HW1 6614   0.826   1.554   4.222
 1905SOL    HW2 6615   0.869   1.700   4.161
 1906SOL     OW 6616   0.760   6.595   4.407
 1906SOL    HW1 6617   0.711   6.647   4.477
 1906SOL    HW2 6618   0.780   6.503   4.442
 1907SOL     OW 6619   5.660   3.065   0.778
 1907SOL    HW1 6620   5.677   3.001   0.703
 1907SOL    HW2 6621   5.729   3.052   0.849
 1908SOL     OW 6622   3.931   0.846   1.756
 1908SOL    HW1 6623   3.911   0.876   1.662
 1908SOL    HW2 6624   3.852   0.863   1.814
 1909SOL     OW 6625   6.438   5.500   4.614
 1909SOL    HW1 6626   6.396   5.530   4.700
 1909SOL    HW2 6627   6.390   5.542   4.538
 1910SOL     OW 6628   0.371   6.226   5.732
 1910SOL    HW1 6629   0.359   6.156   5.662
 1910SOL    HW2 6630   0.343   6.315   5.695
 1911SOL     OW 6631   5.876   6.013   4.394
 1911SOL    HW1 6632   5.912   6.105   4.409
 1911SOL    HW2 6633   5.843   6.006   4.299
 1912SOL     OW 6634   3.527   5.106   2.232
 1912SOL    HW1 6635   3.548   5.113   2.329
 1912SOL    HW2 6636   3.580   5.174   2.181
 1913SOL     OW 6637   3.137   4.427   6.759
 1913SOL    HW1 6638   3.065   4.368   6.795
 1913SOL    HW2 6639   3.172   4.389   6.674
 1914SOL     OW 6640   3.485   4.412   0.029
 1914SOL    HW1 6641   3.476   4.498   7.008
 1914SOL    HW2 6642   3.425   4.414   0.109
 1915SOL     OW 6643   3.318   3.064   6.987
 1915SOL    HW1 6644   3.319   3.012   0.043
 1915SOL    HW2 6645   3.316   3.162   7.007
 1916SOL     OW 6646   4.198   0.869   2.267
 1916SOL    HW1 6647   4.194   0.886   2.365
 1916SOL    HW2 6648   4.207   0.770   2.251
 1917SOL     OW 6649   1.960   4.458   1.745
 1917SOL    HW1 6650   1.996   4.374   1.787
 1917SOL    HW2 6651   2.018   4.484   1.669
 1918SOL     OW 6652   5.407   2.334   3.666
 1918SOL    HW1 6653   5.320   2.304   3.703
 1918SOL    HW2 6654   5.416   2.433   3.678
 1919SOL     OW 6655   6.388   2.281   6.208
 1919SOL    HW1 6656   6.308   2.240   6.164
 1919SOL    HW2 6657   6.370   2.377   6.229
 1920SOL     OW 6658   4.415   3.438   0.422
 1920SOL    HW1 6659   4.316   3.436   0.406
 1920SOL    HW2 6660   4.434   3.498   0.500
 1921SOL     OW 6661   2.212   2.247   0.427
 1921SOL    HW1 6662   2.179   2.222   0.517
 1921SOL    HW2 6663   2.284   2.183   0.398
 1922SOL     OW 6664   3.172   3.217   4.455
 1922SOL    HW1 6665   3.232   3.275   4.399
 1922SOL    HW2 6666   3.119   3.274   4.518
 1923SOL     OW 6667   3.027   0.751   4.057
 1923SOL    HW1 6668   3.073   0.700   3.984
 1923SOL    HW2 6669   2.997   0.839   4.022
 1924SOL     OW 6670   5.468   0.866   0.594
 1924SOL    HW1 6671   5.545   0.912   0.550
 1924SOL    HW2 6672   5.407   0.828   0.524
 1925SOL     OW 6673   0.831   4.166   1.024
 1925SOL    HW1 6674   0.808   4.070   1.012
 1925SOL    HW2 6675   0.890   4.176   1.105
 1926SOL     OW 6676   3.655   0.106   1.713
 1926SOL    HW1 6677   3.710   0.102   1.796
 1926SOL    HW2 6678   3.682   0.185   1.658
 1927SOL     OW 6679   2.043   5.696   1.225
 1927SOL    HW1 6680   2.073   5.788   1.199
 1927SOL    HW2 6681   2.016   5.646   1.143
 1928SOL     OW 6682   6.940   4.422   2.933
 1928SOL    HW1 6683   6.889   4.347   2.891
 1928SOL    HW2 6684   6.898   4.509   2.909
 1929SOL     OW 6685   3.521   6.742   3.593
 1929SOL    HW1 6686   3.579   6.662   3.606
 1929SOL    HW2 6687   3.555   6.818   3.648
 1930SOL     OW 6688   3.456   3.236   0.339
 1930SOL    HW1 6689   3.365   3.220   0.375
 1930SOL    HW2 6690   3.513   3.155   0.353
 1931SOL     OW 6691   6.709   3.403   3.507
 1931SOL    HW1 6692   6.681   3.314   3.469
 1931SOL    HW2 6693   6.685   3.406   3.604
 1932SOL     OW 6694   5.219   0.297   2.333
 1932SOL    HW1 6695   5.233   0.244   2.416
 1932SOL    HW2 6696   5.214   0.394   2.356
 1933SOL     OW 6697   1.623   1.371   1.346
 1933SOL    HW1 6698   1.524   1.382   1.333
 1933SOL    HW2 6699   1.670   1.393   1.261
 1934SOL     OW 6700   0.167   1.016   0.299
 1934SOL    HW1 6701   0.247   0.973   0.256
 1934SOL    HW2 6702   0.171   1.115   0.285
 1935SOL     OW 6703   5.744   5.131   3.782
 1935SOL    HW1 6704   5.648   5.136   3.757
 1935SOL    HW2 6705   5.797   5.190   3.721
 1936SOL     OW 6706   5.118   3.231   6.377
 1936SOL    HW1 6707   5.071   3.257   6.462
 1936SOL    HW2 6708   5.087   3.289   6.302
 1937SOL     OW 6709   6.911   4.726   6.876
 1937SOL    HW1 6710   6.866   4.793   6.936
 1937SOL    HW2 6711   6.844   4.658   6.846
 1938SOL     OW 6712   6.857   1.967   0.067
 1938SOL    HW1 6713   6.800   2.049   0.063
 1938SOL    HW2 6714   6.799   1.887   0.083
 1939SOL     OW 6715   0.341   0.302   4.226
 1939SOL    HW1 6716   0.344   0.203   4.239
 1939SOL    HW2 6717   0.315   0.323   4.132
 1940SOL     OW 6718   0.612   5.432   1.397
 1940SOL    HW1 6719   0.674   5.470   1.465
 1940SOL    HW2 6720   0.650   5.447   1.306
 1941SOL     OW 6721   6.195   1.066   4.336
 1941SOL    HW1 6722   6.172   1.002   4.408
 1941SOL    HW2 6723   6.151   1.039   4.251
 1942SOL     OW 6724   0.306   5.383   1.946
 1942SOL    HW1 6725   0.255   5.395   1.861
 1942SOL    HW2 6726   0.266   5.308   1.999
 1943SOL     OW 6727   0.884   2.944   3.895
 1943SOL    HW1 6728   0.975   2.937   3.935
 1943SOL    HW2 6729   0.848   2.853   3.877
 1944SOL     OW 6730   0.584   3.004   3.579
 1944SOL    HW1 6731   0.503   2.948   3.599
 1944SOL    HW2 6732   0.559   3.101   3.587
 1945SOL     OW 6733   5.221   1.614   2.402
 1945SOL    HW1 6734   5.250   1.552   2.330
 1945SOL    HW2 6735   5.186   1.562   2.480
 1946SOL     OW 6736   5.692   5.603   0.760
 1946SOL    HW1 6737   5.752   5.537   0.805
 1946SOL    HW2 6738   5.687   5.687   0.814
 1947SOL     OW 6739   6.220   5.348   2.669
 1947SOL    HW1 6740   6.180   5.323   2.757
 1947SOL    HW2 6741   6.280   5.274   2.638
 1948SOL     OW 6742   5.424   3.562   3.701
 1948SOL    HW1 6743   5.351   3.549   3.634
 1948SOL    HW2 6744   5.511   3.536   3.660
 1949SOL     OW 6745   3.319   4.383   6.434
 1949SOL    HW1 6746   3.232   4.432   6.435
 1949SOL    HW2 6747   3.340   4.355   6.340
 1950SOL     OW 6748   4.019   3.926   3.418
 1950SOL    HW1 6749   4.052   3.876   3.497
 1950SOL    HW2 6750   3.946   3.988   3.447
 1951SOL     OW 6751   6.654   5.634   5.851
 1951SOL    HW1 6752   6.724   5.649   5.921
 1951SOL    HW2 6753   6.695   5.644   5.760
 1952SOL     OW 6754   5.713   4.180   6.395
 1952SOL    HW1 6755   5.758   4.224   6.473
 1952SOL    HW2 6756   5.641   4.241   6.360
 1953SOL     OW 6757   0.880   0.760   7.009
 1953SOL    HW1 6758   0.921   0.839   0.025
 1953SOL    HW2 6759   0.944   0.684   7.008
 1954SOL     OW 6760   4.009   6.927   2.346
 1954SOL    HW1 6761   4.014   6.893   2.439
 1954SOL    HW2 6762   4.075   7.001   2.334
 1955SOL     OW 6763   6.483   2.368   4.178
 1955SOL    HW1 6764   6.404   2.382   4.118
 1955SOL    HW2 6765   6.490   2.272   4.203
 1956SOL     OW 6766   4.767   1.203   1.546
 1956SOL    HW1 6767   4.739   1.211   1.450
 1956SOL    HW2 6768   4.864   1.225   1.554
 1957SOL     OW 6769   6.427   2.412   4.506
 1957SOL    HW1 6770   6.431   2.424   4.407
 1957SOL    HW2 6771   6.337   2.439   4.539
 1958SOL     OW 6772   3.805   1.867   0.328
 1958SOL    HW1 6773   3.721   1.833   0.372
 1958SOL    HW2 6774   3.805   1.839   0.232
 1959SOL     OW 6775   1.519   1.618   5.687
 1959SOL    HW1 6776   1.479   1.581   5.771
 1959SOL    HW2 6777   1.525   1.545   5.619
 1960SOL     OW 6778   5.464   4.478   2.830
 1960SOL    HW1 6779   5.368   4.502   2.847
 1960SOL    HW2 6780   5.497   4.530   2.751
 1961SOL     OW 6781   0.485   4.122   4.494
 1961SOL    HW1 6782   0.519   4.135   4.401
 1961SOL    HW2 6783   0.428   4.200   4.520
 1962SOL     OW 6784   0.622   6.743   2.194
 1962SOL    HW1 6785   0.668   6.727   2.281
 1962SOL    HW2 6786   0.542   6.801   2.209
 1963SOL     OW 6787   0.792   2.608   6.828
 1963SOL    HW1 6788   0.886   2.636   6.807
 1963SOL    HW2 6789   0.740   2.688   6.858
 1964SOL     OW 6790   5.759   3.347   0.755
 1964SOL    HW1 6791   5.713   3.278   0.812
 1964SOL    HW2 6792   5.700   3.427   0.747
 1965SOL     OW 6793   6.025   4.405   4.103
 1965SOL    HW1 6794   6.016   4.422   4.202
 1965SOL    HW2 6795   5.957   4.459   4.054
 1966SOL     OW 6796   0.822   5.033   6.799
 1966SOL    HW1 6797   0.917   5.065   6.798
 1966SOL    HW2 6798   0.761   5.107   6.771
 1967SOL     OW 6799   6.769   2.672   4.893
 1967SOL    HW1 6800   6.823   2.664   4.809
 1967SOL    HW2 6801   6.800   2.751   4.945
 1968SOL     OW 6802   2.374   1.433   6.197
 1968SOL    HW1 6803   2.315   1.383   6.133
 1968SOL    HW2 6804   2.332   1.431   6.288
 1969SOL     OW 6805   0.978   6.060   0.861
 1969SOL    HW1 6806   0.993   6.152   0.899
 1969SOL    HW2 6807   1.061   6.030   0.814
 1970SOL     OW 6808   5.324   4.333   3.655
 1970SOL    HW1 6809   5.272   4.310   3.573
 1970SOL    HW2 6810   5.263   4.340   3.733
 1971SOL     OW 6811   1.623   5.126   4.520
 1971SOL    HW1 6812   1.528   5.148   4.499
 1971SOL    HW2 6813   1.663   5.073   4.445
 1972SOL     OW 6814   6.035   2.091   2.547
 1972SOL    HW1 6815   6.027   2.190   2.533
 1972SOL    HW2 6816   6.050   2.072   2.644
 1973SOL     OW 6817   3.529   2.266   0.491
 1973SOL    HW1 6818   3.571   2.217   0.567
 1973SOL    HW2 6819   3.516   2.203   0.414
 1974SOL     OW 6820   2.399   6.558   4.810
 1974SOL    HW1 6821   2.379   6.471   4.855
 1974SOL    HW2 6822   2.358   6.632   4.863
 1975SOL     OW 6823   2.060   3.001   2.308
 1975SOL    HW1 6824   2.119   3.075   2.338
 1975SOL    HW2 6825   2.000   2.973   2.383
 1976SOL     OW 6826   1.540   1.089   5.228
 1976SOL    HW1 6827   1.575   1.034   5.152
 1976SOL    HW2 6828   1.485   1.032   5.288
 1977SOL     OW 6829   1.081   3.735   6.782
 1977SOL    HW1 6830   1.099   3.777   6.693
 1977SOL    HW2 6831   1.136   3.652   6.792
 1978SOL     OW 6832   2.967   0.372   2.022
 1978SOL    HW1 6833   2.969   0.338   2.116
 1978SOL    HW2 6834   3.057   0.407   1.997
 1979SOL     OW 6835   5.368   4.089   6.468
 1979SOL    HW1 6836   5.376   4.165   6.403
 1979SOL    HW2 6837   5.276   4.051   6.464
 1980SOL     OW 6838   4.356   0.509   1.313
 1980SOL    HW1 6839   4.372   0.586   1.374
 1980SOL    HW2 6840   4.258   0.500   1.296
 1981SOL     OW 6841   4.301   2.229   2.021
 1981SOL    HW1 6842   4.375   2.291   2.046
 1981SOL    HW2 6843   4.245   2.270   1.949
 1982SOL     OW 6844   1.534   2.693   6.504
 1982SOL    HW1 6845   1.570   2.654   6.589
 1982SOL    HW2 6846   1.465   2.631   6.466
 1983SOL     OW 6847   0.340   1.550   1.804
 1983SOL    HW1 6848   0.317   1.633   1.753
 1983SOL    HW2 6849   0.309   1.560   1.899
 1984SOL     OW 6850   5.029   3.835   5.809
 1984SOL    HW1 6851   4.984   3.909   5.760
 1984SOL    HW2 6852   5.047   3.759   5.747
 1985SOL     OW 6853   6.238   4.307   3.979
 1985SOL    HW1 6854   6.152   4.343   4.015
 1985SOL    HW2 6855   6.236   4.207   3.979
 1986SOL     OW 6856   2.976   3.286   2.566
 1986SOL    HW1 6857   3.053   3.300   2.628
 1986SOL    HW2 6858   2.984   3.196   2.523
 1987SOL     OW 6859   2.342   1.123   2.206
 1987SOL    HW1 6860   2.437   1.126   2.237
 1987SOL    HW2 6861   2.337   1.151   2.110
 1988SOL     OW 6862   0.784   2.110   2.871
 1988SOL    HW1 6863   0.882   2.114   2.857
 1988SOL    HW2 6864   0.764   2.065   2.958
 1989SOL     OW 6865   3.062   5.315   4.664
 1989SOL    HW1 6866   3.064   5.403   4.711
 1989SOL    HW2 6867   3.094   5.243   4.726
 1990SOL     OW 6868   4.222   6.351   0.473
 1990SOL    HW1 6869   4.320   6.366   0.483
 1990SOL    HW2 6870   4.203   6.307   0.385
 1991SOL     OW 6871   2.598   5.919   2.005
 1991SOL    HW1 6872   2.663   5.948   1.935
 1991SOL    HW2 6873   2.536   5.850   1.966
 1992SOL     OW 6874   1.189   6.505   2.927
 1992SOL    HW1 6875   1.199   6.535   2.831
 1992SOL    HW2 6876   1.243   6.565   2.986
 1993SOL     OW 6877   1.793   1.807   2.477
 1993SOL    HW1 6878   1.716   1.760   2.433
 1993SOL    HW2 6879   1.870   1.814   2.413
 1994SOL     OW 6880   3.118   3.463   1.560
 1994SOL    HW1 6881   3.062   3.518   1.497
 1994SOL    HW2 6882   3.088   3.368   1.555
 1995SOL     OW 6883   5.902   1.216   4.023
 1995SOL    HW1 6884   5.882   1.241   4.118
 1995SOL    HW2 6885   5.822   1.234   3.966
 1996SOL     OW 6886   4.598   0.679   0.674
 1996SOL    HW1 6887   4.587   0.637   0.584
 1996SOL    HW2 6888   4.550   0.767   0.676
 1997SOL     OW 6889   3.814   1.221   3.466
 1997SOL    HW1 6890   3.799   1.303   3.410
 1997SOL    HW2 6891   3.731   1.199   3.516
 1998SOL     OW 6892   2.587   3.568   1.146
 1998SOL    HW1 6893   2.639   3.513   1.211
 1998SOL    HW2 6894   2.633   3.564   1.057
 1999SOL     OW 6895   0.841   7.017   6.633
 1999SOL    HW1 6896   0.831   6.972   6.722
 1999SOL    HW2 6897   0.924   6.984   6.588
 2000SOL     OW 6898   4.341   4.455   6.592
 2000SOL    HW1 6899   4.273   4.515   6.550
 2000SOL    HW2 6900   4.432   4.481   6.560
 2001SOL     OW 6901   1.260   1.933   0.941
 2001SOL    HW1 6902   1.333   1.897   0.883
 2001SOL    HW2 6903   1.298   1.962   1.029
 2002SOL     OW 6904   5.892   5.414   0.862
 2002SOL    HW1 6905   5.853   5.326   0.835
 2002SOL    HW2 6906   5.970   5.435   0.803
 2003SOL     OW 6907   6.087   5.847   1.210
 2003SOL    HW1 6908   6.080   5.852   1.110
 2003SOL    HW2 6909   6.086   5.940   1.247
 2004SOL     OW 6910   4.175   0.295   3.222
 2004SOL    HW1 6911   4.271   0.290   3.251
 2004SOL    HW2 6912   4.132   0.376   3.262
 2005SOL     OW 6913   1.474   6.713   6.868
 2005SOL    HW1 6914   1.507   6.768   6.945
 2005SOL    HW2 6915   1.525   6.628   6.863
 2006SOL     OW 6916   6.128   0.008   2.410
 2006SOL    HW1 6917   6.048   0.021   2.351
 2006SOL    HW2 6918   6.113   0.051   2.498
 2007SOL     OW 6919   5.460   5.276   5.937
 2007SOL    HW1 6920   5.530   5.267   6.008
 2007SOL    HW2 6921   5.417   5.187   5.921
 2008SOL     OW 6922   1.863   3.478   2.673
 2008SOL    HW1 6923   1.862   3.383   2.642
 2008SOL    HW2 6924   1.949   3.521   2.646
 2009SOL     OW 6925   6.039   6.939   3.091
 2009SOL    HW1 6926   6.101   6.966   3.165
 2009SOL    HW2 6927   5.946   6.969   3.114
 2010SOL     OW 6928   0.468   1.423   1.374
 2010SOL    HW1 6929   0.540   1.487   1.403
 2010SOL    HW2 6930   0.488   1.332   1.410
 2011SOL     OW 6931   1.082   0.098   4.959
 2011SOL    HW1 6932   1.137   0.176   4.986
 2011SOL    HW2 6933   1.039   0.056   5.039
 2012SOL     OW 6934   0.338   2.592   0.488
 2012SOL    HW1 6935   0.392   2.610   0.570
 2012SOL    HW2 6936   0.281   2.511   0.503
 2013SOL     OW 6937   0.854   2.971   2.196
 2013SOL    HW1 6938   0.912   2.933   2.268
 2013SOL    HW2 6939   0.895   3.054   2.160
 2014SOL     OW 6940   3.845   1.570   3.805
 2014SOL    HW1 6941   3.789   1.488   3.792
 2014SOL    HW2 6942   3.805   1.627   3.877
 2015SOL     OW 6943   3.703   6.040   1.805
 2015SOL    HW1 6944   3.652   6.117   1.844
 2015SOL    HW2 6945   3.641   5.963   1.790
 2016SOL     OW 6946   1.847   1.107   5.498
 2016SOL    HW1 6947   1.913   1.103   5.572
 2016SOL    HW2 6948   1.885   1.158   5.421
 2017SOL     OW 6949   2.761   6.317   4.302
 2017SOL    HW1 6950   2.764   6.417   4.302
 2017SOL    HW2 6951   2.705   6.286   4.379
 2018SOL     OW 6952   0.616   0.352   4.620
 2018SOL    HW1 6953   0.534   0.398   4.587
 2018SOL    HW2 6954   0.674   0.417   4.668
 2019SOL     OW 6955   6.689   4.569   6.841
 2019SOL    HW1 6956   6.699   4.490   6.781
 2019SOL    HW2 6957   6.597   4.606   6.833
 2020SOL     OW 6958   1.875   6.880   1.213
 2020SOL    HW1 6959   1.885   6.881   1.312
 2020SOL    HW2 6960   1.873   6.974   1.179
 2021SOL     OW 6961   0.141   5.802   4.076
 2021SOL    HW1 6962   0.182   5.712   4.086
 2021SOL    HW2 6963   0.199   5.859   4.018
 2022SOL     OW 6964   1.509   3.198   4.240
 2022SOL    HW1 6965   1.595   3.198   4.291
 2022SOL    HW2 6966   1.463   3.286   4.252
 2023SOL     OW 6967   0.183   5.428   7.027
 2023SOL    HW1 6968   0.256   5.359   0.004
 2023SOL    HW2 6969   0.159   5.459   0.089
 2024SOL     OW 6970   6.792   5.520   3.587
 2024SOL    HW1 6971   6.784   5.566   3.675
 2024SOL    HW2 6972   6.880   5.541   3.546
 2025SOL     OW 6973   2.212   6.982   4.363
 2025SOL    HW1 6974   2.297   6.962   4.411
 2025SOL    HW2 6975   2.137   6.991   4.429
 2026SOL     OW 6976   1.573   0.051   5.516
 2026SOL    HW1 6977   1.610   7.029   5.594
 2026SOL    HW2 6978   1.576   0.149   5.537
 2027SOL     OW 6979   6.572   5.735   2.773
 2027SOL    HW1 6980   6.582   5.831   2.744
 2027SOL    HW2 6981   6.561   5.677   2.692
 2028SOL     OW 6982   2.564   6.013   4.983
 2028SOL    HW1 6983   2.560   6.088   4.918
 2028SOL    HW2 6984   2.630   6.035   5.055
 2029SOL     OW 6985   6.180   1.760   6.958
 2029SOL    HW1 6986   6.236   1.774   0.010
 2029SOL    HW2 6987   6.213   1.679   6.909
 2030SOL     OW 6988   1.854   6.744   2.835
 2030SOL    HW1 6989   1.894   6.670   2.890
 2030SOL    HW2 6990   1.844   6.714   2.741
 2031SOL     OW 6991   0.219   6.708   5.652
 2031SOL    HW1 6992   0.162   6.712   5.734
 2031SOL    HW2 6993   0.166   6.739   5.573
 2032SOL     OW 6994   2.432   2.735   6.068
 2032SOL    HW1 6995   2.420   2.828   6.035
 2032SOL    HW2 6996   2.482   2.681   6.001
 2033SOL     OW 6997   2.450   0.998   1.291
 2033SOL    HW1 6998   2.452   1.097   1.304
 2033SOL    HW2 6999   2.423   0.954   1.377
 2034SOL     OW 7000   0.702   4.425   5.214
 2034SOL    HW1 7001   0.670   4.518   5.233
 2034SOL    HW2 7002   0.624   4.362   5.216
 2035SOL     OW 7003   5.755   5.360   2.707
 2035SOL    HW1 7004   5.745   5.445   2.760
 2035SOL    HW2 7005   5.808   5.294   2.759
 2036SOL     OW 7006   0.686   3.851   6.253
 2036SOL    HW1 7007   0.609   3.788   6.257
 2036SOL    HW2 7008   0.753   3.818   6.185
 2037SOL     OW 7009   0.647   2.551   6.488
 2037SOL    HW1 7010   0.622   2.496   6.567
 2037SOL    HW2 7011   0.742   2.532   6.462
 2038SOL     OW 7012   1.096   1.064   5.877
 2038SOL    HW1 7013   1.035   1.002   5.828
 2038SOL    HW2 7014   1.083   1.053   5.975
 2039SOL     OW 7015   5.649   5.692   4.146
 2039SOL    HW1 7016   5.668   5.765   4.081
 2039SOL    HW2 7017   5.588   5.625   4.104
 2040SOL     OW 7018   2.908   2.051   0.784
 2040SOL    HW1 7019   2.824   2.011   0.821
 2040SOL    HW2 7020   2.885   2.128   0.725
 2041SOL     OW 7021   3.068   6.926   6.929
 2041SOL    HW1 7022   2.989   6.904   6.987
 2041SOL    HW2 7023   3.099   7.019   6.950
 2042SOL     OW 7024   0.086   6.967   6.028
 2042SOL    HW1 7025   0.026   6.896   6.065
 2042SOL    HW2 7026   0.047   0.028   6.048
 2043SOL     OW 7027   0.418   3.866   6.981
 2043SOL    HW1 7028   0.330   3.843   7.022
 2043SOL    HW2 7029   0.462   3.782   6.949
 2044SOL     OW 7030   3.776   0.372   1.587
 2044SOL    HW1 7031   3.841   0.389   1.512
 2044SOL    HW2 7032   3.823   0.383   1.675
 2045SOL     OW 7033   1.644   5.916   3.348
 2045SOL    HW1 7034   1.568   5.855   3.369
 2045SOL    HW2 7035   1.642   5.994   3.411
 2046SOL     OW 7036   0.884   2.896   5.689
 2046SOL    HW1 7037   0.920   2.902   5.782
 2046SOL    HW2 7038   0.961   2.894   5.624
 2047SOL     OW 7039   6.724   7.015   1.897
 2047SOL    HW1 7040   6.736   0.062   1.959
 2047SOL    HW2 7041   6.663   0.011   1.822
 2048SOL     OW 7042   1.720   0.792   3.509
 2048SOL    HW1 7043   1.751   0.750   3.595
 2048SOL    HW2 7044   1.745   0.889   3.508
 2049SOL     OW 7045   4.448   2.021   5.404
 2049SOL    HW1 7046   4.506   1.959   5.457
 2049SOL    HW2 7047   4.436   1.984   5.311
 2050SOL     OW 7048   0.421   0.817   2.678
 2050SOL    HW1 7049   0.423   0.822   2.778
 2050SOL    HW2 7050   0.412   0.909   2.640
 2051SOL     OW 7051   3.048   7.006   6.513
 2051SOL    HW1 7052   3.122   6.948   6.547
 2051SOL    HW2 7053   3.054   0.066   6.556
 2052SOL     OW 7054   0.152   4.036   1.302
 2052SOL    HW1 7055   0.147   4.098   1.224
 2052SOL    HW2 7056   0.076   3.971   1.298
 2053SOL     OW 7057   5.565   4.855   2.149
 2053SOL    HW1 7058   5.619   4.820   2.073
 2053SOL    HW2 7059   5.591   4.949   2.169
 2054SOL     OW 7060   3.226   4.131   2.736
 2054SOL    HW1 7061   3.173   4.216   2.739
 2054SOL    HW2 7062   3.273   4.118   2.824
 2055SOL     OW 7063   4.029   2.645   6.049
 2055SOL    HW1 7064   3.930   2.646   6.068
 2055SOL    HW2 7065   4.069   2.732   6.079
 2056SOL     OW 7066   2.680   4.776   1.833
 2056SOL    HW1 7067   2.739   4.703   1.866
 2056SOL    HW2 7068   2.627   4.744   1.754
 2057SOL     OW 7069   5.718   3.222   3.737
 2057SOL    HW1 7070   5.622   3.221   3.709
 2057SOL    HW2 7071   5.752   3.317   3.735
 2058SOL     OW 7072   5.343   0.011   3.351
 2058SOL    HW1 7073   5.272   7.015   3.417
 2058SOL    HW2 7074   5.411   6.967   3.345
 2059SOL     OW 7075   1.880   2.000   5.552
 2059SOL    HW1 7076   1.872   2.098   5.568
 2059SOL    HW2 7077   1.977   1.974   5.549
 2060SOL     OW 7078   1.365   2.477   6.452
 2060SOL    HW1 7079   1.308   2.493   6.371
 2060SOL    HW2 7080   1.308   2.441   6.526
 2061SOL     OW 7081   1.705   1.850   3.875
 2061SOL    HW1 7082   1.691   1.946   3.898
 2061SOL    HW2 7083   1.788   1.817   3.920
 2062SOL     OW 7084   5.478   5.523   4.037
 2062SOL    HW1 7085   5.391   5.476   4.053
 2062SOL    HW2 7086   5.486   5.544   3.940
 2063SOL     OW 7087   1.150   1.448   4.152
 2063SOL    HW1 7088   1.095   1.423   4.072
 2063SOL    HW2 7089   1.125   1.390   4.229
 2064SOL     OW 7090   0.604   4.136   4.843
 2064SOL    HW1 7091   0.631   4.209   4.779
 2064SOL    HW2 7092   0.683   4.076   4.859
 2065SOL     OW 7093   3.713   3.564   5.863
 2065SOL    HW1 7094   3.730   3.660   5.841
 2065SOL    HW2 7095   3.615   3.549   5.876
 2066SOL     OW 7096   2.098   2.701   4.603
 2066SOL    HW1 7097   2.195   2.722   4.591
 2066SOL    HW2 7098   2.066   2.645   4.527
 2067SOL     OW 7099   6.524   4.527   2.472
 2067SOL    HW1 7100   6.448   4.553   2.531
 2067SOL    HW2 7101   6.599   4.592   2.485
 2068SOL     OW 7102   3.561   6.403   4.212
 2068SOL    HW1 7103   3.609   6.363   4.133
 2068SOL    HW2 7104   3.620   6.468   4.258
 2069SOL     OW 7105   6.257   1.739   3.679
 2069SOL    HW1 7106   6.242   1.748   3.581
 2069SOL    HW2 7107   6.198   1.667   3.715
 2070SOL     OW 7108   0.291   4.979   1.937
 2070SOL    HW1 7109   0.285   4.880   1.933
 2070SOL    HW2 7110   0.229   5.013   2.008
 2071SOL     OW 7111   6.819   2.565   4.369
 2071SOL    HW1 7112   6.784   2.659   4.370
 2071SOL    HW2 7113   6.917   2.566   4.349
 2072SOL     OW 7114   5.668   3.270   5.886
 2072SOL    HW1 7115   5.606   3.194   5.865
 2072SOL    HW2 7116   5.644   3.349   5.831
 2073SOL     OW 7117   3.533   5.444   6.863
 2073SOL    HW1 7118   3.507   5.350   6.883
 2073SOL    HW2 7119   3.568   5.487   6.946
 2074SOL     OW 7120   3.763   4.648   5.399
 2074SOL    HW1 7121   3.816   4.730   5.375
 2074SOL    HW2 7122   3.821   4.585   5.450
 2075SOL     OW 7123   5.453   1.989   1.197
 2075SOL    HW1 7124   5.497   1.912   1.244
 2075SOL    HW2 7125   5.356   1.991   1.219
 2076SOL     OW 7126   6.810   6.563   3.887
 2076SOL    HW1 7127   6.872   6.602   3.955
 2076SOL    HW2 7128   6.861   6.541   3.803
 2077SOL     OW 7129   0.388   4.469   0.971
 2077SOL    HW1 7130   0.453   4.402   1.007
 2077SOL    HW2 7131   0.341   4.514   1.046
 2078SOL     OW 7132   0.837   2.834   6.419
 2078SOL    HW1 7133   0.748   2.838   6.374
 2078SOL    HW2 7134   0.862   2.739   6.436
 2079SOL     OW 7135   6.188   1.787   3.140
 2079SOL    HW1 7136   6.092   1.782   3.112
 2079SOL    HW2 7137   6.197   1.760   3.236
 2080SOL     OW 7138   2.236   3.853   5.902
 2080SOL    HW1 7139   2.161   3.881   5.843
 2080SOL    HW2 7140   2.320   3.845   5.847
 2081SOL     OW 7141   0.606   6.084   2.535
 2081SOL    HW1 7142   0.655   6.169   2.547
 2081SOL    HW2 7143   0.524   6.084   2.592
 2082SOL     OW 7144   0.132   5.891   3.610
 2082SOL    HW1 7145   0.039   5.865   3.585
 2082SOL    HW2 7146   0.193   5.813   3.595
 2083SOL     OW 7147   0.898   5.452   3.634
 2083SOL    HW1 7148   0.861   5.435   3.725
 2083SOL    HW2 7149   0.886   5.548   3.611
 2084SOL     OW 7150   6.319   2.397   1.198
 2084SOL    HW1 7151   6.260   2.441   1.266
 2084SOL    HW2 7152   6.369   2.322   1.241
 2085SOL     OW 7153   6.085   5.386   7.018
 2085SOL    HW1 7154   6.141   5.308   0.017
 2085SOL    HW2 7155   6.003   5.392   0.045
 2086SOL     OW 7156   6.022   0.040   6.174
 2086SOL    HW1 7157   6.070   0.021   6.088
 2086SOL    HW2 7158   5.987   6.984   6.212
 2087SOL     OW 7159   4.790   1.393   6.889
 2087SOL    HW1 7160   4.799   1.492   6.883
 2087SOL    HW2 7161   4.831   1.350   6.808
 2088SOL     OW 7162   0.589   3.691   5.953
 2088SOL    HW1 7163   0.674   3.688   6.004
 2088SOL    HW2 7164   0.549   3.599   5.949
 2089SOL     OW 7165   2.901   4.842   5.637
 2089SOL    HW1 7166   2.946   4.883   5.716
 2089SOL    HW2 7167   2.960   4.849   5.557
 2090SOL     OW 7168   5.113   2.503   6.509
 2090SOL    HW1 7169   5.070   2.559   6.580
 2090SOL    HW2 7170   5.193   2.456   6.547
 2091SOL     OW 7171   5.405   6.640   1.198
 2091SOL    HW1 7172   5.379   6.735   1.187
 2091SOL    HW2 7173   5.325   6.581   1.183
 2092SOL     OW 7174   3.413   3.072   2.326
 2092SOL    HW1 7175   3.382   3.005   2.394
 2092SOL    HW2 7176   3.459   3.024   2.251
 2093SOL     OW 7177   4.664   6.838   0.626
 2093SOL    HW1 7178   4.733   6.767   0.611
 2093SOL    HW2 7179   4.700   6.907   0.689
 2094SOL     OW 7180   4.825   2.804   0.563
 2094SOL    HW1 7181   4.793   2.713   0.537
 2094SOL    HW2 7182   4.758   2.846   0.625
 2095SOL     OW 7183   5.175   5.307   3.461
 2095SOL    HW1 7184   5.126   5.334   3.378
 2095SOL    HW2 7185   5.155   5.212   3.482
 2096SOL     OW 7186   4.147   6.483   2.935
 2096SOL    HW1 7187   4.190   6.507   2.848
 2096SOL    HW2 7188   4.083   6.407   2.921
 2097SOL     OW 7189   1.459   5.776   5.558
 2097SOL    HW1 7190   1.490   5.747   5.468
 2097SOL    HW2 7191   1.522   5.742   5.628
 2098SOL     OW 7192   1.799   6.803   3.809
 2098SOL    HW1 7193   1.820   6.820   3.712
 2098SOL    HW2 7194   1.823   6.884   3.862
 2099SOL     OW 7195   4.477   1.640   6.899
 2099SOL    HW1 7196   4.406   1.709   6.885
 2099SOL    HW2 7197   4.442   1.569   6.960
 2100SOL     OW 7198   4.881   0.584   0.064
 2100SOL    HW1 7199   4.811   0.616   7.029
 2100SOL    HW2 7200   4.940   0.518   0.018
 2101SOL     OW 7201   1.864   0.678   2.726
 2101SOL    HW1 7202   1.910   0.625   2.797
 2101SOL    HW2 7203   1.914   0.764   2.711
 2102SOL     OW 7204   3.538   2.793   2.010
 2102SOL    HW1 7205   3.563   2.890   2.018
 2102SOL    HW2 7206   3.443   2.786   1.979
 2103SOL     OW 7207   1.852   0.092   1.093
 2103SOL    HW1 7208   1.862   0.040   1.008
 2103SOL    HW2 7209   1.785   0.165   1.079
 2104SOL     OW 7210   1.198   4.154   2.599
 2104SOL    HW1 7211   1.251   4.133   2.682
 2104SOL    HW2 7212   1.154   4.071   2.566
 2105SOL     OW 7213   5.798   6.837   5.096
 2105SOL    HW1 7214   5.819   6.771   5.169
 2105SOL    HW2 7215   5.778   6.787   5.012
 2106SOL     OW 7216   3.384   2.319   1.126
 2106SOL    HW1 7217   3.471   2.336   1.080
 2106SOL    HW2 7218   3.328   2.258   1.069
 2107SOL     OW 7219   5.219   4.323   4.769
 2107SOL    HW1 7220   5.271   4.354   4.690
 2107SOL    HW2 7221   5.178   4.234   4.750
 2108SOL     OW 7222   4.624   6.801   5.050
 2108SOL    HW1 7223   4.562   6.725   5.068
 2108SOL    HW2 7224   4.712   6.766   5.017
 2109SOL     OW 7225   2.473   5.703   1.875
 2109SOL    HW1 7226   2.552   5.699   1.815
 2109SOL    HW2 7227   2.389   5.690   1.821
 2110SOL     OW 7228   3.714   6.157   6.916
 2110SOL    HW1 7229   3.795   6.102   6.938
 2110SOL    HW2 7230   3.704   6.231   6.982
 2111SOL     OW 7231   0.386   2.699   0.017
 2111SOL    HW1 7232   0.369   2.762   0.093
 2111SOL    HW2 7233   0.370   2.605   0.047
 2112SOL     OW 7234   0.720   0.569   6.906
 2112SOL    HW1 7235   0.704   0.523   6.994
 2112SOL    HW2 7236   0.778   0.649   6.920
 2113SOL     OW 7237   0.148   1.461   4.512
 2113SOL    HW1 7238   0.109   1.553   4.501
 2113SOL    HW2 7239   0.196   1.455   4.599
 2114SOL     OW 7240   2.743   1.321   5.209
 2114SOL    HW1 7241   2.761   1.271   5.125
 2114SOL    HW2 7242   2.644   1.327   5.224
 2115SOL     OW 7243   6.574   6.532   3.769
 2115SOL    HW1 7244   6.665   6.562   3.794
 2115SOL    HW2 7245   6.579   6.440   3.729
 2116SOL     OW 7246   2.287   0.966   6.352
 2116SOL    HW1 7247   2.365   0.948   6.292
 2116SOL    HW2 7248   2.237   0.881   6.367
 2117SOL     OW 7249   5.571   2.884   2.035
 2117SOL    HW1 7250   5.475   2.863   2.053
 2117SOL    HW2 7251   5.608   2.818   1.969
 2118SOL     OW 7252   0.370   3.236   2.849
 2118SOL    HW1 7253   0.468   3.251   2.864
 2118SOL    HW2 7254   0.333   3.312   2.795
 2119SOL     OW 7255   1.642   2.974   0.537
 2119SOL    HW1 7256   1.699   3.056   0.542
 2119SOL    HW2 7257   1.553   2.997   0.498
 2120SOL     OW 7258   5.395   2.097   0.828
 2120SOL    HW1 7259   5.436   2.157   0.759
 2120SOL    HW2 7260   5.452   2.097   0.910
 2121SOL     OW 7261   2.947   6.521   1.485
 2121SOL    HW1 7262   2.885   6.591   1.520
 2121SOL    HW2 7263   3.035   6.563   1.462
 2122SOL     OW 7264   0.292   0.551   5.052
 2122SOL    HW1 7265   0.266   0.455   5.055
 2122SOL    HW2 7266   0.284   0.585   4.958
 2123SOL     OW 7267   0.994   4.748   3.045
 2123SOL    HW1 7268   0.945   4.662   3.059
 2123SOL    HW2 7269   0.936   4.825   3.073
 2124SOL     OW 7270   4.833   3.118   5.871
 2124SOL    HW1 7271   4.832   3.058   5.791
 2124SOL    HW2 7272   4.854   3.211   5.843
 2125SOL     OW 7273   1.556   5.428   5.556
 2125SOL    HW1 7274   1.465   5.443   5.518
 2125SOL    HW2 7275   1.562   5.471   5.646
 2126SOL     OW 7276   2.788   5.007   1.871
 2126SOL    HW1 7277   2.735   4.923   1.861
 2126SOL    HW2 7278   2.744   5.067   1.938
 2127SOL     OW 7279   1.483   3.469   4.292
 2127SOL    HW1 7280   1.482   3.449   4.390
 2127SOL    HW2 7281   1.568   3.516   4.268
 2128SOL     OW 7282   5.314   3.105   1.289
 2128SOL    HW1 7283   5.268   3.159   1.219
 2128SOL    HW2 7284   5.366   3.031   1.246
 2129SOL     OW 7285   5.667   4.093   4.046
 2129SOL    HW1 7286   5.583   4.142   4.026
 2129SOL    HW2 7287   5.720   4.143   4.114
 2130SOL     OW 7288   2.134   0.516   2.614
 2130SOL    HW1 7289   2.200   0.560   2.554
 2130SOL    HW2 7290   2.042   0.521   2.573
 2131SOL     OW 7291   5.589   0.659   6.621
 2131SOL    HW1 7292   5.577   0.664   6.720
 2131SOL    HW2 7293   5.509   0.617   6.580
 2132SOL     OW 7294   2.663   2.208   0.118
 2132SOL    HW1 7295   2.653   2.277   0.046
 2132SOL    HW2 7296   2.601   2.230   0.194
 2133SOL     OW 7297   4.275   2.618   1.702
 2133SOL    HW1 7298   4.367   2.649   1.726
 2133SOL    HW2 7299   4.213   2.697   1.699
 2134SOL     OW 7300   2.633   0.333   5.391
 2134SOL    HW1 7301   2.630   0.349   5.490
 2134SOL    HW2 7302   2.591   0.245   5.370
 2135SOL     OW 7303   0.946   5.854   4.547
 2135SOL    HW1 7304   0.943   5.840   4.646
 2135SOL    HW2 7305   0.953   5.952   4.528
 2136SOL     OW 7306   0.982   4.816   3.778
 2136SOL    HW1 7307   0.936   4.740   3.825
 2136SOL    HW2 7308   1.047   4.859   3.841
 2137SOL     OW 7309   0.412   0.115   4.591
 2137SOL    HW1 7310   0.505   0.094   4.622
 2137SOL    HW2 7311   0.386   0.051   4.519
 2138SOL     OW 7312   1.230   2.312   6.624
 2138SOL    HW1 7313   1.143   2.266   6.607
 2138SOL    HW2 7314   1.265   2.283   6.713
 2139SOL     OW 7315   3.137   5.923   4.594
 2139SOL    HW1 7316   3.106   5.836   4.557
 2139SOL    HW2 7317   3.074   5.996   4.565
 2140SOL     OW 7318   1.540   5.584   3.895
 2140SOL    HW1 7319   1.447   5.610   3.871
 2140SOL    HW2 7320   1.604   5.623   3.828
 2141SOL     OW 7321   6.913   1.116   6.778
 2141SOL    HW1 7322   6.866   1.092   6.863
 2141SOL    HW2 7323   6.869   1.197   6.738
 2142SOL     OW 7324   4.331   1.133   3.052
 2142SOL    HW1 7325   4.373   1.070   3.117
 2142SOL    HW2 7326   4.394   1.148   2.975
 2143SOL     OW 7327   3.425   5.964   0.683
 2143SOL    HW1 7328   3.463   5.985   0.774
 2143SOL    HW2 7329   3.341   6.017   0.670
 2144SOL     OW 7330   1.034   0.916   1.877
 2144SOL    HW1 7331   1.065   0.950   1.966
 2144SOL    HW2 7332   0.945   0.958   1.855
 2145SOL     OW 7333   2.462   6.088   3.936
 2145SOL    HW1 7334   2.373   6.125   3.963
 2145SOL    HW2 7335   2.526   6.093   4.013
 2146SOL     OW 7336   2.801   2.447   1.056
 2146SOL    HW1 7337   2.738   2.370   1.056
 2146SOL    HW2 7338   2.837   2.460   0.964
 2147SOL     OW 7339   0.170   0.325   4.843
 2147SOL    HW1 7340   0.077   0.359   4.831
 2147SOL    HW2 7341   0.235   0.396   4.817
 2148SOL     OW 7342   6.405   3.797   4.258
 2148SOL    HW1 7343   6.369   3.821   4.348
 2148SOL    HW2 7344   6.471   3.723   4.268
 2149SOL     OW 7345   3.031   1.144   3.124
 2149SOL    HW1 7346   2.963   1.071   3.123
 2149SOL    HW2 7347   2.990   1.228   3.159
 2150SOL     OW 7348   5.220   0.175   2.839
 2150SOL    HW1 7349   5.179   0.084   2.828
 2150SOL    HW2 7350   5.319   0.169   2.827
 2151SOL     OW 7351   4.459   4.781   5.802
 2151SOL    HW1 7352   4.477   4.876   5.829
 2151SOL    HW2 7353   4.544   4.728   5.807
 2152SOL     OW 7354   0.306   6.631   2.507
 2152SOL    HW1 7355   0.278   6.558   2.570
 2152SOL    HW2 7356   0.300   6.719   2.553
 2153SOL     OW 7357   4.433   1.426   3.875
 2153SOL    HW1 7358   4.451   1.457   3.782
 2153SOL    HW2 7359   4.412   1.506   3.932
 2154SOL     OW 7360   3.587   6.588   4.610
 2154SOL    HW1 7361   3.624   6.572   4.518
 2154SOL    HW2 7362   3.555   6.501   4.648
 2155SOL     OW 7363   5.644   3.255   0.271
 2155SOL    HW1 7364   5.608   3.288   0.358
 2155SOL    HW2 7365   5.605   3.165   0.250
 2156SOL     OW 7366   6.199   6.263   2.711
 2156SOL    HW1 7367   6.269   6.207   2.756
 2156SOL    HW2 7368   6.130   6.203   2.671
 2157SOL     OW 7369   5.774   1.471   3.466
 2157SOL    HW1 7370   5.860   1.488   3.418
 2157SOL    HW2 7371   5.700   1.456   3.399
 2158SOL     OW 7372   4.142   0.022   3.327
 2158SOL    HW1 7373   4.116   6.990   3.253
 2158SOL    HW2 7374   4.121   0.117   3.301
 2159SOL     OW 7375   2.371   1.038   5.375
 2159SOL    HW1 7376   2.412   0.961   5.327
 2159SOL    HW2 7377   2.297   1.005   5.435
 2160SOL     OW 7378   2.315   4.090   0.462
 2160SOL    HW1 7379   2.270   4.036   0.533
 2160SOL    HW2 7380   2.358   4.170   0.503
 2161SOL     OW 7381   4.512   2.561   3.491
 2161SOL    HW1 7382   4.438   2.506   3.529
 2161SOL    HW2 7383   4.535   2.635   3.554
 2162SOL     OW 7384   2.705   1.737   2.316
 2162SOL    HW1 7385   2.699   1.673   2.240
 2162SOL    HW2 7386   2.620   1.790   2.323
 2163SOL     OW 7387   3.540   1.832   0.715
 2163SOL    HW1 7388   3.608   1.902   0.739
 2163SOL    HW2 7389   3.549   1.754   0.776
 2164SOL     OW 7390   6.735   0.878   1.500
 2164SOL    HW1 7391   6.816   0.886   1.443
 2164SOL    HW2 7392   6.736   0.789   1.547
 2165SOL     OW 7393   2.582   0.643   2.272
 2165SOL    HW1 7394   2.617   0.575   2.208
 2165SOL    HW2 7395   2.491   0.673   2.242
 2166SOL     OW 7396   5.626   2.585   5.307
 2166SOL    HW1 7397   5.589   2.647   5.376
 2166SOL    HW2 7398   5.594   2.612   5.216
 2167SOL     OW 7399   3.567   1.602   0.843
 2167SOL    HW1 7400   3.538   1.580   0.936
 2167SOL    HW2 7401   3.513   1.549   0.777
 2168SOL     OW 7402   5.446   6.110   4.317
 2168SOL    HW1 7403   5.355   6.098   4.278
 2168SOL    HW2 7404   5.501   6.166   4.254
 2169SOL     OW 7405   5.655   1.425   5.749
 2169SOL    HW1 7406   5.656   1.522   5.724
 2169SOL    HW2 7407   5.560   1.394   5.756
 2170SOL     OW 7408   4.983   4.975   4.027
 2170SOL    HW1 7409   4.891   5.012   4.014
 2170SOL    HW2 7410   5.016   4.998   4.118
 2171SOL     OW 7411   0.250   4.032   0.278
 2171SOL    HW1 7412   0.198   4.030   0.193
 2171SOL    HW2 7413   0.234   4.119   0.326
 2172SOL     OW 7414   2.577   0.227   2.476
 2172SOL    HW1 7415   2.546   0.215   2.571
 2172SOL    HW2 7416   2.517   0.174   2.415
 2173SOL     OW 7417   4.711   2.163   4.588
 2173SOL    HW1 7418   4.633   2.225   4.588
 2173SOL    HW2 7419   4.702   2.098   4.513
 2174SOL     OW 7420   1.095   5.664   5.115
 2174SOL    HW1 7421   1.173   5.688   5.058
 2174SOL    HW2 7422   1.117   5.680   5.211
 2175SOL     OW 7423   1.834   6.795   6.238
 2175SOL    HW1 7424   1.824   6.722   6.171
 2175SOL    HW2 7425   1.854   6.756   6.327
 2176SOL     OW 7426   1.886   2.870   2.762
 2176SOL    HW1 7427   1.943   2.953   2.761
 2176SOL    HW2 7428   1.863   2.846   2.856
 2177SOL     OW 7429   1.332   1.514   1.751
 2177SOL    HW1 7430   1.400   1.586   1.762
 2177SOL    HW2 7431   1.342   1.448   1.826
 2178SOL     OW 7432   6.466   6.217   0.324
 2178SOL    HW1 7433   6.427   6.134   0.286
 2178SOL    HW2 7434   6.490   6.203   0.420
 2179SOL     OW 7435   2.123   3.910   3.937
 2179SOL    HW1 7436   2.141   3.913   3.839
 2179SOL    HW2 7437   2.177   3.981   3.983
 2180SOL     OW 7438   2.989   2.936   1.737
 2180SOL    HW1 7439   3.020   2.949   1.643
 2180SOL    HW2 7440   2.960   2.842   1.751
 2181SOL     OW 7441   3.350   6.575   1.084
 2181SOL    HW1 7442   3.353   6.507   1.157
 2181SOL    HW2 7443   3.256   6.608   1.074
 2182SOL     OW 7444   4.067   3.393   0.794
 2182SOL    HW1 7445   4.110   3.333   0.727
 2182SOL    HW2 7446   4.100   3.369   0.886
 2183SOL     OW 7447   4.053   2.819   1.147
 2183SOL    HW1 7448   4.007   2.842   1.061
 2183SOL    HW2 7449   4.016   2.878   1.220
 2184SOL     OW 7450   5.247   2.787   6.031
 2184SOL    HW1 7451   5.309   2.727   5.981
 2184SOL    HW2 7452   5.223   2.745   6.119
 2185SOL     OW 7453   6.533   6.975   2.535
 2185SOL    HW1 7454   6.504   6.944   2.625
 2185SOL    HW2 7455   6.619   6.929   2.510
 2186SOL     OW 7456   0.066   4.159   3.452
 2186SOL    HW1 7457   0.105   4.197   3.536
 2186SOL    HW2 7458   0.045   4.233   3.389
 2187SOL     OW 7459   6.259   1.172   0.350
 2187SOL    HW1 7460   6.253   1.168   0.250
 2187SOL    HW2 7461   6.293   1.084   0.384
 2188SOL     OW 7462   4.713   1.712   3.980
 2188SOL    HW1 7463   4.735   1.732   4.075
 2188SOL    HW2 7464   4.739   1.618   3.959
 2189SOL     OW 7465   3.836   6.706   0.103
 2189SOL    HW1 7466   3.796   6.796   0.119
 2189SOL    HW2 7467   3.860   6.664   0.191
 2190SOL     OW 7468   5.285   3.196   0.124
 2190SOL    HW1 7469   5.331   3.147   0.198
 2190SOL    HW2 7470   5.352   3.218   0.053
 2191SOL     OW 7471   3.633   0.922   6.565
 2191SOL    HW1 7472   3.551   0.870   6.587
 2191SOL    HW2 7473   3.608   1.013   6.532
 2192SOL     OW 7474   3.658   5.913   2.267
 2192SOL    HW1 7475   3.623   5.851   2.196
 2192SOL    HW2 7476   3.673   6.003   2.227
 2193SOL     OW 7477   6.805   6.122   4.623
 2193SOL    HW1 7478   6.845   6.206   4.586
 2193SOL    HW2 7479   6.873   6.050   4.625
 2194SOL     OW 7480   2.616   0.241   1.927
 2194SOL    HW1 7481   2.543   0.185   1.889
 2194SOL    HW2 7482   2.636   0.317   1.866
 2195SOL     OW 7483   0.311   4.655   1.933
 2195SOL    HW1 7484   0.214   4.646   1.910
 2195SOL    HW2 7485   0.360   4.574   1.901
 2196SOL     OW 7486   4.260   3.764   0.059
 2196SOL    HW1 7487   4.211   3.757   7.001
 2196SOL    HW2 7488   4.358   3.774   0.042
 2197SOL     OW 7489   4.962   3.495   6.952
 2197SOL    HW1 7490   4.902   3.571   6.927
 2197SOL    HW2 7491   5.038   3.490   6.888
 2198SOL     OW 7492   6.945   4.328   0.016
 2198SOL    HW1 7493   6.976   4.316   0.110
 2198SOL    HW2 7494   6.998   4.401   7.002
 2199SOL     OW 7495   4.452   1.248   3.458
 2199SOL    HW1 7496   4.356   1.223   3.472
 2199SOL    HW2 7497   4.481   1.311   3.530
 2200SOL     OW 7498   3.673   6.916   4.266
 2200SOL    HW1 7499   3.720   6.938   4.351
 2200SOL    HW2 7500   3.587   6.868   4.286
 2201SOL     OW 7501   4.581   4.407   4.100
 2201SOL    HW1 7502   4.532   4.383   4.183
 2201SOL    HW2 7503   4.678   4.385   4.112
 2202SOL     OW 7504   4.391   5.745   3.651
 2202SOL    HW1 7505   4.366   5.824   3.595
 2202SOL    HW2 7506   4.376   5.661   3.598
 2203SOL     OW 7507   2.470   1.882   2.797
 2203SOL    HW1 7508   2.556   1.891   2.747
 2203SOL    HW2 7509   2.441   1.972   2.830
 2204SOL     OW 7510   3.265   2.156   0.651
 2204SOL    HW1 7511   3.205   2.080   0.678
 2204SOL    HW2 7512   3.294   2.143   0.556
 2205SOL     OW 7513   3.231   1.342   2.138
 2205SOL    HW1 7514   3.201   1.360   2.232
 2205SOL    HW2 7515   3.330   1.353   2.132
 2206SOL     OW 7516   1.309   3.911   0.542
 2206SOL    HW1 7517   1.374   3.965   0.488
 2206SOL    HW2 7518   1.222   3.960   0.548
 2207SOL     OW 7519   6.869   4.856   5.228
 2207SOL    HW1 7520   6.855   4.918   5.150
 2207SOL    HW2 7521   6.804   4.780   5.222
 2208SOL     OW 7522   6.572   5.233   1.574
 2208SOL    HW1 7523   6.567   5.154   1.635
 2208SOL    HW2 7524   6.493   5.233   1.513
 2209SOL     OW 7525   0.004   6.613   1.914
 2209SOL    HW1 7526   0.080   6.670   1.946
 2209SOL    HW2 7527   6.976   6.665   1.852
 2210SOL     OW 7528   2.323   5.076   3.817
 2210SOL    HW1 7529   2.332   5.144   3.890
 2210SOL    HW2 7530   2.375   5.105   3.737
 2211SOL     OW 7531   6.626   1.252   5.431
 2211SOL    HW1 7532   6.717   1.215   5.417
 2211SOL    HW2 7533   6.633   1.346   5.464
 2212SOL     OW 7534   3.514   0.143   5.881
 2212SOL    HW1 7535   3.503   0.173   5.786
 2212SOL    HW2 7536   3.530   0.223   5.939
 2213SOL     OW 7537   4.843   0.461   3.350
 2213SOL    HW1 7538   4.825   0.550   3.307
 2213SOL    HW2 7539   4.800   0.458   3.440
 2214SOL     OW 7540   3.414   6.665   4.926
 2214SOL    HW1 7541   3.342   6.597   4.911
 2214SOL    HW2 7542   3.377   6.757   4.911
 2215SOL     OW 7543   5.843   1.925   5.297
 2215SOL    HW1 7544   5.866   1.970   5.211
 2215SOL    HW2 7545   5.873   1.982   5.373
 2216SOL     OW 7546   3.138   1.820   2.627
 2216SOL    HW1 7547   3.185   1.807   2.714
 2216SOL    HW2 7548   3.040   1.823   2.642
 2217SOL     OW 7549   3.177   6.841   1.298
 2217SOL    HW1 7550   3.174   6.810   1.202
 2217SOL    HW2 7551   3.258   6.898   1.312
 2218SOL     OW 7552   0.298   0.731   2.184
 2218SOL    HW1 7553   0.281   0.829   2.194
 2218SOL    HW2 7554   0.342   0.696   2.267
 2219SOL     OW 7555   2.929   2.235   3.104
 2219SOL    HW1 7556   2.905   2.234   3.202
 2219SOL    HW2 7557   2.851   2.269   3.051
 2220SOL     OW 7558   1.757   0.142   2.412
 2220SOL    HW1 7559   1.739   0.176   2.504
 2220SOL    HW2 7560   1.721   0.207   2.345
 2221SOL     OW 7561   0.307   0.098   5.673
 2221SOL    HW1 7562   0.289   0.095   5.771
 2221SOL    HW2 7563   0.391   0.150   5.656
 2222SOL     OW 7564   5.776   4.879   3.849
 2222SOL    HW1 7565   5.823   4.847   3.767
 2222SOL    HW2 7566   5.758   4.977   3.840
 2223SOL     OW 7567   6.746   6.694   2.277
 2223SOL    HW1 7568   6.829   6.750   2.280
 2223SOL    HW2 7569   6.671   6.747   2.237
 2224SOL     OW 7570   0.779   6.066   0.407
 2224SOL    HW1 7571   0.780   6.035   0.312
 2224SOL    HW2 7572   0.703   6.023   0.455
 2225SOL     OW 7573   0.817   4.239   0.643
 2225SOL    HW1 7574   0.799   4.200   0.733
 2225SOL    HW2 7575   0.908   4.211   0.612
 2226SOL     OW 7576   3.901   3.563   2.225
 2226SOL    HW1 7577   3.875   3.475   2.184
 2226SOL    HW2 7578   3.863   3.569   2.317
 2227SOL     OW 7579   0.506   1.725   4.584
 2227SOL    HW1 7580   0.548   1.636   4.565
 2227SOL    HW2 7581   0.432   1.713   4.650
 2228SOL     OW 7582   2.512   4.481   4.232
 2228SOL    HW1 7583   2.431   4.456   4.286
 2228SOL    HW2 7584   2.508   4.435   4.143
 2229SOL     OW 7585   6.236   6.134   3.203
 2229SOL    HW1 7586   6.322   6.184   3.188
 2229SOL    HW2 7587   6.170   6.162   3.133
 2230SOL     OW 7588   2.214   5.181   2.804
 2230SOL    HW1 7589   2.157   5.174   2.886
 2230SOL    HW2 7590   2.191   5.107   2.741
 2231SOL     OW 7591   1.926   5.921   1.049
 2231SOL    HW1 7592   1.858   5.894   0.982
 2231SOL    HW2 7593   1.881   5.962   1.128
 2232SOL     OW 7594   5.725   2.124   4.307
 2232SOL    HW1 7595   5.662   2.066   4.358
 2232SOL    HW2 7596   5.711   2.220   4.333
 2233SOL     OW 7597   3.851   1.262   0.075
 2233SOL    HW1 7598   3.901   1.202   0.137
 2233SOL    HW2 7599   3.892   1.353   0.077
 2234SOL     OW 7600   4.362   2.480   1.419
 2234SOL    HW1 7601   4.288   2.439   1.473
 2234SOL    HW2 7602   4.389   2.417   1.346
 2235SOL     OW 7603   2.267   2.168   2.542
 2235SOL    HW1 7604   2.222   2.234   2.482
 2235SOL    HW2 7605   2.272   2.205   2.635
 2236SOL     OW 7606   0.840   4.248   5.586
 2236SOL    HW1 7607   0.927   4.294   5.566
 2236SOL    HW2 7608   0.781   4.311   5.636
 2237SOL     OW 7609   6.625   3.015   4.102
 2237SOL    HW1 7610   6.696   2.980   4.040
 2237SOL    HW2 7611   6.552   2.948   4.110
 2238SOL     OW 7612   5.512   5.970   0.244
 2238SOL    HW1 7613   5.487   6.022   0.326
 2238SOL    HW2 7614   5.550   6.031   0.176
 2239SOL     OW 7615   0.253   5.665   0.938
 2239SOL    HW1 7616   0.310   5.698   1.013
 2239SOL    HW2 7617   0.310   5.636   0.862
 2240SOL     OW 7618   6.053   4.118   1.469
 2240SOL    HW1 7619   5.993   4.119   1.549
 2240SOL    HW2 7620   5.998   4.104   1.387
 2241SOL     OW 7621   1.298   0.464   4.228
 2241SOL    HW1 7622   1.328   0.523   4.303
 2241SOL    HW2 7623   1.239   0.392   4.264
 2242SOL     OW 7624   2.906   1.557   3.184
 2242SOL    HW1 7625   2.903   1.459   3.166
 2242SOL    HW2 7626   2.814   1.590   3.207
 2243SOL     OW 7627   2.153   0.288   5.032
 2243SOL    HW1 7628   2.090   0.224   5.074
 2243SOL    HW2 7629   2.202   0.243   4.957
 2244SOL     OW 7630   3.857   0.631   4.934
 2244SOL    HW1 7631   3.921   0.554   4.945
 2244SOL    HW2 7632   3.832   0.667   5.023
 2245SOL     OW 7633   0.370   2.441   2.332
 2245SOL    HW1 7634   0.398   2.393   2.416
 2245SOL    HW2 7635   0.402   2.535   2.335
 2246SOL     OW 7636   0.931   4.134   5.370
 2246SOL    HW1 7637   0.893   4.154   5.461
 2246SOL    HW2 7638   0.868   4.169   5.300
 2247SOL     OW 7639   2.004   1.377   4.454
 2247SOL    HW1 7640   2.082   1.364   4.515
 2247SOL    HW2 7641   1.922   1.395   4.507
 2248SOL     OW 7642   5.626   3.849   6.021
 2248SOL    HW1 7643   5.725   3.838   6.031
 2248SOL    HW2 7644   5.608   3.926   5.960
 2249SOL     OW 7645   5.020   5.376   5.305
 2249SOL    HW1 7646   5.046   5.358   5.400
 2249SOL    HW2 7647   5.070   5.455   5.271
 2250SOL     OW 7648   4.755   4.914   1.672
 2250SOL    HW1 7649   4.775   4.924   1.770
 2250SOL    HW2 7650   4.674   4.968   1.649
 2251SOL     OW 7651   0.357   0.768   5.280
 2251SOL    HW1 7652   0.408   0.703   5.225
 2251SOL    HW2 7653   0.259   0.757   5.264
 2252SOL     OW 7654   3.555   1.196   6.505
 2252SOL    HW1 7655   3.511   1.285   6.518
 2252SOL    HW2 7656   3.540   1.166   6.410
 2253SOL     OW 7657   0.743   3.955   0.167
 2253SOL    HW1 7658   0.678   4.014   0.215
 2253SOL    HW2 7659   0.758   3.990   0.074
 2254SOL     OW 7660   1.604   4.548   6.397
 2254SOL    HW1 7661   1.581   4.633   6.349
 2254SOL    HW2 7662   1.536   4.530   6.468
 2255SOL     OW 7663   6.559   3.712   6.206
 2255SOL    HW1 7664   6.621   3.736   6.281
 2255SOL    HW2 7665   6.484   3.657   6.241
 2256SOL     OW 7666   2.464   4.891   2.001
 2256SOL    HW1 7667   2.541   4.853   1.949
 2256SOL    HW2 7668   2.418   4.960   1.946
 2257SOL     OW 7669   1.316   4.203   5.187
 2257SOL    HW1 7670   1.302   4.133   5.258
 2257SOL    HW2 7671   1.288   4.166   5.098
 2258SOL     OW 7672   1.846   5.451   5.591
 2258SOL    HW1 7673   1.751   5.421   5.595
 2258SOL    HW2 7674   1.905   5.374   5.565
 2259SOL     OW 7675   6.153   1.862   6.029
 2259SOL    HW1 7676   6.090   1.785   6.014
 2259SOL    HW2 7677   6.232   1.830   6.082
 2260SOL     OW 7678   3.841   2.979   0.347
 2260SOL    HW1 7679   3.893   3.045   0.401
 2260SOL    HW2 7680   3.895   2.951   0.267
 2261SOL     OW 7681   2.224   6.377   5.163
 2261SOL    HW1 7682   2.224   6.281   5.192
 2261SOL    HW2 7683   2.263   6.385   5.072
 2262SOL     OW 7684   3.269   1.824   2.865
 2262SOL    HW1 7685   3.233   1.914   2.840
 2262SOL    HW2 7686   3.202   1.776   2.922
 2263SOL     OW 7687   0.861   4.612   5.807
 2263SOL    HW1 7688   0.957   4.599   5.783
 2263SOL    HW2 7689   0.830   4.536   5.864
 2264SOL     OW 7690   3.787   3.667   3.272
 2264SOL    HW1 7691   3.774   3.586   3.214
 2264SOL    HW2 7692   3.875   3.710   3.250
 2265SOL     OW 7693   1.161   6.770   4.526
 2265SOL    HW1 7694   1.194   6.865   4.520
 2265SOL    HW2 7695   1.081   6.759   4.467
 2266SOL     OW 7696   6.662   0.564   5.623
 2266SOL    HW1 7697   6.730   0.568   5.697
 2266SOL    HW2 7698   6.707   0.581   5.536
 2267SOL     OW 7699   5.645   1.818   5.114
 2267SOL    HW1 7700   5.707   1.846   5.187
 2267SOL    HW2 7701   5.699   1.800   5.031
 2268SOL     OW 7702   0.156   6.202   0.239
 2268SOL    HW1 7703   0.180   6.223   0.334
 2268SOL    HW2 7704   0.084   6.133   0.238
 2269SOL     OW 7705   0.416   6.463   3.003
 2269SOL    HW1 7706   0.486   6.525   3.040
 2269SOL    HW2 7707   0.399   6.486   2.907
 2270SOL     OW 7708   3.567   3.199   3.215
 2270SOL    HW1 7709   3.546   3.101   3.217
 2270SOL    HW2 7710   3.605   3.223   3.125
 2271SOL     OW 7711   1.564   4.353   2.750
 2271SOL    HW1 7712   1.486   4.396   2.794
 2271SOL    HW2 7713   1.646   4.365   2.807
 2272SOL     OW 7714   4.974   0.538   5.510
 2272SOL    HW1 7715   4.952   0.603   5.582
 2272SOL    HW2 7716   5.042   0.473   5.543
 2273SOL     OW 7717   0.703   1.817   2.217
 2273SOL    HW1 7718   0.651   1.867   2.285
 2273SOL    HW2 7719   0.644   1.749   2.172
 2274SOL     OW 7720   0.787   4.066   3.389
 2274SOL    HW1 7721   0.827   4.098   3.475
 2274SOL    HW2 7722   0.691   4.096   3.384
 2275SOL     OW 7723   4.675   6.699   3.108
 2275SOL    HW1 7724   4.696   6.796   3.095
 2275SOL    HW2 7725   4.683   6.652   3.021
 2276SOL     OW 7726   3.711   5.489   2.471
 2276SOL    HW1 7727   3.663   5.571   2.501
 2276SOL    HW2 7728   3.749   5.442   2.550
 2277SOL     OW 7729   3.092   3.110   2.104
 2277SOL    HW1 7730   3.057   3.204   2.102
 2277SOL    HW2 7731   3.105   3.077   2.010
 2278SOL     OW 7732   3.830   5.452   1.069
 2278SOL    HW1 7733   3.869   5.480   1.156
 2278SOL    HW2 7734   3.767   5.523   1.037
 2279SOL     OW 7735   5.921   3.670   5.778
 2279SOL    HW1 7736   5.885   3.610   5.850
 2279SOL    HW2 7737   6.019   3.684   5.792
 2280SOL     OW 7738   5.724   0.416   6.037
 2280SOL    HW1 7739   5.643   0.443   5.986
 2280SOL    HW2 7740   5.697   0.387   6.129
 2281SOL     OW 7741   2.677   0.738   0.975
 2281SOL    HW1 7742   2.676   0.803   1.051
 2281SOL    HW2 7743   2.738   0.773   0.903
 2282SOL     OW 7744   4.028   6.207   2.602
 2282SOL    HW1 7745   3.992   6.282   2.547
 2282SOL    HW2 7746   4.127   6.202   2.590
 2283SOL     OW 7747   0.866   3.276   1.390
 2283SOL    HW1 7748   0.820   3.191   1.365
 2283SOL    HW2 7749   0.897   3.270   1.485
 2284SOL     OW 7750   2.132   2.743   1.225
 2284SOL    HW1 7751   2.206   2.785   1.277
 2284SOL    HW2 7752   2.084   2.675   1.281
 2285SOL     OW 7753   1.816   2.574   6.312
 2285SOL    HW1 7754   1.872   2.653   6.288
 2285SOL    HW2 7755   1.871   2.509   6.365
 2286SOL     OW 7756   6.500   6.562   4.246
 2286SOL    HW1 7757   6.510   6.661   4.239
 2286SOL    HW2 7758   6.403   6.538   4.239
 2287SOL     OW 7759   2.655   1.688   0.884
 2287SOL    HW1 7760   2.702   1.765   0.927
 2287SOL    HW2 7761   2.612   1.718   0.799
 2288SOL     OW 7762   2.595   6.216   4.814
 2288SOL    HW1 7763   2.642   6.286   4.869
 2288SOL    HW2 7764   2.663   6.160   4.766
 2289SOL     OW 7765   3.904   0.392   6.750
 2289SOL    HW1 7766   3.933   0.352   6.663
 2289SOL    HW2 7767   3.929   0.331   6.825
 2290SOL     OW 7768   2.956   3.493   4.977
 2290SOL    HW1 7769   2.907   3.561   4.923
 2290SOL    HW2 7770   2.917   3.488   5.069
 2291SOL     OW 7771   2.411   2.069   0.326
 2291SOL    HW1 7772   2.492   2.083   0.383
 2291SOL    HW2 7773   2.435   2.013   0.247
 2292SOL     OW 7774   5.564   2.568   3.379
 2292SOL    HW1 7775   5.558   2.598   3.474
 2292SOL    HW2 7776   5.497   2.495   3.363
 2293SOL     OW 7777   0.959   0.976   0.089
 2293SOL    HW1 7778   0.866   1.001   0.116
 2293SOL    HW2 7779   1.003   1.055   0.047
 2294SOL     OW 7780   6.494   2.096   5.222
 2294SOL    HW1 7781   6.520   2.070   5.128
 2294SOL    HW2 7782   6.395   2.092   5.231
 2295SOL     OW 7783   5.902   6.124   0.658
 2295SOL    HW1 7784   5.920   6.196   0.591
 2295SOL    HW2 7785   5.831   6.153   0.721
 2296SOL     OW 7786   3.867   5.512   4.749
 2296SOL    HW1 7787   3.940   5.473   4.694
 2296SOL    HW2 7788   3.831   5.594   4.703
 2297SOL     OW 7789   6.248   2.869   6.727
 2297SOL    HW1 7790   6.263   2.848   6.824
 2297SOL    HW2 7791   6.184   2.803   6.688
 2298SOL     OW 7792   2.655   3.946   5.331
 2298SOL    HW1 7793   2.583   3.955   5.262
 2298SOL    HW2 7794   2.688   4.037   5.358
 2299SOL     OW 7795   5.931   3.447   4.728
 2299SOL    HW1 7796   5.849   3.491   4.692
 2299SOL    HW2 7797   5.909   3.400   4.814
 2300SOL     OW 7798   5.083   6.931   2.835
 2300SOL    HW1 7799   5.086   6.914   2.933
 2300SOL    HW2 7800   5.011   6.875   2.793
 2301SOL     OW 7801   3.915   3.271   5.137
 2301SOL    HW1 7802   3.963   3.243   5.054
 2301SOL    HW2 7803   3.894   3.190   5.192
 2302SOL     OW 7804   6.944   3.773   5.625
 2302SOL    HW1 7805   6.854   3.795   5.664
 2302SOL    HW2 7806   6.948   3.675   5.605
 2303SOL     OW 7807   3.067   1.607   6.209
 2303SOL    HW1 7808   3.071   1.552   6.126
 2303SOL    HW2 7809   3.102   1.554   6.286
 2304SOL     OW 7810   5.129   6.963   2.534
 2304SOL    HW1 7811   5.113   0.000   2.607
 2304SOL    HW2 7812   5.213   6.913   2.553
 2305SOL     OW 7813   3.193   6.438   5.260
 2305SOL    HW1 7814   3.282   6.480   5.242
 2305SOL    HW2 7815   3.176   6.435   5.358
 2306SOL     OW 7816   0.860   4.624   4.898
 2306SOL    HW1 7817   0.846   4.539   4.949
 2306SOL    HW2 7818   0.947   4.665   4.924
 2307SOL     OW 7819   6.008   3.686   4.985
 2307SOL    HW1 7820   6.007   3.735   5.072
 2307SOL    HW2 7821   5.932   3.716   4.928
 2308SOL     OW 7822   1.225   6.139   2.135
 2308SOL    HW1 7823   1.296   6.207   2.114
 2308SOL    HW2 7824   1.267   6.048   2.138
 2309SOL     OW 7825   1.635   0.928   4.643
 2309SOL    HW1 7826   1.688   0.862   4.590
 2309SOL    HW2 7827   1.685   1.014   4.649
 2310SOL     OW 7828   4.977   6.412   0.222
 2310SOL    HW1 7829   4.990   6.511   0.218
 2310SOL    HW2 7830   5.050   6.366   0.172
 2311SOL     OW 7831   2.639   5.918   0.709
 2311SOL    HW1 7832   2.736   5.929   0.727
 2311SOL    HW2 7833   2.589   5.912   0.795
 2312SOL     OW 7834   2.796   4.724   2.780
 2312SOL    HW1 7835   2.707   4.679   2.777
 2312SOL    HW2 7836   2.821   4.755   2.688
 2313SOL     OW 7837   4.575   5.223   1.289
 2313SOL    HW1 7838   4.565   5.148   1.225
 2313SOL    HW2 7839   4.486   5.247   1.328
 2314SOL     OW 7840   2.226   4.286   2.938
 2314SOL    HW1 7841   2.284   4.297   3.018
 2314SOL    HW2 7842   2.229   4.191   2.906
 2315SOL     OW 7843   4.227   2.026   6.253
 2315SOL    HW1 7844   4.308   2.083   6.240
 2315SOL    HW2 7845   4.252   1.930   6.246
 2316SOL     OW 7846   4.951   3.333   1.565
 2316SOL    HW1 7847   5.015   3.318   1.640
 2316SOL    HW2 7848   4.873   3.270   1.574
 2317SOL     OW 7849   0.923   5.705   4.034
 2317SOL    HW1 7850   0.913   5.797   3.997
 2317SOL    HW2 7851   0.899   5.704   4.131
 2318SOL     OW 7852   6.776   1.975   3.881
 2318SOL    HW1 7853   6.744   1.881   3.893
 2318SOL    HW2 7854   6.720   2.037   3.937
 2319SOL     OW 7855   1.020   4.769   1.792
 2319SOL    HW1 7856   1.080   4.692   1.811
 2319SOL    HW2 7857   0.961   4.786   1.872
 2320SOL     OW 7858   6.305   4.494   4.263
 2320SOL    HW1 7859   6.213   4.463   4.287
 2320SOL    HW2 7860   6.305   4.524   4.168
 2321SOL     OW 7861   3.709   5.026   4.149
 2321SOL    HW1 7862   3.800   4.997   4.179
 2321SOL    HW2 7863   3.640   4.974   4.198
 2322SOL     OW 7864   2.690   0.960   4.620
 2322SOL    HW1 7865   2.707   0.904   4.539
 2322SOL    HW2 7866   2.592   0.978   4.628
 2323SOL     OW 7867   5.174   3.302   2.004
 2323SOL    HW1 7868   5.154   3.397   1.980
 2323SOL    HW2 7869   5.240   3.264   1.939
 2324SOL     OW 7870   0.234   5.071   3.954
 2324SOL    HW1 7871   0.139   5.043   3.943
 2324SOL    HW2 7872   0.274   5.023   4.033
 2325SOL     OW 7873   6.547   2.102   0.474
 2325SOL    HW1 7874   6.547   2.116   0.375
 2325SOL    HW2 7875   6.494   2.019   0.495
 2326SOL     OW 7876   0.531   5.223   0.545
 2326SOL    HW1 7877   0.596   5.216   0.470
 2326SOL    HW2 7878   0.558   5.298   0.606
 2327SOL     OW 7879   4.801   1.187   3.184
 2327SOL    HW1 7880   4.885   1.139   3.161
 2327SOL    HW2 7881   4.751   1.135   3.253
 2328SOL     OW 7882   6.042   5.016   3.721
 2328SOL    HW1 7883   6.045   4.931   3.772
 2328SOL    HW2 7884   6.068   5.092   3.780
 2329SOL     OW 7885   1.119   6.307   3.115
 2329SOL    HW1 7886   1.144   6.370   3.042
 2329SOL    HW2 7887   1.098   6.217   3.077
 2330SOL     OW 7888   1.303   4.816   0.666
 2330SOL    HW1 7889   1.385   4.783   0.620
 2330SOL    HW2 7890   1.239   4.740   0.680
 2331SOL     OW 7891   1.504   5.057   4.810
 2331SOL    HW1 7892   1.568   5.089   4.740
 2331SOL    HW2 7893   1.524   5.103   4.897
 2332SOL     OW 7894   6.158   3.363   5.613
 2332SOL    HW1 7895   6.076   3.307   5.615
 2332SOL    HW2 7896   6.148   3.435   5.544
 2333SOL     OW 7897   2.351   4.728   4.111
 2333SOL    HW1 7898   2.405   4.663   4.165
 2333SOL    HW2 7899   2.361   4.820   4.149
 2334SOL     OW 7900   2.548   0.082   6.076
 2334SOL    HW1 7901   2.591   0.139   6.007
 2334SOL    HW2 7902   2.559   0.125   6.166
 2335SOL     OW 7903   4.887   4.390   4.158
 2335SOL    HW1 7904   4.913   4.415   4.251
 2335SOL    HW2 7905   4.924   4.456   4.093
 2336SOL     OW 7906   4.238   1.692   5.888
 2336SOL    HW1 7907   4.261   1.744   5.970
 2336SOL    HW2 7908   4.257   1.748   5.807
 2337SOL     OW 7909   5.824   0.661   4.541
 2337SOL    HW1 7910   5.869   0.587   4.592
 2337SOL    HW2 7911   5.818   0.742   4.599
 2338SOL     OW 7912   1.292   0.306   6.896
 2338SOL    HW1 7913   1.218   0.281   6.833
 2338SOL    HW2 7914   1.319   0.226   6.949
 2339SOL     OW 7915   3.965   4.752   6.734
 2339SOL    HW1 7916   3.914   4.746   6.820
 2339SOL    HW2 7917   3.915   4.812   6.670
 2340SOL     OW 7918   3.779   5.192   4.501
 2340SOL    HW1 7919   3.818   5.105   4.532
 2340SOL    HW2 7920   3.821   5.218   4.415
 2341SOL     OW 7921   0.083   4.465   6.553
 2341SOL    HW1 7922   0.054   4.560   6.542
 2341SOL    HW2 7923   0.172   4.462   6.601
 2342SOL     OW 7924   6.494   1.092   5.602
 2342SOL    HW1 7925   6.566   1.138   5.550
 2342SOL    HW2 7926   6.407   1.136   5.584
 2343SOL     OW 7927   1.443   5.924   0.025
 2343SOL    HW1 7928   1.525   5.925   6.998
 2343SOL    HW2 7929   1.446   5.845   0.087
 2344SOL     OW 7930   2.573   0.998   3.048
 2344SOL    HW1 7931   2.595   1.083   3.001
 2344SOL    HW2 7932   2.508   0.945   2.993
 2345SOL     OW 7933   1.335   2.197   2.386
 2345SOL    HW1 7934   1.272   2.167   2.315
 2345SOL    HW2 7935   1.292   2.269   2.441
 2346SOL     OW 7936   4.793   3.337   5.232
 2346SOL    HW1 7937   4.744   3.398   5.170
 2346SOL    HW2 7938   4.793   3.377   5.324
 2347SOL     OW 7939   1.500   4.277   0.735
 2347SOL    HW1 7940   1.567   4.264   0.662
 2347SOL    HW2 7941   1.498   4.196   0.793
 2348SOL     OW 7942   2.269   0.183   1.061
 2348SOL    HW1 7943   2.361   0.144   1.052
 2348SOL    HW2 7944   2.276   0.283   1.064
 2349SOL     OW 7945   5.642   3.264   6.572
 2349SOL    HW1 7946   5.705   3.270   6.650
 2349SOL    HW2 7947   5.629   3.169   6.546
 2350SOL     OW 7948   1.780   6.468   5.217
 2350SOL    HW1 7949   1.726   6.436   5.295
 2350SOL    HW2 7950   1.869   6.500   5.248
 2351SOL     OW 7951   1.653   5.022   2.815
 2351SOL    HW1 7952   1.578   5.076   2.854
 2351SOL    HW2 7953   1.646   4.927   2.846
 2352SOL     OW 7954   5.492   5.763   6.990
 2352SOL    HW1 7955   5.535   5.682   0.001
 2352SOL    HW2 7956   5.562   5.829   6.963
 2353SOL     OW 7957   2.446   3.004   6.052
 2353SOL    HW1 7958   2.527   3.039   6.099
 2353SOL    HW2 7959   2.448   3.032   5.956
 2354SOL     OW 7960   4.403   1.616   2.479
 2354SOL    HW1 7961   4.468   1.575   2.415
 2354SOL    HW2 7962   4.381   1.549   2.550
 2355SOL     OW 7963   0.635   1.233   1.825
 2355SOL    HW1 7964   0.732   1.256   1.814
 2355SOL    HW2 7965   0.590   1.305   1.877
 2356SOL     OW 7966   3.138   5.217   4.185
 2356SOL    HW1 7967   3.135   5.307   4.143
 2356SOL    HW2 7968   3.046   5.190   4.214
 2357SOL     OW 7969   1.234   5.564   0.865
 2357SOL    HW1 7970   1.323   5.560   0.909
 2357SOL    HW2 7971   1.244   5.605   0.774
 2358SOL     OW 7972   2.864   0.735   5.522
 2358SOL    HW1 7973   2.765   0.729   5.510
 2358SOL    HW2 7974   2.891   0.830   5.534
 2359SOL     OW 7975   2.821   2.212   6.220
 2359SOL    HW1 7976   2.806   2.296   6.168
 2359SOL    HW2 7977   2.839   2.136   6.157
 2360SOL     OW 7978   3.106   5.199   0.596
 2360SOL    HW1 7979   3.121   5.267   0.668
 2360SOL    HW2 7980   3.045   5.127   0.630
 2361SOL     OW 7981   3.244   4.965   1.204
 2361SOL    HW1 7982   3.252   4.917   1.116
 2361SOL    HW2 7983   3.156   5.013   1.208
 2362SOL     OW 7984   2.774   4.998   4.626
 2362SOL    HW1 7985   2.799   4.926   4.692
 2362SOL    HW2 7986   2.791   4.964   4.533
 2363SOL     OW 7987   2.035   3.878   0.968
 2363SOL    HW1 7988   2.004   3.884   1.063
 2363SOL    HW2 7989   2.036   3.969   0.927
 2364SOL     OW 7990   4.956   0.609   2.276
 2364SOL    HW1 7991   4.908   0.533   2.232
 2364SOL    HW2 7992   4.964   0.685   2.211
 2365SOL     OW 7993   5.588   4.332   3.031
 2365SOL    HW1 7994   5.519   4.363   2.965
 2365SOL    HW2 7995   5.544   4.279   3.104
 2366SOL     OW 7996   3.430   4.856   5.193
 2366SOL    HW1 7997   3.452   4.940   5.243
 2366SOL    HW2 7998   3.473   4.778   5.239
 2367SOL     OW 7999   5.976   5.485   5.407
 2367SOL    HW1 8000   6.036   5.409   5.382
 2367SOL    HW2 8001   5.892   5.449   5.447
 2368SOL     OW 8002   5.628   0.232   5.008
 2368SOL    HW1 8003   5.635   0.228   5.108
 2368SOL    HW2 8004   5.574   0.312   4.982
 2369SOL     OW 8005   4.234   1.854   4.417
 2369SOL    HW1 8006   4.230   1.754   4.410
 2369SOL    HW2 8007   4.143   1.888   4.443
 2370SOL     OW 8008   4.661   1.737   1.413
 2370SOL    HW1 8009   4.753   1.698   1.408
 2370SOL    HW2 8010   4.647   1.777   1.504
 2371SOL     OW 8011   1.858   0.278   2.071
 2371SOL    HW1 8012   1.796   0.323   2.134
 2371SOL    HW2 8013   1.832   0.182   2.061
 2372SOL     OW 8014   6.634   0.034   5.053
 2372SOL    HW1 8015   6.606   0.119   5.009
 2372SOL    HW2 8016   6.730   0.040   5.080
 2373SOL     OW 8017   6.075   4.408   6.049
 2373SOL    HW1 8018   6.166   4.449   6.049
 2373SOL    HW2 8019   6.083   4.310   6.067
 2374SOL     OW 8020   6.902   6.292   2.133
 2374SOL    HW1 8021   6.878   6.243   2.217
 2374SOL    HW2 8022   6.958   6.372   2.156
 2375SOL     OW 8023   1.734   0.143   4.029
 2375SOL    HW1 8024   1.655   0.082   4.031
 2375SOL    HW2 8025   1.706   0.235   4.056
 2376SOL     OW 8026   5.152   3.450   3.779
 2376SOL    HW1 8027   5.187   3.521   3.718
 2376SOL    HW2 8028   5.055   3.434   3.759
 2377SOL     OW 8029   3.586   3.997   5.692
 2377SOL    HW1 8030   3.637   4.053   5.757
 2377SOL    HW2 8031   3.565   3.908   5.733
 2378SOL     OW 8032   1.055   0.728   0.867
 2378SOL    HW1 8033   0.981   0.661   0.867
 2378SOL    HW2 8034   1.117   0.709   0.791
 2379SOL     OW 8035   0.757   4.795   2.630
 2379SOL    HW1 8036   0.796   4.885   2.652
 2379SOL    HW2 8037   0.831   4.730   2.611
 2380SOL     OW 8038   4.115   5.512   6.437
 2380SOL    HW1 8039   4.092   5.530   6.342
 2380SOL    HW2 8040   4.168   5.427   6.444
 2381SOL     OW 8041   2.017   3.587   3.861
 2381SOL    HW1 8042   2.035   3.683   3.840
 2381SOL    HW2 8043   1.921   3.566   3.840
 2382SOL     OW 8044   6.840   5.546   2.940
 2382SOL    HW1 8045   6.741   5.541   2.928
 2382SOL    HW2 8046   6.881   5.596   2.863
 2383SOL     OW 8047   5.274   3.779   5.977
 2383SOL    HW1 8048   5.194   3.812   5.927
 2383SOL    HW2 8049   5.356   3.821   5.940
 2384SOL     OW 8050   0.347   2.624   3.192
 2384SOL    HW1 8051   0.357   2.525   3.183
 2384SOL    HW2 8052   0.319   2.663   3.103
 2385SOL     OW 8053   0.267   1.037   0.605
 2385SOL    HW1 8054   0.190   1.101   0.610
 2385SOL    HW2 8055   0.271   0.997   0.513
 2386SOL     OW 8056   6.691   5.084   5.394
 2386SOL    HW1 8057   6.768   5.087   5.458
 2386SOL    HW2 8058   6.638   5.168   5.401
 2387SOL     OW 8059   0.052   0.557   3.688
 2387SOL    HW1 8060   0.081   0.539   3.594
 2387SOL    HW2 8061   0.132   0.578   3.744
 2388SOL     OW 8062   1.608   3.793   4.606
 2388SOL    HW1 8063   1.644   3.857   4.674
 2388SOL    HW2 8064   1.684   3.754   4.553
 2389SOL     OW 8065   3.634   5.834   3.080
 2389SOL    HW1 8066   3.630   5.783   3.165
 2389SOL    HW2 8067   3.581   5.919   3.089
 2390SOL     OW 8068   5.305   2.475   5.632
 2390SOL    HW1 8069   5.255   2.509   5.712
 2390SOL    HW2 8070   5.275   2.524   5.550
 2391SOL     OW 8071   2.679   3.895   6.592
 2391SOL    HW1 8072   2.773   3.862   6.584
 2391SOL    HW2 8073   2.652   3.942   6.507
 2392SOL     OW 8074   4.040   5.445   5.903
 2392SOL    HW1 8075   4.119   5.466   5.846
 2392SOL    HW2 8076   4.009   5.351   5.885
 2393SOL     OW 8077   3.726   4.847   0.346
 2393SOL    HW1 8078   3.746   4.779   0.417
 2393SOL    HW2 8079   3.764   4.935   0.371
 2394SOL     OW 8080   6.493   2.361   3.494
 2394SOL    HW1 8081   6.400   2.349   3.531
 2394SOL    HW2 8082   6.491   2.349   3.395
 2395SOL     OW 8083   1.427   2.433   3.794
 2395SOL    HW1 8084   1.360   2.462   3.863
 2395SOL    HW2 8085   1.516   2.422   3.837
 2396SOL     OW 8086   6.822   7.023   6.377
 2396SOL    HW1 8087   6.907   0.046   6.378
 2396SOL    HW2 8088   6.744   0.056   6.381
 2397SOL     OW 8089   2.149   4.659   6.112
 2397SOL    HW1 8090   2.112   4.683   6.022
 2397SOL    HW2 8091   2.228   4.718   6.132
 2398SOL     OW 8092   4.080   5.841   4.849
 2398SOL    HW1 8093   4.141   5.767   4.821
 2398SOL    HW2 8094   4.092   5.860   4.946
 2399SOL     OW 8095   2.893   1.540   2.381
 2399SOL    HW1 8096   2.827   1.614   2.397
 2399SOL    HW2 8097   2.985   1.572   2.405
 2400SOL     OW 8098   0.756   2.792   0.491
 2400SOL    HW1 8099   0.656   2.789   0.495
 2400SOL    HW2 8100   0.792   2.796   0.584
 2401SOL     OW 8101   1.115   6.207   0.262
 2401SOL    HW1 8102   1.059   6.173   0.186
 2401SOL    HW2 8103   1.056   6.241   0.334
 2402SOL     OW 8104   0.632   3.670   2.361
 2402SOL    HW1 8105   0.571   3.591   2.375
 2402SOL    HW2 8106   0.611   3.741   2.428
 2403SOL     OW 8107   2.980   4.161   5.302
 2403SOL    HW1 8108   2.919   4.239   5.293
 2403SOL    HW2 8109   2.981   4.109   5.216
 2404SOL     OW 8110   6.358   1.373   2.146
 2404SOL    HW1 8111   6.441   1.429   2.144
 2404SOL    HW2 8112   6.284   1.421   2.099
 2405SOL     OW 8113   1.637   3.203   1.006
 2405SOL    HW1 8114   1.628   3.139   1.083
 2405SOL    HW2 8115   1.550   3.210   0.958
 2406SOL     OW 8116   4.112   5.459   4.611
 2406SOL    HW1 8117   4.147   5.383   4.666
 2406SOL    HW2 8118   4.188   5.517   4.581
 2407SOL     OW 8119   2.193   1.630   4.030
 2407SOL    HW1 8120   2.118   1.682   3.988
 2407SOL    HW2 8121   2.265   1.615   3.962
 2408SOL     OW 8122   3.932   0.201   6.065
 2408SOL    HW1 8123   3.850   0.194   6.122
 2408SOL    HW2 8124   4.012   0.169   6.117
 2409SOL     OW 8125   0.747   3.248   6.607
 2409SOL    HW1 8126   0.653   3.236   6.639
 2409SOL    HW2 8127   0.747   3.278   6.512
 2410SOL     OW 8128   0.031   3.581   4.588
 2410SOL    HW1 8129   0.001   3.553   4.679
 2410SOL    HW2 8130   0.121   3.541   4.569
 2411SOL     OW 8131   3.227   1.489   0.058
 2411SOL    HW1 8132   3.304   1.502   0.121
 2411SOL    HW2 8133   3.159   1.429   0.102
 2412SOL     OW 8134   2.891   1.724   6.792
 2412SOL    HW1 8135   2.819   1.752   6.854
 2412SOL    HW2 8136   2.967   1.685   6.844
 2413SOL     OW 8137   6.873   4.017   7.004
 2413SOL    HW1 8138   6.832   3.936   6.962
 2413SOL    HW2 8139   6.898   4.082   6.932
 2414SOL     OW 8140   6.662   1.544   4.859
 2414SOL    HW1 8141   6.741   1.483   4.861
 2414SOL    HW2 8142   6.673   1.615   4.929
 2415SOL     OW 8143   3.451   4.061   6.353
 2415SOL    HW1 8144   3.429   4.081   6.448
 2415SOL    HW2 8145   3.533   4.112   6.327
 2416SOL     OW 8146   0.354   3.471   3.865
 2416SOL    HW1 8147   0.314   3.518   3.786
 2416SOL    HW2 8148   0.414   3.534   3.914
 2417SOL     OW 8149   3.619   2.466   1.649
 2417SOL    HW1 8150   3.523   2.477   1.672
 2417SOL    HW2 8151   3.666   2.417   1.723
 2418SOL     OW 8152   5.856   4.104   6.148
 2418SOL    HW1 8153   5.834   4.193   6.107
 2418SOL    HW2 8154   5.815   4.097   6.238
 2419SOL     OW 8155   3.958   1.107   2.810
 2419SOL    HW1 8156   3.882   1.043   2.817
 2419SOL    HW2 8157   3.973   1.130   2.714
 2420SOL     OW 8158   1.281   3.808   2.198
 2420SOL    HW1 8159   1.364   3.835   2.248
 2420SOL    HW2 8160   1.234   3.736   2.249
 2421SOL     OW 8161   2.631   6.764   2.861
 2421SOL    HW1 8162   2.618   6.685   2.801
 2421SOL    HW2 8163   2.671   6.734   2.948
 2422SOL     OW 8164   4.104   6.550   0.234
 2422SOL    HW1 8165   4.032   6.588   0.293
 2422SOL    HW2 8166   4.093   6.451   0.227
 2423SOL     OW 8167   3.481   4.964   4.669
 2423SOL    HW1 8168   3.452   5.021   4.592
 2423SOL    HW2 8169   3.402   4.940   4.725
 2424SOL     OW 8170   5.165   6.783   6.398
 2424SOL    HW1 8171   5.066   6.782   6.405
 2424SOL    HW2 8172   5.194   6.721   6.325
 2425SOL     OW 8173   4.135   5.594   5.384
 2425SOL    HW1 8174   4.050   5.553   5.416
 2425SOL    HW2 8175   4.213   5.540   5.418
 2426SOL     OW 8176   3.172   2.280   5.425
 2426SOL    HW1 8177   3.076   2.308   5.422
 2426SOL    HW2 8178   3.212   2.289   5.333
 2427SOL     OW 8179   3.965   2.048   0.711
 2427SOL    HW1 8180   4.029   2.036   0.635
 2427SOL    HW2 8181   3.881   2.091   0.678
 2428SOL     OW 8182   1.803   1.975   2.978
 2428SOL    HW1 8183   1.756   2.046   3.029
 2428SOL    HW2 8184   1.802   1.997   2.880
 2429SOL     OW 8185   5.750   6.183   1.326
 2429SOL    HW1 8186   5.713   6.098   1.365
 2429SOL    HW2 8187   5.848   6.188   1.344
 2430SOL     OW 8188   6.831   0.123   6.984
 2430SOL    HW1 8189   6.850   0.036   7.028
 2430SOL    HW2 8190   6.888   0.132   6.902
 2431SOL     OW 8191   1.940   3.285   1.931
 2431SOL    HW1 8192   1.990   3.205   1.964
 2431SOL    HW2 8193   1.961   3.364   1.989
 2432SOL     OW 8194   2.668   5.957   2.259
 2432SOL    HW1 8195   2.595   5.920   2.317
 2432SOL    HW2 8196   2.633   5.968   2.165
 2433SOL     OW 8197   6.981   4.658   4.070
 2433SOL    HW1 8198   0.013   4.599   4.122
 2433SOL    HW2 8199   6.918   4.704   4.133
 2434SOL     OW 8200   4.687   1.657   2.784
 2434SOL    HW1 8201   4.602   1.661   2.838
 2434SOL    HW2 8202   4.708   1.747   2.748
 2435SOL     OW 8203   6.155   0.016   6.721
 2435SOL    HW1 8204   6.126   0.010   6.626
 2435SOL    HW2 8205   6.228   6.980   6.738
 2436SOL     OW 8206   6.958   2.735   0.885
 2436SOL    HW1 8207   7.019   2.658   0.865
 2436SOL    HW2 8208   6.917   2.768   0.800
 2437SOL     OW 8209   0.675   4.246   1.507
 2437SOL    HW1 8210   0.655   4.336   1.469
 2437SOL    HW2 8211   0.589   4.195   1.518
 2438SOL     OW 8212   3.893   1.357   4.689
 2438SOL    HW1 8213   3.865   1.419   4.616
 2438SOL    HW2 8214   3.945   1.407   4.758
 2439SOL     OW 8215   0.192   5.867   0.490
 2439SOL    HW1 8216   0.193   5.887   0.588
 2439SOL    HW2 8217   0.274   5.815   0.466
 2440SOL     OW 8218   5.858   1.700   5.461
 2440SOL    HW1 8219   5.876   1.772   5.394
 2440SOL    HW2 8220   5.800   1.736   5.534
 2441SOL     OW 8221   6.252   0.780   0.273
 2441SOL    HW1 8222   6.305   0.722   0.211
 2441SOL    HW2 8223   6.313   0.845   0.318
 2442SOL     OW 8224   5.072   2.735   2.404
 2442SOL    HW1 8225   5.076   2.756   2.307
 2442SOL    HW2 8226   4.998   2.786   2.447
 2443SOL     OW 8227   0.206   2.920   1.470
 2443SOL    HW1 8228   0.283   2.918   1.534
 2443SOL    HW2 8229   0.241   2.910   1.376
 2444SOL     OW 8230   3.595   4.986   3.091
 2444SOL    HW1 8231   3.507   4.939   3.084
 2444SOL    HW2 8232   3.663   4.925   3.130
 2445SOL     OW 8233   0.830   1.936   1.120
 2445SOL    HW1 8234   0.833   1.960   1.217
 2445SOL    HW2 8235   0.898   1.865   1.100
 2446SOL     OW 8236   6.731   5.615   1.752
 2446SOL    HW1 8237   6.764   5.521   1.738
 2446SOL    HW2 8238   6.718   5.660   1.664
 2447SOL     OW 8239   1.811   6.751   0.803
 2447SOL    HW1 8240   1.743   6.756   0.730
 2447SOL    HW2 8241   1.786   6.679   0.868
 2448SOL     OW 8242   5.620   1.215   3.888
 2448SOL    HW1 8243   5.631   1.289   3.822
 2448SOL    HW2 8244   5.604   1.129   3.840
 2449SOL     OW 8245   2.135   3.987   1.422
 2449SOL    HW1 8246   2.150   4.086   1.418
 2449SOL    HW2 8247   2.154   3.955   1.515
 2450SOL     OW 8248   0.873   6.830   5.375
 2450SOL    HW1 8249   0.857   6.900   5.306
 2450SOL    HW2 8250   0.967   6.837   5.408
 2451SOL     OW 8251   2.010   0.171   6.736
 2451SOL    HW1 8252   2.073   0.143   6.663
 2451SOL    HW2 8253   2.050   0.148   6.825
 2452SOL     OW 8254   2.579   1.875   4.264
 2452SOL    HW1 8255   2.526   1.867   4.348
 2452SOL    HW2 8256   2.596   1.972   4.245
 2453SOL     OW 8257   1.252   1.457   6.190
 2453SOL    HW1 8258   1.278   1.402   6.270
 2453SOL    HW2 8259   1.152   1.463   6.185
 2454SOL     OW 8260   2.945   6.305   0.538
 2454SOL    HW1 8261   2.945   6.207   0.522
 2454SOL    HW2 8262   2.861   6.332   0.584
 2455SOL     OW 8263   4.289   2.074   0.500
 2455SOL    HW1 8264   4.207   2.045   0.450
 2455SOL    HW2 8265   4.282   2.171   0.522
 2456SOL     OW 8266   0.846   3.744   6.043
 2456SOL    HW1 8267   0.916   3.694   6.094
 2456SOL    HW2 8268   0.888   3.789   5.964
 2457SOL     OW 8269   4.796   1.515   5.837
 2457SOL    HW1 8270   4.820   1.590   5.899
 2457SOL    HW2 8271   4.877   1.459   5.820
 2458SOL     OW 8272   1.062   0.297   2.500
 2458SOL    HW1 8273   1.063   0.241   2.582
 2458SOL    HW2 8274   1.013   0.382   2.519
 2459SOL     OW 8275   2.373   6.837   1.532
 2459SOL    HW1 8276   2.332   6.850   1.442
 2459SOL    HW2 8277   2.458   6.785   1.522
 2460SOL     OW 8278   0.606   0.439   4.190
 2460SOL    HW1 8279   0.528   0.377   4.196
 2460SOL    HW2 8280   0.659   0.418   4.108
 2461SOL     OW 8281   3.769   1.452   3.325
 2461SOL    HW1 8282   3.728   1.412   3.243
 2461SOL    HW2 8283   3.756   1.551   3.324
 2462SOL     OW 8284   0.325   6.371   0.983
 2462SOL    HW1 8285   0.302   6.386   1.079
 2462SOL    HW2 8286   0.297   6.451   0.929
 2463SOL     OW 8287   6.752   6.699   0.839
 2463SOL    HW1 8288   6.814   6.661   0.908
 2463SOL    HW2 8289   6.660   6.707   0.878
 2464SOL     OW 8290   0.486   2.987   4.322
 2464SOL    HW1 8291   0.513   3.049   4.248
 2464SOL    HW2 8292   0.457   3.040   4.401
 2465SOL     OW 8293   5.961   1.148   7.006
 2465SOL    HW1 8294   5.887   1.089   0.008
 2465SOL    HW2 8295   5.959   1.235   0.026
 2466SOL     OW 8296   0.601   2.431   1.502
 2466SOL    HW1 8297   0.672   2.435   1.573
 2466SOL    HW2 8298   0.520   2.482   1.533
 2467SOL     OW 8299   4.762   2.729   4.967
 2467SOL    HW1 8300   4.808   2.690   4.887
 2467SOL    HW2 8301   4.804   2.817   4.989
 2468SOL     OW 8302   3.851   0.152   5.033
 2468SOL    HW1 8303   3.813   0.235   4.991
 2468SOL    HW2 8304   3.847   0.076   4.968
 2469SOL     OW 8305   3.032   2.062   6.020
 2469SOL    HW1 8306   3.005   1.971   6.055
 2469SOL    HW2 8307   2.955   2.102   5.970
 2470SOL     OW 8308   2.055   5.948   6.599
 2470SOL    HW1 8309   2.070   6.029   6.543
 2470SOL    HW2 8310   2.015   5.875   6.543
 2471SOL     OW 8311   3.091   5.636   2.559
 2471SOL    HW1 8312   3.028   5.618   2.484
 2471SOL    HW2 8313   3.040   5.641   2.645
 2472SOL     OW 8314   4.531   1.268   2.466
 2472SOL    HW1 8315   4.493   1.286   2.375
 2472SOL    HW2 8316   4.610   1.327   2.481
 2473SOL     OW 8317   0.526   4.385   4.095
 2473SOL    HW1 8318   0.439   4.367   4.050
 2473SOL    HW2 8319   0.600   4.341   4.044
 2474SOL     OW 8320   1.575   6.313   1.044
 2474SOL    HW1 8321   1.619   6.229   1.075
 2474SOL    HW2 8322   1.488   6.325   1.093
 2475SOL     OW 8323   5.209   2.298   0.586
 2475SOL    HW1 8324   5.158   2.287   0.501
 2475SOL    HW2 8325   5.301   2.259   0.575
 2476SOL     OW 8326   4.825   0.023   0.753
 2476SOL    HW1 8327   4.851   6.968   0.800
 2476SOL    HW2 8328   4.893   0.044   0.683
 2477SOL     OW 8329   4.006   0.187   3.576
 2477SOL    HW1 8330   4.084   0.128   3.595
 2477SOL    HW2 8331   4.038   0.280   3.559
 2478SOL     OW 8332   3.422   0.083   4.365
 2478SOL    HW1 8333   3.374   0.145   4.427
 2478SOL    HW2 8334   3.455   0.133   4.286
 2479SOL     OW 8335   4.969   3.214   1.063
 2479SOL    HW1 8336   4.951   3.225   0.965
 2479SOL    HW2 8337   5.067   3.225   1.080
 2480SOL     OW 8338   3.420   2.205   1.648
 2480SOL    HW1 8339   3.476   2.157   1.716
 2480SOL    HW2 8340   3.337   2.240   1.692
 2481SOL     OW 8341   3.310   0.210   1.486
 2481SOL    HW1 8342   3.396   0.243   1.524
 2481SOL    HW2 8343   3.284   0.266   1.408
 2482SOL     OW 8344   6.733   3.174   0.472
 2482SOL    HW1 8345   6.746   3.238   0.548
 2482SOL    HW2 8346   6.806   3.188   0.405
 2483SOL     OW 8347   2.654   2.223   1.039
 2483SOL    HW1 8348   2.565   2.208   0.995
 2483SOL    HW2 8349   2.676   2.144   1.097
 2484SOL     OW 8350   4.633   0.477   6.517
 2484SOL    HW1 8351   4.625   0.490   6.616
 2484SOL    HW2 8352   4.542   0.461   6.478
 2485SOL     OW 8353   0.207   1.753   6.008
 2485SOL    HW1 8354   0.230   1.762   6.105
 2485SOL    HW2 8355   0.136   1.820   5.984
 2486SOL     OW 8356   0.254   5.333   3.459
 2486SOL    HW1 8357   0.215   5.417   3.420
 2486SOL    HW2 8358   0.231   5.327   3.556
 2487SOL     OW 8359   4.393   6.024   0.130
 2487SOL    HW1 8360   4.402   6.086   0.051
 2487SOL    HW2 8361   4.483   6.009   0.171
 2488SOL     OW 8362   0.013   3.768   0.724
 2488SOL    HW1 8363   0.077   3.805   0.657
 2488SOL    HW2 8364   0.025   3.816   0.811
 2489SOL     OW 8365   6.097   4.996   4.316
 2489SOL    HW1 8366   6.014   5.041   4.349
 2489SOL    HW2 8367   6.172   5.016   4.379
 2490SOL     OW 8368   2.048   5.831   2.496
 2490SOL    HW1 8369   2.076   5.925   2.514
 2490SOL    HW2 8370   2.098   5.795   2.417
 2491SOL     OW 8371   3.743   4.621   1.539
 2491SOL    HW1 8372   3.840   4.607   1.556
 2491SOL    HW2 8373   3.689   4.556   1.592
 2492SOL     OW 8374   6.898   5.561   1.124
 2492SOL    HW1 8375   6.860   5.483   1.075
 2492SOL    HW2 8376   6.880   5.550   1.222
 2493SOL     OW 8377   5.070   6.665   0.772
 2493SOL    HW1 8378   5.146   6.722   0.800
 2493SOL    HW2 8379   5.103   6.592   0.712
 2494SOL     OW 8380   0.024   3.842   0.994
 2494SOL    HW1 8381   0.106   3.827   1.049
 2494SOL    HW2 8382   7.026   3.937   0.999
 2495SOL     OW 8383   0.427   3.234   1.929
 2495SOL    HW1 8384   0.514   3.281   1.944
 2495SOL    HW2 8385   0.445   3.139   1.904
 2496SOL     OW 8386   5.909   4.574   6.560
 2496SOL    HW1 8387   5.924   4.520   6.643
 2496SOL    HW2 8388   5.830   4.634   6.573
 2497SOL     OW 8389   0.246   0.163   2.459
 2497SOL    HW1 8390   0.268   0.225   2.534
 2497SOL    HW2 8391   0.307   0.180   2.382
 2498SOL     OW 8392   2.172   3.176   4.978
 2498SOL    HW1 8393   2.242   3.134   5.035
 2498SOL    HW2 8394   2.118   3.241   5.032
 2499SOL     OW 8395   6.958   3.598   2.695
 2499SOL    HW1 8396   6.904   3.521   2.730
 2499SOL    HW2 8397   6.920   3.628   2.608
 2500SOL     OW 8398   3.550   3.421   2.094
 2500SOL    HW1 8399   3.505   3.469   2.170
 2500SOL    HW2 8400   3.535   3.472   2.009
 2501SOL     OW 8401   6.107   5.678   6.213
 2501SOL    HW1 8402   6.086   5.652   6.307
 2501SOL    HW2 8403   6.169   5.610   6.173
 2502SOL     OW 8404   2.033   6.424   4.233
 2502SOL    HW1 8405   2.072   6.512   4.206
 2502SOL    HW2 8406   2.097   6.376   4.293
 2503SOL     OW 8407   2.516   0.048   5.643
 2503SOL    HW1 8408   2.469   7.010   5.698
 2503SOL    HW2 8409   2.612   0.054   5.671
 2504SOL     OW 8410   3.464   0.148   3.438
 2504SOL    HW1 8411   3.533   0.080   3.461
 2504SOL    HW2 8412   3.490   0.236   3.478
 2505SOL     OW 8413   6.790   4.240   4.209
 2505SOL    HW1 8414   6.735   4.158   4.221
 2505SOL    HW2 8415   6.774   4.278   4.117
 2506SOL     OW 8416   5.864   5.727   6.410
 2506SOL    HW1 8417   5.844   5.771   6.322
 2506SOL    HW2 8418   5.906   5.638   6.394
 2507SOL     OW 8419   0.492   3.385   2.612
 2507SOL    HW1 8420   0.554   3.459   2.634
 2507SOL    HW2 8421   0.463   3.393   2.516
 2508SOL     OW 8422   6.007   0.979   4.118
 2508SOL    HW1 8423   5.989   1.063   4.066
 2508SOL    HW2 8424   5.923   0.950   4.164
 2509SOL     OW 8425   0.728   3.174   5.733
 2509SOL    HW1 8426   0.805   3.237   5.718
 2509SOL    HW2 8427   0.752   3.083   5.700
 2510SOL     OW 8428   3.051   3.750   2.348
 2510SOL    HW1 8429   2.993   3.735   2.428
 2510SOL    HW2 8430   3.000   3.729   2.265
 2511SOL     OW 8431   1.673   0.406   4.125
 2511SOL    HW1 8432   1.762   0.449   4.109
 2511SOL    HW2 8433   1.666   0.377   4.220
 2512SOL     OW 8434   3.880   4.827   3.920
 2512SOL    HW1 8435   3.945   4.841   3.995
 2512SOL    HW2 8436   3.859   4.729   3.912
 2513SOL     OW 8437   1.954   5.758   6.432
 2513SOL    HW1 8438   1.894   5.781   6.356
 2513SOL    HW2 8439   1.995   5.668   6.417
 2514SOL     OW 8440   1.498   1.983   3.314
 2514SOL    HW1 8441   1.568   1.999   3.245
 2514SOL    HW2 8442   1.499   1.887   3.341
 2515SOL     OW 8443   0.395   2.194   1.263
 2515SOL    HW1 8444   0.372   2.206   1.360
 2515SOL    HW2 8445   0.326   2.136   1.220
 2516SOL     OW 8446   5.794   2.407   4.769
 2516SOL    HW1 8447   5.846   2.325   4.750
 2516SOL    HW2 8448   5.842   2.487   4.733
 2517SOL     OW 8449   0.697   1.332   3.545
 2517SOL    HW1 8450   0.710   1.419   3.498
 2517SOL    HW2 8451   0.696   1.347   3.644
 2518SOL     OW 8452   2.482   4.411   0.856
 2518SOL    HW1 8453   2.440   4.466   0.929
 2518SOL    HW2 8454   2.519   4.327   0.894
 2519SOL     OW 8455   1.072   1.381   0.947
 2519SOL    HW1 8456   1.001   1.385   0.877
 2519SOL    HW2 8457   1.091   1.286   0.969
 2520SOL     OW 8458   2.433   2.362   1.439
 2520SOL    HW1 8459   2.496   2.285   1.423
 2520SOL    HW2 8460   2.483   2.448   1.432
 2521SOL     OW 8461   5.465   0.664   4.744
 2521SOL    HW1 8462   5.548   0.618   4.714
 2521SOL    HW2 8463   5.461   0.755   4.703
 2522SOL     OW 8464   1.246   1.942   6.793
 2522SOL    HW1 8465   1.171   1.995   6.832
 2522SOL    HW2 8466   1.208   1.865   6.740
 2523SOL     OW 8467   1.229   5.029   6.350
 2523SOL    HW1 8468   1.129   5.028   6.352
 2523SOL    HW2 8469   1.264   4.943   6.389
 2524SOL     OW 8470   0.940   1.059   4.595
 2524SOL    HW1 8471   0.931   1.152   4.631
 2524SOL    HW2 8472   0.910   1.057   4.499
 2525SOL     OW 8473   6.521   2.643   5.609
 2525SOL    HW1 8474   6.464   2.697   5.547
 2525SOL    HW2 8475   6.603   2.613   5.560
 2526SOL     OW 8476   1.754   0.266   0.581
 2526SOL    HW1 8477   1.799   0.288   0.668
 2526SOL    HW2 8478   1.725   0.350   0.536
 2527SOL     OW 8479   4.165   5.126   6.136
 2527SOL    HW1 8480   4.139   5.088   6.225
 2527SOL    HW2 8481   4.090   5.116   6.072
 2528SOL     OW 8482   4.713   5.789   6.291
 2528SOL    HW1 8483   4.692   5.813   6.196
 2528SOL    HW2 8484   4.780   5.854   6.327
 2529SOL     OW 8485   0.595   6.534   5.738
 2529SOL    HW1 8486   0.554   6.623   5.754
 2529SOL    HW2 8487   0.659   6.512   5.811
 2530SOL     OW 8488   2.577   6.279   6.589
 2530SOL    HW1 8489   2.538   6.302   6.678
 2530SOL    HW2 8490   2.528   6.200   6.551
 2531SOL     OW 8491   6.776   5.691   6.523
 2531SOL    HW1 8492   6.732   5.690   6.613
 2531SOL    HW2 8493   6.841   5.767   6.519
 2532SOL     OW 8494   5.750   5.781   1.867
 2532SOL    HW1 8495   5.688   5.802   1.791
 2532SOL    HW2 8496   5.697   5.769   1.951
 2533SOL     OW 8497   4.717   0.960   4.076
 2533SOL    HW1 8498   4.780   1.036   4.091
 2533SOL    HW2 8499   4.712   0.940   3.978
 2534SOL     OW 8500   3.965   1.136   2.531
 2534SOL    HW1 8501   3.866   1.124   2.529
 2534SOL    HW2 8502   3.991   1.208   2.466
 2535SOL     OW 8503   3.694   2.799   6.178
 2535SOL    HW1 8504   3.762   2.731   6.205
 2535SOL    HW2 8505   3.608   2.754   6.154
 2536SOL     OW 8506   1.446   0.629   1.481
 2536SOL    HW1 8507   1.508   0.559   1.445
 2536SOL    HW2 8508   1.402   0.596   1.564
 2537SOL     OW 8509   3.912   0.517   5.756
 2537SOL    HW1 8510   3.983   0.568   5.804
 2537SOL    HW2 8511   3.936   0.420   5.755
 2538SOL     OW 8512   6.028   3.447   3.514
 2538SOL    HW1 8513   6.095   3.471   3.444
 2538SOL    HW2 8514   5.941   3.423   3.471
 2539SOL     OW 8515   5.322   2.603   5.156
 2539SOL    HW1 8516   5.277   2.518   5.187
 2539SOL    HW2 8517   5.252   2.666   5.121
 2540SOL     OW 8518   2.626   1.840   1.475
 2540SOL    HW1 8519   2.692   1.897   1.426
 2540SOL    HW2 8520   2.580   1.780   1.410
 2541SOL     OW 8521   3.435   6.707   4.011
 2541SOL    HW1 8522   3.368   6.655   3.956
 2541SOL    HW2 8523   3.414   6.695   4.108
 2542SOL     OW 8524   1.869   5.472   6.164
 2542SOL    HW1 8525   1.954   5.526   6.172
 2542SOL    HW2 8526   1.851   5.453   6.068
 2543SOL     OW 8527   0.663   0.725   4.238
 2543SOL    HW1 8528   0.738   0.718   4.303
 2543SOL    HW2 8529   0.653   0.639   4.188
 2544SOL     OW 8530   0.184   5.291   6.749
 2544SOL    HW1 8531   0.255   5.327   6.689
 2544SOL    HW2 8532   0.221   5.279   6.841
 2545SOL     OW 8533   2.184   5.946   3.559
 2545SOL    HW1 8534   2.259   5.881   3.568
 2545SOL    HW2 8535   2.171   5.970   3.463
 2546SOL     OW 8536   6.929   1.189   1.538
 2546SOL    HW1 8537   7.028   1.199   1.533
 2546SOL    HW2 8538   6.905   1.094   1.556
 2547SOL     OW 8539   0.889   3.537   5.105
 2547SOL    HW1 8540   0.850   3.446   5.119
 2547SOL    HW2 8541   0.883   3.590   5.190
 2548SOL     OW 8542   1.137   0.518   5.561
 2548SOL    HW1 8543   1.058   0.497   5.619
 2548SOL    HW2 8544   1.121   0.482   5.469
 2549SOL     OW 8545   6.549   3.005   2.114
 2549SOL    HW1 8546   6.632   2.953   2.136
 2549SOL    HW2 8547   6.573   3.083   2.056
 2550SOL     OW 8548   5.895   5.308   0.167
 2550SOL    HW1 8549   5.922   5.236   0.231
 2550SOL    HW2 8550   5.808   5.348   0.197
 2551SOL     OW 8551   1.233   5.027   0.511
 2551SOL    HW1 8552   1.238   4.941   0.562
 2551SOL    HW2 8553   1.160   5.022   0.444
 2552SOL     OW 8554   1.722   5.744   3.747
 2552SOL    HW1 8555   1.815   5.740   3.783
 2552SOL    HW2 8556   1.724   5.728   3.648
 2553SOL     OW 8557   4.283   3.846   6.661
 2553SOL    HW1 8558   4.338   3.770   6.697
 2553SOL    HW2 8559   4.201   3.856   6.716
 2554SOL     OW 8560   1.197   1.678   0.659
 2554SOL    HW1 8561   1.109   1.673   0.706
 2554SOL    HW2 8562   1.182   1.667   0.560
 2555SOL     OW 8563   6.292   0.367   6.554
 2555SOL    HW1 8564   6.379   0.387   6.510
 2555SOL    HW2 8565   6.217   0.392   6.493
 2556SOL     OW 8566   3.934   5.064   1.044
 2556SOL    HW1 8567   3.846   5.040   1.084
 2556SOL    HW2 8568   3.944   5.017   0.957
 2557SOL     OW 8569   1.541   4.736   6.852
 2557SOL    HW1 8570   1.449   4.751   6.890
 2557SOL    HW2 8571   1.563   4.639   6.856
 2558SOL     OW 8572   4.192   0.511   5.389
 2558SOL    HW1 8573   4.146   0.442   5.444
 2558SOL    HW2 8574   4.198   0.596   5.440
 2559SOL     OW 8575   0.297   5.073   5.007
 2559SOL    HW1 8576   0.343   5.083   4.920
 2559SOL    HW2 8577   0.212   5.126   5.007
 2560SOL     OW 8578   5.891   1.361   0.195
 2560SOL    HW1 8579   5.852   1.272   0.174
 2560SOL    HW2 8580   5.834   1.409   0.261
 2561SOL     OW 8581   3.026   5.692   4.574
 2561SOL    HW1 8582   3.080   5.654   4.499
 2561SOL    HW2 8583   3.059   5.656   4.661
 2562SOL     OW 8584   2.370   3.482   6.922
 2562SOL    HW1 8585   2.362   3.562   6.981
 2562SOL    HW2 8586   2.467   3.463   6.904
 2563SOL     OW 8587   2.124   0.661   1.691
 2563SOL    HW1 8588   2.036   0.659   1.642
 2563SOL    HW2 8589   2.152   0.568   1.713
 2564SOL     OW 8590   1.773   6.370   2.108
 2564SOL    HW1 8591   1.794   6.417   2.022
 2564SOL    HW2 8592   1.678   6.339   2.106
 2565SOL     OW 8593   0.337   0.870   1.723
 2565SOL    HW1 8594   0.283   0.951   1.744
 2565SOL    HW2 8595   0.277   0.796   1.693
 2566SOL     OW 8596   2.417   6.940   5.894
 2566SOL    HW1 8597   2.433   6.990   5.980
 2566SOL    HW2 8598   2.320   6.946   5.870
 2567SOL     OW 8599   1.443   0.645   0.505
 2567SOL    HW1 8600   1.538   0.613   0.502
 2567SOL    HW2 8601   1.414   0.670   0.413
 2568SOL     OW 8602   5.170   4.217   0.054
 2568SOL    HW1 8603   5.113   4.173   7.014
 2568SOL    HW2 8604   5.237   4.151   0.089
 2569SOL     OW 8605   2.904   0.775   2.673
 2569SOL    HW1 8606   2.979   0.799   2.611
 2569SOL    HW2 8607   2.853   0.857   2.698
 2570SOL     OW 8608   5.707   2.481   6.186
 2570SOL    HW1 8609   5.693   2.559   6.247
 2570SOL    HW2 8610   5.799   2.444   6.200
 2571SOL     OW 8611   0.685   3.946   4.608
 2571SOL    HW1 8612   0.651   3.900   4.690
 2571SOL    HW2 8613   0.613   4.006   4.572
 2572SOL     OW 8614   1.442   5.012   3.980
 2572SOL    HW1 8615   1.481   4.930   3.938
 2572SOL    HW2 8616   1.513   5.060   4.031
 2573SOL     OW 8617   1.118   0.203   1.204
 2573SOL    HW1 8618   1.201   0.240   1.245
 2573SOL    HW2 8619   1.137   0.173   1.111
 2574SOL     OW 8620   6.333   3.501   0.661
 2574SOL    HW1 8621   6.333   3.402   0.645
 2574SOL    HW2 8622   6.339   3.518   0.760
 2575SOL     OW 8623   0.778   6.445   5.925
 2575SOL    HW1 8624   0.876   6.426   5.937
 2575SOL    HW2 8625   0.725   6.371   5.964
 2576SOL     OW 8626   4.310   6.274   4.775
 2576SOL    HW1 8627   4.325   6.187   4.821
 2576SOL    HW2 8628   4.280   6.342   4.841
 2577SOL     OW 8629   1.945   4.074   2.739
 2577SOL    HW1 8630   1.952   4.167   2.775
 2577SOL    HW2 8631   1.871   4.070   2.672
 2578SOL     OW 8632   4.406   1.980   2.602
 2578SOL    HW1 8633   4.480   1.926   2.643
 2578SOL    HW2 8634   4.319   1.956   2.645
 2579SOL     OW 8635   0.622   6.656   3.042
 2579SOL    HW1 8636   0.718   6.634   3.059
 2579SOL    HW2 8637   0.609   6.755   3.045
 2580SOL     OW 8638   2.505   2.231   5.774
 2580SOL    HW1 8639   2.406   2.236   5.786
 2580SOL    HW2 8640   2.527   2.228   5.677
 2581SOL     OW 8641   3.232   0.824   4.949
 2581SOL    HW1 8642   3.132   0.822   4.959
 2581SOL    HW2 8643   3.265   0.732   4.929
 2582SOL     OW 8644   7.008   3.282   1.430
 2582SOL    HW1 8645   7.005   3.265   1.528
 2582SOL    HW2 8646   0.068   3.320   1.405
 2583SOL     OW 8647   6.134   0.439   1.183
 2583SOL    HW1 8648   6.097   0.504   1.117
 2583SOL    HW2 8649   6.207   0.386   1.140
 2584SOL     OW 8650   3.787   4.438   6.196
 2584SOL    HW1 8651   3.845   4.499   6.142
 2584SOL    HW2 8652   3.760   4.484   6.281
 2585SOL     OW 8653   3.094   5.533   7.029
 2585SOL    HW1 8654   3.165   5.511   6.963
 2585SOL    HW2 8655   3.009   5.486   7.004
 2586SOL     OW 8656   2.650   0.936   3.511
 2586SOL    HW1 8657   2.671   0.849   3.556
 2586SOL    HW2 8658   2.710   1.007   3.546
 2587SOL     OW 8659   6.164   0.643   4.256
 2587SOL    HW1 8660   6.173   0.601   4.347
 2587SOL    HW2 8661   6.070   0.676   4.244
 2588SOL     OW 8662   4.596   0.481   6.774
 2588SOL    HW1 8663   4.597   0.566   6.825
 2588SOL    HW2 8664   4.503   0.443   6.773
 2589SOL     OW 8665   2.162   6.324   0.474
 2589SOL    HW1 8666   2.151   6.231   0.510
 2589SOL    HW2 8667   2.100   6.337   0.396
 2590SOL     OW 8668   3.160   6.062   0.412
 2590SOL    HW1 8669   3.098   6.082   0.335
 2590SOL    HW2 8670   3.184   5.966   0.411
 2591SOL     OW 8671   5.125   5.302   2.956
 2591SOL    HW1 8672   5.119   5.224   2.894
 2591SOL    HW2 8673   5.221   5.323   2.975
 2592SOL     OW 8674   2.942   4.036   0.675
 2592SOL    HW1 8675   2.977   3.992   0.758
 2592SOL    HW2 8676   2.844   4.020   0.668
 2593SOL     OW 8677   3.538   4.711   0.199
 2593SOL    HW1 8678   3.623   4.738   0.246
 2593SOL    HW2 8679   3.551   4.718   0.100
 2594SOL     OW 8680   1.955   2.900   3.724
 2594SOL    HW1 8681   1.955   2.949   3.637
 2594SOL    HW2 8682   2.049   2.885   3.754
 2595SOL     OW 8683   2.108   1.663   3.103
 2595SOL    HW1 8684   2.197   1.691   3.066
 2595SOL    HW2 8685   2.060   1.743   3.139
 2596SOL     OW 8686   0.455   2.054   0.579
 2596SOL    HW1 8687   0.539   2.099   0.551
 2596SOL    HW2 8688   0.459   2.032   0.676
 2597SOL     OW 8689   6.512   6.824   6.967
 2597SOL    HW1 8690   6.468   6.736   6.982
 2597SOL    HW2 8691   6.484   6.888   0.010
 2598SOL     OW 8692   5.119   2.487   2.770
 2598SOL    HW1 8693   5.162   2.572   2.801
 2598SOL    HW2 8694   5.088   2.434   2.850
 2599SOL     OW 8695   2.805   6.020   2.621
 2599SOL    HW1 8696   2.812   5.939   2.563
 2599SOL    HW2 8697   2.711   6.031   2.653
 2600SOL     OW 8698   5.796   3.747   4.442
 2600SOL    HW1 8699   5.893   3.727   4.424
 2600SOL    HW2 8700   5.763   3.813   4.376
 2601SOL     OW 8701   6.523   1.398   4.279
 2601SOL    HW1 8702   6.539   1.320   4.219
 2601SOL    HW2 8703   6.457   1.460   4.236
 2602SOL     OW 8704   0.977   4.293   2.485
 2602SOL    HW1 8705   0.965   4.392   2.477
 2602SOL    HW2 8706   1.062   4.274   2.534
 2603SOL     OW 8707   2.066   5.952   2.896
 2603SOL    HW1 8708   2.011   6.035   2.889
 2603SOL    HW2 8709   2.028   5.892   2.966
 2604SOL     OW 8710   4.759   2.728   3.573
 2604SOL    HW1 8711   4.714   2.738   3.662
 2604SOL    HW2 8712   4.855   2.753   3.581
 2605SOL     OW 8713   1.515   3.529   1.512
 2605SOL    HW1 8714   1.447   3.477   1.460
 2605SOL    HW2 8715   1.478   3.620   1.533
 2606SOL     OW 8716   5.167   3.518   0.808
 2606SOL    HW1 8717   5.193   3.613   0.789
 2606SOL    HW2 8718   5.198   3.493   0.900
 2607SOL     OW 8719   2.612   3.026   1.711
 2607SOL    HW1 8720   2.674   3.104   1.718
 2607SOL    HW2 8721   2.521   3.058   1.684
 2608SOL     OW 8722   2.970   5.568   5.517
 2608SOL    HW1 8723   2.899   5.505   5.484
 2608SOL    HW2 8724   3.001   5.539   5.607
 2609SOL     OW 8725   0.652   2.255   1.317
 2609SOL    HW1 8726   0.565   2.237   1.272
 2609SOL    HW2 8727   0.638   2.316   1.395
 2610SOL     OW 8728   1.402   4.037   4.876
 2610SOL    HW1 8729   1.418   4.028   4.778
 2610SOL    HW2 8730   1.314   3.996   4.900
 2611SOL     OW 8731   5.322   0.266   6.087
 2611SOL    HW1 8732   5.341   0.178   6.043
 2611SOL    HW2 8733   5.402   0.296   6.138
 2612SOL     OW 8734   6.782   6.649   6.912
 2612SOL    HW1 8735   6.684   6.650   6.895
 2612SOL    HW2 8736   6.821   6.565   6.872
 2613SOL     OW 8737   1.217   6.726   7.001
 2613SOL    HW1 8738   1.313   6.703   6.983
 2613SOL    HW2 8739   1.167   6.643   7.024
 2614SOL     OW 8740   6.213   2.176   0.453
 2614SOL    HW1 8741   6.302   2.146   0.489
 2614SOL    HW2 8742   6.166   2.099   0.412
 2615SOL     OW 8743   0.418   3.366   6.931
 2615SOL    HW1 8744   0.348   3.328   6.992
 2615SOL    HW2 8745   0.505   3.373   6.980
 2616SOL     OW 8746   1.347   1.086   4.776
 2616SOL    HW1 8747   1.408   1.052   4.705
 2616SOL    HW2 8748   1.379   1.054   4.865
 2617SOL     OW 8749   5.259   0.213   1.645
 2617SOL    HW1 8750   5.161   0.202   1.625
 2617SOL    HW2 8751   5.278   0.309   1.666
 2618SOL     OW 8752   1.496   0.080   6.559
 2618SOL    HW1 8753   1.581   0.104   6.606
 2618SOL    HW2 8754   1.518   0.037   6.471
 2619SOL     OW 8755   5.025   1.230   2.937
 2619SOL    HW1 8756   4.991   1.320   2.909
 2619SOL    HW2 8757   5.008   1.164   2.863
 2620SOL     OW 8758   6.232   1.909   1.667
 2620SOL    HW1 8759   6.139   1.922   1.700
 2620SOL    HW2 8760   6.290   1.984   1.700
 2621SOL     OW 8761   2.668   6.685   1.498
 2621SOL    HW1 8762   2.699   6.728   1.583
 2621SOL    HW2 8763   2.617   6.602   1.519
 2622SOL     OW 8764   2.634   3.623   0.109
 2622SOL    HW1 8765   2.681   3.708   0.087
 2622SOL    HW2 8766   2.614   3.620   0.207
 2623SOL     OW 8767   6.817   0.450   3.838
 2623SOL    HW1 8768   6.723   0.468   3.809
 2623SOL    HW2 8769   6.879   0.509   3.788
 2624SOL     OW 8770   0.976   1.836   5.584
 2624SOL    HW1 8771   1.068   1.866   5.610
 2624SOL    HW2 8772   0.976   1.806   5.489
 2625SOL     OW 8773   2.696   5.569   5.752
 2625SOL    HW1 8774   2.764   5.635   5.721
 2625SOL    HW2 8775   2.736   5.477   5.752
 2626SOL     OW 8776   6.945   6.891   6.649
 2626SOL    HW1 8777   6.957   6.980   6.691
 2626SOL    HW2 8778   6.850   6.879   6.622
 2627SOL     OW 8779   2.212   0.921   5.971
 2627SOL    HW1 8780   2.129   0.965   5.935
 2627SOL    HW2 8781   2.292   0.977   5.949
 2628SOL     OW 8782   0.111   5.031   1.327
 2628SOL    HW1 8783   0.089   5.007   1.233
 2628SOL    HW2 8784   0.036   5.084   1.367
 2629SOL     OW 8785   3.324   3.735   2.833
 2629SOL    HW1 8786   3.262   3.736   2.755
 2629SOL    HW2 8787   3.401   3.796   2.816
 2630SOL     OW 8788   3.565   0.829   4.039
 2630SOL    HW1 8789   3.606   0.896   3.976
 2630SOL    HW2 8790   3.556   0.870   4.130
 2631SOL     OW 8791   5.508   6.401   0.086
 2631SOL    HW1 8792   5.440   6.389   0.013
 2631SOL    HW2 8793   5.498   6.492   0.126
 2632SOL     OW 8794   5.931   4.845   1.570
 2632SOL    HW1 8795   6.031   4.844   1.571
 2632SOL    HW2 8796   5.896   4.758   1.534
 2633SOL     OW 8797   0.259   3.448   5.931
 2633SOL    HW1 8798   0.266   3.542   5.965
 2633SOL    HW2 8799   0.317   3.438   5.850
 2634SOL     OW 8800   0.924   1.788   5.856
 2634SOL    HW1 8801   0.836   1.829   5.879
 2634SOL    HW2 8802   0.948   1.811   5.762
 2635SOL     OW 8803   3.872   5.349   3.070
 2635SOL    HW1 8804   3.818   5.294   3.006
 2635SOL    HW2 8805   3.965   5.361   3.034
 2636SOL     OW 8806   3.362   6.541   6.230
 2636SOL    HW1 8807   3.341   6.464   6.291
 2636SOL    HW2 8808   3.278   6.568   6.182
 2637SOL     OW 8809   0.366   0.855   2.997
 2637SOL    HW1 8810   0.338   0.858   3.093
 2637SOL    HW2 8811   0.466   0.863   2.991
 2638SOL     OW 8812   0.654   6.748   4.606
 2638SOL    HW1 8813   0.671   6.757   4.704
 2638SOL    HW2 8814   0.558   6.768   4.588
 2639SOL     OW 8815   4.774   4.683   4.398
 2639SOL    HW1 8816   4.848   4.620   4.423
 2639SOL    HW2 8817   4.745   4.734   4.479
 2640SOL     OW 8818   2.550   1.332   3.451
 2640SOL    HW1 8819   2.460   1.373   3.456
 2640SOL    HW2 8820   2.547   1.251   3.393
 2641SOL     OW 8821   4.996   2.490   6.957
 2641SOL    HW1 8822   5.038   2.572   6.995
 2641SOL    HW2 8823   5.049   2.409   6.983
 2642SOL     OW 8824   0.374   6.858   2.184
 2642SOL    HW1 8825   0.319   6.917   2.126
 2642SOL    HW2 8826   0.320   6.776   2.208
 2643SOL     OW 8827   1.667   4.911   4.293
 2643SOL    HW1 8828   1.690   4.970   4.216
 2643SOL    HW2 8829   1.567   4.902   4.300
 2644SOL     OW 8830   5.949   5.649   4.111
 2644SOL    HW1 8831   5.880   5.596   4.161
 2644SOL    HW2 8832   5.918   5.744   4.102
 2645SOL     OW 8833   5.227   5.586   2.917
 2645SOL    HW1 8834   5.175   5.505   2.892
 2645SOL    HW2 8835   5.184   5.667   2.876
 2646SOL     OW 8836   0.840   2.098   6.293
 2646SOL    HW1 8837   0.767   2.070   6.232
 2646SOL    HW2 8838   0.883   2.182   6.260
 2647SOL     OW 8839   4.291   6.533   2.719
 2647SOL    HW1 8840   4.275   6.531   2.621
 2647SOL    HW2 8841   4.383   6.500   2.739
 2648SOL     OW 8842   1.503   0.537   5.771
 2648SOL    HW1 8843   1.592   0.549   5.814
 2648SOL    HW2 8844   1.444   0.481   5.830
 2649SOL     OW 8845   5.863   1.765   3.401
 2649SOL    HW1 8846   5.904   1.684   3.359
 2649SOL    HW2 8847   5.769   1.776   3.369
 2650SOL     OW 8848   2.235   0.255   4.423
 2650SOL    HW1 8849   2.150   0.298   4.395
 2650SOL    HW2 8850   2.225   0.155   4.417
 2651SOL     OW 8851   4.270   2.194   3.765
 2651SOL    HW1 8852   4.255   2.120   3.699
 2651SOL    HW2 8853   4.242   2.163   3.856
 2652SOL     OW 8854   5.202   3.885   5.474
 2652SOL    HW1 8855   5.281   3.906   5.416
 2652SOL    HW2 8856   5.208   3.939   5.558
 2653SOL     OW 8857   2.215   6.333   6.856
 2653SOL    HW1 8858   2.156   6.252   6.861
 2653SOL    HW2 8859   2.182   6.393   6.783
 2654SOL     OW 8860   0.071   0.779   0.940
 2654SOL    HW1 8861   0.026   0.705   0.990
 2654SOL    HW2 8862   0.126   0.833   1.003
 2655SOL     OW 8863   5.529   6.419   2.855
 2655SOL    HW1 8864   5.526   6.415   2.755
 2655SOL    HW2 8865   5.452   6.474   2.888
 2656SOL     OW 8866   4.970   6.344   4.193
 2656SOL    HW1 8867   4.895   6.279   4.180
 2656SOL    HW2 8868   4.971   6.376   4.288
 2657SOL     OW 8869   1.423   3.165   7.020
 2657SOL    HW1 8870   1.517   3.180   6.990
 2657SOL    HW2 8871   1.388   3.248   0.033
 2658SOL     OW 8872   3.291   4.634   0.328
 2658SOL    HW1 8873   3.380   4.661   0.291
 2658SOL    HW2 8874   3.236   4.594   0.255
 2659SOL     OW 8875   6.931   1.851   5.185
 2659SOL    HW1 8876   6.988   1.779   5.223
 2659SOL    HW2 8877   6.974   1.888   5.102
 2660SOL     OW 8878   0.661   1.201   1.145
 2660SOL    HW1 8879   0.730   1.261   1.184
 2660SOL    HW2 8880   0.702   1.145   1.072
 2661SOL     OW 8881   1.555   1.104   1.305
 2661SOL    HW1 8882   1.600   1.193   1.300
 2661SOL    HW2 8883   1.456   1.116   1.306
 2662SOL     OW 8884   2.661   1.666   1.727
 2662SOL    HW1 8885   2.642   1.710   1.639
 2662SOL    HW2 8886   2.684   1.736   1.795
 2663SOL     OW 8887   4.044   0.576   0.937
 2663SOL    HW1 8888   3.960   0.627   0.921
 2663SOL    HW2 8889   4.035   0.484   0.899
 2664SOL     OW 8890   4.989   3.187   5.441
 2664SOL    HW1 8891   5.027   3.226   5.525
 2664SOL    HW2 8892   4.940   3.257   5.390
 2665SOL     OW 8893   1.414   2.841   3.718
 2665SOL    HW1 8894   1.423   2.767   3.650
 2665SOL    HW2 8895   1.393   2.927   3.671
 2666SOL     OW 8896   1.649   4.347   2.018
 2666SOL    HW1 8897   1.642   4.400   1.934
 2666SOL    HW2 8898   1.585   4.384   2.086
 2667SOL     OW 8899   6.242   2.747   4.626
 2667SOL    HW1 8900   6.224   2.676   4.557
 2667SOL    HW2 8901   6.334   2.735   4.662
 2668SOL     OW 8902   5.582   0.852   4.064
 2668SOL    HW1 8903   5.577   0.908   3.982
 2668SOL    HW2 8904   5.619   0.762   4.041
 2669SOL     OW 8905   2.767   1.096   1.636
 2669SOL    HW1 8906   2.782   1.195   1.641
 2669SOL    HW2 8907   2.729   1.064   1.723
 2670SOL     OW 8908   0.380   0.607   0.436
 2670SOL    HW1 8909   0.449   0.670   0.473
 2670SOL    HW2 8910   0.348   0.640   0.348
 2671SOL     OW 8911   5.418   4.677   5.836
 2671SOL    HW1 8912   5.361   4.738   5.781
 2671SOL    HW2 8913   5.508   4.667   5.794
 2672SOL     OW 8914   2.465   1.321   2.510
 2672SOL    HW1 8915   2.431   1.260   2.581
 2672SOL    HW2 8916   2.565   1.325   2.515
 2673SOL     OW 8917   3.467   6.862   2.948
 2673SOL    HW1 8918   3.459   6.804   3.029
 2673SOL    HW2 8919   3.376   6.888   2.916
 2674SOL     OW 8920   6.857   5.891   2.967
 2674SOL    HW1 8921   6.827   5.963   3.030
 2674SOL    HW2 8922   6.794   5.813   2.975
 2675SOL     OW 8923   4.364   1.221   4.500
 2675SOL    HW1 8924   4.382   1.160   4.424
 2675SOL    HW2 8925   4.450   1.240   4.548
 2676SOL     OW 8926   4.041   3.153   4.375
 2676SOL    HW1 8927   4.096   3.236   4.371
 2676SOL    HW2 8928   4.029   3.116   4.283
 2677SOL     OW 8929   2.027   6.044   0.166
 2677SOL    HW1 8930   2.075   6.068   0.250
 2677SOL    HW2 8931   1.932   6.020   0.188
 2678SOL     OW 8932   3.630   1.886   2.300
 2678SOL    HW1 8933   3.689   1.809   2.277
 2678SOL    HW2 8934   3.582   1.917   2.218
 2679SOL     OW 8935   2.194   3.886   2.417
 2679SOL    HW1 8936   2.178   3.963   2.479
 2679SOL    HW2 8937   2.176   3.800   2.465
 2680SOL     OW 8938   5.633   2.307   6.945
 2680SOL    HW1 8939   5.694   2.386   6.933
 2680SOL    HW2 8940   5.578   2.321   7.028
 2681SOL     OW 8941   2.426   2.012   3.540
 2681SOL    HW1 8942   2.450   1.987   3.634
 2681SOL    HW2 8943   2.444   2.110   3.526
 2682SOL     OW 8944   3.869   4.083   1.847
 2682SOL    HW1 8945   3.775   4.080   1.880
 2682SOL    HW2 8946   3.917   4.001   1.878
 2683SOL     OW 8947   1.773   4.051   1.662
 2683SOL    HW1 8948   1.700   4.103   1.708
 2683SOL    HW2 8949   1.809   3.982   1.725
 2684SOL     OW 8950   5.926   0.692   3.772
 2684SOL    HW1 8951   5.952   0.714   3.678
 2684SOL    HW2 8952   6.007   0.687   3.829
 2685SOL     OW 8953   1.327   6.897   5.846
 2685SOL    HW1 8954   1.406   6.896   5.907
 2685SOL    HW2 8955   1.245   6.874   5.898
 2686SOL     OW 8956   1.459   1.258   5.774
 2686SOL    HW1 8957   1.382   1.320   5.761
 2686SOL    HW2 8958   1.488   1.222   5.685
 2687SOL     OW 8959   4.285   2.018   1.392
 2687SOL    HW1 8960   4.227   2.088   1.351
 2687SOL    HW2 8961   4.365   2.003   1.334
 2688SOL     OW 8962   3.740   2.951   6.772
 2688SOL    HW1 8963   3.663   3.014   6.776
 2688SOL    HW2 8964   3.712   2.862   6.805
 2689SOL     OW 8965   0.120   3.823   2.770
 2689SOL    HW1 8966   0.183   3.800   2.696
 2689SOL    HW2 8967   0.035   3.772   2.757
 2690SOL     OW 8968   4.995   1.018   5.006
 2690SOL    HW1 8969   4.949   1.084   5.064
 2690SOL    HW2 8970   4.934   0.990   4.932
 2691SOL     OW 8971   7.018   3.544   4.845
 2691SOL    HW1 8972   6.966   3.602   4.909
 2691SOL    HW2 8973   7.021   3.450   4.880
 2692SOL     OW 8974   2.542   5.257   1.605
 2692SOL    HW1 8975   2.504   5.262   1.697
 2692SOL    HW2 8976   2.536   5.347   1.562
 2693SOL     OW 8977   0.837   5.073   2.714
 2693SOL    HW1 8978   0.748   5.104   2.748
 2693SOL    HW2 8979   0.907   5.089   2.785
 2694SOL     OW 8980   2.338   0.474   2.341
 2694SOL    HW1 8981   2.338   0.558   2.395
 2694SOL    HW2 8982   2.245   0.454   2.310
 2695SOL     OW 8983   6.945   5.216   3.495
 2695SOL    HW1 8984   6.978   5.214   3.400
 2695SOL    HW2 8985   6.847   5.194   3.497
 2696SOL     OW 8986   4.066   4.768   6.291
 2696SOL    HW1 8987   4.030   4.791   6.200
 2696SOL    HW2 8988   4.077   4.852   6.345
 2697SOL     OW 8989   3.903   2.284   0.539
 2697SOL    HW1 8990   3.897   2.339   0.622
 2697SOL    HW2 8991   3.848   2.327   0.467
 2698SOL     OW 8992   1.361   5.692   6.366
 2698SOL    HW1 8993   1.317   5.754   6.431
 2698SOL    HW2 8994   1.293   5.629   6.329
 2699SOL     OW 8995   2.705   6.858   1.960
 2699SOL    HW1 8996   2.743   6.809   2.038
 2699SOL    HW2 8997   2.748   6.948   1.952
 2700SOL     OW 8998   4.646   1.902   1.653
 2700SOL    HW1 8999   4.605   1.991   1.635
 2700SOL    HW2 9000   4.591   1.853   1.721
 2701SOL     OW 9001   5.369   3.856   5.274
 2701SOL    HW1 9002   5.354   3.757   5.282
 2701SOL    HW2 9003   5.321   3.891   5.194
 2702SOL     OW 9004   2.246   1.235   4.961
 2702SOL    HW1 9005   2.337   1.201   4.935
 2702SOL    HW2 9006   2.202   1.168   5.021
 2703SOL     OW 9007   2.101   6.089   2.473
 2703SOL    HW1 9008   2.103   6.158   2.545
 2703SOL    HW2 9009   2.032   6.113   2.405
 2704SOL     OW 9010   4.351   0.643   3.558
 2704SOL    HW1 9011   4.341   0.558   3.609
 2704SOL    HW2 9012   4.269   0.700   3.572
 2705SOL     OW 9013   2.031   0.053   5.102
 2705SOL    HW1 9014   2.003   7.028   5.181
 2705SOL    HW2 9015   2.034   7.024   5.021
 2706SOL     OW 9016   0.010   4.891   3.925
 2706SOL    HW1 9017   7.029   4.824   3.998
 2706SOL    HW2 9018   7.027   4.846   3.836
 2707SOL     OW 9019   4.918   1.451   3.198
 2707SOL    HW1 9020   4.872   1.365   3.220
 2707SOL    HW2 9021   4.918   1.464   3.099
 2708SOL     OW 9022   4.871   3.387   5.820
 2708SOL    HW1 9023   4.967   3.405   5.799
 2708SOL    HW2 9024   4.816   3.466   5.795
 2709SOL     OW 9025   5.186   1.290   5.569
 2709SOL    HW1 9026   5.235   1.362   5.520
 2709SOL    HW2 9027   5.166   1.214   5.506
 2710SOL     OW 9028   1.311   2.997   4.340
 2710SOL    HW1 9029   1.271   3.074   4.390
 2710SOL    HW2 9030   1.378   3.032   4.274
 2711SOL     OW 9031   4.665   0.656   1.775
 2711SOL    HW1 9032   4.671   0.647   1.676
 2711SOL    HW2 9033   4.569   0.651   1.803
 2712SOL     OW 9034   5.926   5.964   1.532
 2712SOL    HW1 9035   5.850   5.941   1.471
 2712SOL    HW2 9036   5.906   6.049   1.580
 2713SOL     OW 9037   3.781   5.463   5.789
 2713SOL    HW1 9038   3.733   5.504   5.866
 2713SOL    HW2 9039   3.785   5.363   5.801
 2714SOL     OW 9040   3.203   4.241   5.875
 2714SOL    HW1 9041   3.170   4.325   5.830
 2714SOL    HW2 9042   3.185   4.163   5.816
 2715SOL     OW 9043   4.931   6.043   6.742
 2715SOL    HW1 9044   4.984   5.999   6.670
 2715SOL    HW2 9045   4.962   6.137   6.754
 2716SOL     OW 9046   4.259   0.710   2.706
 2716SOL    HW1 9047   4.208   0.784   2.662
 2716SOL    HW2 9048   4.354   0.739   2.721
 2717SOL     OW 9049   1.068   2.117   2.239
 2717SOL    HW1 9050   1.046   2.043   2.302
 2717SOL    HW2 9051   1.026   2.202   2.271
 2718SOL     OW 9052   6.256   1.416   6.105
 2718SOL    HW1 9053   6.204   1.468   6.037
 2718SOL    HW2 9054   6.270   1.323   6.073
 2719SOL     OW 9055   1.056   4.866   3.534
 2719SOL    HW1 9056   1.032   4.849   3.630
 2719SOL    HW2 9057   1.025   4.789   3.478
 2720SOL     OW 9058   2.116   5.683   6.861
 2720SOL    HW1 9059   2.017   5.674   6.850
 2720SOL    HW2 9060   2.156   5.593   6.876
 2721SOL     OW 9061   2.109   6.862   2.811
 2721SOL    HW1 9062   2.193   6.818   2.779
 2721SOL    HW2 9063   2.030   6.805   2.787
 2722SOL     OW 9064   3.531   4.819   6.553
 2722SOL    HW1 9065   3.528   4.723   6.583
 2722SOL    HW2 9066   3.449   4.840   6.501
 2723SOL     OW 9067   4.081   5.628   6.711
 2723SOL    HW1 9068   4.165   5.660   6.755
 2723SOL    HW2 9069   4.099   5.605   6.615
 2724SOL     OW 9070   6.660   5.801   1.560
 2724SOL    HW1 9071   6.562   5.791   1.540
 2724SOL    HW2 9072   6.676   5.889   1.603
 2725SOL     OW 9073   6.040   4.880   3.171
 2725SOL    HW1 9074   6.128   4.922   3.194
 2725SOL    HW2 9075   6.050   4.781   3.170
 2726SOL     OW 9076   6.578   2.090   3.192
 2726SOL    HW1 9077   6.577   2.189   3.185
 2726SOL    HW2 9078   6.502   2.052   3.139
 2727SOL     OW 9079   1.902   5.452   3.630
 2727SOL    HW1 9080   1.868   5.404   3.548
 2727SOL    HW2 9081   1.931   5.544   3.605
 2728SOL     OW 9082   5.032   5.595   5.596
 2728SOL    HW1 9083   5.064   5.667   5.657
 2728SOL    HW2 9084   4.951   5.627   5.547
 2729SOL     OW 9085   6.588   0.126   0.318
 2729SOL    HW1 9086   6.671   0.072   0.331
 2729SOL    HW2 9087   6.611   0.209   0.267
 2730SOL     OW 9088   1.243   5.643   2.699
 2730SOL    HW1 9089   1.193   5.666   2.782
 2730SOL    HW2 9090   1.180   5.600   2.633
 2731SOL     OW 9091   4.021   3.882   5.098
 2731SOL    HW1 9092   4.058   3.909   5.186
 2731SOL    HW2 9093   3.960   3.804   5.110
 2732SOL     OW 9094   4.780   0.447   1.941
 2732SOL    HW1 9095   4.727   0.516   1.891
 2732SOL    HW2 9096   4.767   0.357   1.899
 2733SOL     OW 9097   0.629   6.852   0.361
 2733SOL    HW1 9098   0.683   6.794   0.300
 2733SOL    HW2 9099   0.596   6.799   0.438
 2734SOL     OW 9100   3.598   6.748   2.513
 2734SOL    HW1 9101   3.655   6.688   2.457
 2734SOL    HW2 9102   3.502   6.722   2.504
 2735SOL     OW 9103   1.006   2.196   2.637
 2735SOL    HW1 9104   1.001   2.103   2.600
 2735SOL    HW2 9105   1.065   2.197   2.717
 2736SOL     OW 9106   5.613   4.020   2.511
 2736SOL    HW1 9107   5.713   4.019   2.516
 2736SOL    HW2 9108   5.576   4.064   2.592
 2737SOL     OW 9109   2.890   0.443   5.519
 2737SOL    HW1 9110   2.826   0.415   5.590
 2737SOL    HW2 9111   2.896   0.543   5.516
 2738SOL     OW 9112   5.149   6.133   1.131
 2738SOL    HW1 9113   5.179   6.040   1.154
 2738SOL    HW2 9114   5.072   6.158   1.190
 2739SOL     OW 9115   0.123   5.592   1.560
 2739SOL    HW1 9116   0.059   5.535   1.509
 2739SOL    HW2 9117   0.194   5.626   1.498
 2740SOL     OW 9118   6.737   5.104   4.019
 2740SOL    HW1 9119   6.811   5.167   3.994
 2740SOL    HW2 9120   6.774   5.029   4.073
 2741SOL     OW 9121   1.383   6.774   6.398
 2741SOL    HW1 9122   1.395   6.713   6.476
 2741SOL    HW2 9123   1.444   6.853   6.407
 2742SOL     OW 9124   2.922   5.139   3.198
 2742SOL    HW1 9125   2.984   5.068   3.232
 2742SOL    HW2 9126   2.833   5.131   3.244
 2743SOL     OW 9127   5.257   1.861   2.765
 2743SOL    HW1 9128   5.279   1.942   2.821
 2743SOL    HW2 9129   5.254   1.887   2.669
 2744SOL     OW 9130   3.476   4.107   2.140
 2744SOL    HW1 9131   3.382   4.142   2.136
 2744SOL    HW2 9132   3.513   4.124   2.231
 2745SOL     OW 9133   0.746   5.807   0.208
 2745SOL    HW1 9134   0.764   5.807   0.306
 2745SOL    HW2 9135   0.692   5.888   0.184
 2746SOL     OW 9136   1.505   1.162   4.234
 2746SOL    HW1 9137   1.484   1.089   4.168
 2746SOL    HW2 9138   1.553   1.123   4.312
 2747SOL     OW 9139   4.406   4.691   0.176
 2747SOL    HW1 9140   4.443   4.760   0.114
 2747SOL    HW2 9141   4.468   4.679   0.253
 2748SOL     OW 9142   4.152   0.783   1.126
 2748SOL    HW1 9143   4.091   0.743   1.058
 2748SOL    HW2 9144   4.243   0.743   1.115
 2749SOL     OW 9145   3.589   1.198   0.602
 2749SOL    HW1 9146   3.491   1.177   0.597
 2749SOL    HW2 9147   3.614   1.260   0.527
 2750SOL     OW 9148   2.760   5.913   3.040
 2750SOL    HW1 9149   2.841   5.899   3.096
 2750SOL    HW2 9150   2.704   5.829   3.040
 2751SOL     OW 9151   6.082   5.128   1.182
 2751SOL    HW1 9152   5.983   5.119   1.196
 2751SOL    HW2 9153   6.102   5.140   1.085
 2752SOL     OW 9154   4.024   5.663   6.998
 2752SOL    HW1 9155   4.022   5.668   6.898
 2752SOL    HW2 9156   4.086   5.733   0.004
 2753SOL     OW 9157   5.746   5.326   5.472
 2753SOL    HW1 9158   5.717   5.250   5.530
 2753SOL    HW2 9159   5.726   5.305   5.377
 2754SOL     OW 9160   1.594   0.640   5.373
 2754SOL    HW1 9161   1.608   0.697   5.454
 2754SOL    HW2 9162   1.646   0.555   5.383
 2755SOL     OW 9163   3.188   0.109   2.218
 2755SOL    HW1 9164   3.228   0.199   2.233
 2755SOL    HW2 9165   3.259   0.045   2.189
 2756SOL     OW 9166   4.514   5.980   6.765
 2756SOL    HW1 9167   4.588   5.989   6.831
 2756SOL    HW2 9168   4.552   5.969   6.673
 2757SOL     OW 9169   0.674   5.233   0.966
 2757SOL    HW1 9170   0.755   5.207   0.914
 2757SOL    HW2 9171   0.593   5.230   0.907
 2758SOL     OW 9172   5.419   0.390   4.871
 2758SOL    HW1 9173   5.379   0.439   4.794
 2758SOL    HW2 9174   5.384   0.427   4.957
 2759SOL     OW 9175   4.743   5.170   4.063
 2759SOL    HW1 9176   4.751   5.102   4.137
 2759SOL    HW2 9177   4.653   5.213   4.067
 2760SOL     OW 9178   0.913   6.395   3.574
 2760SOL    HW1 9179   0.915   6.409   3.475
 2760SOL    HW2 9180   0.953   6.474   3.620
 2761SOL     OW 9181   2.550   5.219   4.493
 2761SOL    HW1 9182   2.618   5.228   4.566
 2761SOL    HW2 9183   2.464   5.186   4.531
 2762SOL     OW 9184   2.151   1.284   5.628
 2762SOL    HW1 9185   2.247   1.298   5.649
 2762SOL    HW2 9186   2.138   1.280   5.529
 2763SOL     OW 9187   5.475   0.569   2.390
 2763SOL    HW1 9188   5.376   0.576   2.380
 2763SOL    HW2 9189   5.508   0.644   2.448
 2764SOL     OW 9190   6.052   0.494   1.638
 2764SOL    HW1 9191   5.990   0.548   1.581
 2764SOL    HW2 9192   6.056   0.534   1.730
 2765SOL     OW 9193   5.268   2.136   3.352
 2765SOL    HW1 9194   5.321   2.078   3.291
 2765SOL    HW2 9195   5.180   2.158   3.309
 2766SOL     OW 9196   5.496   6.954   2.587
 2766SOL    HW1 9197   5.473   7.029   2.649
 2766SOL    HW2 9198   5.493   6.868   2.638
 2767SOL     OW 9199   6.415   4.286   5.876
 2767SOL    HW1 9200   6.488   4.345   5.909
 2767SOL    HW2 9201   6.434   4.191   5.901
 2768SOL     OW 9202   5.923   1.336   6.737
 2768SOL    HW1 9203   5.829   1.356   6.763
 2768SOL    HW2 9204   5.972   1.299   6.816
 2769SOL     OW 9205   0.750   4.563   1.066
 2769SOL    HW1 9206   0.807   4.554   1.148
 2769SOL    HW2 9207   0.707   4.653   1.065
 2770SOL     OW 9208   5.686   6.079   2.227
 2770SOL    HW1 9209   5.747   6.125   2.162
 2770SOL    HW2 9210   5.675   6.136   2.308
 2771SOL     OW 9211   4.901   0.825   1.365
 2771SOL    HW1 9212   4.873   0.861   1.454
 2771SOL    HW2 9213   4.967   0.752   1.378
 2772SOL     OW 9214   3.980   1.788   6.764
 2772SOL    HW1 9215   4.018   1.736   6.688
 2772SOL    HW2 9216   3.882   1.773   6.770
 2773SOL     OW 9217   3.028   4.989   0.924
 2773SOL    HW1 9218   2.949   4.985   0.985
 2773SOL    HW2 9219   2.998   5.009   0.831
 2774SOL     OW 9220   5.426   3.138   1.859
 2774SOL    HW1 9221   5.478   3.181   1.784
 2774SOL    HW2 9222   5.489   3.087   1.918
 2775SOL     OW 9223   0.046   6.985   2.537
 2775SOL    HW1 9224   0.116   0.017   2.502
 2775SOL    HW2 9225   7.020   0.003   2.604
 2776SOL     OW 9226   2.705   6.500   6.838
 2776SOL    HW1 9227   2.623   6.444   6.846
 2776SOL    HW2 9228   2.742   6.519   6.929
 2777SOL     OW 9229   1.832   2.105   3.952
 2777SOL    HW1 9230   1.812   2.129   4.047
 2777SOL    HW2 9231   1.921   2.143   3.926
 2778SOL     OW 9232   2.646   2.355   5.070
 2778SOL    HW1 9233   2.722   2.291   5.069
 2778SOL    HW2 9234   2.565   2.309   5.108
 2779SOL     OW 9235   6.491   1.390   1.287
 2779SOL    HW1 9236   6.506   1.446   1.368
 2779SOL    HW2 9237   6.573   1.392   1.230
 2780SOL     OW 9238   3.597   6.369   0.303
 2780SOL    HW1 9239   3.670   6.309   0.336
 2780SOL    HW2 9240   3.513   6.316   0.289
 2781SOL     OW 9241   4.709   3.932   6.477
 2781SOL    HW1 9242   4.623   3.973   6.447
 2781SOL    HW2 9243   4.761   3.998   6.531
 2782SOL     OW 9244   3.515   1.462   5.711
 2782SOL    HW1 9245   3.604   1.506   5.717
 2782SOL    HW2 9246   3.516   1.378   5.766
 2783SOL     OW 9247   0.418   3.842   5.800
 2783SOL    HW1 9248   0.474   3.778   5.852
 2783SOL    HW2 9249   0.361   3.895   5.863
 2784SOL     OW 9250   2.544   2.576   1.885
 2784SOL    HW1 9251   2.463   2.539   1.839
 2784SOL    HW2 9252   2.538   2.555   1.983
 2785SOL     OW 9253   6.120   1.240   1.956
 2785SOL    HW1 9254   6.160   1.263   2.044
 2785SOL    HW2 9255   6.060   1.160   1.966
 2786SOL     OW 9256   3.546   0.689   0.519
 2786SOL    HW1 9257   3.481   0.616   0.539
 2786SOL    HW2 9258   3.629   0.650   0.478
 2787SOL     OW 9259   2.132   3.815   6.428
 2787SOL    HW1 9260   2.162   3.807   6.332
 2787SOL    HW2 9261   2.089   3.730   6.456
 2788SOL     OW 9262   0.099   3.636   6.934
 2788SOL    HW1 9263   0.081   3.541   6.956
 2788SOL    HW2 9264   0.090   3.692   7.016
 2789SOL     OW 9265   0.602   2.713   4.360
 2789SOL    HW1 9266   0.522   2.699   4.302
 2789SOL    HW2 9267   0.619   2.811   4.371
 2790SOL     OW 9268   3.345   6.153   4.313
 2790SOL    HW1 9269   3.295   6.088   4.255
 2790SOL    HW2 9270   3.384   6.225   4.255
 2791SOL     OW 9271   1.957   3.799   2.860
 2791SOL    HW1 9272   1.922   3.873   2.802
 2791SOL    HW2 9273   1.899   3.790   2.940
 2792SOL     OW 9274   0.965   2.643   5.208
 2792SOL    HW1 9275   1.000   2.604   5.123
 2792SOL    HW2 9276   1.038   2.648   5.276
 2793SOL     OW 9277   4.528   0.567   4.140
 2793SOL    HW1 9278   4.564   0.513   4.064
 2793SOL    HW2 9279   4.573   0.538   4.225
 2794SOL     OW 9280   1.188   1.513   1.523
 2794SOL    HW1 9281   1.110   1.454   1.545
 2794SOL    HW2 9282   1.238   1.534   1.607
 2795SOL     OW 9283   1.076   3.979   1.420
 2795SOL    HW1 9284   0.998   3.918   1.430
 2795SOL    HW2 9285   1.106   4.010   1.510
 2796SOL     OW 9286   5.118   4.124   2.472
 2796SOL    HW1 9287   5.146   4.181   2.394
 2796SOL    HW2 9288   5.058   4.176   2.532
 2797SOL     OW 9289   4.617   4.258   5.064
 2797SOL    HW1 9290   4.639   4.355   5.052
 2797SOL    HW2 9291   4.535   4.248   5.119
 2798SOL     OW 9292   1.844   3.948   3.430
 2798SOL    HW1 9293   1.842   4.025   3.494
 2798SOL    HW2 9294   1.788   3.873   3.466
 2799SOL     OW 9295   6.637   5.944   5.972
 2799SOL    HW1 9296   6.581   5.994   6.037
 2799SOL    HW2 9297   6.667   5.858   6.013
 2800SOL     OW 9298   2.899   1.655   6.467
 2800SOL    HW1 9299   2.889   1.751   6.444
 2800SOL    HW2 9300   2.819   1.625   6.520
 2801SOL     OW 9301   4.051   5.809   2.280
 2801SOL    HW1 9302   3.994   5.870   2.225
 2801SOL    HW2 9303   4.026   5.714   2.260
 2802SOL     OW 9304   6.069   0.448   6.406
 2802SOL    HW1 9305   5.981   0.403   6.395
 2802SOL    HW2 9306   6.091   0.501   6.325
 2803SOL     OW 9307   2.074   6.079   5.626
 2803SOL    HW1 9308   2.161   6.070   5.578
 2803SOL    HW2 9309   2.027   6.162   5.595
 2804SOL     OW 9310   0.226   4.596   2.179
 2804SOL    HW1 9311   0.277   4.614   2.095
 2804SOL    HW2 9312   0.146   4.541   2.158
 2805SOL     OW 9313   5.812   3.892   6.766
 2805SOL    HW1 9314   5.718   3.914   6.740
 2805SOL    HW2 9315   5.815   3.869   6.863
 2806SOL     OW 9316   6.666   5.425   2.620
 2806SOL    HW1 9317   6.571   5.445   2.598
 2806SOL    HW2 9318   6.688   5.331   2.593
 2807SOL     OW 9319   3.785   5.163   3.929
 2807SOL    HW1 9320   3.780   5.091   3.860
 2807SOL    HW2 9321   3.770   5.122   4.020
 2808SOL     OW 9322   4.407   6.091   4.199
 2808SOL    HW1 9323   4.323   6.084   4.146
 2808SOL    HW2 9324   4.459   6.170   4.168
 2809SOL     OW 9325   5.658   2.857   0.177
 2809SOL    HW1 9326   5.650   2.758   0.191
 2809SOL    HW2 9327   5.734   2.892   0.230
 2810SOL     OW 9328   1.660   0.991   6.256
 2810SOL    HW1 9329   1.572   1.038   6.255
 2810SOL    HW2 9330   1.719   1.032   6.325
 2811SOL     OW 9331   6.998   0.769   3.823
 2811SOL    HW1 9332   6.922   0.829   3.799
 2811SOL    HW2 9333   7.012   0.702   3.750
 2812SOL     OW 9334   4.563   4.340   2.709
 2812SOL    HW1 9335   4.597   4.330   2.615
 2812SOL    HW2 9336   4.475   4.386   2.707
 2813SOL     OW 9337   6.050   1.979   6.437
 2813SOL    HW1 9338   6.139   2.018   6.417
 2813SOL    HW2 9339   6.059   1.880   6.452
 2814SOL     OW 9340   5.602   4.375   4.666
 2814SOL    HW1 9341   5.596   4.452   4.729
 2814SOL    HW2 9342   5.519   4.371   4.610
 2815SOL     OW 9343   0.310   1.028   4.406
 2815SOL    HW1 9344   0.230   1.083   4.428
 2815SOL    HW2 9345   0.281   0.935   4.382
 2816SOL     OW 9346   5.285   6.191   2.707
 2816SOL    HW1 9347   5.340   6.180   2.790
 2816SOL    HW2 9348   5.267   6.101   2.666
 2817SOL     OW 9349   1.291   1.192   1.479
 2817SOL    HW1 9350   1.317   1.282   1.443
 2817SOL    HW2 9351   1.344   1.173   1.562
 2818SOL     OW 9352   0.955   3.109   6.854
 2818SOL    HW1 9353   0.905   3.194   6.836
 2818SOL    HW2 9354   0.924   3.038   6.791
 2819SOL     OW 9355   6.509   3.316   1.065
 2819SOL    HW1 9356   6.514   3.238   1.003
 2819SOL    HW2 9357   6.464   3.288   1.150
 2820SOL     OW 9358   5.153   2.474   4.101
 2820SOL    HW1 9359   5.136   2.537   4.177
 2820SOL    HW2 9360   5.227   2.411   4.125
 2821SOL     OW 9361   1.794   3.261   3.569
 2821SOL    HW1 9362   1.780   3.249   3.667
 2821SOL    HW2 9363   1.705   3.276   3.524
 2822SOL     OW 9364   3.163   1.900   0.789
 2822SOL    HW1 9365   3.168   1.811   0.744
 2822SOL    HW2 9366   3.067   1.925   0.802
 2823SOL     OW 9367   1.850   6.923   4.110
 2823SOL    HW1 9368   1.949   6.936   4.119
 2823SOL    HW2 9369   1.806   7.012   4.095
 2824SOL     OW 9370   3.227   2.199   5.685
 2824SOL    HW1 9371   3.288   2.127   5.654
 2824SOL    HW2 9372   3.216   2.267   5.612
 2825SOL     OW 9373   6.267   6.501   1.303
 2825SOL    HW1 9374   6.282   6.567   1.377
 2825SOL    HW2 9375   6.334   6.427   1.311
 2826SOL     OW 9376   4.909   3.337   4.366
 2826SOL    HW1 9377   4.859   3.266   4.317
 2826SOL    HW2 9378   5.007   3.317   4.362
 2827SOL     OW 9379   6.660   0.290   6.598
 2827SOL    HW1 9380   6.622   0.330   6.514
 2827SOL    HW2 9381   6.586   0.250   6.652
 2828SOL     OW 9382   4.011   2.035   6.911
 2828SOL    HW1 9383   4.011   2.106   6.841
 2828SOL    HW2 9384   4.008   1.945   6.868
 2829SOL     OW 9385   3.214   0.470   7.007
 2829SOL    HW1 9386   3.155   0.547   7.029
 2829SOL    HW2 9387   3.208   0.402   0.050
 2830SOL     OW 9388   3.195   3.637   6.811
 2830SOL    HW1 9389   3.104   3.598   6.822
 2830SOL    HW2 9390   3.187   3.734   6.788
 2831SOL     OW 9391   6.874   6.287   4.060
 2831SOL    HW1 9392   6.910   6.318   3.972
 2831SOL    HW2 9393   6.807   6.354   4.093
 2832SOL     OW 9394   0.574   1.328   2.143
 2832SOL    HW1 9395   0.594   1.394   2.070
 2832SOL    HW2 9396   0.477   1.308   2.144
 2833SOL     OW 9397   6.814   3.395   2.806
 2833SOL    HW1 9398   6.721   3.361   2.802
 2833SOL    HW2 9399   6.878   3.319   2.815
 2834SOL     OW 9400   4.541   0.806   5.387
 2834SOL    HW1 9401   4.568   0.718   5.348
 2834SOL    HW2 9402   4.465   0.844   5.334
 2835SOL     OW 9403   6.879   6.174   3.366
 2835SOL    HW1 9404   6.948   6.245   3.369
 2835SOL    HW2 9405   6.806   6.195   3.431
 2836SOL     OW 9406   6.310   0.386   0.496
 2836SOL    HW1 9407   6.396   0.435   0.483
 2836SOL    HW2 9408   6.266   0.419   0.580
 2837SOL     OW 9409   6.321   3.253   3.485
 2837SOL    HW1 9410   6.250   3.193   3.523
 2837SOL    HW2 9411   6.396   3.198   3.448
 2838SOL     OW 9412   1.996   4.404   4.292
 2838SOL    HW1 9413   2.015   4.467   4.217
 2838SOL    HW2 9414   1.943   4.451   4.362
 2839SOL     OW 9415   4.621   2.837   0.738
 2839SOL    HW1 9416   4.654   2.915   0.791
 2839SOL    HW2 9417   4.552   2.867   0.672
 2840SOL     OW 9418   6.355   2.835   5.036
 2840SOL    HW1 9419   6.302   2.868   5.114
 2840SOL    HW2 9420   6.406   2.911   4.995
 2841SOL     OW 9421   0.273   6.482   0.572
 2841SOL    HW1 9422   0.267   6.524   0.662
 2841SOL    HW2 9423   0.276   6.553   0.501
 2842SOL     OW 9424   5.871   3.258   2.953
 2842SOL    HW1 9425   5.822   3.342   2.927
 2842SOL    HW2 9426   5.884   3.256   3.052
 2843SOL     OW 9427   4.146   1.398   4.049
 2843SOL    HW1 9428   4.218   1.329   4.050
 2843SOL    HW2 9429   4.164   1.464   3.976
 2844SOL     OW 9430   0.916   3.805   5.769
 2844SOL    HW1 9431   0.892   3.731   5.707
 2844SOL    HW2 9432   0.847   3.877   5.764
 2845SOL     OW 9433   7.023   4.227   6.014
 2845SOL    HW1 9434   7.025   4.306   6.076
 2845SOL    HW2 9435   0.073   4.230   5.954
 2846SOL     OW 9436   5.268   1.160   6.034
 2846SOL    HW1 9437   5.189   1.130   6.088
 2846SOL    HW2 9438   5.342   1.187   6.097
 2847SOL     OW 9439   4.597   4.672   4.159
 2847SOL    HW1 9440   4.690   4.668   4.194
 2847SOL    HW2 9441   4.578   4.590   4.105
 2848SOL     OW 9442   2.243   6.616   5.526
 2848SOL    HW1 9443   2.322   6.655   5.575
 2848SOL    HW2 9444   2.252   6.517   5.521
 2849SOL     OW 9445   1.989   2.939   1.771
 2849SOL    HW1 9446   2.014   2.985   1.686
 2849SOL    HW2 9447   2.058   2.959   1.841
 2850SOL     OW 9448   3.831   1.418   0.672
 2850SOL    HW1 9449   3.864   1.503   0.632
 2850SOL    HW2 9450   3.732   1.421   0.680
 2851SOL     OW 9451   2.422   5.333   6.143
 2851SOL    HW1 9452   2.402   5.249   6.194
 2851SOL    HW2 9453   2.428   5.311   6.045
 2852SOL     OW 9454   0.301   2.785   6.383
 2852SOL    HW1 9455   0.293   2.776   6.284
 2852SOL    HW2 9456   0.269   2.701   6.427
 2853SOL     OW 9457   3.673   2.616   1.426
 2853SOL    HW1 9458   3.643   2.557   1.501
 2853SOL    HW2 9459   3.763   2.587   1.394
 2854SOL     OW 9460   0.631   1.124   3.397
 2854SOL    HW1 9461   0.634   1.204   3.457
 2854SOL    HW2 9462   0.723   1.103   3.363
 2855SOL     OW 9463   3.470   1.696   4.679
 2855SOL    HW1 9464   3.380   1.669   4.713
 2855SOL    HW2 9465   3.498   1.634   4.606
 2856SOL     OW 9466   2.133   1.901   5.532
 2856SOL    HW1 9467   2.102   1.810   5.560
 2856SOL    HW2 9468   2.218   1.923   5.579
 2857SOL     OW 9469   3.616   3.390   3.563
 2857SOL    HW1 9470   3.650   3.484   3.565
 2857SOL    HW2 9471   3.688   3.329   3.530
 2858SOL     OW 9472   5.723   2.408   3.204
 2858SOL    HW1 9473   5.709   2.312   3.230
 2858SOL    HW2 9474   5.654   2.465   3.248
 2859SOL     OW 9475   5.541   6.343   0.335
 2859SOL    HW1 9476   5.480   6.409   0.381
 2859SOL    HW2 9477   5.546   6.367   0.238
 2860SOL     OW 9478   4.396   2.318   1.183
 2860SOL    HW1 9479   4.388   2.392   1.116
 2860SOL    HW2 9480   4.315   2.260   1.179
 2861SOL     OW 9481   4.067   5.544   6.173
 2861SOL    HW1 9482   4.023   5.505   6.092
 2861SOL    HW2 9483   4.166   5.531   6.166
 2862SOL     OW 9484   6.341   6.644   3.744
 2862SOL    HW1 9485   6.272   6.642   3.816
 2862SOL    HW2 9486   6.415   6.580   3.767
 2863SOL     OW 9487   6.749   1.040   7.018
 2863SOL    HW1 9488   6.698   1.122   0.015
 2863SOL    HW2 9489   6.713   0.961   0.036
 2864SOL     OW 9490   3.462   1.827   0.180
 2864SOL    HW1 9491   3.412   1.753   0.225
 2864SOL    HW2 9492   3.559   1.805   0.178
 2865SOL     OW 9493   4.794   5.111   5.276
 2865SOL    HW1 9494   4.810   5.155   5.188
 2865SOL    HW2 9495   4.756   5.020   5.261
 2866SOL     OW 9496   0.106   6.883   6.457
 2866SOL    HW1 9497   0.180   6.949   6.472
 2866SOL    HW2 9498   0.049   6.878   6.539
 2867SOL     OW 9499   6.826   4.763   3.458
 2867SOL    HW1 9500   6.751   4.698   3.467
 2867SOL    HW2 9501   6.791   4.856   3.462
 2868SOL     OW 9502   1.795   5.207   4.708
 2868SOL    HW1 9503   1.731   5.185   4.634
 2868SOL    HW2 9504   1.864   5.135   4.714
 2869SOL     OW 9505   6.150   1.154   2.274
 2869SOL    HW1 9506   6.125   1.135   2.369
 2869SOL    HW2 9507   6.249   1.142   2.263
 2870SOL     OW 9508   4.556   2.207   2.477
 2870SOL    HW1 9509   4.508   2.126   2.511
 2870SOL    HW2 9510   4.491   2.266   2.428
 2871SOL     OW 9511   1.308   1.513   5.850
 2871SOL    HW1 9512   1.230   1.452   5.836
 2871SOL    HW2 9513   1.277   1.597   5.895
 2872SOL     OW 9514   1.786   6.535   3.860
 2872SOL    HW1 9515   1.803   6.631   3.834
 2872SOL    HW2 9516   1.797   6.525   3.958
 2873SOL     OW 9517   6.820   5.899   1.910
 2873SOL    HW1 9518   6.882   5.957   1.963
 2873SOL    HW2 9519   6.873   5.843   1.847
 2874SOL     OW 9520   5.486   1.705   2.453
 2874SOL    HW1 9521   5.539   1.623   2.430
 2874SOL    HW2 9522   5.390   1.680   2.463
 2875SOL     OW 9523   2.704   4.939   1.342
 2875SOL    HW1 9524   2.714   5.012   1.409
 2875SOL    HW2 9525   2.718   4.850   1.386
 2876SOL     OW 9526   7.003   2.268   1.723
 2876SOL    HW1 9527   6.952   2.259   1.638
 2876SOL    HW2 9528   6.990   2.360   1.760
 2877SOL     OW 9529   2.066   3.955   5.714
 2877SOL    HW1 9530   2.158   3.966   5.677
 2877SOL    HW2 9531   2.028   4.045   5.734
 2878SOL     OW 9532   3.383   4.930   0.279
 2878SOL    HW1 9533   3.424   4.982   0.353
 2878SOL    HW2 9534   3.438   4.849   0.260
 2879SOL     OW 9535   4.491   4.405   0.209
 2879SOL    HW1 9536   4.454   4.329   0.155
 2879SOL    HW2 9537   4.435   4.416   0.292
 2880SOL     OW 9538   1.664   6.820   2.353
 2880SOL    HW1 9539   1.593   6.887   2.328
 2880SOL    HW2 9540   1.754   6.863   2.349
 2881SOL     OW 9541   0.204   0.231   6.520
 2881SOL    HW1 9542   0.107   0.258   6.522
 2881SOL    HW2 9543   0.257   0.293   6.578
 2882SOL     OW 9544   0.089   3.182   3.391
 2882SOL    HW1 9545   0.046   3.221   3.310
 2882SOL    HW2 9546   0.044   3.096   3.415
 2883SOL     OW 9547   4.426   6.098   2.223
 2883SOL    HW1 9548   4.448   6.051   2.137
 2883SOL    HW2 9549   4.394   6.191   2.203
 2884SOL     OW 9550   1.721   5.740   2.885
 2884SOL    HW1 9551   1.768   5.669   2.938
 2884SOL    HW2 9552   1.665   5.698   2.814
 2885SOL     OW 9553   1.087   2.199   4.147
 2885SOL    HW1 9554   1.136   2.252   4.216
 2885SOL    HW2 9555   0.996   2.239   4.133
 2886SOL     OW 9556   2.923   2.865   6.329
 2886SOL    HW1 9557   3.001   2.876   6.391
 2886SOL    HW2 9558   2.852   2.811   6.375
 2887SOL     OW 9559   2.726   1.539   4.887
 2887SOL    HW1 9560   2.680   1.530   4.798
 2887SOL    HW2 9561   2.822   1.514   4.876
 2888SOL     OW 9562   6.884   5.296   0.213
 2888SOL    HW1 9563   6.930   5.208   0.222
 2888SOL    HW2 9564   6.805   5.286   0.153
 2889SOL     OW 9565   0.509   6.954   1.145
 2889SOL    HW1 9566   0.473   6.864   1.120
 2889SOL    HW2 9567   0.558   6.993   1.066
 2890SOL     OW 9568   3.032   0.505   0.540
 2890SOL    HW1 9569   3.059   0.410   0.524
 2890SOL    HW2 9570   2.939   0.507   0.577
 2891SOL     OW 9571   3.148   4.889   4.774
 2891SOL    HW1 9572   3.108   4.881   4.683
 2891SOL    HW2 9573   3.077   4.913   4.840
 2892SOL     OW 9574   4.402   4.240   5.329
 2892SOL    HW1 9575   4.340   4.288   5.267
 2892SOL    HW2 9576   4.385   4.142   5.324
 2893SOL     OW 9577   3.517   1.239   5.845
 2893SOL    HW1 9578   3.571   1.168   5.890
 2893SOL    HW2 9579   3.425   1.204   5.827
 2894SOL     OW 9580   3.529   2.733   1.129
 2894SOL    HW1 9581   3.481   2.812   1.166
 2894SOL    HW2 9582   3.600   2.703   1.193
 2895SOL     OW 9583   3.085   3.024   0.269
 2895SOL    HW1 9584   3.026   3.049   0.192
 2895SOL    HW2 9585   3.174   2.995   0.235
 2896SOL     OW 9586   2.201   4.773   0.602
 2896SOL    HW1 9587   2.124   4.785   0.539
 2896SOL    HW2 9588   2.170   4.789   0.696
 2897SOL     OW 9589   1.540   0.031   3.575
 2897SOL    HW1 9590   1.627   0.078   3.588
 2897SOL    HW2 9591   1.549   6.993   3.502
 2898SOL     OW 9592   2.522   4.657   2.834
 2898SOL    HW1 9593   2.513   4.621   2.742
 2898SOL    HW2 9594   2.431   4.673   2.873
 2899SOL     OW 9595   6.004   1.217   0.755
 2899SOL    HW1 9596   6.057   1.290   0.798
 2899SOL    HW2 9597   5.907   1.240   0.757
 2900SOL     OW 9598   3.333   5.697   6.615
 2900SOL    HW1 9599   3.383   5.619   6.578
 2900SOL    HW2 9600   3.373   5.782   6.582
 2901SOL     OW 9601   2.514   0.088   1.125
 2901SOL    HW1 9602   2.539   7.021   1.134
 2901SOL    HW2 9603   2.596   0.142   1.106
 2902SOL     OW 9604   5.109   5.498   0.874
 2902SOL    HW1 9605   5.200   5.518   0.838
 2902SOL    HW2 9606   5.063   5.433   0.813
 2903SOL     OW 9607   2.725   2.391   1.726
 2903SOL    HW1 9608   2.678   2.473   1.759
 2903SOL    HW2 9609   2.811   2.380   1.775
 2904SOL     OW 9610   2.552   2.505   4.274
 2904SOL    HW1 9611   2.565   2.471   4.368
 2904SOL    HW2 9612   2.510   2.595   4.277
 2905SOL     OW 9613   1.521   2.256   2.019
 2905SOL    HW1 9614   1.481   2.279   1.931
 2905SOL    HW2 9615   1.452   2.212   2.077
 2906SOL     OW 9616   5.317   5.484   2.220
 2906SOL    HW1 9617   5.231   5.500   2.171
 2906SOL    HW2 9618   5.381   5.558   2.201
 2907SOL     OW 9619   6.173   0.595   4.529
 2907SOL    HW1 9620   6.249   0.531   4.541
 2907SOL    HW2 9621   6.090   0.557   4.570
 2908SOL     OW 9622   3.813   6.282   5.225
 2908SOL    HW1 9623   3.776   6.238   5.143
 2908SOL    HW2 9624   3.879   6.220   5.268
 2909SOL     OW 9625   1.921   5.897   5.400
 2909SOL    HW1 9626   1.930   5.848   5.486
 2909SOL    HW2 9627   1.826   5.927   5.389
 2910SOL     OW 9628   4.833   6.521   5.273
 2910SOL    HW1 9629   4.890   6.580   5.218
 2910SOL    HW2 9630   4.758   6.574   5.313
 2911SOL     OW 9631   2.417   4.352   3.705
 2911SOL    HW1 9632   2.470   4.424   3.660
 2911SOL    HW2 9633   2.378   4.291   3.636
 2912SOL     OW 9634   2.396   5.433   0.851
 2912SOL    HW1 9635   2.408   5.350   0.797
 2912SOL    HW2 9636   2.476   5.492   0.839
 2913SOL     OW 9637   0.919   3.656   2.315
 2913SOL    HW1 9638   0.886   3.735   2.263
 2913SOL    HW2 9639   0.858   3.638   2.392
 2914SOL     OW 9640   5.358   5.007   5.927
 2914SOL    HW1 9641   5.270   5.037   5.964
 2914SOL    HW2 9642   5.353   5.006   5.827
 2915SOL     OW 9643   4.438   1.720   4.096
 2915SOL    HW1 9644   4.490   1.767   4.025
 2915SOL    HW2 9645   4.497   1.706   4.176
 2916SOL     OW 9646   4.563   6.633   4.373
 2916SOL    HW1 9647   4.476   6.649   4.419
 2916SOL    HW2 9648   4.637   6.672   4.427
 2917SOL     OW 9649   4.396   0.632   1.905
 2917SOL    HW1 9650   4.420   0.664   1.997
 2917SOL    HW2 9651   4.296   0.627   1.897
 2918SOL     OW 9652   0.652   3.385   4.282
 2918SOL    HW1 9653   0.703   3.299   4.284
 2918SOL    HW2 9654   0.557   3.367   4.255
 2919SOL     OW 9655   6.329   6.216   0.702
 2919SOL    HW1 9656   6.381   6.301   0.706
 2919SOL    HW2 9657   6.375   6.145   0.755
 2920SOL     OW 9658   4.551   2.273   2.769
 2920SOL    HW1 9659   4.565   2.364   2.809
 2920SOL    HW2 9660   4.614   2.261   2.692
 2921SOL     OW 9661   6.900   0.565   1.371
 2921SOL    HW1 9662   6.901   0.466   1.359
 2921SOL    HW2 9663   6.849   0.588   1.453
 2922SOL     OW 9664   4.480   6.220   5.182
 2922SOL    HW1 9665   4.461   6.311   5.220
 2922SOL    HW2 9666   4.577   6.213   5.160
 2923SOL     OW 9667   0.106   4.058   0.036
 2923SOL    HW1 9668   0.010   4.035   0.053
 2923SOL    HW2 9669   0.112   4.124   6.991
 2924SOL     OW 9670   6.387   0.010   5.951
 2924SOL    HW1 9671   6.439   6.983   5.887
 2924SOL    HW2 9672   6.294   0.023   5.916
 2925SOL     OW 9673   5.686   3.351   1.313
 2925SOL    HW1 9674   5.701   3.253   1.327
 2925SOL    HW2 9675   5.689   3.371   1.215
 2926SOL     OW 9676   0.272   1.349   3.848
 2926SOL    HW1 9677   0.230   1.439   3.856
 2926SOL    HW2 9678   0.224   1.295   3.779
 2927SOL     OW 9679   0.906   3.281   2.409
 2927SOL    HW1 9680   0.815   3.255   2.441
 2927SOL    HW2 9681   0.930   3.226   2.329
 2928SOL     OW 9682   5.525   6.269   0.881
 2928SOL    HW1 9683   5.540   6.171   0.885
 2928SOL    HW2 9684   5.585   6.315   0.947
 2929SOL     OW 9685   0.794   0.194   6.116
 2929SOL    HW1 9686   0.737   0.205   6.034
 2929SOL    HW2 9687   0.737   0.196   6.197
 2930SOL     OW 9688   3.098   6.444   4.312
 2930SOL    HW1 9689   3.014   6.480   4.271
 2930SOL    HW2 9690   3.167   6.433   4.241
 2931SOL     OW 9691   3.787   4.882   6.553
 2931SOL    HW1 9692   3.793   4.980   6.532
 2931SOL    HW2 9693   3.691   4.856   6.564
 2932SOL     OW 9694   1.400   4.859   2.316
 2932SOL    HW1 9695   1.493   4.840   2.283
 2932SOL    HW2 9696   1.374   4.952   2.293
 2933SOL     OW 9697   4.956   2.481   3.667
 2933SOL    HW1 9698   4.922   2.476   3.573
 2933SOL    HW2 9699   5.007   2.565   3.680
 2934SOL     OW 9700   2.018   0.948   0.657
 2934SOL    HW1 9701   2.089   0.923   0.722
 2934SOL    HW2 9702   2.020   1.047   0.641
 2935SOL     OW 9703   6.677   1.600   1.388
 2935SOL    HW1 9704   6.646   1.563   1.476
 2935SOL    HW2 9705   6.651   1.696   1.382
 2936SOL     OW 9706   3.354   5.696   0.611
 2936SOL    HW1 9707   3.392   5.755   0.682
 2936SOL    HW2 9708   3.305   5.752   0.543
 2937SOL     OW 9709   2.831   4.703   0.201
 2937SOL    HW1 9710   2.773   4.690   0.282
 2937SOL    HW2 9711   2.854   4.800   0.192
 2938SOL     OW 9712   5.324   4.962   5.642
 2938SOL    HW1 9713   5.387   5.012   5.582
 2938SOL    HW2 9714   5.237   4.948   5.594
 2939SOL     OW 9715   0.381   6.562   6.139
 2939SOL    HW1 9716   0.477   6.590   6.149
 2939SOL    HW2 9717   0.377   6.471   6.098
 2940SOL     OW 9718   3.934   6.834   5.314
 2940SOL    HW1 9719   4.029   6.854   5.291
 2940SOL    HW2 9720   3.876   6.909   5.283
 2941SOL     OW 9721   3.470   1.629   5.483
 2941SOL    HW1 9722   3.551   1.587   5.445
 2941SOL    HW2 9723   3.448   1.587   5.572
 2942SOL     OW 9724   3.953   6.328   4.097
 2942SOL    HW1 9725   3.975   6.284   4.010
 2942SOL    HW2 9726   3.963   6.427   4.086
 2943SOL     OW 9727   5.332   4.476   2.474
 2943SOL    HW1 9728   5.405   4.416   2.441
 2943SOL    HW2 9729   5.244   4.441   2.443
 2944SOL     OW 9730   4.345   6.260   7.010
 2944SOL    HW1 9731   4.315   6.334   0.040
 2944SOL    HW2 9732   4.278   6.247   6.937
 2945SOL     OW 9733   3.172   3.982   3.470
 2945SOL    HW1 9734   3.232   4.062   3.471
 2945SOL    HW2 9735   3.131   3.970   3.561
 2946SOL     OW 9736   0.409   6.072   6.174
 2946SOL    HW1 9737   0.495   6.039   6.134
 2946SOL    HW2 9738   0.374   6.147   6.118
 2947SOL     OW 9739   0.293   5.398   0.286
 2947SOL    HW1 9740   0.286   5.314   0.340
 2947SOL    HW2 9741   0.207   5.450   0.293
 2948SOL     OW 9742   5.916   4.164   5.394
 2948SOL    HW1 9743   5.906   4.181   5.492
 2948SOL    HW2 9744   5.850   4.095   5.365
 2949SOL     OW 9745   0.928   6.438   0.666
 2949SOL    HW1 9746   0.869   6.396   0.735
 2949SOL    HW2 9747   0.904   6.535   0.656
 2950SOL     OW 9748   4.895   3.619   4.765
 2950SOL    HW1 9749   4.966   3.685   4.787
 2950SOL    HW2 9750   4.821   3.625   4.832
 2951SOL     OW 9751   6.043   0.621   0.997
 2951SOL    HW1 9752   6.087   0.711   0.989
 2951SOL    HW2 9753   5.944   0.633   1.006
 2952SOL     OW 9754   0.872   3.759   1.922
 2952SOL    HW1 9755   0.878   3.808   2.009
 2952SOL    HW2 9756   0.962   3.755   1.880
 2953SOL     OW 9757   5.573   1.440   2.464
 2953SOL    HW1 9758   5.600   1.384   2.386
 2953SOL    HW2 9759   5.488   1.405   2.503
 2954SOL     OW 9760   5.983   6.621   1.568
 2954SOL    HW1 9761   5.901   6.638   1.514
 2954SOL    HW2 9762   6.012   6.706   1.613
 2955SOL     OW 9763   6.478   2.600   0.381
 2955SOL    HW1 9764   6.500   2.679   0.439
 2955SOL    HW2 9765   6.499   2.516   0.431
 2956SOL     OW 9766   6.638   5.474   3.209
 2956SOL    HW1 9767   6.586   5.505   3.129
 2956SOL    HW2 9768   6.597   5.511   3.292
 2957SOL     OW 9769   1.099   5.206   1.593
 2957SOL    HW1 9770   1.045   5.211   1.510
 2957SOL    HW2 9771   1.041   5.226   1.672
 2958SOL     OW 9772   3.105   5.424   6.614
 2958SOL    HW1 9773   3.098   5.491   6.540
 2958SOL    HW2 9774   3.154   5.465   6.691
 2959SOL     OW 9775   3.894   5.584   0.256
 2959SOL    HW1 9776   3.946   5.653   0.307
 2959SOL    HW2 9777   3.917   5.590   0.159
 2960SOL     OW 9778   2.743   1.518   0.164
 2960SOL    HW1 9779   2.690   1.439   0.194
 2960SOL    HW2 9780   2.802   1.491   0.088
 2961SOL     OW 9781   6.112   1.722   4.306
 2961SOL    HW1 9782   6.115   1.676   4.217
 2961SOL    HW2 9783   6.176   1.798   4.306
 2962SOL     OW 9784   4.063   0.510   2.455
 2962SOL    HW1 9785   4.025   0.588   2.504
 2962SOL    HW2 9786   3.997   0.435   2.455
 2963SOL     OW 9787   2.031   3.610   5.001
 2963SOL    HW1 9788   2.066   3.677   5.066
 2963SOL    HW2 9789   2.107   3.568   4.952
 2964SOL     OW 9790   3.023   6.092   0.173
 2964SOL    HW1 9791   2.938   6.040   0.180
 2964SOL    HW2 9792   3.065   6.076   0.084
 2965SOL     OW 9793   0.231   2.372   5.896
 2965SOL    HW1 9794   0.151   2.394   5.841
 2965SOL    HW2 9795   0.313   2.377   5.839
 2966SOL     OW 9796   4.711   4.767   3.365
 2966SOL    HW1 9797   4.632   4.817   3.329
 2966SOL    HW2 9798   4.727   4.793   3.460
 2967SOL     OW 9799   5.730   2.354   3.707
 2967SOL    HW1 9800   5.683   2.267   3.693
 2967SOL    HW2 9801   5.788   2.373   3.628
 2968SOL     OW 9802   6.436   3.684   3.465
 2968SOL    HW1 9803   6.410   3.751   3.535
 2968SOL    HW2 9804   6.534   3.690   3.447
 2969SOL     OW 9805   4.002   1.214   4.471
 2969SOL    HW1 9806   4.061   1.271   4.414
 2969SOL    HW2 9807   3.944   1.272   4.528
 2970SOL     OW 9808   1.235   4.378   6.200
 2970SOL    HW1 9809   1.180   4.325   6.136
 2970SOL    HW2 9810   1.209   4.356   6.294
 2971SOL     OW 9811   5.357   3.347   2.729
 2971SOL    HW1 9812   5.315   3.257   2.713
 2971SOL    HW2 9813   5.290   3.408   2.770
 2972SOL     OW 9814   1.087   4.353   5.610
 2972SOL    HW1 9815   1.124   4.419   5.544
 2972SOL    HW2 9816   1.142   4.269   5.607
 2973SOL     OW 9817   5.835   6.894   4.509
 2973SOL    HW1 9818   5.857   6.897   4.411
 2973SOL    HW2 9819   5.789   6.808   4.530
 2974SOL     OW 9820   6.848   4.184   1.994
 2974SOL    HW1 9821   6.910   4.166   1.917
 2974SOL    HW2 9822   6.769   4.122   1.988
 2975SOL     OW 9823   0.347   1.490   4.136
 2975SOL    HW1 9824   0.399   1.576   4.135
 2975SOL    HW2 9825   0.250   1.511   4.149
 2976SOL     OW 9826   2.218   6.203   1.596
 2976SOL    HW1 9827   2.283   6.250   1.656
 2976SOL    HW2 9828   2.250   6.208   1.502
 2977SOL     OW 9829   3.293   6.401   4.124
 2977SOL    HW1 9830   3.388   6.399   4.156
 2977SOL    HW2 9831   3.288   6.453   4.039
 2978SOL     OW 9832   3.878   0.250   6.470
 2978SOL    HW1 9833   3.876   0.350   6.468
 2978SOL    HW2 9834   3.823   0.217   6.547
 2979SOL     OW 9835   3.599   1.193   3.175
 2979SOL    HW1 9836   3.662   1.120   3.148
 2979SOL    HW2 9837   3.556   1.231   3.093
 2980SOL     OW 9838   6.880   6.022   4.034
 2980SOL    HW1 9839   6.876   6.122   4.030
 2980SOL    HW2 9840   6.975   5.991   4.035
 2981SOL     OW 9841   1.789   1.639   5.927
 2981SOL    HW1 9842   1.843   1.556   5.910
 2981SOL    HW2 9843   1.692   1.615   5.927
 2982SOL     OW 9844   4.907   6.431   2.105
 2982SOL    HW1 9845   4.984   6.492   2.123
 2982SOL    HW2 9846   4.891   6.374   2.186
 2983SOL     OW 9847   6.450   0.175   3.001
 2983SOL    HW1 9848   6.512   0.143   3.072
 2983SOL    HW2 9849   6.503   0.211   2.924
 2984SOL     OW 9850   5.707   4.433   1.425
 2984SOL    HW1 9851   5.776   4.441   1.497
 2984SOL    HW2 9852   5.631   4.376   1.458
 2985SOL     OW 9853   6.921   2.030   3.143
 2985SOL    HW1 9854   6.891   2.078   3.225
 2985SOL    HW2 9855   6.845   1.977   3.105
 2986SOL     OW 9856   2.132   3.789   5.186
 2986SOL    HW1 9857   2.204   3.792   5.255
 2986SOL    HW2 9858   2.114   3.881   5.151
 2987SOL     OW 9859   4.733   1.652   4.904
 2987SOL    HW1 9860   4.787   1.569   4.918
 2987SOL    HW2 9861   4.720   1.699   4.991
 2988SOL     OW 9862   0.866   6.428   2.143
 2988SOL    HW1 9863   0.895   6.521   2.117
 2988SOL    HW2 9864   0.931   6.362   2.106
 2989SOL     OW 9865   6.286   5.725   0.653
 2989SOL    HW1 9866   6.257   5.818   0.630
 2989SOL    HW2 9867   6.386   5.723   0.661
 2990SOL     OW 9868   3.087   1.311   1.405
 2990SOL    HW1 9869   2.998   1.342   1.439
 2990SOL    HW2 9870   3.106   1.354   1.317
 2991SOL     OW 9871   6.036   4.650   0.292
 2991SOL    HW1 9872   5.995   4.663   0.202
 2991SOL    HW2 9873   6.073   4.557   0.299
 2992SOL     OW 9874   4.428   4.565   6.941
 2992SOL    HW1 9875   4.421   4.632   7.014
 2992SOL    HW2 9876   4.338   4.552   6.898
 2993SOL     OW 9877   1.554   4.744   0.546
 2993SOL    HW1 9878   1.620   4.676   0.516
 2993SOL    HW2 9879   1.581   4.834   0.510
 2994SOL     OW 9880   3.966   6.264   0.136
 2994SOL    HW1 9881   3.884   6.322   0.127
 2994SOL    HW2 9882   3.981   6.214   0.050
 2995SOL     OW 9883   2.594   0.969   5.577
 2995SOL    HW1 9884   2.508   0.966   5.629
 2995SOL    HW2 9885   2.576   1.008   5.487
 2996SOL     OW 9886   4.421   5.847   5.571
 2996SOL    HW1 9887   4.325   5.874   5.583
 2996SOL    HW2 9888   4.457   5.890   5.488
 2997SOL     OW 9889   4.406   6.075   0.425
 2997SOL    HW1 9890   4.342   6.064   0.348
 2997SOL    HW2 9891   4.425   6.172   0.438
 2998SOL     OW 9892   6.118   5.250   5.377
 2998SOL    HW1 9893   6.060   5.168   5.369
 2998SOL    HW2 9894   6.201   5.236   5.324
 2999SOL     OW 9895   2.690   0.475   2.090
 2999SOL    HW1 9896   2.786   0.449   2.081
 2999SOL    HW2 9897   2.632   0.400   2.058
 3000SOL     OW 9898   1.182   1.889   4.520
 3000SOL    HW1 9899   1.244   1.874   4.597
 3000SOL    HW2 9900   1.214   1.967   4.467
 3001SOL     OW 9901   4.981   6.757   5.446
 3001SOL    HW1 9902   4.982   6.789   5.351
 3001SOL    HW2 9903   5.018   6.664   5.451
 3002SOL     OW 9904   3.104   0.629   5.733
 3002SOL    HW1 9905   3.017   0.653   5.691
 3002SOL    HW2 9906   3.092   0.617   5.831
 3003SOL     OW 9907   2.157   0.140   6.080
 3003SOL    HW1 9908   2.178   0.194   6.162
 3003SOL    HW2 9909   2.136   0.046   6.107
 3004SOL     OW 9910   6.706   3.081   5.342
 3004SOL    HW1 9911   6.689   3.151   5.411
 3004SOL    HW2 9912   6.755   3.121   5.265
 3005SOL     OW 9913   4.610   2.639   1.172
 3005SOL    HW1 9914   4.698   2.661   1.131
 3005SOL    HW2 9915   4.623   2.609   1.266
 3006SOL     OW 9916   4.596   0.377   0.898
 3006SOL    HW1 9917   4.626   0.462   0.942
 3006SOL    HW2 9918   4.651   0.301   0.932
 3007SOL     OW 9919   6.335   5.291   1.818
 3007SOL    HW1 9920   6.424   5.281   1.773
 3007SOL    HW2 9921   6.345   5.273   1.915
 3008SOL     OW 9922   5.094   6.036   5.462
 3008SOL    HW1 9923   5.080   5.947   5.417
 3008SOL    HW2 9924   5.191   6.047   5.484
 3009SOL     OW 9925   1.672   0.765   2.538
 3009SOL    HW1 9926   1.739   0.768   2.612
 3009SOL    HW2 9927   1.596   0.705   2.565
 3010SOL     OW 9928   2.861   6.563   2.807
 3010SOL    HW1 9929   2.842   6.466   2.822
 3010SOL    HW2 9930   2.872   6.580   2.709
 3011SOL     OW 9931   5.674   0.543   0.036
 3011SOL    HW1 9932   5.681   0.612   0.108
 3011SOL    HW2 9933   5.735   0.467   0.057
 3012SOL     OW 9934   6.886   4.729   1.403
 3012SOL    HW1 9935   6.846   4.666   1.338
 3012SOL    HW2 9936   6.985   4.737   1.385
 3013SOL     OW 9937   6.224   3.777   1.985
 3013SOL    HW1 9938   6.196   3.853   1.926
 3013SOL    HW2 9939   6.177   3.694   1.957
 3014SOL     OW 9940   5.099   0.168   5.312
 3014SOL    HW1 9941   5.095   0.126   5.221
 3014SOL    HW2 9942   5.009   0.160   5.356
 3015SOL     OW 9943   2.848   1.398   7.005
 3015SOL    HW1 9944   2.930   1.341   7.013
 3015SOL    HW2 9945   2.824   1.407   6.908
 3016SOL     OW 9946   3.930   6.109   3.450
 3016SOL    HW1 9947   3.837   6.090   3.419
 3016SOL    HW2 9948   3.978   6.162   3.380
 3017SOL     OW 9949   0.095   5.908   1.280
 3017SOL    HW1 9950   7.025   5.904   1.295
 3017SOL    HW2 9951   0.126   6.002   1.286
 3018SOL     OW 9952   4.189   0.143   6.188
 3018SOL    HW1 9953   4.211   0.237   6.164
 3018SOL    HW2 9954   4.177   0.136   6.287
 3019SOL     OW 9955   5.402   6.607   2.014
 3019SOL    HW1 9956   5.311   6.617   1.973
 3019SOL    HW2 9957   5.439   6.517   1.989
 3020SOL     OW 9958   2.374   0.993   1.705
 3020SOL    HW1 9959   2.280   0.966   1.683
 3020SOL    HW2 9960   2.427   0.912   1.731
 3021SOL     OW 9961   4.130   0.689   5.863
 3021SOL    HW1 9962   4.048   0.743   5.880
 3021SOL    HW2 9963   4.205   0.749   5.835
 3022SOL     OW 9964   6.379   0.130   2.426
 3022SOL    HW1 9965   6.297   0.082   2.393
 3022SOL    HW2 9966   6.445   0.064   2.460
 3023SOL     OW 9967   5.788   0.171   1.613
 3023SOL    HW1 9968   5.705   0.158   1.667
 3023SOL    HW2 9969   5.868   0.145   1.667
 3024SOL     OW 9970   3.252   0.151   6.322
 3024SOL    HW1 9971   3.219   0.175   6.230
 3024SOL    HW2 9972   3.181   0.100   6.370
 3025SOL     OW 9973   1.956   2.614   2.013
 3025SOL    HW1 9974   1.961   2.615   1.914
 3025SOL    HW2 9975   2.047   2.630   2.052
 3026SOL     OW 9976   2.653   5.668   0.307
 3026SOL    HW1 9977   2.561   5.629   0.294
 3026SOL    HW2 9978   2.711   5.640   0.231
 3027SOL     OW 9979   1.659   1.448   3.758
 3027SOL    HW1 9980   1.741   1.429   3.704
 3027SOL    HW2 9981   1.683   1.452   3.855
 3028SOL     OW 9982   1.210   0.744   4.567
 3028SOL    HW1 9983   1.145   0.701   4.505
 3028SOL    HW2 9984   1.205   0.699   4.656
 3029SOL     OW 9985   5.368   5.399   6.381
 3029SOL    HW1 9986   5.396   5.495   6.380
 3029SOL    HW2 9987   5.449   5.340   6.386
 3030SOL     OW 9988   0.995   1.534   5.715
 3030SOL    HW1 9989   1.015   1.609   5.778
 3030SOL    HW2 9990   1.014   1.447   5.760
 3031SOL     OW 9991   0.333   5.285   6.475
 3031SOL    HW1 9992   0.259   5.345   6.444
 3031SOL    HW2 9993   0.352   5.217   6.404
 3032SOL     OW 9994   3.776   7.004   5.889
 3032SOL    HW1 9995   3.792   0.027   5.973
 3032SOL    HW2 9996   3.684   7.025   5.855
 3033SOL     OW 9997   5.619   4.930   5.805
 3033SOL    HW1 9998   5.564   4.932   5.888
 3033SOL    HW2 9999   5.593   4.850   5.750
 3034SOL     OW10000   2.765   6.567   4.258
 3034SOL    HW110001   2.762   6.651   4.313
 3034SOL    HW210002   2.793   6.591   4.164
 3035SOL     OW10003   6.601   6.912   6.720
 3035SOL    HW110004   6.591   6.858   6.803
 3035SOL    HW210005   6.583   7.008   6.739
 3036SOL     OW10006   0.795   5.050   5.718
 3036SOL    HW110007   0.793   4.980   5.788
 3036SOL    HW210008   0.835   5.134   5.755
 3037SOL     OW10009   6.157   0.063   5.848
 3037SOL    HW110010   6.121   0.130   5.783
 3037SOL    HW210011   6.112   7.004   5.834
 3038SOL     OW10012   6.055   6.285   5.793
 3038SOL    HW110013   6.144   6.328   5.800
 3038SOL    HW210014   6.050   6.208   5.857
 3039SOL     OW10015   6.951   4.854   0.379
 3039SOL    HW110016   6.894   4.776   0.353
 3039SOL    HW210017   6.948   4.923   0.306
 3040SOL     OW10018   2.578   1.652   7.011
 3040SOL    HW110019   2.636   1.643   0.062
 3040SOL    HW210020   2.538   1.563   6.989
 3041SOL     OW10021   1.517   2.487   6.035
 3041SOL    HW110022   1.581   2.564   6.030
 3041SOL    HW210023   1.538   2.432   6.116
 3042SOL     OW10024   5.767   6.849   1.761
 3042SOL    HW110025   5.815   6.937   1.769
 3042SOL    HW210026   5.793   6.805   1.675
 3043SOL     OW10027   6.298   5.022   6.581
 3043SOL    HW110028   6.240   5.000   6.502
 3043SOL    HW210029   6.371   5.084   6.552
 3044SOL     OW10030   2.469   3.361   5.788
 3044SOL    HW110031   2.538   3.413   5.838
 3044SOL    HW210032   2.389   3.419   5.772
 3045SOL     OW10033   5.014   1.922   4.138
 3045SOL    HW110034   4.961   1.872   4.206
 3045SOL    HW210035   5.014   2.019   4.160
 3046SOL     OW10036   1.916   2.159   6.167
 3046SOL    HW110037   1.856   2.238   6.153
 3046SOL    HW210038   2.011   2.187   6.153
 3047SOL     OW10039   0.145   4.774   1.459
 3047SOL    HW110040   0.218   4.707   1.446
 3047SOL    HW210041   0.164   4.855   1.403
 3048SOL     OW10042   2.916   2.691   1.690
 3048SOL    HW110043   2.938   2.602   1.729
 3048SOL    HW210044   2.817   2.704   1.692
 3049SOL     OW10045   1.039   0.257   1.543
 3049SOL    HW110046   0.944   0.250   1.513
 3049SOL    HW210047   1.092   0.309   1.476
 3050SOL     OW10048   1.997   0.301   4.184
 3050SOL    HW110049   1.989   0.396   4.155
 3050SOL    HW210050   2.018   0.243   4.105
 3051SOL     OW10051   2.744   4.310   5.700
 3051SOL    HW110052   2.725   4.407   5.684
 3051SOL    HW210053   2.736   4.291   5.798
 3052SOL     OW10054   4.878   6.744   2.710
 3052SOL    HW110055   4.909   6.755   2.616
 3052SOL    HW210056   4.779   6.727   2.711
 3053SOL     OW10057   4.951   0.149   1.808
 3053SOL    HW110058   4.993   0.210   1.740
 3053SOL    HW210059   5.022   0.109   1.866
 3054SOL     OW10060   1.954   4.242   5.565
 3054SOL    HW110061   2.052   4.249   5.582
 3054SOL    HW210062   1.935   4.161   5.510
 3055SOL     OW10063   5.777   6.493   2.943
 3055SOL    HW110064   5.685   6.456   2.933
 3055SOL    HW210065   5.840   6.439   2.888
 3056SOL     OW10066   6.114   0.627   1.908
 3056SOL    HW110067   6.196   0.665   1.866
 3056SOL    HW210068   6.102   0.667   1.999
 3057SOL     OW10069   6.620   6.105   2.701
 3057SOL    HW110070   6.559   6.095   2.778
 3057SOL    HW210071   6.620   6.201   2.671
 3058SOL     OW10072   6.369   5.301   1.408
 3058SOL    HW110073   6.294   5.367   1.409
 3058SOL    HW210074   6.340   5.217   1.362
 3059SOL     OW10075   1.843   2.941   5.339
 3059SOL    HW110076   1.901   2.964   5.261
 3059SOL    HW210077   1.781   3.017   5.358
 3060SOL     OW10078   0.367   6.442   0.217
 3060SOL    HW110079   0.342   6.517   0.277
 3060SOL    HW210080   0.283   6.399   0.181
 3061SOL     OW10081   0.593   0.546   5.698
 3061SOL    HW110082   0.627   0.638   5.678
 3061SOL    HW210083   0.620   0.520   5.791
 3062SOL     OW10084   3.152   5.699   6.030
 3062SOL    HW110085   3.211   5.727   5.954
 3062SOL    HW210086   3.200   5.630   6.085
 3063SOL     OW10087   2.362   5.687   0.626
 3063SOL    HW110088   2.432   5.631   0.671
 3063SOL    HW210089   2.345   5.769   0.681
 3064SOL     OW10090   7.024   4.790   3.673
 3064SOL    HW110091   6.951   4.782   3.604
 3064SOL    HW210092   0.083   4.781   3.629
 3065SOL     OW10093   2.930   0.997   1.254
 3065SOL    HW110094   3.003   0.976   1.189
 3065SOL    HW210095   2.843   1.005   1.206
 3066SOL     OW10096   5.632   6.072   0.580
 3066SOL    HW110097   5.714   6.118   0.544
 3066SOL    HW210098   5.553   6.096   0.522
 3067SOL     OW10099   4.212   6.728   3.046
 3067SOL    HW110100   4.225   6.791   2.969
 3067SOL    HW210101   4.195   6.636   3.011
 3068SOL     OW10102   5.770   4.543   0.434
 3068SOL    HW110103   5.707   4.518   0.361
 3068SOL    HW210104   5.849   4.483   0.432
 3069SOL     OW10105   0.861   5.216   3.902
 3069SOL    HW110106   0.791   5.183   3.965
 3069SOL    HW210107   0.840   5.184   3.809
 3070SOL     OW10108   3.796   1.707   4.578
 3070SOL    HW110109   3.714   1.663   4.543
 3070SOL    HW210110   3.877   1.663   4.539
 3071SOL     OW10111   5.514   0.063   4.015
 3071SOL    HW110112   5.496   0.043   4.111
 3071SOL    HW210113   5.435   0.108   3.974
 3072SOL     OW10114   0.687   0.345   1.720
 3072SOL    HW110115   0.702   0.286   1.799
 3072SOL    HW210116   0.593   0.378   1.721
 3073SOL     OW10117   1.655   2.422   4.619
 3073SOL    HW110118   1.615   2.349   4.675
 3073SOL    HW210119   1.701   2.487   4.678
 3074SOL     OW10120   4.667   3.685   6.028
 3074SOL    HW110121   4.737   3.643   6.087
 3074SOL    HW210122   4.659   3.782   6.050
 3075SOL     OW10123   6.941   6.147   0.678
 3075SOL    HW110124   6.970   6.099   0.596
 3075SOL    HW210125   6.993   6.114   0.757
 3076SOL     OW10126   0.589   0.837   4.996
 3076SOL    HW110127   0.589   0.766   5.067
 3076SOL    HW210128   0.680   0.879   4.991
 3077SOL     OW10129   5.173   4.283   3.890
 3077SOL    HW110130   5.185   4.239   3.979
 3077SOL    HW210131   5.076   4.303   3.875
 3078SOL     OW10132   2.096   2.853   0.081
 3078SOL    HW110133   2.172   2.917   0.082
 3078SOL    HW210134   2.125   2.766   0.040
 3079SOL     OW10135   5.809   2.417   6.530
 3079SOL    HW110136   5.804   2.398   6.628
 3079SOL    HW210137   5.729   2.378   6.484
 3080SOL     OW10138   6.496   6.681   1.592
 3080SOL    HW110139   6.582   6.630   1.593
 3080SOL    HW210140   6.475   6.708   1.498
 3081SOL     OW10141   0.299   4.400   6.278
 3081SOL    HW110142   0.388   4.360   6.300
 3081SOL    HW210143   0.251   4.423   6.363
 3082SOL     OW10144   2.376   6.796   2.261
 3082SOL    HW110145   2.294   6.747   2.233
 3082SOL    HW210146   2.415   6.843   2.182
 3083SOL     OW10147   3.238   0.457   1.961
 3083SOL    HW110148   3.305   0.407   1.906
 3083SOL    HW210149   3.285   0.516   2.027
 3084SOL     OW10150   4.637   6.461   3.720
 3084SOL    HW110151   4.579   6.481   3.641
 3084SOL    HW210152   4.715   6.406   3.690
 3085SOL     OW10153   1.148   5.400   2.072
 3085SOL    HW110154   1.183   5.466   2.005
 3085SOL    HW210155   1.073   5.442   2.122
 3086SOL     OW10156   6.070   1.570   4.063
 3086SOL    HW110157   6.046   1.577   3.966
 3086SOL    HW210158   5.994   1.528   4.113
 3087SOL     OW10159   5.703   3.599   1.924
 3087SOL    HW110160   5.677   3.515   1.974
 3087SOL    HW210161   5.689   3.678   1.983
 3088SOL     OW10162   2.891   3.704   6.562
 3088SOL    HW110163   2.939   3.663   6.484
 3088SOL    HW210164   2.908   3.650   6.644
 3089SOL     OW10165   3.055   2.235   1.027
 3089SOL    HW110166   2.981   2.284   1.072
 3089SOL    HW210167   3.101   2.295   0.962
 3090SOL     OW10168   7.004   2.115   0.813
 3090SOL    HW110169   6.935   2.113   0.740
 3090SOL    HW210170   0.050   2.054   0.789
 3091SOL     OW10171   2.535   6.775   0.357
 3091SOL    HW110172   2.596   6.749   0.431
 3091SOL    HW210173   2.479   6.853   0.385
 3092SOL     OW10174   3.981   5.954   0.495
 3092SOL    HW110175   3.992   6.053   0.510
 3092SOL    HW210176   3.935   5.914   0.574
 3093SOL     OW10177   4.864   6.310   3.636
 3093SOL    HW110178   4.928   6.382   3.609
 3093SOL    HW210179   4.915   6.236   3.681
 3094SOL     OW10180   3.011   5.452   5.760
 3094SOL    HW110181   2.970   5.383   5.819
 3094SOL    HW210182   3.072   5.511   5.813
 3095SOL     OW10183   1.868   5.200   4.981
 3095SOL    HW110184   1.966   5.181   4.974
 3095SOL    HW210185   1.828   5.203   4.890
 3096SOL     OW10186   0.297   0.557   5.577
 3096SOL    HW110187   0.382   0.527   5.620
 3096SOL    HW210188   0.299   0.655   5.562
 3097SOL     OW10189   1.667   1.981   0.152
 3097SOL    HW110190   1.590   2.039   0.126
 3097SOL    HW210191   1.678   1.907   0.086
 3098SOL     OW10192   3.969   2.054   0.414
 3098SOL    HW110193   3.889   1.997   0.390
 3098SOL    HW210194   3.939   2.134   0.464
 3099SOL     OW10195   1.242   5.991   5.224
 3099SOL    HW110196   1.237   6.002   5.125
 3099SOL    HW210197   1.259   6.079   5.267
 3100SOL     OW10198   5.971   6.332   6.391
 3100SOL    HW110199   6.054   6.367   6.348
 3100SOL    HW210200   5.994   6.287   6.477
 3101SOL     OW10201   4.198   0.187   1.000
 3101SOL    HW110202   4.103   0.161   0.987
 3101SOL    HW210203   4.211   0.222   1.093
 3102SOL     OW10204   1.125   5.958   0.541
 3102SOL    HW110205   1.157   5.882   0.485
 3102SOL    HW210206   1.040   5.993   0.503
 3103SOL     OW10207   4.227   3.949   1.812
 3103SOL    HW110208   4.283   4.030   1.825
 3103SOL    HW210209   4.177   3.928   1.895
 3104SOL     OW10210   6.234   5.782   3.791
 3104SOL    HW110211   6.269   5.784   3.884
 3104SOL    HW210212   6.146   5.735   3.788
 3105SOL     OW10213   5.865   5.324   3.645
 3105SOL    HW110214   5.927   5.308   3.568
 3105SOL    HW210215   5.904   5.395   3.704
 3106SOL     OW10216   6.947   3.265   4.647
 3106SOL    HW110217   6.950   3.168   4.671
 3106SOL    HW210218   0.009   3.303   4.650
 3107SOL     OW10219   2.844   6.626   3.990
 3107SOL    HW110220   2.793   6.710   3.974
 3107SOL    HW210221   2.942   6.644   3.984
 3108SOL     OW10222   3.264   0.835   3.093
 3108SOL    HW110223   3.177   0.817   3.047
 3108SOL    HW210224   3.291   0.930   3.077
 3109SOL     OW10225   4.628   5.610   3.025
 3109SOL    HW110226   4.699   5.662   3.072
 3109SOL    HW210227   4.540   5.628   3.068
 3110SOL     OW10228   1.312   2.921   1.917
 3110SOL    HW110229   1.375   2.914   1.995
 3110SOL    HW210230   1.364   2.927   1.832
 3111SOL     OW10231   6.861   4.966   2.614
 3111SOL    HW110232   6.949   4.918   2.610
 3111SOL    HW210233   6.829   4.969   2.708
 3112SOL     OW10234   2.573   3.968   6.351
 3112SOL    HW110235   2.542   3.924   6.267
 3112SOL    HW210236   2.539   4.062   6.354
 3113SOL     OW10237   4.345   6.382   4.326
 3113SOL    HW110238   4.268   6.336   4.370
 3113SOL    HW210239   4.321   6.404   4.232
 3114SOL     OW10240   5.560   5.990   0.948
 3114SOL    HW110241   5.527   5.934   0.872
 3114SOL    HW210242   5.653   6.020   0.930
 3115SOL     OW10243   2.550   3.358   1.690
 3115SOL    HW110244   2.628   3.313   1.733
 3115SOL    HW210245   2.475   3.365   1.755
 3116SOL     OW10246   0.238   1.600   0.046
 3116SOL    HW110247   0.177   1.671   0.010
 3116SOL    HW210248   0.191   1.512   0.044
 3117SOL     OW10249   3.894   3.790   5.529
 3117SOL    HW110250   3.849   3.813   5.443
 3117SOL    HW210251   3.904   3.872   5.585
 3118SOL     OW10252   5.883   5.612   6.686
 3118SOL    HW110253   5.868   5.674   6.609
 3118SOL    HW210254   5.957   5.648   6.744
 3119SOL     OW10255   2.230   4.623   6.570
 3119SOL    HW110256   2.251   4.548   6.507
 3119SOL    HW210257   2.315   4.672   6.593
 3120SOL     OW10258   2.496   5.523   6.322
 3120SOL    HW110259   2.482   5.454   6.251
 3120SOL    HW210260   2.410   5.572   6.339
 3121SOL     OW10261   0.522   6.136   3.141
 3121SOL    HW110262   0.472   6.205   3.195
 3121SOL    HW210263   0.534   6.053   3.196
 3122SOL     OW10264   2.911   5.912   0.806
 3122SOL    HW110265   3.004   5.945   0.789
 3122SOL    HW210266   2.888   5.925   0.902
 3123SOL     OW10267   3.719   6.581   4.358
 3123SOL    HW110268   3.749   6.675   4.340
 3123SOL    HW210269   3.797   6.525   4.385
 3124SOL     OW10270   3.958   0.489   6.129
 3124SOL    HW110271   4.050   0.523   6.109
 3124SOL    HW210272   3.953   0.391   6.107
 3125SOL     OW10273   0.102   1.848   5.677
 3125SOL    HW110274   0.183   1.905   5.665
 3125SOL    HW210275   0.050   1.881   5.756
 3126SOL     OW10276   3.741   6.425   0.063
 3126SOL    HW110277   3.657   6.408   0.115
 3126SOL    HW210278   3.759   6.524   0.060
 3127SOL     OW10279   1.619   1.011   3.843
 3127SOL    HW110280   1.710   1.044   3.821
 3127SOL    HW210281   1.574   0.977   3.761
 3128SOL     OW10282   1.848   0.988   0.898
 3128SOL    HW110283   1.893   0.921   0.957
 3128SOL    HW210284   1.890   0.986   0.807
 3129SOL     OW10285   1.896   3.004   3.494
 3129SOL    HW110286   1.857   3.089   3.528
 3129SOL    HW210287   1.977   3.025   3.438
 3130SOL     OW10288   1.914   5.760   3.452
 3130SOL    HW110289   1.838   5.815   3.416
 3130SOL    HW210290   1.933   5.788   3.547
 3131SOL     OW10291   0.572   3.596   4.458
 3131SOL    HW110292   0.585   3.507   4.414
 3131SOL    HW210293   0.578   3.669   4.389
 3132SOL     OW10294   5.496   5.152   5.069
 3132SOL    HW110295   5.580   5.104   5.095
 3132SOL    HW210296   5.489   5.237   5.122
 3133SOL     OW10297   2.516   1.957   3.171
 3133SOL    HW110298   2.551   1.920   3.257
 3133SOL    HW210299   2.417   1.966   3.176
 3134SOL     OW10300   5.651   2.883   1.737
 3134SOL    HW110301   5.569   2.826   1.733
 3134SOL    HW210302   5.654   2.942   1.656
 3135SOL     OW10303   2.641   1.899   3.406
 3135SOL    HW110304   2.680   1.815   3.445
 3135SOL    HW210305   2.582   1.942   3.474
 3136SOL     OW10306   6.865   0.062   4.843
 3136SOL    HW110307   6.887   0.144   4.895
 3136SOL    HW210308   6.851   7.015   4.905
 3137SOL     OW10309   0.209   1.397   4.773
 3137SOL    HW110310   0.255   1.407   4.861
 3137SOL    HW210311   0.118   1.439   4.778
 3138SOL     OW10312   5.419   1.589   4.832
 3138SOL    HW110313   5.509   1.554   4.858
 3138SOL    HW210314   5.362   1.513   4.800
 3139SOL     OW10315   5.015   5.844   4.962
 3139SOL    HW110316   5.103   5.797   4.971
 3139SOL    HW210317   4.941   5.776   4.960
 3140SOL     OW10318   5.970   5.937   6.526
 3140SOL    HW110319   5.928   5.949   6.616
 3140SOL    HW210320   5.952   5.844   6.493
 3141SOL     OW10321   0.791   5.767   0.974
 3141SOL    HW110322   0.800   5.764   0.875
 3141SOL    HW210323   0.811   5.677   1.013
 3142SOL     OW10324   3.736   6.969   0.124
 3142SOL    HW110325   3.651   6.933   0.085
 3142SOL    HW210326   3.737   0.039   0.113
 3143SOL     OW10327   0.308   1.495   0.981
 3143SOL    HW110328   0.297   1.400   0.951
 3143SOL    HW210329   0.287   1.503   1.078
 3144SOL     OW10330   1.743   2.944   6.736
 3144SOL    HW110331   1.831   2.908   6.768
 3144SOL    HW210332   1.670   2.881   6.761
 3145SOL     OW10333   2.910   5.428   3.875
 3145SOL    HW110334   2.855   5.505   3.906
 3145SOL    HW210335   2.854   5.368   3.817
 3146SOL     OW10336   2.628   7.019   3.786
 3146SOL    HW110337   2.618   0.087   3.769
 3146SOL    HW210338   2.567   6.968   3.727
 3147SOL     OW10339   4.081   4.487   0.590
 3147SOL    HW110340   4.132   4.513   0.508
 3147SOL    HW210341   4.072   4.566   0.651
 3148SOL     OW10342   3.669   5.362   5.358
 3148SOL    HW110343   3.619   5.445   5.333
 3148SOL    HW210344   3.689   5.310   5.275
 3149SOL     OW10345   2.902   6.458   6.169
 3149SOL    HW110346   2.838   6.390   6.207
 3149SOL    HW210347   2.892   6.461   6.070
 3150SOL     OW10348   0.130   6.976   4.003
 3150SOL    HW110349   0.130   6.948   4.099
 3150SOL    HW210350   0.223   6.970   3.968
 3151SOL     OW10351   4.154   6.900   0.875
 3151SOL    HW110352   4.076   6.954   0.909
 3151SOL    HW210353   4.169   6.920   0.778
 3152SOL     OW10354   1.567   4.727   6.199
 3152SOL    HW110355   1.575   4.827   6.200
 3152SOL    HW210356   1.474   4.701   6.173
 3153SOL     OW10357   0.022   4.376   3.173
 3153SOL    HW110358   7.015   4.386   3.080
 3153SOL    HW210359   6.980   4.339   3.232
 3154SOL     OW10360   5.601   2.227   6.493
 3154SOL    HW110361   5.674   2.159   6.497
 3154SOL    HW210362   5.553   2.220   6.406
 3155SOL     OW10363   4.199   6.206   0.247
 3155SOL    HW110364   4.245   6.146   0.182
 3155SOL    HW210365   4.101   6.209   0.227
 3156SOL     OW10366   3.344   3.134   2.969
 3156SOL    HW110367   3.285   3.113   3.047
 3156SOL    HW210368   3.302   3.206   2.914
 3157SOL     OW10369   2.029   2.860   4.998
 3157SOL    HW110370   2.061   2.895   4.910
 3157SOL    HW210371   2.090   2.891   5.071
 3158SOL     OW10372   4.642   6.399   1.478
 3158SOL    HW110373   4.613   6.304   1.470
 3158SOL    HW210374   4.590   6.455   1.414
 3159SOL     OW10375   5.351   4.752   0.511
 3159SOL    HW110376   5.418   4.799   0.454
 3159SOL    HW210377   5.398   4.690   0.574
 3160SOL     OW10378   5.836   4.795   0.510
 3160SOL    HW110379   5.827   4.701   0.476
 3160SOL    HW210380   5.896   4.847   0.448
 3161SOL     OW10381   0.948   1.511   3.047
 3161SOL    HW110382   0.988   1.545   3.132
 3161SOL    HW210383   0.884   1.579   3.011
 3162SOL     OW10384   6.800   6.973   6.062
 3162SOL    HW110385   6.828   6.980   5.966
 3162SOL    HW210386   6.755   0.028   6.089
 3163SOL     OW10387   2.307   4.627   5.848
 3163SOL    HW110388   2.300   4.608   5.750
 3163SOL    HW210389   2.285   4.723   5.865
 3164SOL     OW10390   6.249   5.471   6.112
 3164SOL    HW110391   6.256   5.446   6.015
 3164SOL    HW210392   6.203   5.398   6.161
 3165SOL     OW10393   0.321   2.550   1.746
 3165SOL    HW110394   0.334   2.463   1.794
 3165SOL    HW210395   0.246   2.542   1.682
 3166SOL     OW10396   4.515   2.834   6.272
 3166SOL    HW110397   4.569   2.750   6.273
 3166SOL    HW210398   4.566   2.906   6.320
 3167SOL     OW10399   0.341   4.397   1.845
 3167SOL    HW110400   0.269   4.425   1.781
 3167SOL    HW210401   0.397   4.326   1.802
 3168SOL     OW10402   5.825   3.000   0.975
 3168SOL    HW110403   5.916   3.040   0.974
 3168SOL    HW210404   5.820   2.929   1.045
 3169SOL     OW10405   2.132   2.237   5.062
 3169SOL    HW110406   2.179   2.299   5.124
 3169SOL    HW210407   2.035   2.234   5.084
 3170SOL     OW10408   3.994   0.300   5.469
 3170SOL    HW110409   3.977   0.316   5.372
 3170SOL    HW210410   3.923   0.344   5.523
 3171SOL     OW10411   6.372   6.537   3.127
 3171SOL    HW110412   6.383   6.546   3.226
 3171SOL    HW210413   6.395   6.624   3.083
 3172SOL     OW10414   5.873   0.179   5.462
 3172SOL    HW110415   5.818   0.182   5.546
 3172SOL    HW210416   5.812   0.177   5.383
 3173SOL     OW10417   2.473   1.218   1.584
 3173SOL    HW110418   2.436   1.139   1.634
 3173SOL    HW210419   2.481   1.296   1.645
 3174SOL     OW10420   2.159   3.115   6.860
 3174SOL    HW110421   2.101   3.177   6.914
 3174SOL    HW210422   2.248   3.157   6.845
 3175SOL     OW10423   6.940   6.088   0.175
 3175SOL    HW110424   6.882   6.168   0.161
 3175SOL    HW210425   6.927   6.023   0.100
 3176SOL     OW10426   1.115   5.572   6.867
 3176SOL    HW110427   1.158   5.515   6.797
 3176SOL    HW210428   1.076   5.514   6.938
 3177SOL     OW10429   1.217   7.027   4.238
 3177SOL    HW110430   1.135   6.970   4.239
 3177SOL    HW210431   1.209   0.068   4.308
 3178SOL     OW10432   2.781   3.173   6.895
 3178SOL    HW110433   2.796   3.231   6.975
 3178SOL    HW210434   2.734   3.226   6.824
 3179SOL     OW10435   1.122   2.498   4.104
 3179SOL    HW110436   1.162   2.483   4.194
 3179SOL    HW210437   1.022   2.494   4.111
 3180SOL     OW10438   6.103   1.098   6.209
 3180SOL    HW110439   6.172   1.131   6.274
 3180SOL    HW210440   6.056   1.019   6.249
 3181SOL     OW10441   0.742   1.698   2.533
 3181SOL    HW110442   0.792   1.760   2.472
 3181SOL    HW210443   0.710   1.619   2.482
 3182SOL     OW10444   1.567   4.603   5.467
 3182SOL    HW110445   1.646   4.573   5.521
 3182SOL    HW210446   1.535   4.691   5.501
 3183SOL     OW10447   4.552   2.924   1.266
 3183SOL    HW110448   4.567   2.825   1.268
 3183SOL    HW210449   4.628   2.968   1.217
 3184SOL     OW10450   0.839   2.056   3.401
 3184SOL    HW110451   0.802   2.107   3.479
 3184SOL    HW210452   0.938   2.065   3.399
 3185SOL     OW10453   0.622   6.670   6.960
 3185SOL    HW110454   0.608   6.615   6.878
 3185SOL    HW210455   0.719   6.693   6.968
 3186SOL     OW10456   3.415   0.726   1.572
 3186SOL    HW110457   3.498   0.741   1.518
 3186SOL    HW210458   3.363   0.811   1.578
 3187SOL     OW10459   2.757   4.255   0.133
 3187SOL    HW110460   2.672   4.204   0.122
 3187SOL    HW210461   2.774   4.271   0.230
 3188SOL     OW10462   4.110   0.137   3.002
 3188SOL    HW110463   4.128   0.200   3.077
 3188SOL    HW210464   4.194   0.091   2.975
 3189SOL     OW10465   6.451   6.615   2.582
 3189SOL    HW110466   6.394   6.611   2.501
 3189SOL    HW210467   6.518   6.689   2.573
 3190SOL     OW10468   0.880   6.888   1.521
 3190SOL    HW110469   0.862   6.816   1.454
 3190SOL    HW210470   0.819   6.878   1.599
 3191SOL     OW10471   3.609   1.087   0.247
 3191SOL    HW110472   3.536   1.019   0.262
 3191SOL    HW210473   3.689   1.041   0.207
 3192SOL     OW10474   5.583   2.155   3.578
 3192SOL    HW110475   5.539   2.069   3.603
 3192SOL    HW210476   5.517   2.230   3.586
 3193SOL     OW10477   5.019   4.615   1.082
 3193SOL    HW110478   5.030   4.697   1.138
 3193SOL    HW210479   5.065   4.538   1.126
 3194SOL     OW10480   2.164   5.328   5.226
 3194SOL    HW110481   2.182   5.419   5.188
 3194SOL    HW210482   2.247   5.292   5.269
 3195SOL     OW10483   0.384   4.383   3.506
 3195SOL    HW110484   0.366   4.360   3.411
 3195SOL    HW210485   0.307   4.354   3.563
 3196SOL     OW10486   0.218   6.718   5.955
 3196SOL    HW110487   0.282   6.683   6.024
 3196SOL    HW210488   0.189   6.810   5.980
 3197SOL     OW10489   0.497   4.437   4.880
 3197SOL    HW110490   0.432   4.420   4.954
 3197SOL    HW210491   0.450   4.478   4.802
 3198SOL     OW10492   5.723   6.806   0.209
 3198SOL    HW110493   5.804   6.757   0.240
 3198SOL    HW210494   5.641   6.761   0.244
 3199SOL     OW10495   3.697   1.712   3.209
 3199SOL    HW110496   3.699   1.750   3.116
 3199SOL    HW210497   3.601   1.699   3.237
 3200SOL     OW10498   6.821   2.071   0.592
 3200SOL    HW110499   6.731   2.096   0.558
 3200SOL    HW210500   6.832   1.972   0.590
 3201SOL     OW10501   4.474   4.922   3.266
 3201SOL    HW110502   4.476   4.900   3.168
 3201SOL    HW210503   4.410   4.861   3.312
 3202SOL     OW10504   1.168   5.668   1.614
 3202SOL    HW110505   1.096   5.735   1.631
 3202SOL    HW210506   1.131   5.594   1.557
 3203SOL     OW10507   4.697   0.131   0.966
 3203SOL    HW110508   4.756   0.091   0.896
 3203SOL    HW210509   4.637   0.060   1.002
 3204SOL     OW10510   6.275   6.273   2.166
 3204SOL    HW110511   6.288   6.259   2.068
 3204SOL    HW210512   6.185   6.240   2.193
 3205SOL     OW10513   0.868   3.838   4.099
 3205SOL    HW110514   0.834   3.915   4.153
 3205SOL    HW210515   0.842   3.752   4.143
 3206SOL     OW10516   1.744   6.785   0.377
 3206SOL    HW110517   1.775   6.878   0.399
 3206SOL    HW210518   1.705   6.743   0.459
 3207SOL     OW10519   1.293   1.637   2.872
 3207SOL    HW110520   1.382   1.681   2.883
 3207SOL    HW210521   1.227   1.680   2.933
 3208SOL     OW10522   6.407   0.485   4.600
 3208SOL    HW110523   6.491   0.527   4.635
 3208SOL    HW210524   6.429   0.398   4.556
 3209SOL     OW10525   1.786   0.395   3.199
 3209SOL    HW110526   1.779   0.321   3.133
 3209SOL    HW210527   1.697   0.438   3.210
 3210SOL     OW10528   0.363   5.121   2.294
 3210SOL    HW110529   0.289   5.142   2.231
 3210SOL    HW210530   0.448   5.160   2.260
 3211SOL     OW10531   0.321   4.241   3.005
 3211SOL    HW110532   0.231   4.203   2.984
 3211SOL    HW210533   0.391   4.174   2.983
 3212SOL     OW10534   5.037   2.931   5.530
 3212SOL    HW110535   5.034   3.030   5.516
 3212SOL    HW210536   4.943   2.895   5.529
 3213SOL     OW10537   5.493   6.873   1.604
 3213SOL    HW110538   5.582   6.888   1.647
 3213SOL    HW210539   5.424   6.859   1.675
 3214SOL     OW10540   4.291   4.279   6.798
 3214SOL    HW110541   4.194   4.255   6.803
 3214SOL    HW210542   4.304   4.347   6.725
 3215SOL     OW10543   6.014   1.223   0.480
 3215SOL    HW110544   6.103   1.229   0.436
 3215SOL    HW210545   6.026   1.197   0.576
 3216SOL     OW10546   5.504   6.404   4.889
 3216SOL    HW110547   5.486   6.335   4.819
 3216SOL    HW210548   5.478   6.368   4.978
 3217SOL     OW10549   6.530   4.317   0.211
 3217SOL    HW110550   6.465   4.268   0.154
 3217SOL    HW210551   6.568   4.394   0.159
 3218SOL     OW10552   3.797   1.794   1.763
 3218SOL    HW110553   3.697   1.790   1.758
 3218SOL    HW210554   3.830   1.877   1.719
 3219SOL     OW10555   0.192   0.352   3.502
 3219SOL    HW110556   0.114   0.306   3.459
 3219SOL    HW210557   0.276   0.327   3.455
 3220SOL     OW10558   6.406   3.499   6.292
 3220SOL    HW110559   6.323   3.488   6.346
 3220SOL    HW210560   6.482   3.451   6.338
 3221SOL     OW10561   3.706   0.925   1.879
 3221SOL    HW110562   3.687   0.919   1.977
 3221SOL    HW210563   3.639   0.984   1.835
 3222SOL     OW10564   6.375   4.114   1.783
 3222SOL    HW110565   6.287   4.067   1.784
 3222SOL    HW210566   6.394   4.150   1.874
 3223SOL     OW10567   2.408   4.359   3.973
 3223SOL    HW110568   2.427   4.322   3.882
 3223SOL    HW210569   2.343   4.435   3.965
 3224SOL     OW10570   3.085   6.282   1.199
 3224SOL    HW110571   3.160   6.338   1.233
 3224SOL    HW210572   3.067   6.208   1.264
 3225SOL     OW10573   2.114   2.721   0.948
 3225SOL    HW110574   2.110   2.623   0.928
 3225SOL    HW210575   2.101   2.735   1.046
 3226SOL     OW10576   6.713   0.893   3.717
 3226SOL    HW110577   6.776   0.855   3.649
 3226SOL    HW210578   6.649   0.955   3.673
 3227SOL     OW10579   1.738   2.247   5.603
 3227SOL    HW110580   1.798   2.325   5.620
 3227SOL    HW210581   1.680   2.231   5.683
 3228SOL     OW10582   5.080   3.593   5.055
 3228SOL    HW110583   4.980   3.600   5.050
 3228SOL    HW210584   5.120   3.623   4.968
 3229SOL     OW10585   4.561   1.644   5.174
 3229SOL    HW110586   4.608   1.731   5.162
 3229SOL    HW210587   4.467   1.660   5.204
 3230SOL     OW10588   1.399   0.103   3.833
 3230SOL    HW110589   1.449   0.048   3.900
 3230SOL    HW210590   1.437   0.088   3.742
 3231SOL     OW10591   4.693   4.696   0.606
 3231SOL    HW110592   4.704   4.680   0.704
 3231SOL    HW210593   4.782   4.693   0.561
 3232SOL     OW10594   1.193   4.043   3.037
 3232SOL    HW110595   1.141   4.116   3.081
 3232SOL    HW210596   1.252   4.083   2.966
 3233SOL     OW10597   1.917   4.151   1.110
 3233SOL    HW110598   1.927   4.055   1.137
 3233SOL    HW210599   1.993   4.176   1.049
 3234SOL     OW10600   6.739   1.950   4.859
 3234SOL    HW110601   6.755   1.991   4.769
 3234SOL    HW210602   6.691   2.016   4.917
 3235SOL     OW10603   5.764   0.736   2.419
 3235SOL    HW110604   5.822   0.805   2.464
 3235SOL    HW210605   5.684   0.781   2.379
 3236SOL     OW10606   0.119   2.475   1.570
 3236SOL    HW110607   0.130   2.462   1.471
 3236SOL    HW210608   0.089   2.390   1.612
 3237SOL     OW10609   3.060   6.045   5.053
 3237SOL    HW110610   3.017   6.013   4.969
 3237SOL    HW210611   3.054   5.974   5.124
 3238SOL     OW10612   6.577   6.350   6.457
 3238SOL    HW110613   6.664   6.334   6.503
 3238SOL    HW210614   6.581   6.311   6.364
 3239SOL     OW10615   1.304   6.224   5.382
 3239SOL    HW110616   1.232   6.284   5.347
 3239SOL    HW210617   1.275   6.182   5.468
 3240SOL     OW10618   0.441   2.318   4.412
 3240SOL    HW110619   0.462   2.256   4.488
 3240SOL    HW210620   0.413   2.406   4.448
 3241SOL     OW10621   4.070   6.809   4.975
 3241SOL    HW110622   3.990   6.861   4.945
 3241SOL    HW210623   4.060   6.713   4.948
 3242SOL     OW10624   3.368   0.490   0.544
 3242SOL    HW110625   3.295   0.497   0.611
 3242SOL    HW210626   3.334   0.518   0.454
 3243SOL     OW10627   3.649   5.216   1.613
 3243SOL    HW110628   3.652   5.257   1.704
 3243SOL    HW210629   3.596   5.131   1.617
 3244SOL     OW10630   0.900   6.689   5.904
 3244SOL    HW110631   0.836   6.750   5.858
 3244SOL    HW210632   0.857   6.600   5.919
 3245SOL     OW10633   3.398   2.174   5.883
 3245SOL    HW110634   3.449   2.256   5.909
 3245SOL    HW210635   3.337   2.195   5.807
 3246SOL     OW10636   5.326   6.148   3.257
 3246SOL    HW110637   5.419   6.128   3.290
 3246SOL    HW210638   5.293   6.070   3.203
 3247SOL     OW10639   6.401   3.241   5.628
 3247SOL    HW110640   6.372   3.154   5.667
 3247SOL    HW210641   6.334   3.312   5.651
 3248SOL     OW10642   4.756   4.110   2.735
 3248SOL    HW110643   4.706   4.188   2.773
 3248SOL    HW210644   4.776   4.045   2.808
 3249SOL     OW10645   3.423   4.790   5.563
 3249SOL    HW110646   3.444   4.728   5.487
 3249SOL    HW210647   3.381   4.738   5.638
 3250SOL     OW10648   4.491   5.018   1.148
 3250SOL    HW110649   4.494   4.977   1.057
 3250SOL    HW210650   4.489   4.946   1.217
 3251SOL     OW10651   3.460   0.692   3.694
 3251SOL    HW110652   3.548   0.712   3.652
 3251SOL    HW210653   3.447   0.752   3.773
 3252SOL     OW10654   4.068   2.192   3.328
 3252SOL    HW110655   3.999   2.179   3.399
 3252SOL    HW210656   4.125   2.110   3.322
 3253SOL     OW10657   4.992   4.371   1.248
 3253SOL    HW110658   4.958   4.359   1.342
 3253SOL    HW210659   4.916   4.360   1.184
 3254SOL     OW10660   6.586   4.311   2.774
 3254SOL    HW110661   6.625   4.219   2.777
 3254SOL    HW210662   6.644   4.370   2.717
 3255SOL     OW10663   3.714   5.077   0.759
 3255SOL    HW110664   3.770   5.134   0.698
 3255SOL    HW210665   3.635   5.130   0.790
 3256SOL     OW10666   6.553   6.992   5.331
 3256SOL    HW110667   6.597   6.998   5.241
 3256SOL    HW210668   6.594   0.030   5.393
 3257SOL     OW10669   2.676   0.997   1.125
 3257SOL    HW110670   2.664   1.016   1.027
 3257SOL    HW210671   2.588   1.004   1.171
 3258SOL     OW10672   5.180   6.479   1.146
 3258SOL    HW110673   5.123   6.447   1.070
 3258SOL    HW210674   5.121   6.519   1.217
 3259SOL     OW10675   5.377   5.591   3.485
 3259SOL    HW110676   5.290   5.640   3.484
 3259SOL    HW210677   5.379   5.525   3.410
 3260SOL     OW10678   2.141   1.721   1.463
 3260SOL    HW110679   2.192   1.785   1.406
 3260SOL    HW210680   2.127   1.636   1.413
 3261SOL     OW10681   4.966   6.605   4.066
 3261SOL    HW110682   4.931   6.514   4.093
 3261SOL    HW210683   4.899   6.650   4.007
 3262SOL     OW10684   4.260   1.844   3.778
 3262SOL    HW110685   4.224   1.756   3.810
 3262SOL    HW210686   4.359   1.846   3.790
 3263SOL     OW10687   3.091   4.910   3.266
 3263SOL    HW110688   3.009   4.858   3.241
 3263SOL    HW210689   3.106   4.903   3.365
 3264SOL     OW10690   5.564   5.192   6.296
 3264SOL    HW110691   5.572   5.128   6.220
 3264SOL    HW210692   5.629   5.167   6.368
 3265SOL     OW10693   5.493   0.310   5.749
 3265SOL    HW110694   5.413   0.287   5.694
 3265SOL    HW210695   5.478   0.397   5.796
 3266SOL     OW10696   1.235   2.897   6.652
 3266SOL    HW110697   1.213   2.935   6.742
 3266SOL    HW210698   1.333   2.882   6.644
 3267SOL     OW10699   5.410   3.568   2.216
 3267SOL    HW110700   5.422   3.536   2.123
 3267SOL    HW210701   5.393   3.667   2.216
 3268SOL     OW10702   1.831   5.614   6.776
 3268SOL    HW110703   1.874   5.533   6.735
 3268SOL    HW210704   1.812   5.682   6.705
 3269SOL     OW10705   4.340   3.703   0.832
 3269SOL    HW110706   4.280   3.772   0.872
 3269SOL    HW210707   4.333   3.618   0.884
 3270SOL     OW10708   6.969   5.228   3.949
 3270SOL    HW110709   7.002   5.238   3.855
 3270SOL    HW210710   7.017   5.293   4.008
 3271SOL     OW10711   4.932   6.959   1.440
 3271SOL    HW110712   5.029   6.984   1.443
 3271SOL    HW210713   4.923   6.861   1.453
 3272SOL     OW10714   4.767   5.872   6.593
 3272SOL    HW110715   4.721   5.933   6.528
 3272SOL    HW210716   4.802   5.926   6.669
 3273SOL     OW10717   0.797   0.463   3.019
 3273SOL    HW110718   0.860   0.437   2.946
 3273SOL    HW210719   0.703   0.457   2.985
 3274SOL     OW10720   2.749   1.096   0.273
 3274SOL    HW110721   2.776   1.070   0.180
 3274SOL    HW210722   2.699   1.182   0.270
 3275SOL     OW10723   4.682   0.718   6.953
 3275SOL    HW110724   4.763   0.767   6.921
 3275SOL    HW210725   4.621   0.782   7.000
 3276SOL     OW10726   1.526   6.269   0.069
 3276SOL    HW110727   1.508   6.217   7.014
 3276SOL    HW210728   1.444   6.318   0.096
 3277SOL     OW10729   0.459   6.004   6.909
 3277SOL    HW110730   0.372   6.028   6.952
 3277SOL    HW210731   0.444   5.988   6.811
 3278SOL     OW10732   1.289   0.535   0.034
 3278SOL    HW110733   1.305   0.445   7.023
 3278SOL    HW210734   1.352   0.601   7.024
 3279SOL     OW10735   2.235   6.841   1.299
 3279SOL    HW110736   2.205   6.746   1.304
 3279SOL    HW210737   2.158   6.900   1.276
 3280SOL     OW10738   3.049   6.046   3.722
 3280SOL    HW110739   2.971   6.108   3.724
 3280SOL    HW210740   3.029   5.966   3.778
 3281SOL     OW10741   1.660   6.345   0.568
 3281SOL    HW110742   1.654   6.445   0.576
 3281SOL    HW210743   1.753   6.319   0.542
 3282SOL     OW10744   2.353   5.023   2.996
 3282SOL    HW110745   2.451   5.038   3.008
 3282SOL    HW210746   2.315   5.096   2.939
 3283SOL     OW10747   2.146   0.480   3.348
 3283SOL    HW110748   2.222   0.514   3.402
 3283SOL    HW210749   2.072   0.451   3.409
 3284SOL     OW10750   1.733   5.235   5.392
 3284SOL    HW110751   1.803   5.204   5.327
 3284SOL    HW210752   1.693   5.321   5.358
 3285SOL     OW10753   0.361   2.766   4.218
 3285SOL    HW110754   0.368   2.853   4.266
 3285SOL    HW210755   0.269   2.757   4.179
 3286SOL     OW10756   4.738   4.569   6.178
 3286SOL    HW110757   4.741   4.642   6.247
 3286SOL    HW210758   4.644   4.557   6.146
 3287SOL     OW10759   0.009   3.021   1.634
 3287SOL    HW110760   0.070   2.962   1.581
 3287SOL    HW210761   6.944   2.995   1.616
 3288SOL     OW10762   0.925   0.074   0.403
 3288SOL    HW110763   0.978   7.027   0.440
 3288SOL    HW210764   0.828   0.052   0.407
 3289SOL     OW10765   1.497   6.763   3.825
 3289SOL    HW110766   1.456   6.760   3.734
 3289SOL    HW210767   1.596   6.776   3.817
 3290SOL     OW10768   0.280   5.162   3.694
 3290SOL    HW110769   0.205   5.225   3.676
 3290SOL    HW210770   0.264   5.116   3.781
 3291SOL     OW10771   1.547   1.330   1.900
 3291SOL    HW110772   1.614   1.391   1.858
 3291SOL    HW210773   1.567   1.236   1.875
 3292SOL     OW10774   0.542   6.068   4.460
 3292SOL    HW110775   0.612   5.996   4.450
 3292SOL    HW210776   0.563   6.124   4.540
 3293SOL     OW10777   5.805   0.445   3.249
 3293SOL    HW110778   5.774   0.497   3.329
 3293SOL    HW210779   5.877   0.495   3.202
 3294SOL     OW10780   6.880   6.851   0.618
 3294SOL    HW110781   6.796   6.868   0.566
 3294SOL    HW210782   6.857   6.818   0.709
 3295SOL     OW10783   2.151   2.927   5.804
 3295SOL    HW110784   2.234   2.921   5.749
 3295SOL    HW210785   2.158   3.005   5.867
 3296SOL     OW10786   1.577   6.574   2.417
 3296SOL    HW110787   1.634   6.655   2.409
 3296SOL    HW210788   1.605   6.520   2.496
 3297SOL     OW10789   3.392   1.032   5.380
 3297SOL    HW110790   3.378   1.127   5.410
 3297SOL    HW210791   3.413   1.031   5.282
 3298SOL     OW10792   0.735   4.449   2.729
 3298SOL    HW110793   0.714   4.527   2.788
 3298SOL    HW210794   0.651   4.400   2.709
 3299SOL     OW10795   1.101   1.271   4.344
 3299SOL    HW110796   1.150   1.304   4.424
 3299SOL    HW210797   1.158   1.206   4.294
 3300SOL     OW10798   0.272   6.795   4.602
 3300SOL    HW110799   0.257   6.842   4.689
 3300SOL    HW210800   0.186   6.792   4.551
 3301SOL     OW10801   6.709   3.840   2.805
 3301SOL    HW110802   6.645   3.780   2.852
 3301SOL    HW210803   6.735   3.799   2.717
 3302SOL     OW10804   0.907   5.990   5.394
 3302SOL    HW110805   0.988   5.943   5.361
 3302SOL    HW210806   0.843   6.003   5.319
 3303SOL     OW10807   3.246   3.911   4.610
 3303SOL    HW110808   3.293   3.989   4.653
 3303SOL    HW210809   3.231   3.930   4.513
 3304SOL     OW10810   1.418   0.975   3.579
 3304SOL    HW110811   1.419   0.962   3.480
 3304SOL    HW210812   1.457   1.065   3.601
 3305SOL     OW10813   1.238   2.819   0.689
 3305SOL    HW110814   1.299   2.773   0.754
 3305SOL    HW210815   1.293   2.876   0.627
 3306SOL     OW10816   1.340   2.500   1.765
 3306SOL    HW110817   1.422   2.535   1.810
 3306SOL    HW210818   1.343   2.400   1.762
 3307SOL     OW10819   1.106   0.115   6.780
 3307SOL    HW110820   1.145   0.083   6.694
 3307SOL    HW210821   1.095   0.037   6.843
 3308SOL     OW10822   4.789   6.105   1.249
 3308SOL    HW110823   4.739   6.179   1.204
 3308SOL    HW210824   4.724   6.035   1.280
 3309SOL     OW10825   1.567   4.745   1.900
 3309SOL    HW110826   1.662   4.747   1.868
 3309SOL    HW210827   1.509   4.795   1.836
 3310SOL     OW10828   1.907   6.607   2.263
 3310SOL    HW110829   1.887   6.699   2.228
 3310SOL    HW210830   1.846   6.541   2.219
 3311SOL     OW10831   3.928   5.546   0.775
 3311SOL    HW110832   3.969   5.630   0.812
 3311SOL    HW210833   3.976   5.466   0.811
 3312SOL     OW10834   1.259   2.458   5.897
 3312SOL    HW110835   1.325   2.465   5.973
 3312SOL    HW210836   1.250   2.547   5.853
 3313SOL     OW10837   5.586   6.654   4.818
 3313SOL    HW110838   5.515   6.691   4.758
 3313SOL    HW210839   5.556   6.567   4.856
 3314SOL     OW10840   0.299   4.190   6.542
 3314SOL    HW110841   0.379   4.131   6.554
 3314SOL    HW210842   0.321   4.282   6.575
 3315SOL     OW10843   5.988   2.975   3.166
 3315SOL    HW110844   5.959   2.897   3.111
 3315SOL    HW210845   5.909   3.012   3.215
 3316SOL     OW10846   4.171   0.596   6.787
 3316SOL    HW110847   4.229   0.647   6.724
 3316SOL    HW210848   4.084   0.645   6.799
 3317SOL     OW10849   4.554   2.542   1.595
 3317SOL    HW110850   4.626   2.564   1.529
 3317SOL    HW210851   4.470   2.518   1.546
 3318SOL     OW10852   2.748   5.301   6.260
 3318SOL    HW110853   2.749   5.377   6.195
 3318SOL    HW210854   2.715   5.333   6.349
 3319SOL     OW10855   0.383   6.145   6.448
 3319SOL    HW110856   0.428   6.132   6.359
 3319SOL    HW210857   0.318   6.221   6.441
 3320SOL     OW10858   1.072   0.421   0.960
 3320SOL    HW110859   1.020   0.397   0.878
 3320SOL    HW210860   1.150   0.359   0.970
 3321SOL     OW10861   3.684   3.698   4.406
 3321SOL    HW110862   3.609   3.757   4.435
 3321SOL    HW210863   3.678   3.610   4.453
 3322SOL     OW10864   4.561   2.564   2.413
 3322SOL    HW110865   4.542   2.593   2.507
 3322SOL    HW210866   4.483   2.512   2.379
 3323SOL     OW10867   2.007   4.527   0.894
 3323SOL    HW110868   1.922   4.558   0.853
 3323SOL    HW210869   2.071   4.604   0.901
 3324SOL     OW10870   6.324   3.322   1.276
 3324SOL    HW110871   6.272   3.370   1.347
 3324SOL    HW210872   6.306   3.224   1.281
 3325SOL     OW10873   1.162   4.424   5.182
 3325SOL    HW110874   1.224   4.346   5.173
 3325SOL    HW210875   1.170   4.481   5.100
 3326SOL     OW10876   5.490   0.055   2.308
 3326SOL    HW110877   5.395   0.050   2.276
 3326SOL    HW210878   5.501   7.026   2.388
 3327SOL     OW10879   4.681   5.929   1.716
 3327SOL    HW110880   4.746   5.991   1.672
 3327SOL    HW210881   4.730   5.849   1.749
 3328SOL     OW10882   6.520   6.299   4.354
 3328SOL    HW110883   6.537   6.381   4.300
 3328SOL    HW210884   6.451   6.319   4.424
 3329SOL     OW10885   5.290   0.644   5.978
 3329SOL    HW110886   5.262   0.652   6.074
 3329SOL    HW210887   5.290   0.735   5.936
 3330SOL     OW10888   6.330   7.025   3.197
 3330SOL    HW110889   6.344   0.069   3.132
 3330SOL    HW210890   6.404   6.958   3.189
 3331SOL     OW10891   1.570   3.872   1.843
 3331SOL    HW110892   1.638   3.822   1.897
 3331SOL    HW210893   1.521   3.936   1.901
 3332SOL     OW10894   4.157   5.050   0.501
 3332SOL    HW110895   4.177   5.145   0.526
 3332SOL    HW210896   4.086   5.049   0.431
 3333SOL     OW10897   2.188   4.051   0.727
 3333SOL    HW110898   2.102   4.020   0.687
 3333SOL    HW210899   2.173   4.137   0.775
 3334SOL     OW10900   1.721   2.346   2.785
 3334SOL    HW110901   1.709   2.251   2.756
 3334SOL    HW210902   1.714   2.406   2.706
 3335SOL     OW10903   4.045   4.453   5.845
 3335SOL    HW110904   4.054   4.378   5.911
 3335SOL    HW210905   3.975   4.517   5.876
 3336SOL     OW10906   3.828   5.811   6.343
 3336SOL    HW110907   3.916   5.829   6.300
 3336SOL    HW210908   3.829   5.719   6.383
 3337SOL     OW10909   2.922   3.229   4.340
 3337SOL    HW110910   3.014   3.216   4.378
 3337SOL    HW210911   2.858   3.169   4.388
 3338SOL     OW10912   2.582   3.196   1.416
 3338SOL    HW110913   2.558   3.235   1.504
 3338SOL    HW210914   2.523   3.234   1.345
 3339SOL     OW10915   0.890   6.545   6.304
 3339SOL    HW110916   0.970   6.485   6.297
 3339SOL    HW210917   0.921   6.640   6.318
 3340SOL     OW10918   4.829   1.144   6.358
 3340SOL    HW110919   4.846   1.062   6.413
 3340SOL    HW210920   4.732   1.146   6.331
 3341SOL     OW10921   1.401   4.459   1.435
 3341SOL    HW110922   1.385   4.536   1.375
 3341SOL    HW210923   1.344   4.382   1.407
 3342SOL     OW10924   5.895   0.074   2.269
 3342SOL    HW110925   5.873   7.019   2.222
 3342SOL    HW210926   5.840   0.149   2.231
 3343SOL     OW10927   3.161   5.362   0.796
 3343SOL    HW110928   3.161   5.308   0.881
 3343SOL    HW210929   3.106   5.444   0.809
 3344SOL     OW10930   1.257   3.392   1.450
 3344SOL    HW110931   1.209   3.418   1.366
 3344SOL    HW210932   1.201   3.417   1.529
 3345SOL     OW10933   4.872   5.421   1.022
 3345SOL    HW110934   4.948   5.479   0.992
 3345SOL    HW210935   4.904   5.327   1.033
 3346SOL     OW10936   1.685   1.019   6.852
 3346SOL    HW110937   1.738   0.976   6.924
 3346SOL    HW210938   1.666   0.952   6.780
 3347SOL     OW10939   0.749   3.994   5.711
 3347SOL    HW110940   0.662   3.964   5.671
 3347SOL    HW210941   0.787   4.069   5.657
 3348SOL     OW10942   3.467   4.038   5.964
 3348SOL    HW110943   3.396   4.009   5.900
 3348SOL    HW210944   3.439   4.124   6.007
 3349SOL     OW10945   1.725   5.609   1.855
 3349SOL    HW110946   1.761   5.517   1.842
 3349SOL    HW210947   1.640   5.605   1.908
 3350SOL     OW10948   2.889   5.533   5.117
 3350SOL    HW110949   2.848   5.528   5.208
 3350SOL    HW210950   2.974   5.480   5.116
 3351SOL     OW10951   5.491   6.958   1.316
 3351SOL    HW110952   5.519   6.942   1.410
 3351SOL    HW210953   5.539   0.008   1.280
 3352SOL     OW10954   5.598   1.235   0.128
 3352SOL    HW110955   5.542   1.224   0.210
 3352SOL    HW210956   5.556   1.304   0.069
 3353SOL     OW10957   4.190   0.703   6.183
 3353SOL    HW110958   4.146   0.752   6.107
 3353SOL    HW210959   4.156   0.738   6.270
 3354SOL     OW10960   2.160   2.522   0.334
 3354SOL    HW110961   2.148   2.451   0.404
 3354SOL    HW210962   2.093   2.594   0.347
 3355SOL     OW10963   1.439   1.545   4.963
 3355SOL    HW110964   1.409   1.476   4.896
 3355SOL    HW210965   1.515   1.598   4.924
 3356SOL     OW10966   3.305   0.838   5.741
 3356SOL    HW110967   3.265   0.929   5.734
 3356SOL    HW210968   3.232   0.770   5.744
 3357SOL     OW10969   3.078   4.023   3.730
 3357SOL    HW110970   2.988   4.063   3.745
 3357SOL    HW210971   3.104   3.967   3.809
 3358SOL     OW10972   0.373   2.124   1.554
 3358SOL    HW110973   0.282   2.081   1.558
 3358SOL    HW210974   0.443   2.053   1.548
 3359SOL     OW10975   1.167   0.097   3.976
 3359SOL    HW110976   1.182   0.071   4.071
 3359SOL    HW210977   1.251   0.081   3.924
 3360SOL     OW10978   1.457   5.541   5.220
 3360SOL    HW110979   1.519   5.609   5.261
 3360SOL    HW210980   1.397   5.504   5.291
 3361SOL     OW10981   0.318   0.043   4.311
 3361SOL    HW110982   0.242   7.008   4.309
 3361SOL    HW210983   0.402   7.026   4.283
 3362SOL     OW10984   3.425   0.777   4.436
 3362SOL    HW110985   3.337   0.823   4.427
 3362SOL    HW210986   3.456   0.783   4.531
 3363SOL     OW10987   4.222   3.269   0.601
 3363SOL    HW110988   4.213   3.318   0.514
 3363SOL    HW210989   4.283   3.191   0.588
 3364SOL     OW10990   1.606   3.325   1.654
 3364SOL    HW110991   1.574   3.405   1.604
 3364SOL    HW210992   1.705   3.330   1.666
 3365SOL     OW10993   1.127   2.911   2.819
 3365SOL    HW110994   1.211   2.891   2.869
 3365SOL    HW210995   1.061   2.837   2.834
 3366SOL     OW10996   5.972   3.468   4.193
 3366SOL    HW110997   6.015   3.378   4.195
 3366SOL    HW210998   6.002   3.521   4.272
 3367SOL     OW10999   2.989   3.374   4.102
 3367SOL    HW111000   2.922   3.379   4.028
 3367SOL    HW211001   2.948   3.332   4.182
 3368SOL     OW11002   2.247   0.663   3.588
 3368SOL    HW111003   2.241   0.753   3.545
 3368SOL    HW211004   2.310   0.605   3.536
 3369SOL     OW11005   5.227   2.687   1.287
 3369SOL    HW111006   5.287   2.669   1.209
 3369SOL    HW211007   5.174   2.770   1.270
 3370SOL     OW11008   0.504   5.660   3.129
 3370SOL    HW111009   0.415   5.659   3.084
 3370SOL    HW211010   0.515   5.578   3.184
 3371SOL     OW11011   2.343   2.797   1.412
 3371SOL    HW111012   2.378   2.891   1.405
 3371SOL    HW211013   2.383   2.742   1.339
 3372SOL     OW11014   5.472   2.759   3.120
 3372SOL    HW111015   5.379   2.735   3.092
 3372SOL    HW211016   5.469   2.815   3.203
 3373SOL     OW11017   0.478   4.612   0.531
 3373SOL    HW111018   0.527   4.641   0.613
 3373SOL    HW211019   0.544   4.591   0.459
 3374SOL     OW11020   1.240   5.603   4.264
 3374SOL    HW111021   1.203   5.624   4.354
 3374SOL    HW211022   1.285   5.684   4.226
 3375SOL     OW11023   6.888   6.505   5.700
 3375SOL    HW111024   6.955   6.454   5.646
 3375SOL    HW211025   6.810   6.445   5.720
 3376SOL     OW11026   3.626   3.928   4.737
 3376SOL    HW111027   3.704   3.951   4.796
 3376SOL    HW211028   3.553   3.995   4.751
 3377SOL     OW11029   0.338   5.601   4.145
 3377SOL    HW111030   0.349   5.513   4.099
 3377SOL    HW211031   0.416   5.660   4.123
 3378SOL     OW11032   1.248   5.551   0.245
 3378SOL    HW111033   1.169   5.604   0.215
 3378SOL    HW211034   1.260   5.562   0.344
 3379SOL     OW11035   5.580   4.539   4.005
 3379SOL    HW111036   5.616   4.622   4.049
 3379SOL    HW211037   5.500   4.562   3.951
 3380SOL     OW11038   1.789   5.076   1.979
 3380SOL    HW111039   1.714   5.010   1.980
 3380SOL    HW211040   1.752   5.169   1.982
 3381SOL     OW11041   2.983   3.946   6.442
 3381SOL    HW111042   2.954   3.865   6.491
 3381SOL    HW211043   2.909   4.012   6.438
 3382SOL     OW11044   0.420   3.895   6.618
 3382SOL    HW111045   0.463   3.986   6.617
 3382SOL    HW211046   0.365   3.886   6.701
 3383SOL     OW11047   3.150   6.046   0.702
 3383SOL    HW111048   3.134   6.054   0.604
 3383SOL    HW211049   3.146   6.137   0.744
 3384SOL     OW11050   2.987   2.736   6.663
 3384SOL    HW111051   2.949   2.651   6.627
 3384SOL    HW211052   3.028   2.789   6.589
 3385SOL     OW11053   5.590   2.901   4.831
 3385SOL    HW111054   5.574   2.996   4.806
 3385SOL    HW211055   5.533   2.877   4.909
 3386SOL     OW11056   0.170   5.143   5.497
 3386SOL    HW111057   0.210   5.082   5.429
 3386SOL    HW211058   0.075   5.116   5.516
 3387SOL     OW11059   5.926   0.211   2.985
 3387SOL    HW111060   6.004   0.272   2.975
 3387SOL    HW211061   5.909   0.195   3.083
 3388SOL     OW11062   0.890   3.822   0.350
 3388SOL    HW111063   0.830   3.883   0.297
 3388SOL    HW211064   0.840   3.738   0.373
 3389SOL     OW11065   6.368   5.097   6.089
 3389SOL    HW111066   6.346   5.019   6.031
 3389SOL    HW211067   6.293   5.115   6.153
 3390SOL     OW11068   2.899   5.443   1.079
 3390SOL    HW111069   2.939   5.486   0.999
 3390SOL    HW211070   2.828   5.378   1.051
 3391SOL     OW11071   5.491   4.004   5.844
 3391SOL    HW111072   5.399   3.999   5.806
 3391SOL    HW211073   5.527   4.097   5.833
 3392SOL     OW11074   5.209   5.931   5.981
 3392SOL    HW111075   5.120   5.888   5.965
 3392SOL    HW211076   5.255   5.946   5.893
 3393SOL     OW11077   3.512   0.531   0.829
 3393SOL    HW111078   3.489   0.476   0.909
 3393SOL    HW211079   3.568   0.476   0.766
 3394SOL     OW11080   2.529   6.461   1.545
 3394SOL    HW111081   2.538   6.452   1.644
 3394SOL    HW211082   2.589   6.395   1.500
 3395SOL     OW11083   1.916   6.153   3.439
 3395SOL    HW111084   1.985   6.178   3.506
 3395SOL    HW211085   1.828   6.138   3.485
 3396SOL     OW11086   4.415   0.970   4.358
 3396SOL    HW111087   4.333   0.917   4.378
 3396SOL    HW211088   4.466   0.927   4.283
 3397SOL     OW11089   2.284   6.259   1.336
 3397SOL    HW111090   2.274   6.209   1.251
 3397SOL    HW211091   2.319   6.351   1.317
 3398SOL     OW11092   6.554   0.867   0.081
 3398SOL    HW111093   6.483   0.819   0.029
 3398SOL    HW211094   6.517   0.894   0.170
 3399SOL     OW11095   0.112   5.909   2.354
 3399SOL    HW111096   0.062   5.994   2.343
 3399SOL    HW211097   0.050   5.832   2.337
 3400SOL     OW11098   3.540   3.148   5.804
 3400SOL    HW111099   3.446   3.135   5.836
 3400SOL    HW211100   3.592   3.063   5.816
 3401SOL     OW11101   6.670   3.232   4.271
 3401SOL    HW111102   6.753   3.285   4.250
 3401SOL    HW211103   6.667   3.151   4.212
 3402SOL     OW11104   5.296   3.625   6.926
 3402SOL    HW111105   5.251   3.605   6.839
 3402SOL    HW211106   5.287   3.546   6.987
 3403SOL     OW11107   5.513   6.820   4.391
 3403SOL    HW111108   5.538   6.902   4.339
 3403SOL    HW211109   5.438   6.773   4.346
 3404SOL     OW11110   5.660   4.617   3.263
 3404SOL    HW111111   5.649   4.645   3.358
 3404SOL    HW211112   5.749   4.574   3.250
 3405SOL     OW11113   4.198   6.507   1.376
 3405SOL    HW111114   4.169   6.593   1.419
 3405SOL    HW211115   4.128   6.438   1.389
 3406SOL     OW11116   4.283   4.705   1.074
 3406SOL    HW111117   4.218   4.639   1.038
 3406SOL    HW211118   4.233   4.784   1.110
 3407SOL     OW11119   1.319   2.327   0.386
 3407SOL    HW111120   1.258   2.358   0.458
 3407SOL    HW211121   1.358   2.238   0.410
 3408SOL     OW11122   3.747   6.903   4.010
 3408SOL    HW111123   3.752   6.807   3.983
 3408SOL    HW211124   3.732   6.910   4.108
 3409SOL     OW11125   4.568   1.992   6.388
 3409SOL    HW111126   4.544   2.079   6.345
 3409SOL    HW211127   4.580   2.006   6.486
 3410SOL     OW11128   6.767   0.549   2.507
 3410SOL    HW111129   6.673   0.559   2.475
 3410SOL    HW211130   6.787   0.618   2.577
 3411SOL     OW11131   5.759   3.421   6.384
 3411SOL    HW111132   5.844   3.378   6.356
 3411SOL    HW211133   5.720   3.370   6.461
 3412SOL     OW11134   5.219   3.239   3.542
 3412SOL    HW111135   5.208   3.337   3.559
 3412SOL    HW211136   5.224   3.222   3.444
 3413SOL     OW11137   0.869   2.359   1.122
 3413SOL    HW111138   0.816   2.437   1.088
 3413SOL    HW211139   0.807   2.295   1.168
 3414SOL     OW11140   3.815   3.169   1.865
 3414SOL    HW111141   3.894   3.159   1.805
 3414SOL    HW211142   3.757   3.244   1.832
 3415SOL     OW11143   2.526   0.756   6.450
 3415SOL    HW111144   2.457   0.785   6.517
 3415SOL    HW211145   2.480   0.706   6.376
 3416SOL     OW11146   5.247   6.738   5.782
 3416SOL    HW111147   5.280   6.678   5.855
 3416SOL    HW211148   5.147   6.736   5.780
 3417SOL     OW11149   5.920   0.985   2.469
 3417SOL    HW111150   5.933   1.083   2.454
 3417SOL    HW211151   6.007   0.937   2.455
 3418SOL     OW11152   4.069   5.700   0.957
 3418SOL    HW111153   4.021   5.704   1.044
 3418SOL    HW211154   4.167   5.711   0.972
 3419SOL     OW11155   3.153   4.580   5.316
 3419SOL    HW111156   3.072   4.550   5.266
 3419SOL    HW211157   3.207   4.501   5.343
 3420SOL     OW11158   4.121   1.382   1.360
 3420SOL    HW111159   4.180   1.304   1.378
 3420SOL    HW211160   4.176   1.463   1.343
 3421SOL     OW11161   0.527   1.189   4.276
 3421SOL    HW111162   0.452   1.142   4.323
 3421SOL    HW211163   0.501   1.205   4.181
 3422SOL     OW11164   3.140   5.441   1.510
 3422SOL    HW111165   3.130   5.445   1.411
 3422SOL    HW211166   3.083   5.368   1.546
 3423SOL     OW11167   1.881   4.806   6.295
 3423SOL    HW111168   1.828   4.737   6.246
 3423SOL    HW211169   1.865   4.797   6.394
 3424SOL     OW11170   5.554   6.424   2.581
 3424SOL    HW111171   5.512   6.480   2.509
 3424SOL    HW211172   5.575   6.334   2.545
 3425SOL     OW11173   5.589   2.775   6.375
 3425SOL    HW111174   5.579   2.798   6.279
 3425SOL    HW211175   5.501   2.786   6.421
 3426SOL     OW11176   6.687   5.524   6.914
 3426SOL    HW111177   6.748   5.596   6.947
 3426SOL    HW211178   6.592   5.552   6.930
 3427SOL     OW11179   2.015   1.407   6.764
 3427SOL    HW111180   1.984   1.498   6.735
 3427SOL    HW211181   2.010   1.344   6.687
 3428SOL     OW11182   4.552   0.178   4.096
 3428SOL    HW111183   4.479   0.208   4.035
 3428SOL    HW211184   4.521   0.100   4.150
 3429SOL     OW11185   4.571   5.975   0.661
 3429SOL    HW111186   4.533   6.030   0.586
 3429SOL    HW211187   4.634   6.031   0.715
 3430SOL     OW11188   2.522   4.591   6.782
 3430SOL    HW111189   2.534   4.501   6.741
 3430SOL    HW211190   2.602   4.647   6.764
 3431SOL     OW11191   1.288   4.430   2.495
 3431SOL    HW111192   1.263   4.402   2.588
 3431SOL    HW211193   1.327   4.352   2.446
 3432SOL     OW11194   0.019   5.201   6.539
 3432SOL    HW111195   6.956   5.227   6.511
 3432SOL    HW211196   0.040   5.244   6.627
 3433SOL     OW11197   0.719   1.016   0.553
 3433SOL    HW111198   0.696   1.085   0.484
 3433SOL    HW211199   0.814   0.986   0.541
 3434SOL     OW11200   4.342   2.367   2.379
 3434SOL    HW111201   4.277   2.315   2.324
 3434SOL    HW211202   4.313   2.366   2.474
 3435SOL     OW11203   2.695   2.926   1.141
 3435SOL    HW111204   2.750   2.843   1.147
 3435SOL    HW211205   2.679   2.962   1.233
 3436SOL     OW11206   4.412   5.559   5.501
 3436SOL    HW111207   4.461   5.541   5.416
 3436SOL    HW211208   4.402   5.658   5.514
 3437SOL     OW11209   1.477   6.514   0.369
 3437SOL    HW111210   1.496   6.441   0.435
 3437SOL    HW211211   1.428   6.476   0.290
 3438SOL     OW11212   2.492   4.476   0.078
 3438SOL    HW111213   2.400   4.513   0.092
 3438SOL    HW211214   2.528   4.511   7.021
 3439SOL     OW11215   2.821   6.300   1.208
 3439SOL    HW111216   2.915   6.307   1.176
 3439SOL    HW211217   2.816   6.240   1.288
 3440SOL     OW11218   4.095   4.121   5.643
 3440SOL    HW111219   4.100   4.047   5.710
 3440SOL    HW211220   3.999   4.135   5.617
 3441SOL     OW11221   0.094   5.267   4.995
 3441SOL    HW111222   0.058   5.252   5.087
 3441SOL    HW211223   0.109   5.365   4.980
 3442SOL     OW11224   0.793   2.008   0.248
 3442SOL    HW111225   0.888   2.023   0.273
 3442SOL    HW211226   0.782   2.015   0.149
 3443SOL     OW11227   6.940   5.693   2.363
 3443SOL    HW111228   6.977   5.662   2.275
 3443SOL    HW211229   6.930   5.614   2.424
 3444SOL     OW11230   0.841   4.024   6.587
 3444SOL    HW111231   0.876   3.933   6.609
 3444SOL    HW211232   0.835   4.034   6.487
 3445SOL     OW11233   6.167   5.352   4.382
 3445SOL    HW111234   6.086   5.305   4.349
 3445SOL    HW211235   6.158   5.369   4.481
 3446SOL     OW11236   4.752   1.740   0.199
 3446SOL    HW111237   4.833   1.788   0.234
 3446SOL    HW211238   4.758   1.734   0.100
 3447SOL     OW11239   5.620   1.662   5.642
 3447SOL    HW111240   5.609   1.608   5.558
 3447SOL    HW211241   5.612   1.759   5.620
 3448SOL     OW11242   0.740   5.453   5.262
 3448SOL    HW111243   0.824   5.479   5.216
 3448SOL    HW211244   0.747   5.358   5.293
 3449SOL     OW11245   1.892   3.691   4.736
 3449SOL    HW111246   1.946   3.667   4.816
 3449SOL    HW211247   1.881   3.611   4.677
 3450SOL     OW11248   2.515   6.876   2.471
 3450SOL    HW111249   2.445   6.916   2.530
 3450SOL    HW211250   2.472   6.836   2.391
 3451SOL     OW11251   2.135   1.761   0.685
 3451SOL    HW111252   2.079   1.803   0.756
 3451SOL    HW211253   2.150   1.826   0.611
 3452SOL     OW11254   4.619   1.308   5.517
 3452SOL    HW111255   4.598   1.290   5.421
 3452SOL    HW211256   4.652   1.223   5.560
 3453SOL     OW11257   4.542   5.956   5.320
 3453SOL    HW111258   4.642   5.963   5.310
 3453SOL    HW211259   4.499   6.033   5.275
 3454SOL     OW11260   0.858   2.908   3.567
 3454SOL    HW111261   0.896   2.829   3.616
 3454SOL    HW211262   0.781   2.945   3.618
 3455SOL     OW11263   1.475   4.255   6.641
 3455SOL    HW111264   1.571   4.278   6.653
 3455SOL    HW211265   1.432   4.319   6.577
 3456SOL     OW11266   4.259   5.369   2.436
 3456SOL    HW111267   4.345   5.381   2.485
 3456SOL    HW211268   4.278   5.349   2.340
 3457SOL     OW11269   4.072   3.925   6.829
 3457SOL    HW111270   4.085   4.023   6.841
 3457SOL    HW211271   4.049   3.883   6.916
 3458SOL     OW11272   4.319   2.093   0.885
 3458SOL    HW111273   4.223   2.094   0.913
 3458SOL    HW211274   4.334   2.020   0.818
 3459SOL     OW11275   6.737   7.013   2.859
 3459SOL    HW111276   6.778   6.957   2.931
 3459SOL    HW211277   6.664   6.961   2.815
 3460SOL     OW11278   4.546   1.359   5.093
 3460SOL    HW111279   4.586   1.293   5.157
 3460SOL    HW211280   4.573   1.451   5.120
 3461SOL     OW11281   4.361   4.717   3.725
 3461SOL    HW111282   4.285   4.782   3.717
 3461SOL    HW211283   4.430   4.753   3.788
 3462SOL     OW11284   1.366   4.522   6.597
 3462SOL    HW111285   1.271   4.534   6.571
 3462SOL    HW211286   1.373   4.518   6.697
 3463SOL     OW11287   5.639   4.321   6.881
 3463SOL    HW111288   5.623   4.378   6.961
 3463SOL    HW211289   5.737   4.306   6.869
 3464SOL     OW11290   6.734   4.916   3.819
 3464SOL    HW111291   6.709   4.980   3.891
 3464SOL    HW211292   6.832   4.926   3.799
 3465SOL     OW11293   0.857   2.590   1.302
 3465SOL    HW111294   0.886   2.544   1.385
 3465SOL    HW211295   0.839   2.523   1.230
 3466SOL     OW11296   6.004   3.554   3.143
 3466SOL    HW111297   6.076   3.548   3.213
 3466SOL    HW211298   6.037   3.512   3.058
 3467SOL     OW11299   1.595   2.022   5.485
 3467SOL    HW111300   1.634   2.106   5.522
 3467SOL    HW211301   1.604   1.948   5.552
 3468SOL     OW11302   4.771   5.271   1.796
 3468SOL    HW111303   4.713   5.217   1.735
 3468SOL    HW211304   4.824   5.210   1.855
 3469SOL     OW11305   4.967   3.911   0.110
 3469SOL    HW111306   5.005   3.950   0.026
 3469SOL    HW211307   5.032   3.923   0.185
 3470SOL     OW11308   6.359   5.624   0.187
 3470SOL    HW111309   6.382   5.650   0.281
 3470SOL    HW211310   6.272   5.666   0.161
 3471SOL     OW11311   4.766   6.691   4.659
 3471SOL    HW111312   4.758   6.785   4.694
 3471SOL    HW211313   4.686   6.638   4.689
 3472SOL     OW11314   3.805   6.936   4.511
 3472SOL    HW111315   3.788   7.016   4.569
 3472SOL    HW211316   3.793   6.853   4.565
 3473SOL     OW11317   4.541   6.315   3.994
 3473SOL    HW111318   4.444   6.340   3.990
 3473SOL    HW211319   4.571   6.281   3.905
 3474SOL     OW11320   4.666   4.610   0.214
 3474SOL    HW111321   4.604   4.532   0.226
 3474SOL    HW211322   4.699   4.611   0.119
 3475SOL     OW11323   1.067   5.364   5.489
 3475SOL    HW111324   1.051   5.410   5.576
 3475SOL    HW211325   0.982   5.362   5.436
 3476SOL     OW11326   3.916   1.912   3.293
 3476SOL    HW111327   3.832   1.858   3.283
 3476SOL    HW211328   3.895   2.009   3.281
 3477SOL     OW11329   4.456   5.568   2.165
 3477SOL    HW111330   4.530   5.531   2.108
 3477SOL    HW211331   4.485   5.656   2.203
 3478SOL     OW11332   3.757   4.580   0.496
 3478SOL    HW111333   3.663   4.546   0.504
 3478SOL    HW211334   3.820   4.502   0.494
 3479SOL     OW11335   1.940   0.894   0.342
 3479SOL    HW111336   1.850   0.851   0.340
 3479SOL    HW211337   1.941   0.966   0.411
 3480SOL     OW11338   1.451   6.704   4.478
 3480SOL    HW111339   1.376   6.675   4.538
 3480SOL    HW211340   1.414   6.748   4.397
 3481SOL     OW11341   2.393   5.449   0.482
 3481SOL    HW111342   2.399   5.539   0.526
 3481SOL    HW211343   2.398   5.460   0.382
 3482SOL     OW11344   0.410   2.264   1.808
 3482SOL    HW111345   0.428   2.187   1.868
 3482SOL    HW211346   0.397   2.231   1.714
 3483SOL     OW11347   3.688   1.291   1.148
 3483SOL    HW111348   3.767   1.229   1.149
 3483SOL    HW211349   3.695   1.352   1.069
 3484SOL     OW11350   3.796   4.092   3.166
 3484SOL    HW111351   3.766   4.187   3.177
 3484SOL    HW211352   3.720   4.031   3.188
 3485SOL     OW11353   5.762   2.366   4.403
 3485SOL    HW111354   5.847   2.330   4.442
 3485SOL    HW211355   5.766   2.466   4.402
 3486SOL     OW11356   6.402   1.180   3.160
 3486SOL    HW111357   6.356   1.169   3.248
 3486SOL    HW211358   6.333   1.192   3.088
 3487SOL     OW11359   1.365   0.507   0.890
 3487SOL    HW111360   1.406   0.586   0.936
 3487SOL    HW211361   1.296   0.539   0.825
 3488SOL     OW11362   6.386   3.772   5.015
 3488SOL    HW111363   6.470   3.822   5.037
 3488SOL    HW211364   6.394   3.732   4.924
 3489SOL     OW11365   3.236   5.229   6.923
 3489SOL    HW111366   3.329   5.203   6.896
 3489SOL    HW211367   3.235   5.255   7.020
 3490SOL     OW11368   4.803   3.700   0.183
 3490SOL    HW111369   4.875   3.755   0.142
 3490SOL    HW211370   4.715   3.725   0.143
 3491SOL     OW11371   5.435   2.850   5.060
 3491SOL    HW111372   5.361   2.882   5.120
 3491SOL    HW211373   5.450   2.753   5.075
 3492SOL     OW11374   6.733   4.334   6.626
 3492SOL    HW111375   6.794   4.375   6.558
 3492SOL    HW211376   6.787   4.278   6.689
 3493SOL     OW11377   6.247   4.694   0.994
 3493SOL    HW111378   6.186   4.767   0.963
 3493SOL    HW211379   6.223   4.609   0.949
 3494SOL     OW11380   3.545   6.690   1.220
 3494SOL    HW111381   3.558   6.783   1.185
 3494SOL    HW211382   3.475   6.643   1.165
 3495SOL     OW11383   6.242   4.909   6.353
 3495SOL    HW111384   6.164   4.849   6.368
 3495SOL    HW211385   6.320   4.856   6.321
 3496SOL     OW11386   0.384   6.125   0.889
 3496SOL    HW111387   0.381   6.225   0.894
 3496SOL    HW211388   0.368   6.087   0.980
 3497SOL     OW11389   2.881   0.129   5.073
 3497SOL    HW111390   2.881   0.084   5.163
 3497SOL    HW211391   2.902   0.061   5.002
 3498SOL     OW11392   0.800   1.776   0.428
 3498SOL    HW111393   0.783   1.846   0.358
 3498SOL    HW211394   0.891   1.790   0.468
 3499SOL     OW11395   6.417   4.130   3.780
 3499SOL    HW111396   6.392   4.132   3.877
 3499SOL    HW211397   6.449   4.220   3.752
 3500SOL     OW11398   6.095   3.007   1.041
 3500SOL    HW111399   6.175   2.998   1.099
 3500SOL    HW211400   6.058   2.916   1.020
 3501SOL     OW11401   0.338   4.997   3.491
 3501SOL    HW111402   0.335   5.069   3.561
 3501SOL    HW211403   0.348   5.039   3.401
 3502SOL     OW11404   1.156   6.270   0.909
 3502SOL    HW111405   1.180   6.230   0.820
 3502SOL    HW211406   1.216   6.232   0.980
 3503SOL     OW11407   3.308   6.972   3.737
 3503SOL    HW111408   3.279   6.914   3.660
 3503SOL    HW211409   3.405   6.958   3.754
 3504SOL     OW11410   2.043   3.116   2.766
 3504SOL    HW111411   2.009   3.160   2.850
 3504SOL    HW211412   1.994   3.153   2.687
 3505SOL     OW11413   4.465   6.370   4.570
 3505SOL    HW111414   4.434   6.379   4.475
 3505SOL    HW211415   4.391   6.332   4.626
 3506SOL     OW11416   6.948   4.227   2.744
 3506SOL    HW111417   0.002   4.199   2.790
 3506SOL    HW211418   6.968   4.246   2.648
 3507SOL     OW11419   6.775   0.336   5.897
 3507SOL    HW111420   6.788   0.414   5.835
 3507SOL    HW211421   6.685   0.295   5.881
 3508SOL     OW11422   6.734   4.491   0.080
 3508SOL    HW111423   6.802   4.421   0.059
 3508SOL    HW211424   6.711   4.542   7.026
 3509SOL     OW11425   4.951   6.951   6.678
 3509SOL    HW111426   5.002   0.005   6.658
 3509SOL    HW211427   4.895   6.966   6.759
 3510SOL     OW11428   1.883   1.163   2.552
 3510SOL    HW111429   1.976   1.175   2.517
 3510SOL    HW211430   1.850   1.250   2.589
 3511SOL     OW11431   0.916   0.707   3.955
 3511SOL    HW111432   0.973   0.746   3.883
 3511SOL    HW211433   0.940   0.748   4.042
 3512SOL     OW11434   3.677   3.398   1.751
 3512SOL    HW111435   3.768   3.441   1.745
 3512SOL    HW211436   3.615   3.460   1.799
 3513SOL     OW11437   6.660   4.361   0.987
 3513SOL    HW111438   6.630   4.375   1.082
 3513SOL    HW211439   6.743   4.305   0.987
 3514SOL     OW11440   3.117   5.869   3.002
 3514SOL    HW111441   3.166   5.791   2.965
 3514SOL    HW211442   3.093   5.933   2.928
 3515SOL     OW11443   3.557   5.596   3.579
 3515SOL    HW111444   3.547   5.695   3.587
 3515SOL    HW211445   3.562   5.570   3.482
 3516SOL     OW11446   1.434   1.101   0.478
 3516SOL    HW111447   1.357   1.166   0.477
 3516SOL    HW211448   1.458   1.076   0.385
 3517SOL     OW11449   0.473   0.656   0.147
 3517SOL    HW111450   0.456   0.646   0.048
 3517SOL    HW211451   0.557   0.608   0.171
 3518SOL     OW11452   4.195   3.707   6.220
 3518SOL    HW111453   4.172   3.657   6.303
 3518SOL    HW211454   4.119   3.700   6.155
 3519SOL     OW11455   3.693   0.610   0.229
 3519SOL    HW111456   3.755   0.654   0.164
 3519SOL    HW211457   3.609   0.582   0.182
 3520SOL     OW11458   3.983   4.983   1.601
 3520SOL    HW111459   4.082   4.972   1.604
 3520SOL    HW211460   3.958   5.068   1.648
 3521SOL     OW11461   6.602   1.977   5.781
 3521SOL    HW111462   6.626   2.035   5.703
 3521SOL    HW211463   6.519   2.012   5.825
 3522SOL     OW11464   2.046   0.820   1.003
 3522SOL    HW111465   2.138   0.859   0.997
 3522SOL    HW211466   2.046   0.742   1.065
 3523SOL     OW11467   2.462   4.572   5.168
 3523SOL    HW111468   2.381   4.593   5.224
 3523SOL    HW211469   2.435   4.564   5.072
 3524SOL     OW11470   3.069   1.601   3.401
 3524SOL    HW111471   2.995   1.607   3.334
 3524SOL    HW211472   3.085   1.505   3.424
 3525SOL     OW11473   1.434   3.141   3.320
 3525SOL    HW111474   1.499   3.073   3.289
 3525SOL    HW211475   1.357   3.146   3.256
 3526SOL     OW11476   3.415   6.240   3.424
 3526SOL    HW111477   3.395   6.217   3.329
 3526SOL    HW211478   3.360   6.182   3.484
 3527SOL     OW11479   6.520   3.944   6.872
 3527SOL    HW111480   6.584   3.868   6.883
 3527SOL    HW211481   6.463   3.928   6.792
 3528SOL     OW11482   1.203   0.269   4.480
 3528SOL    HW111483   1.275   0.330   4.511
 3528SOL    HW211484   1.114   0.306   4.507
 3529SOL     OW11485   3.559   5.519   0.645
 3529SOL    HW111486   3.472   5.563   0.621
 3529SOL    HW211487   3.542   5.423   0.668
 3530SOL     OW11488   1.962   5.789   3.139
 3530SOL    HW111489   1.994   5.758   3.229
 3530SOL    HW211490   1.943   5.709   3.081
 3531SOL     OW11491   5.035   4.597   6.905
 3531SOL    HW111492   5.111   4.539   6.935
 3531SOL    HW211493   5.070   4.689   6.883
 3532SOL     OW11494   2.426   6.337   0.432
 3532SOL    HW111495   2.490   6.281   0.484
 3532SOL    HW211496   2.333   6.318   0.463
 3533SOL     OW11497   1.426   0.932   3.315
 3533SOL    HW111498   1.454   1.019   3.274
 3533SOL    HW211499   1.466   0.856   3.264
 3534SOL     OW11500   5.160   0.002   4.336
 3534SOL    HW111501   5.179   0.012   4.434
 3534SOL    HW211502   5.115   6.944   4.320
 3535SOL     OW11503   4.717   5.513   0.260
 3535SOL    HW111504   4.654   5.585   0.287
 3535SOL    HW211505   4.667   5.426   0.254
 3536SOL     OW11506   2.068   3.619   2.513
 3536SOL    HW111507   2.074   3.554   2.438
 3536SOL    HW211508   1.987   3.677   2.501
 3537SOL     OW11509   3.051   4.940   2.126
 3537SOL    HW111510   3.024   4.891   2.043
 3537SOL    HW211511   2.986   4.919   2.199
 3538SOL     OW11512   3.713   0.447   3.333
 3538SOL    HW111513   3.673   0.431   3.424
 3538SOL    HW211514   3.779   0.375   3.313
 3539SOL     OW11515   4.785   5.158   4.985
 3539SOL    HW111516   4.727   5.077   4.985
 3539SOL    HW211517   4.769   5.211   4.902
 3540SOL     OW11518   4.592   4.171   6.625
 3540SOL    HW111519   4.683   4.187   6.665
 3540SOL    HW211520   4.523   4.174   6.698
 3541SOL     OW11521   0.321   2.685   2.616
 3541SOL    HW111522   0.400   2.685   2.555
 3541SOL    HW211523   0.237   2.675   2.563
 3542SOL     OW11524   5.479   1.464   7.020
 3542SOL    HW111525   5.395   1.517   7.030
 3542SOL    HW211526   5.543   1.514   6.962
 3543SOL     OW11527   0.130   3.069   4.198
 3543SOL    HW111528   0.137   3.105   4.105
 3543SOL    HW211529   0.129   2.969   4.196
 3544SOL     OW11530   3.006   4.394   6.148
 3544SOL    HW111531   2.968   4.304   6.127
 3544SOL    HW211532   2.992   4.456   6.071
 3545SOL     OW11533   2.768   6.800   0.841
 3545SOL    HW111534   2.734   6.873   0.899
 3545SOL    HW211535   2.840   6.749   0.889
 3546SOL     OW11536   6.794   4.697   0.909
 3546SOL    HW111537   6.887   4.665   0.930
 3546SOL    HW211538   6.758   4.646   0.831
 3547SOL     OW11539   1.327   3.891   4.595
 3547SOL    HW111540   1.342   3.948   4.514
 3547SOL    HW211541   1.412   3.845   4.620
 3548SOL     OW11542   6.453   0.440   5.840
 3548SOL    HW111543   6.507   0.382   5.779
 3548SOL    HW211544   6.435   0.528   5.795
 3549SOL     OW11545   2.248   6.813   6.486
 3549SOL    HW111546   2.343   6.809   6.455
 3549SOL    HW211547   2.244   6.791   6.583
 3550SOL     OW11548   5.991   2.140   5.430
 3550SOL    HW111549   6.011   2.236   5.411
 3550SOL    HW211550   5.983   2.126   5.529
 3551SOL     OW11551   6.278   1.086   4.790
 3551SOL    HW111552   6.310   1.151   4.858
 3551SOL    HW211553   6.324   1.103   4.703
 3552SOL     OW11554   6.715   0.832   3.287
 3552SOL    HW111555   6.762   0.817   3.374
 3552SOL    HW211556   6.616   0.828   3.302
 3553SOL     OW11557   5.396   6.188   6.039
 3553SOL    HW111558   5.452   6.270   6.024
 3553SOL    HW211559   5.359   6.191   6.132
 3554SOL     OW11560   5.437   4.031   6.165
 3554SOL    HW111561   5.490   3.972   6.104
 3554SOL    HW211562   5.447   4.000   6.259
 3555SOL     OW11563   2.893   1.225   5.417
 3555SOL    HW111564   2.982   1.259   5.386
 3555SOL    HW211565   2.821   1.261   5.357
 3556SOL     OW11566   5.700   1.884   0.646
 3556SOL    HW111567   5.607   1.849   0.645
 3556SOL    HW211568   5.703   1.972   0.598
 3557SOL     OW11569   4.795   6.716   1.551
 3557SOL    HW111570   4.890   6.687   1.567
 3557SOL    HW211571   4.735   6.675   1.619
 3558SOL     OW11572   4.139   5.637   2.482
 3558SOL    HW111573   4.161   5.548   2.442
 3558SOL    HW211574   4.141   5.706   2.410
 3559SOL     OW11575   4.337   6.311   6.141
 3559SOL    HW111576   4.414   6.257   6.176
 3559SOL    HW211577   4.260   6.250   6.122
 3560SOL     OW11578   2.179   5.925   4.621
 3560SOL    HW111579   2.249   5.948   4.689
 3560SOL    HW211580   2.222   5.883   4.542
 3561SOL     OW11581   3.709   2.927   5.880
 3561SOL    HW111582   3.758   2.922   5.967
 3561SOL    HW211583   3.678   2.836   5.854
 3562SOL     OW11584   3.076   1.264   0.264
 3562SOL    HW111585   3.068   1.186   0.325
 3562SOL    HW211586   3.056   1.234   0.170
 3563SOL     OW11587   6.997   2.132   6.926
 3563SOL    HW111588   6.941   2.149   6.846
 3563SOL    HW211589   6.963   2.051   6.974
 3564SOL     OW11590   6.164   3.473   2.910
 3564SOL    HW111591   6.122   3.463   2.820
 3564SOL    HW211592   6.195   3.568   2.921
 3565SOL     OW11593   5.183   6.972   4.620
 3565SOL    HW111594   5.255   6.903   4.633
 3565SOL    HW211595   5.216   0.031   4.654
 3566SOL     OW11596   0.679   1.189   5.184
 3566SOL    HW111597   0.688   1.112   5.247
 3566SOL    HW211598   0.707   1.273   5.231
 3567SOL     OW11599   0.398   4.422   6.631
 3567SOL    HW111600   0.455   4.499   6.602
 3567SOL    HW211601   0.390   4.422   6.731
 3568SOL     OW11602   3.479   4.000   5.437
 3568SOL    HW111603   3.393   4.051   5.437
 3568SOL    HW211604   3.521   4.005   5.527
 3569SOL     OW11605   1.416   0.689   3.137
 3569SOL    HW111606   1.498   0.727   3.095
 3569SOL    HW211607   1.396   0.600   3.096
 3570SOL     OW11608   6.928   2.074   4.610
 3570SOL    HW111609   6.857   2.090   4.541
 3570SOL    HW211610   6.957   2.162   4.648
 3571SOL     OW11611   6.635   5.307   4.976
 3571SOL    HW111612   6.539   5.298   5.001
 3571SOL    HW211613   6.673   5.217   4.954
 3572SOL     OW11614   5.969   0.037   5.156
 3572SOL    HW111615   6.022   7.000   5.208
 3572SOL    HW211616   5.893   7.021   5.109
 3573SOL     OW11617   0.622   2.373   1.922
 3573SOL    HW111618   0.627   2.339   2.016
 3573SOL    HW211619   0.544   2.331   1.876
 3574SOL     OW11620   6.900   3.648   0.121
 3574SOL    HW111621   6.883   3.719   0.053
 3574SOL    HW211622   6.850   3.671   0.205
 3575SOL     OW11623   6.281   0.353   2.612
 3575SOL    HW111624   6.200   0.403   2.580
 3575SOL    HW211625   6.298   0.276   2.551
 3576SOL     OW11626   0.951   1.005   0.779
 3576SOL    HW111627   0.875   0.985   0.841
 3576SOL    HW211628   1.036   1.008   0.831
 3577SOL     OW11629   2.450   5.098   0.104
 3577SOL    HW111630   2.473   5.025   0.040
 3577SOL    HW211631   2.364   5.076   0.151
 3578SOL     OW11632   3.368   4.587   1.670
 3578SOL    HW111633   3.448   4.619   1.722
 3578SOL    HW211634   3.307   4.664   1.652
 3579SOL     OW11635   1.854   3.008   5.827
 3579SOL    HW111636   1.947   3.014   5.863
 3579SOL    HW211637   1.851   2.941   5.753
 3580SOL     OW11638   6.016   2.156   1.521
 3580SOL    HW111639   6.016   2.056   1.512
 3580SOL    HW211640   6.009   2.197   1.430
 3581SOL     OW11641   0.174   1.013   2.905
 3581SOL    HW111642   0.238   0.948   2.946
 3581SOL    HW211643   0.087   0.968   2.885
 3582SOL     OW11644   0.535   0.106   5.962
 3582SOL    HW111645   0.438   0.130   5.959
 3582SOL    HW211646   0.546   0.011   5.992
 3583SOL     OW11647   1.342   6.370   1.389
 3583SOL    HW111648   1.356   6.389   1.292
 3583SOL    HW211649   1.417   6.409   1.442
 3584SOL     OW11650   5.263   0.247   4.688
 3584SOL    HW111651   5.307   0.282   4.771
 3584SOL    HW211652   5.164   0.260   4.694
 3585SOL     OW11653   2.539   4.574   3.570
 3585SOL    HW111654   2.614   4.613   3.516
 3585SOL    HW211655   2.486   4.648   3.612
 3586SOL     OW11656   1.080   1.025   6.486
 3586SOL    HW111657   1.178   1.040   6.493
 3586SOL    HW211658   1.035   1.054   6.571
 3587SOL     OW11659   3.758   6.957   6.174
 3587SOL    HW111660   3.674   6.948   6.121
 3587SOL    HW211661   3.835   6.918   6.123
 3588SOL     OW11662   2.461   2.378   5.435
 3588SOL    HW111663   2.429   2.339   5.349
 3588SOL    HW211664   2.533   2.321   5.473
 3589SOL     OW11665   3.326   6.143   4.874
 3589SOL    HW111666   3.251   6.173   4.932
 3589SOL    HW211667   3.299   6.151   4.778
 3590SOL     OW11668   1.249   5.191   7.006
 3590SOL    HW111669   1.347   5.169   7.011
 3590SOL    HW211670   1.229   5.264   0.042
 3591SOL     OW11671   5.208   1.069   5.370
 3591SOL    HW111672   5.292   1.118   5.346
 3591SOL    HW211673   5.192   0.995   5.305
 3592SOL     OW11674   5.885   1.732   1.784
 3592SOL    HW111675   5.957   1.800   1.798
 3592SOL    HW211676   5.886   1.666   1.858
 3593SOL     OW11677   1.137   5.645   4.513
 3593SOL    HW111678   1.173   5.609   4.599
 3593SOL    HW211679   1.058   5.703   4.532
 3594SOL     OW11680   3.960   1.576   4.183
 3594SOL    HW111681   3.881   1.594   4.125
 3594SOL    HW211682   4.037   1.545   4.127
 3595SOL     OW11683   2.472   6.510   6.479
 3595SOL    HW111684   2.448   6.493   6.383
 3595SOL    HW211685   2.516   6.429   6.517
 3596SOL     OW11686   7.006   3.697   3.419
 3596SOL    HW111687   0.043   3.640   3.370
 3596SOL    HW211688   7.023   3.692   3.517
 3597SOL     OW11689   4.264   6.918   4.215
 3597SOL    HW111690   4.264   6.846   4.145
 3597SOL    HW211691   4.358   6.948   4.232
 3598SOL     OW11692   2.004   0.375   0.080
 3598SOL    HW111693   2.096   0.342   0.058
 3598SOL    HW211694   1.991   0.374   0.179
 3599SOL     OW11695   0.284   1.672   4.787
 3599SOL    HW111696   0.300   1.683   4.885
 3599SOL    HW211697   0.209   1.732   4.759
 3600SOL     OW11698   6.492   6.767   1.357
 3600SOL    HW111699   6.515   6.864   1.348
 3600SOL    HW211700   6.525   6.717   1.277
 3601SOL     OW11701   6.819   3.354   5.981
 3601SOL    HW111702   6.788   3.447   5.962
 3601SOL    HW211703   6.855   3.349   6.074
 3602SOL     OW11704   3.254   2.462   1.361
 3602SOL    HW111705   3.182   2.409   1.407
 3602SOL    HW211706   3.292   2.409   1.286
 3603SOL     OW11707   3.966   5.013   4.643
 3603SOL    HW111708   4.053   4.997   4.597
 3603SOL    HW211709   3.980   5.067   4.726
 3604SOL     OW11710   6.244   3.990   3.221
 3604SOL    HW111711   6.229   4.019   3.127
 3604SOL    HW211712   6.309   3.913   3.222
 3605SOL     OW11713   6.045   1.715   6.532
 3605SOL    HW111714   6.092   1.628   6.548
 3605SOL    HW211715   5.946   1.700   6.530
 3606SOL     OW11716   1.952   4.342   2.791
 3606SOL    HW111717   1.902   4.422   2.758
 3606SOL    HW211718   2.051   4.361   2.790
 3607SOL     OW11719   4.492   0.146   5.487
 3607SOL    HW111720   4.505   0.170   5.583
 3607SOL    HW211721   4.429   0.069   5.480
 3608SOL     OW11722   0.601   2.772   3.248
 3608SOL    HW111723   0.501   2.768   3.240
 3608SOL    HW211724   0.625   2.848   3.309
 3609SOL     OW11725   6.878   0.798   3.487
 3609SOL    HW111726   6.915   0.891   3.492
 3609SOL    HW211727   6.953   0.733   3.472
 3610SOL     OW11728   1.620   5.102   5.639
 3610SOL    HW111729   1.535   5.136   5.680
 3610SOL    HW211730   1.650   5.165   5.567
 3611SOL     OW11731   5.043   5.234   5.059
 3611SOL    HW111732   5.041   5.299   5.136
 3611SOL    HW211733   4.949   5.221   5.025
 3612SOL     OW11734   2.097   6.031   0.770
 3612SOL    HW111735   2.180   6.085   0.762
 3612SOL    HW211736   2.049   6.057   0.854
 3613SOL     OW11737   5.157   5.255   6.272
 3613SOL    HW111738   5.153   5.218   6.180
 3613SOL    HW211739   5.246   5.298   6.288
 3614SOL     OW11740   3.452   2.950   4.464
 3614SOL    HW111741   3.539   2.919   4.502
 3614SOL    HW211742   3.422   3.032   4.514
 3615SOL     OW11743   5.071   6.961   5.617
 3615SOL    HW111744   5.155   6.976   5.670
 3615SOL    HW211745   5.083   6.881   5.557
 3616SOL     OW11746   6.076   1.275   4.530
 3616SOL    HW111747   6.129   1.207   4.479
 3616SOL    HW211748   6.102   1.367   4.499
 3617SOL     OW11749   0.209   0.759   0.679
 3617SOL    HW111750   0.228   0.831   0.746
 3617SOL    HW211751   0.261   0.677   0.702
 3618SOL     OW11752   3.385   6.235   5.957
 3618SOL    HW111753   3.476   6.251   5.996
 3618SOL    HW211754   3.324   6.309   5.982
 3619SOL     OW11755   5.250   3.873   3.827
 3619SOL    HW111756   5.316   3.925   3.773
 3619SOL    HW211757   5.296   3.799   3.875
 3620SOL     OW11758   6.059   1.455   4.830
 3620SOL    HW111759   6.056   1.356   4.817
 3620SOL    HW211760   6.082   1.475   4.926
 3621SOL     OW11761   1.210   2.662   5.378
 3621SOL    HW111762   1.288   2.696   5.431
 3621SOL    HW211763   1.244   2.618   5.294
 3622SOL     OW11764   0.728   3.886   1.026
 3622SOL    HW111765   0.822   3.902   1.056
 3622SOL    HW211766   0.706   3.790   1.036
 3623SOL     OW11767   6.545   4.760   4.682
 3623SOL    HW111768   6.572   4.837   4.623
 3623SOL    HW211769   6.507   4.687   4.627
 3624SOL     OW11770   2.269   0.430   1.428
 3624SOL    HW111771   2.239   0.525   1.416
 3624SOL    HW211772   2.348   0.412   1.369
 3625SOL     OW11773   0.985   2.705   4.468
 3625SOL    HW111774   0.994   2.611   4.499
 3625SOL    HW211775   1.049   2.763   4.518
 3626SOL     OW11776   2.347   3.978   5.603
 3626SOL    HW111777   2.411   3.937   5.668
 3626SOL    HW211778   2.378   4.070   5.579
 3627SOL     OW11779   3.546   3.306   4.164
 3627SOL    HW111780   3.607   3.339   4.235
 3627SOL    HW211781   3.599   3.258   4.094
 3628SOL     OW11782   2.457   6.000   4.354
 3628SOL    HW111783   2.391   6.065   4.317
 3628SOL    HW211784   2.409   5.919   4.388
 3629SOL     OW11785   5.641   3.262   4.876
 3629SOL    HW111786   5.731   3.289   4.911
 3629SOL    HW211787   5.635   3.286   4.779
 3630SOL     OW11788   5.744   1.322   5.127
 3630SOL    HW111789   5.792   1.360   5.206
 3630SOL    HW211790   5.656   1.368   5.116
 3631SOL     OW11791   2.115   0.747   4.076
 3631SOL    HW111792   2.190   0.791   4.126
 3631SOL    HW211793   2.056   0.817   4.035
 3632SOL     OW11794   4.929   6.810   6.010
 3632SOL    HW111795   4.947   6.741   5.939
 3632SOL    HW211796   4.961   6.899   5.978
 3633SOL     OW11797   1.007   2.550   5.572
 3633SOL    HW111798   0.937   2.621   5.574
 3633SOL    HW211799   1.063   2.561   5.490
 3634SOL     OW11800   3.062   5.159   6.185
 3634SOL    HW111801   3.055   5.160   6.285
 3634SOL    HW211802   3.097   5.071   6.154
 3635SOL     OW11803   2.371   1.593   4.821
 3635SOL    HW111804   2.344   1.632   4.909
 3635SOL    HW211805   2.300   1.610   4.753
 3636SOL     OW11806   1.448   5.947   0.883
 3636SOL    HW111807   1.408   5.950   0.974
 3636SOL    HW211808   1.400   6.011   0.823
 3637SOL     OW11809   4.936   0.874   1.850
 3637SOL    HW111810   4.897   0.828   1.930
 3637SOL    HW211811   4.998   0.947   1.880
 3638SOL     OW11812   6.417   4.779   3.386
 3638SOL    HW111813   6.401   4.681   3.370
 3638SOL    HW211814   6.393   4.801   3.481
 3639SOL     OW11815   2.713   6.658   0.077
 3639SOL    HW111816   2.699   6.605   0.160
 3639SOL    HW211817   2.788   6.723   0.091
 3640SOL     OW11818   2.351   0.073   1.838
 3640SOL    HW111819   2.416   0.063   1.763
 3640SOL    HW211820   2.283   7.028   1.833
 3641SOL     OW11821   1.825   0.703   4.663
 3641SOL    HW111822   1.879   0.750   4.733
 3641SOL    HW211823   1.758   0.643   4.706
 3642SOL     OW11824   6.145   6.770   2.423
 3642SOL    HW111825   6.053   6.741   2.395
 3642SOL    HW211826   6.154   6.868   2.408
 3643SOL     OW11827   3.974   6.071   4.508
 3643SOL    HW111828   3.926   6.089   4.422
 3643SOL    HW211829   4.009   5.977   4.508
 3644SOL     OW11830   6.474   0.050   1.786
 3644SOL    HW111831   6.476   6.989   1.829
 3644SOL    HW211832   6.427   0.114   1.846
 3645SOL     OW11833   4.381   6.007   3.499
 3645SOL    HW111834   4.343   6.097   3.480
 3645SOL    HW211835   4.471   5.999   3.454
 3646SOL     OW11836   0.378   5.553   4.995
 3646SOL    HW111837   0.388   5.647   5.028
 3646SOL    HW211838   0.467   5.507   4.997
 3647SOL     OW11839   3.258   3.075   1.083
 3647SOL    HW111840   3.162   3.054   1.098
 3647SOL    HW211841   3.313   3.033   1.156
 3648SOL     OW11842   2.895   6.982   3.113
 3648SOL    HW111843   2.814   6.977   3.172
 3648SOL    HW211844   2.868   7.012   3.022
 3649SOL     OW11845   3.407   3.202   2.001
 3649SOL    HW111846   3.455   3.276   2.047
 3649SOL    HW211847   3.309   3.224   1.995
 3650SOL     OW11848   5.763   6.727   0.969
 3650SOL    HW111849   5.674   6.682   0.962
 3650SOL    HW211850   5.756   6.822   0.939
 3651SOL     OW11851   1.648   6.052   2.278
 3651SOL    HW111852   1.742   6.086   2.285
 3651SOL    HW211853   1.586   6.116   2.324
 3652SOL     OW11854   4.630   5.812   2.221
 3652SOL    HW111855   4.697   5.842   2.289
 3652SOL    HW211856   4.631   5.875   2.143
 3653SOL     OW11857   6.344   3.012   4.358
 3653SOL    HW111858   6.444   3.015   4.359
 3653SOL    HW211859   6.312   2.943   4.422
 3654SOL     OW11860   2.156   0.308   1.999
 3654SOL    HW111861   2.079   0.318   2.062
 3654SOL    HW211862   2.129   0.248   1.923
 3655SOL     OW11863   6.860   1.544   3.839
 3655SOL    HW111864   6.812   1.562   3.925
 3655SOL    HW211865   6.793   1.524   3.767
 3656SOL     OW11866   2.384   1.709   3.039
 3656SOL    HW111867   2.417   1.691   2.946
 3656SOL    HW211868   2.445   1.773   3.085
 3657SOL     OW11869   4.899   5.170   2.127
 3657SOL    HW111870   4.858   5.216   2.206
 3657SOL    HW211871   4.997   5.190   2.125
 3658SOL     OW11872   2.350   4.915   6.010
 3658SOL    HW111873   2.415   4.990   6.012
 3658SOL    HW211874   2.318   4.900   5.916
 3659SOL     OW11875   1.047   4.124   0.158
 3659SOL    HW111876   1.141   4.091   0.162
 3659SOL    HW211877   0.985   4.046   0.146
 3660SOL     OW11878   4.385   4.172   0.720
 3660SOL    HW111879   4.476   4.145   0.688
 3660SOL    HW211880   4.315   4.126   0.665
 3661SOL     OW11881   5.756   1.457   1.420
 3661SOL    HW111882   5.694   1.501   1.355
 3661SOL    HW211883   5.702   1.405   1.486
 3662SOL     OW11884   1.538   6.122   4.865
 3662SOL    HW111885   1.588   6.113   4.778
 3662SOL    HW211886   1.543   6.216   4.897
 3663SOL     OW11887   1.519   3.087   5.850
 3663SOL    HW111888   1.522   3.147   5.930
 3663SOL    HW211889   1.594   3.020   5.855
 3664SOL     OW11890   3.676   0.023   2.132
 3664SOL    HW111891   3.704   0.072   2.214
 3664SOL    HW211892   3.627   0.086   2.071
 3665SOL     OW11893   2.216   1.248   5.340
 3665SOL    HW111894   2.246   1.321   5.279
 3665SOL    HW211895   2.290   1.182   5.353
 3666SOL     OW11896   1.309   4.656   3.853
 3666SOL    HW111897   1.377   4.726   3.875
 3666SOL    HW211898   1.347   4.566   3.875
 3667SOL     OW11899   0.486   1.525   7.003
 3667SOL    HW111900   0.399   1.556   0.013
 3667SOL    HW211901   0.559   1.535   0.041
 3668SOL     OW11902   2.174   6.644   2.180
 3668SOL    HW111903   2.081   6.652   2.216
 3668SOL    HW211904   2.186   6.552   2.141
 3669SOL     OW11905   5.428   1.631   4.007
 3669SOL    HW111906   5.414   1.560   3.939
 3669SOL    HW211907   5.347   1.637   4.066
 3670SOL     OW11908   2.660   5.745   6.303
 3670SOL    HW111909   2.646   5.792   6.216
 3670SOL    HW211910   2.593   5.671   6.312
 3671SOL     OW11911   2.433   0.529   3.450
 3671SOL    HW111912   2.459   0.433   3.459
 3671SOL    HW211913   2.509   0.579   3.408
 3672SOL     OW11914   6.139   6.851   0.760
 3672SOL    HW111915   6.047   6.851   0.719
 3672SOL    HW211916   6.206   6.880   0.692
 3673SOL     OW11917   4.550   6.822   6.339
 3673SOL    HW111918   4.477   6.838   6.406
 3673SOL    HW211919   4.515   6.838   6.247
 3674SOL     OW11920   0.907   6.314   0.420
 3674SOL    HW111921   0.913   6.356   0.511
 3674SOL    HW211922   0.844   6.237   0.424
 3675SOL     OW11923   2.310   2.312   4.461
 3675SOL    HW111924   2.317   2.314   4.362
 3675SOL    HW211925   2.399   2.291   4.501
 3676SOL     OW11926   1.397   4.699   2.529
 3676SOL    HW111927   1.361   4.760   2.458
 3676SOL    HW211928   1.358   4.608   2.518
 3677SOL     OW11929   5.935   0.260   3.918
 3677SOL    HW111930   5.876   0.331   3.956
 3677SOL    HW211931   5.914   0.172   3.961
 3678SOL     OW11932   1.364   2.069   4.143
 3678SOL    HW111933   1.265   2.080   4.139
 3678SOL    HW211934   1.402   2.080   4.051
 3679SOL     OW11935   0.022   0.692   2.145
 3679SOL    HW111936   0.112   0.667   2.181
 3679SOL    HW211937   7.009   0.613   2.101
 3680SOL     OW11938   6.116   4.394   4.874
 3680SOL    HW111939   6.145   4.366   4.965
 3680SOL    HW211940   6.071   4.317   4.829
 3681SOL     OW11941   5.295   6.557   4.375
 3681SOL    HW111942   5.285   6.467   4.334
 3681SOL    HW211943   5.300   6.626   4.303
 3682SOL     OW11944   0.621   2.421   6.712
 3682SOL    HW111945   0.543   2.421   6.774
 3682SOL    HW211946   0.697   2.473   6.753
 3683SOL     OW11947   5.282   5.863   2.880
 3683SOL    HW111948   5.284   5.921   2.798
 3683SOL    HW211949   5.374   5.827   2.898
 3684SOL     OW11950   2.046   3.343   0.883
 3684SOL    HW111951   2.054   3.340   0.982
 3684SOL    HW211952   2.087   3.260   0.843
 3685SOL     OW11953   5.595   6.656   6.037
 3685SOL    HW111954   5.655   6.704   5.973
 3685SOL    HW211955   5.647   6.589   6.088
 3686SOL     OW11956   0.101   4.309   0.723
 3686SOL    HW111957   0.122   4.255   0.804
 3686SOL    HW211958   0.184   4.320   0.668
 3687SOL     OW11959   3.893   1.540   0.310
 3687SOL    HW111960   3.976   1.491   0.287
 3687SOL    HW211961   3.909   1.596   0.391
 3688SOL     OW11962   7.028   3.598   0.456
 3688SOL    HW111963   0.001   3.630   0.550
 3688SOL    HW211964   6.933   3.594   0.425
 3689SOL     OW11965   2.018   6.661   3.323
 3689SOL    HW111966   2.044   6.616   3.408
 3689SOL    HW211967   1.975   6.595   3.262
 3690SOL     OW11968   4.997   5.448   4.868
 3690SOL    HW111969   5.064   5.389   4.822
 3690SOL    HW211970   4.905   5.428   4.833
 3691SOL     OW11971   3.267   3.117   5.861
 3691SOL    HW111972   3.257   3.020   5.883
 3691SOL    HW211973   3.249   3.172   5.943
 3692SOL     OW11974   0.244   0.137   5.935
 3692SOL    HW111975   0.205   0.050   5.965
 3692SOL    HW211976   0.170   0.204   5.923
 3693SOL     OW11977   1.812   1.071   3.532
 3693SOL    HW111978   1.842   1.098   3.440
 3693SOL    HW211979   1.730   1.122   3.556
 3694SOL     OW11980   1.908   5.528   3.021
 3694SOL    HW111981   1.822   5.484   3.046
 3694SOL    HW211982   1.983   5.465   3.038
 3695SOL     OW11983   1.708   2.165   0.574
 3695SOL    HW111984   1.716   2.258   0.539
 3695SOL    HW211985   1.777   2.107   0.531
 3696SOL     OW11986   2.968   6.502   5.926
 3696SOL    HW111987   3.019   6.428   5.881
 3696SOL    HW211988   2.971   6.584   5.869
 3697SOL     OW11989   4.941   0.826   3.711
 3697SOL    HW111990   4.938   0.826   3.811
 3697SOL    HW211991   5.032   0.855   3.681
 3698SOL     OW11992   3.447   0.089   6.504
 3698SOL    HW111993   3.384   0.043   6.566
 3698SOL    HW211994   3.396   0.128   6.428
 3699SOL     OW11995   0.575   5.387   2.005
 3699SOL    HW111996   0.638   5.446   1.956
 3699SOL    HW211997   0.482   5.404   1.975
 3700SOL     OW11998   6.316   0.812   3.630
 3700SOL    HW111999   6.398   0.816   3.573
 3700SOL    HW212000   6.341   0.828   3.726
 3701SOL     OW12001   5.201   0.683   3.835
 3701SOL    HW112002   5.244   0.725   3.755
 3701SOL    HW212003   5.269   0.631   3.886
 3702SOL     OW12004   5.218   0.947   6.383
 3702SOL    HW112005   5.282   1.015   6.419
 3702SOL    HW212006   5.252   0.855   6.406
 3703SOL     OW12007   3.558   4.951   1.201
 3703SOL    HW112008   3.564   4.852   1.211
 3703SOL    HW212009   3.474   4.985   1.243
 3704SOL     OW12010   3.040   6.378   1.693
 3704SOL    HW112011   2.988   6.417   1.617
 3704SOL    HW212012   2.995   6.296   1.727
 3705SOL     OW12013   6.566   1.173   4.106
 3705SOL    HW112014   6.632   1.120   4.052
 3705SOL    HW212015   6.533   1.118   4.182
 3706SOL     OW12016   3.416   2.008   3.188
 3706SOL    HW112017   3.367   2.082   3.140
 3706SOL    HW212018   3.351   1.937   3.214
 3707SOL     OW12019   4.249   2.399   5.586
 3707SOL    HW112020   4.346   2.383   5.604
 3707SOL    HW212021   4.207   2.443   5.665
 3708SOL     OW12022   6.637   0.439   6.948
 3708SOL    HW112023   6.640   0.340   6.961
 3708SOL    HW212024   6.671   0.462   6.857
 3709SOL     OW12025   6.224   0.283   6.806
 3709SOL    HW112026   6.195   0.188   6.793
 3709SOL    HW212027   6.233   0.327   6.717
 3710SOL     OW12028   0.506   4.559   6.878
 3710SOL    HW112029   0.509   4.486   6.946
 3710SOL    HW212030   0.473   4.643   6.921
 3711SOL     OW12031   6.756   5.179   2.488
 3711SOL    HW112032   6.680   5.163   2.424
 3711SOL    HW212033   6.788   5.091   2.523
 3712SOL     OW12034   1.774   0.532   6.601
 3712SOL    HW112035   1.750   0.566   6.692
 3712SOL    HW212036   1.762   0.606   6.534
 3713SOL     OW12037   3.741   5.235   5.963
 3713SOL    HW112038   3.825   5.196   5.926
 3713SOL    HW212039   3.737   5.219   6.062
 3714SOL     OW12040   4.720   1.858   5.140
 3714SOL    HW112041   4.809   1.873   5.184
 3714SOL    HW212042   4.678   1.947   5.120
 3715SOL     OW12043   5.215   3.870   3.517
 3715SOL    HW112044   5.149   3.898   3.587
 3715SOL    HW212045   5.305   3.855   3.560
 3716SOL     OW12046   0.804   1.324   4.376
 3716SOL    HW112047   0.741   1.279   4.313
 3716SOL    HW212048   0.896   1.319   4.339
 3717SOL     OW12049   5.837   0.696   6.842
 3717SOL    HW112050   5.763   0.762   6.830
 3717SOL    HW212051   5.818   0.637   6.920
 3718SOL     OW12052   0.585   5.542   6.770
 3718SOL    HW112053   0.514   5.595   6.816
 3718SOL    HW212054   0.672   5.592   6.776
 3719SOL     OW12055   3.369   4.877   0.620
 3719SOL    HW112056   3.283   4.864   0.571
 3719SOL    HW212057   3.436   4.919   0.559
 3720SOL     OW12058   0.003   1.165   5.864
 3720SOL    HW112059   0.035   1.246   5.913
 3720SOL    HW212060   0.069   1.090   5.874
 3721SOL     OW12061   5.001   3.155   0.167
 3721SOL    HW112062   5.006   3.255   0.171
 3721SOL    HW212063   5.092   3.118   0.154
 3722SOL     OW12064   5.718   5.893   1.355
 3722SOL    HW112065   5.647   5.902   1.284
 3722SOL    HW212066   5.743   5.797   1.365
 3723SOL     OW12067   5.064   0.961   0.225
 3723SOL    HW112068   5.091   0.878   0.273
 3723SOL    HW212069   4.965   0.966   0.220
 3724SOL     OW12070   0.539   4.238   5.986
 3724SOL    HW112071   0.507   4.222   5.893
 3724SOL    HW212072   0.479   4.304   6.031
 3725SOL     OW12073   5.843   6.185   0.905
 3725SOL    HW112074   5.829   6.274   0.950
 3725SOL    HW212075   5.938   6.177   0.876
 3726SOL     OW12076   6.070   2.778   1.251
 3726SOL    HW112077   6.164   2.752   1.272
 3726SOL    HW212078   6.045   2.745   1.160
 3727SOL     OW12079   2.462   2.852   5.371
 3727SOL    HW112080   2.468   2.932   5.311
 3727SOL    HW212081   2.521   2.779   5.337
 3728SOL     OW12082   0.577   3.648   6.900
 3728SOL    HW112083   0.535   3.557   6.909
 3728SOL    HW212084   0.674   3.637   6.880
 3729SOL     OW12085   0.537   3.164   4.094
 3729SOL    HW112086   0.611   3.154   4.028
 3729SOL    HW212087   0.454   3.123   4.057
 3730SOL     OW12088   2.068   0.562   1.098
 3730SOL    HW112089   2.070   0.586   1.195
 3730SOL    HW212090   2.155   0.519   1.073
 3731SOL     OW12091   2.650   5.576   6.743
 3731SOL    HW112092   2.556   5.576   6.710
 3731SOL    HW212093   2.691   5.666   6.726
 3732SOL     OW12094   2.057   3.558   4.145
 3732SOL    HW112095   2.055   3.576   4.046
 3732SOL    HW212096   2.093   3.638   4.192
 3733SOL     OW12097   3.606   3.944   0.936
 3733SOL    HW112098   3.602   3.886   1.018
 3733SOL    HW212099   3.544   3.907   0.867
 3734SOL     OW12100   4.479   0.356   3.234
 3734SOL    HW112101   4.523   0.431   3.284
 3734SOL    HW212102   4.527   0.270   3.255
 3735SOL     OW12103   3.423   2.061   2.080
 3735SOL    HW112104   3.406   2.122   2.158
 3735SOL    HW212105   3.518   2.069   2.052
 3736SOL     OW12106   4.819   1.100   6.053
 3736SOL    HW112107   4.746   1.032   6.058
 3736SOL    HW212108   4.780   1.191   6.042
 3737SOL     OW12109   3.704   6.657   3.940
 3737SOL    HW112110   3.698   6.618   3.848
 3737SOL    HW212111   3.612   6.666   3.978
 3738SOL     OW12112   0.088   0.338   4.329
 3738SOL    HW112113   0.023   0.316   4.256
 3738SOL    HW212114   0.179   0.304   4.304
 3739SOL     OW12115   0.679   3.064   1.307
 3739SOL    HW112116   0.669   2.968   1.334
 3739SOL    HW212117   0.639   3.123   1.377
 3740SOL     OW12118   5.503   0.123   7.010
 3740SOL    HW112119   5.581   0.148   6.953
 3740SOL    HW212120   5.438   0.071   6.954
 3741SOL     OW12121   3.401   2.151   6.774
 3741SOL    HW112122   3.436   2.063   6.739
 3741SOL    HW212123   3.436   2.166   6.866
 3742SOL     OW12124   3.565   3.323   6.102
 3742SOL    HW112125   3.656   3.362   6.114
 3742SOL    HW212126   3.566   3.227   6.130
 3743SOL     OW12127   0.731   5.945   6.443
 3743SOL    HW112128   0.765   5.867   6.495
 3743SOL    HW212129   0.761   5.937   6.348
 3744SOL     OW12130   6.463   5.231   3.241
 3744SOL    HW112131   6.552   5.254   3.280
 3744SOL    HW212132   6.472   5.220   3.142
 3745SOL     OW12133   5.139   5.056   1.873
 3745SOL    HW112134   5.166   4.963   1.896
 3745SOL    HW212135   5.039   5.063   1.872
 3746SOL     OW12136   4.555   1.465   1.426
 3746SOL    HW112137   4.624   1.534   1.446
 3746SOL    HW212138   4.523   1.424   1.511
 3747SOL     OW12139   3.195   0.249   0.605
 3747SOL    HW112140   3.262   0.313   0.644
 3747SOL    HW212141   3.234   0.206   0.523
 3748SOL     OW12142   5.681   0.428   1.658
 3748SOL    HW112143   5.641   0.482   1.584
 3748SOL    HW212144   5.718   0.342   1.620
 3749SOL     OW12145   1.396   0.679   4.055
 3749SOL    HW112146   1.339   0.603   4.087
 3749SOL    HW212147   1.457   0.646   3.983
 3750SOL     OW12148   0.195   3.870   6.391
 3750SOL    HW112149   0.237   3.858   6.480
 3750SOL    HW212150   0.201   3.966   6.363
 3751SOL     OW12151   1.595   5.115   1.588
 3751SOL    HW112152   1.653   5.160   1.520
 3751SOL    HW212153   1.514   5.171   1.604
 3752SOL     OW12154   5.170   5.987   6.605
 3752SOL    HW112155   5.208   6.079   6.591
 3752SOL    HW212156   5.234   5.933   6.660
 3753SOL     OW12157   0.643   0.405   3.439
 3753SOL    HW112158   0.549   0.420   3.408
 3753SOL    HW212159   0.669   0.479   3.502
 3754SOL     OW12160   3.193   1.529   1.264
 3754SOL    HW112161   3.189   1.621   1.225
 3754SOL    HW212162   3.289   1.503   1.276
 3755SOL     OW12163   2.300   5.758   4.064
 3755SOL    HW112164   2.375   5.697   4.089
 3755SOL    HW212165   2.213   5.719   4.093
 3756SOL     OW12166   1.579   6.680   0.572
 3756SOL    HW112167   1.557   6.629   0.488
 3756SOL    HW212168   1.505   6.667   0.638
 3757SOL     OW12169   0.311   4.757   0.353
 3757SOL    HW112170   0.364   4.724   0.431
 3757SOL    HW212171   0.367   4.751   0.270
 3758SOL     OW12172   1.252   6.397   3.898
 3758SOL    HW112173   1.218   6.342   3.974
 3758SOL    HW212174   1.319   6.343   3.846
 3759SOL     OW12175   4.669   0.558   3.787
 3759SOL    HW112176   4.730   0.534   3.862
 3759SOL    HW212177   4.590   0.607   3.822
 3760SOL     OW12178   0.861   0.763   2.874
 3760SOL    HW112179   0.795   0.738   2.803
 3760SOL    HW212180   0.941   0.705   2.866
 3761SOL     OW12181   4.716   1.478   5.318
 3761SOL    HW112182   4.683   1.441   5.405
 3761SOL    HW212183   4.646   1.538   5.279
 3762SOL     OW12184   0.853   2.333   4.071
 3762SOL    HW112185   0.785   2.287   4.013
 3762SOL    HW212186   0.807   2.375   4.148
 3763SOL     OW12187   0.521   5.976   6.622
 3763SOL    HW112188   0.442   6.017   6.577
 3763SOL    HW212189   0.591   5.955   6.554
 3764SOL     OW12190   3.063   1.090   2.847
 3764SOL    HW112191   3.086   1.118   2.941
 3764SOL    HW212192   3.125   1.134   2.783
 3765SOL     OW12193   5.688   3.127   2.414
 3765SOL    HW112194   5.700   3.138   2.316
 3765SOL    HW212195   5.611   3.066   2.432
 3766SOL     OW12196   1.684   2.744   2.368
 3766SOL    HW112197   1.747   2.667   2.363
 3766SOL    HW212198   1.597   2.719   2.326
 3767SOL     OW12199   1.859   6.049   6.032
 3767SOL    HW112200   1.801   6.124   6.064
 3767SOL    HW212201   1.885   6.065   5.937
 3768SOL     OW12202   1.552   6.769   2.936
 3768SOL    HW112203   1.632   6.742   2.882
 3768SOL    HW212204   1.496   6.833   2.883
 3769SOL     OW12205   5.058   5.086   4.648
 3769SOL    HW112206   5.127   5.147   4.687
 3769SOL    HW212207   4.980   5.140   4.617
 3770SOL     OW12208   2.905   7.021   1.261
 3770SOL    HW112209   2.819   6.971   1.258
 3770SOL    HW212210   2.957   6.993   1.342
 3771SOL     OW12211   6.810   6.116   5.836
 3771SOL    HW112212   6.771   6.046   5.895
 3771SOL    HW212213   6.759   6.201   5.846
 3772SOL     OW12214   2.435   6.151   2.027
 3772SOL    HW112215   2.501   6.076   2.020
 3772SOL    HW212216   2.372   6.133   2.103
 3773SOL     OW12217   4.633   4.625   6.761
 3773SOL    HW112218   4.550   4.607   6.813
 3773SOL    HW212219   4.608   4.665   6.672
 3774SOL     OW12220   6.776   4.613   1.173
 3774SOL    HW112221   6.806   4.656   1.088
 3774SOL    HW212222   6.679   4.632   1.188
 3775SOL     OW12223   5.353   5.662   4.402
 3775SOL    HW112224   5.446   5.700   4.400
 3775SOL    HW212225   5.323   5.654   4.497
 3776SOL     OW12226   4.022   2.610   6.436
 3776SOL    HW112227   4.084   2.532   6.429
 3776SOL    HW212228   4.074   2.695   6.430
 3777SOL     OW12229   2.832   5.226   4.063
 3777SOL    HW112230   2.749   5.181   4.030
 3777SOL    HW212231   2.873   5.279   3.989
 3778SOL     OW12232   3.192   5.019   6.736
 3778SOL    HW112233   3.177   5.080   6.814
 3778SOL    HW212234   3.221   5.072   6.657
 3779SOL     OW12235   0.008   4.803   6.449
 3779SOL    HW112236   0.061   4.858   6.514
 3779SOL    HW212237   0.056   4.798   6.362
 3780SOL     OW12238   6.313   2.904   2.006
 3780SOL    HW112239   6.236   2.959   2.038
 3780SOL    HW212240   6.397   2.936   2.049
 3781SOL     OW12241   1.743   6.639   6.032
 3781SOL    HW112242   1.806   6.690   5.973
 3781SOL    HW212243   1.774   6.544   6.039
 3782SOL     OW12244   3.681   5.474   0.360
 3782SOL    HW112245   3.651   5.492   0.454
 3782SOL    HW212246   3.774   5.509   0.347
 3783SOL     OW12247   4.436   4.800   5.397
 3783SOL    HW112248   4.487   4.872   5.445
 3783SOL    HW212249   4.343   4.832   5.379
 3784SOL     OW12250   5.899   3.277   4.950
 3784SOL    HW112251   5.882   3.259   5.047
 3784SOL    HW212252   5.960   3.207   4.913
 3785SOL     OW12253   0.947   3.012   2.639
 3785SOL    HW112254   0.868   3.068   2.663
 3785SOL    HW212255   1.012   3.010   2.715
 3786SOL     OW12256   1.908   2.854   5.616
 3786SOL    HW112257   1.899   2.906   5.531
 3786SOL    HW212258   1.989   2.795   5.611
 3787SOL     OW12259   5.003   5.892   4.441
 3787SOL    HW112260   5.014   5.805   4.393
 3787SOL    HW212261   4.913   5.931   4.420
 3788SOL     OW12262   5.899   3.256   6.022
 3788SOL    HW112263   5.804   3.276   5.997
 3788SOL    HW212264   5.944   3.207   5.947
 3789SOL     OW12265   1.992   3.265   1.160
 3789SOL    HW112266   1.961   3.257   1.254
 3789SOL    HW212267   2.004   3.174   1.120
 3790SOL     OW12268   1.499   6.862   1.403
 3790SOL    HW112269   1.405   6.835   1.385
 3790SOL    HW212270   1.533   6.814   1.484
 3791SOL     OW12271   4.748   0.502   4.348
 3791SOL    HW112272   4.813   0.557   4.400
 3791SOL    HW212273   4.670   0.478   4.406
 3792SOL     OW12274   6.011   6.711   3.792
 3792SOL    HW112275   6.074   6.711   3.870
 3792SOL    HW212276   5.933   6.653   3.812
 3793SOL     OW12277   4.529   3.817   0.015
 3793SOL    HW112278   4.506   3.823   6.947
 3793SOL    HW212279   4.604   3.880   0.035
 3794SOL     OW12280   1.175   4.869   6.776
 3794SOL    HW112281   1.114   4.790   6.764
 3794SOL    HW212282   1.224   4.886   6.690
 3795SOL     OW12283   3.229   6.370   0.793
 3795SOL    HW112284   3.229   6.315   0.876
 3795SOL    HW212285   3.321   6.370   0.753
 3796SOL     OW12286   5.526   0.690   6.882
 3796SOL    HW112287   5.472   0.755   6.937
 3796SOL    HW212288   5.581   0.633   6.943
 3797SOL     OW12289   0.472   3.073   1.107
 3797SOL    HW112290   0.489   3.164   1.070
 3797SOL    HW212291   0.558   3.035   1.142
 3798SOL     OW12292   0.806   5.100   3.650
 3798SOL    HW112293   0.859   5.015   3.654
 3798SOL    HW212294   0.710   5.078   3.636
 3799SOL     OW12295   6.439   1.484   2.788
 3799SOL    HW112296   6.432   1.571   2.837
 3799SOL    HW212297   6.497   1.421   2.841
 3800SOL     OW12298   5.560   2.886   2.693
 3800SOL    HW112299   5.562   2.791   2.662
 3800SOL    HW212300   5.527   2.945   2.620
 3801SOL     OW12301   6.390   1.463   1.025
 3801SOL    HW112302   6.399   1.459   1.125
 3801SOL    HW212303   6.469   1.420   0.982
 3802SOL     OW12304   6.572   3.427   2.457
 3802SOL    HW112305   6.537   3.394   2.544
 3802SOL    HW212306   6.542   3.367   2.383
 3803SOL     OW12307   4.292   3.778   5.726
 3803SOL    HW112308   4.363   3.833   5.683
 3803SOL    HW212309   4.307   3.777   5.825
 3804SOL     OW12310   3.642   6.182   3.644
 3804SOL    HW112311   3.660   6.119   3.719
 3804SOL    HW212312   3.661   6.137   3.557
 3805SOL     OW12313   2.376   2.173   6.869
 3805SOL    HW112314   2.306   2.105   6.893
 3805SOL    HW212315   2.467   2.130   6.875
 3806SOL     OW12316   1.924   4.442   2.206
 3806SOL    HW112317   1.904   4.348   2.179
 3806SOL    HW212318   1.930   4.500   2.124
 3807SOL     OW12319   0.474   4.161   3.959
 3807SOL    HW112320   0.411   4.122   3.892
 3807SOL    HW212321   0.563   4.117   3.949
 3808SOL     OW12322   2.669   6.843   6.049
 3808SOL    HW112323   2.601   6.770   6.043
 3808SOL    HW212324   2.627   6.929   6.019
 3809SOL     OW12325   5.289   1.420   2.187
 3809SOL    HW112326   5.229   1.456   2.116
 3809SOL    HW212327   5.359   1.362   2.145
 3810SOL     OW12328   5.315   2.469   3.061
 3810SOL    HW112329   5.241   2.534   3.077
 3810SOL    HW212330   5.368   2.498   2.981
 3811SOL     OW12331   0.168   6.022   5.551
 3811SOL    HW112332   0.238   5.984   5.611
 3811SOL    HW212333   0.079   5.984   5.576
 3812SOL     OW12334   3.767   5.674   0.586
 3812SOL    HW112335   3.845   5.646   0.641
 3812SOL    HW212336   3.695   5.605   0.592
 3813SOL     OW12337   6.039   3.680   0.093
 3813SOL    HW112338   5.961   3.619   0.110
 3813SOL    HW212339   6.110   3.663   0.162
 3814SOL     OW12340   0.287   0.254   5.075
 3814SOL    HW112341   0.218   0.230   5.143
 3814SOL    HW212342   0.243   0.266   4.986
 3815SOL     OW12343   5.165   2.516   5.845
 3815SOL    HW112344   5.210   2.474   5.924
 3815SOL    HW212345   5.066   2.500   5.851
 3816SOL     OW12346   6.564   6.699   1.063
 3816SOL    HW112347   6.591   6.604   1.045
 3816SOL    HW212348   6.466   6.709   1.046
 3817SOL     OW12349   3.714   3.692   1.912
 3817SOL    HW112350   3.657   3.739   1.845
 3817SOL    HW212351   3.718   3.746   1.996
 3818SOL     OW12352   4.613   5.999   1.993
 3818SOL    HW112353   4.627   6.095   1.969
 3818SOL    HW212354   4.657   5.940   1.925
 3819SOL     OW12355   6.377   3.264   2.881
 3819SOL    HW112356   6.319   3.211   2.944
 3819SOL    HW212357   6.360   3.361   2.894
 3820SOL     OW12358   3.280   6.547   5.904
 3820SOL    HW112359   3.203   6.559   5.966
 3820SOL    HW212360   3.256   6.481   5.833
 3821SOL     OW12361   2.069   6.747   0.687
 3821SOL    HW112362   2.059   6.844   0.662
 3821SOL    HW212363   1.979   6.707   0.702
 3822SOL     OW12364   5.614   6.768   1.978
 3822SOL    HW112365   5.645   6.772   1.883
 3822SOL    HW212366   5.528   6.719   1.984
 3823SOL     OW12367   5.285   5.734   4.947
 3823SOL    HW112368   5.365   5.779   4.908
 3823SOL    HW212369   5.253   5.663   4.883
 3824SOL     OW12370   1.888   2.436   0.877
 3824SOL    HW112371   1.815   2.397   0.934
 3824SOL    HW212372   1.866   2.531   0.856
 3825SOL     OW12373   0.711   4.930   5.497
 3825SOL    HW112374   0.665   4.984   5.427
 3825SOL    HW212375   0.733   4.989   5.575
 3826SOL     OW12376   4.954   3.904   3.453
 3826SOL    HW112377   5.054   3.900   3.443
 3826SOL    HW212378   4.919   3.812   3.470
 3827SOL     OW12379   0.417   1.393   6.770
 3827SOL    HW112380   0.420   1.441   6.858
 3827SOL    HW212381   0.366   1.307   6.781
 3828SOL     OW12382   3.164   3.303   4.895
 3828SOL    HW112383   3.101   3.371   4.933
 3828SOL    HW212384   3.113   3.221   4.870
 3829SOL     OW12385   0.593   3.228   1.515
 3829SOL    HW112386   0.665   3.286   1.554
 3829SOL    HW212387   0.551   3.174   1.589
 3830SOL     OW12388   5.219   0.065   3.737
 3830SOL    HW112389   5.192   7.027   3.669
 3830SOL    HW212390   5.204   0.028   3.828
 3831SOL     OW12391   5.220   2.546   3.495
 3831SOL    HW112392   5.275   2.477   3.448
 3831SOL    HW212393   5.136   2.563   3.444
 3832SOL     OW12394   6.119   1.313   3.863
 3832SOL    HW112395   6.201   1.338   3.914
 3832SOL    HW212396   6.049   1.279   3.926
 3833SOL     OW12397   1.448   3.004   5.314
 3833SOL    HW112398   1.403   3.086   5.348
 3833SOL    HW212399   1.457   2.937   5.388
 3834SOL     OW12400   5.455   4.585   1.014
 3834SOL    HW112401   5.465   4.661   1.079
 3834SOL    HW212402   5.545   4.561   0.978
 3835SOL     OW12403   4.513   5.500   5.253
 3835SOL    HW112404   4.609   5.526   5.240
 3835SOL    HW212405   4.456   5.559   5.196
 3836SOL     OW12406   7.027   6.744   4.479
 3836SOL    HW112407   6.984   6.663   4.438
 3836SOL    HW212408   6.996   6.755   4.573
 3837SOL     OW12409   4.689   4.568   5.844
 3837SOL    HW112410   4.752   4.585   5.919
 3837SOL    HW212411   4.727   4.605   5.759
 3838SOL     OW12412   6.751   0.583   4.197
 3838SOL    HW112413   6.743   0.667   4.251
 3838SOL    HW212414   6.699   0.593   4.112
 3839SOL     OW12415   4.698   0.910   3.808
 3839SOL    HW112416   4.759   0.852   3.753
 3839SOL    HW212417   4.605   0.871   3.806
 3840SOL     OW12418   4.062   1.631   6.562
 3840SOL    HW112419   4.011   1.678   6.490
 3840SOL    HW212420   4.128   1.568   6.521
 3841SOL     OW12421   5.868   3.828   3.080
 3841SOL    HW112422   5.798   3.841   3.151
 3841SOL    HW212423   5.947   3.783   3.120
 3842SOL     OW12424   1.848   4.224   5.854
 3842SOL    HW112425   1.829   4.235   5.757
 3842SOL    HW212426   1.937   4.263   5.876
 3843SOL     OW12427   5.819   2.664   6.426
 3843SOL    HW112428   5.817   2.578   6.478
 3843SOL    HW212429   5.727   2.704   6.424
 3844SOL     OW12430   6.626   0.199   1.016
 3844SOL    HW112431   6.622   0.101   1.032
 3844SOL    HW212432   6.587   0.247   1.095
 3845SOL     OW12433   2.104   5.611   0.229
 3845SOL    HW112434   2.130   5.701   0.196
 3845SOL    HW212435   2.016   5.585   0.188
 3846SOL     OW12436   0.141   3.361   2.971
 3846SOL    HW112437   0.228   3.314   2.982
 3846SOL    HW212438   0.147   3.428   2.897
 3847SOL     OW12439   0.506   1.594   6.596
 3847SOL    HW112440   0.473   1.517   6.650
 3847SOL    HW212441   0.602   1.612   6.618
 3848SOL     OW12442   6.529   4.765   2.002
 3848SOL    HW112443   6.478   4.849   2.020
 3848SOL    HW212444   6.491   4.690   2.056
 3849SOL     OW12445   0.782   4.073   5.994
 3849SOL    HW112446   0.695   4.101   6.034
 3849SOL    HW212447   0.766   4.036   5.902
 3850SOL     OW12448   2.792   2.681   1.210
 3850SOL    HW112449   2.760   2.604   1.154
 3850SOL    HW212450   2.742   2.680   1.297
 3851SOL     OW12451   0.419   5.934   2.936
 3851SOL    HW112452   0.422   5.836   2.915
 3851SOL    HW212453   0.483   5.955   3.010
 3852SOL     OW12454   2.077   0.671   4.776
 3852SOL    HW112455   2.077   0.626   4.865
 3852SOL    HW212456   2.009   0.627   4.717
 3853SOL     OW12457   2.864   0.883   3.147
 3853SOL    HW112458   2.850   0.786   3.166
 3853SOL    HW212459   2.788   0.917   3.091
 3854SOL     OW12460   0.406   1.827   2.036
 3854SOL    HW112461   0.330   1.762   2.032
 3854SOL    HW212462   0.416   1.863   2.129
 3855SOL     OW12463   3.288   6.860   6.574
 3855SOL    HW112464   3.328   6.841   6.484
 3855SOL    HW212465   3.284   6.775   6.627
 3856SOL     OW12466   6.977   2.461   6.383
 3856SOL    HW112467   6.981   2.406   6.467
 3856SOL    HW212468   6.897   2.521   6.387
 3857SOL     OW12469   2.434   0.648   6.240
 3857SOL    HW112470   2.483   0.726   6.201
 3857SOL    HW212471   2.347   0.637   6.192
 3858SOL     OW12472   3.986   0.961   4.352
 3858SOL    HW112473   3.981   1.058   4.374
 3858SOL    HW212474   4.069   0.921   4.391
 3859SOL     OW12475   6.407   0.117   2.064
 3859SOL    HW112476   6.434   0.206   2.100
 3859SOL    HW212477   6.464   0.046   2.106
 3860SOL     OW12478   1.451   6.884   4.269
 3860SOL    HW112479   1.518   6.931   4.325
 3860SOL    HW212480   1.362   6.930   4.277
 3861SOL     OW12481   2.692   5.645   1.736
 3861SOL    HW112482   2.724   5.572   1.796
 3861SOL    HW212483   2.681   5.609   1.643
 3862SOL     OW12484   1.533   0.822   4.244
 3862SOL    HW112485   1.499   0.758   4.175
 3862SOL    HW212486   1.633   0.829   4.236
 3863SOL     OW12487   3.690   0.918   0.544
 3863SOL    HW112488   3.647   0.830   0.522
 3863SOL    HW212489   3.620   0.986   0.564
 3864SOL     OW12490   1.419   0.423   4.596
 3864SOL    HW112491   1.426   0.493   4.524
 3864SOL    HW212492   1.501   0.427   4.653
 3865SOL     OW12493   5.226   1.481   0.835
 3865SOL    HW112494   5.269   1.451   0.750
 3865SOL    HW212495   5.127   1.480   0.824
 3866SOL     OW12496   3.216   0.976   6.621
 3866SOL    HW112497   3.208   1.014   6.713
 3866SOL    HW212498   3.252   0.883   6.627
 3867SOL     OW12499   0.004   3.252   2.549
 3867SOL    HW112500   6.964   3.229   2.617
 3867SOL    HW212501   6.992   3.304   2.475
 3868SOL     OW12502   4.049   0.484   0.010
 3868SOL    HW112503   3.983   0.559   0.023
 3868SOL    HW212504   4.102   0.501   6.957
 3869SOL     OW12505   4.529   1.217   4.220
 3869SOL    HW112506   4.594   1.246   4.290
 3869SOL    HW212507   4.534   1.117   4.209
 3870SOL     OW12508   0.201   0.970   5.611
 3870SOL    HW112509   0.184   1.057   5.564
 3870SOL    HW212510   0.284   0.928   5.574
 3871SOL     OW12511   2.877   5.962   4.251
 3871SOL    HW112512   2.945   5.891   4.230
 3871SOL    HW212513   2.914   6.024   4.320
 3872SOL     OW12514   2.881   3.511   5.247
 3872SOL    HW112515   2.980   3.499   5.250
 3872SOL    HW212516   2.859   3.609   5.249
 3873SOL     OW12517   4.399   1.870   0.120
 3873SOL    HW112518   4.448   1.942   0.070
 3873SOL    HW212519   4.312   1.907   0.154
 3874SOL     OW12520   2.329   1.333   1.119
 3874SOL    HW112521   2.405   1.298   1.174
 3874SOL    HW212522   2.355   1.331   1.022
 3875SOL     OW12523   0.975   2.178   6.596
 3875SOL    HW112524   0.979   2.121   6.514
 3875SOL    HW212525   0.886   2.224   6.601
 3876SOL     OW12526   3.137   5.468   2.297
 3876SOL    HW112527   3.182   5.391   2.341
 3876SOL    HW212528   3.045   5.478   2.334
 3877SOL     OW12529   0.275   1.491   5.917
 3877SOL    HW112530   0.243   1.578   5.954
 3877SOL    HW212531   0.301   1.503   5.821
 3878SOL     OW12532   4.861   1.436   4.848
 3878SOL    HW112533   4.881   1.340   4.867
 3878SOL    HW212534   4.924   1.470   4.778
 3879SOL     OW12535   5.130   5.984   0.460
 3879SOL    HW112536   5.123   5.917   0.387
 3879SOL    HW212537   5.137   5.937   0.548
 3880SOL     OW12538   4.981   4.676   4.009
 3880SOL    HW112539   5.054   4.629   4.059
 3880SOL    HW212540   4.993   4.774   4.018
 3881SOL     OW12541   0.851   3.358   0.417
 3881SOL    HW112542   0.803   3.443   0.438
 3881SOL    HW212543   0.812   3.284   0.472
 3882SOL     OW12544   0.400   2.052   5.469
 3882SOL    HW112545   0.382   2.131   5.409
 3882SOL    HW212546   0.389   2.080   5.564
 3883SOL     OW12547   4.339   6.099   3.776
 3883SOL    HW112548   4.430   6.074   3.808
 3883SOL    HW212549   4.337   6.095   3.676
 3884SOL     OW12550   0.407   3.460   2.333
 3884SOL    HW112551   0.351   3.383   2.302
 3884SOL    HW212552   0.351   3.543   2.336
 3885SOL     OW12553   4.210   5.902   1.954
 3885SOL    HW112554   4.234   5.805   1.945
 3885SOL    HW212555   4.147   5.914   2.031
 3886SOL     OW12556   2.732   6.003   6.132
 3886SOL    HW112557   2.774   6.026   6.220
 3886SOL    HW212558   2.786   5.932   6.087
 3887SOL     OW12559   1.453   5.802   1.820
 3887SOL    HW112560   1.474   5.797   1.722
 3887SOL    HW212561   1.505   5.732   1.868
 3888SOL     OW12562   5.445   4.878   3.980
 3888SOL    HW112563   5.425   4.781   3.989
 3888SOL    HW212564   5.509   4.905   4.052
 3889SOL     OW12565   5.626   4.292   0.473
 3889SOL    HW112566   5.564   4.311   0.549
 3889SOL    HW212567   5.598   4.346   0.393
 3890SOL     OW12568   5.544   3.377   3.982
 3890SOL    HW112569   5.636   3.408   3.958
 3890SOL    HW212570   5.524   3.403   4.076
 3891SOL     OW12571   4.839   5.335   3.674
 3891SOL    HW112572   4.829   5.260   3.609
 3891SOL    HW212573   4.929   5.378   3.662
 3892SOL     OW12574   6.731   2.069   1.656
 3892SOL    HW112575   6.642   2.113   1.643
 3892SOL    HW212576   6.738   2.037   1.750
 3893SOL     OW12577   4.149   3.636   2.816
 3893SOL    HW112578   4.129   3.591   2.729
 3893SOL    HW212579   4.246   3.659   2.820
 3894SOL     OW12580   4.566   0.670   5.609
 3894SOL    HW112581   4.607   0.583   5.581
 3894SOL    HW212582   4.570   0.735   5.534
 3895SOL     OW12583   0.268   0.348   3.974
 3895SOL    HW112584   0.272   0.393   3.885
 3895SOL    HW212585   0.249   0.251   3.961
 3896SOL     OW12586   2.003   1.509   6.278
 3896SOL    HW112587   2.030   1.603   6.297
 3896SOL    HW212588   1.913   1.507   6.236
 3897SOL     OW12589   3.973   5.705   1.224
 3897SOL    HW112590   4.051   5.734   1.280
 3897SOL    HW212591   3.935   5.620   1.262
 3898SOL     OW12592   3.623   3.332   1.487
 3898SOL    HW112593   3.669   3.364   1.571
 3898SOL    HW212594   3.528   3.310   1.508
 3899SOL     OW12595   3.777   0.005   5.254
 3899SOL    HW112596   3.697   6.988   5.218
 3899SOL    HW212597   3.814   0.066   5.184
 3900SOL     OW12598   4.708   4.326   2.937
 3900SOL    HW112599   4.632   4.336   2.873
 3900SOL    HW212600   4.766   4.407   2.933
 3901SOL     OW12601   2.769   1.149   6.774
 3901SOL    HW112602   2.832   1.084   6.732
 3901SOL    HW212603   2.810   1.240   6.773
 3902SOL     OW12604   5.212   2.790   2.630
 3902SOL    HW112605   5.150   2.779   2.553
 3902SOL    HW212606   5.300   2.825   2.597
 3903SOL     OW12607   2.888   4.150   6.105
 3903SOL    HW112608   2.812   4.180   6.047
 3903SOL    HW212609   2.944   4.084   6.055
 3904SOL     OW12610   1.906   0.353   0.849
 3904SOL    HW112611   1.983   0.404   0.887
 3904SOL    HW212612   1.852   0.314   0.924
 3905SOL     OW12613   0.031   6.101   4.959
 3905SOL    HW112614   6.989   6.137   5.019
 3905SOL    HW212615   0.030   6.150   4.872
 3906SOL     OW12616   6.991   6.315   4.802
 3906SOL    HW112617   6.950   6.325   4.712
 3906SOL    HW212618   6.961   6.390   4.861
 3907SOL     OW12619   6.014   2.449   3.499
 3907SOL    HW112620   6.027   2.355   3.470
 3907SOL    HW212621   6.062   2.464   3.585
 3908SOL     OW12622   2.788   4.185   6.349
 3908SOL    HW112623   2.826   4.169   6.257
 3908SOL    HW212624   2.689   4.190   6.344
 3909SOL     OW12625   5.949   5.938   3.556
 3909SOL    HW112626   6.010   5.963   3.481
 3909SOL    HW212627   5.854   5.953   3.529
 3910SOL     OW12628   3.683   3.215   2.988
 3910SOL    HW112629   3.694   3.289   2.922
 3910SOL    HW212630   3.773   3.176   3.009
 3911SOL     OW12631   6.354   2.480   5.419
 3911SOL    HW112632   6.256   2.460   5.410
 3911SOL    HW212633   6.388   2.518   5.333
 3912SOL     OW12634   5.226   3.096   6.090
 3912SOL    HW112635   5.268   3.058   6.172
 3912SOL    HW212636   5.127   3.108   6.105
 3913SOL     OW12637   1.307   6.407   1.088
 3913SOL    HW112638   1.214   6.392   1.053
 3913SOL    HW212639   1.349   6.483   1.037
 3914SOL     OW12640   3.139   5.880   5.685
 3914SOL    HW112641   3.157   5.934   5.767
 3914SOL    HW212642   3.216   5.818   5.668
 3915SOL     OW12643   0.016   6.206   1.532
 3915SOL    HW112644   7.012   6.281   1.589
 3915SOL    HW212645   0.044   6.130   1.590
 3916SOL     OW12646   1.162   0.344   3.226
 3916SOL    HW112647   1.168   0.441   3.251
 3916SOL    HW212648   1.071   0.324   3.192
 3917SOL     OW12649   2.355   0.635   6.844
 3917SOL    HW112650   2.329   0.538   6.837
 3917SOL    HW212651   2.293   0.690   6.788
 3918SOL     OW12652   5.482   3.353   6.907
 3918SOL    HW112653   5.578   3.327   6.903
 3918SOL    HW212654   5.468   3.419   6.981
 3919SOL     OW12655   3.149   6.750   0.533
 3919SOL    HW112656   3.208   6.796   0.468
 3919SOL    HW212657   3.198   6.737   0.619
 3920SOL     OW12658   2.297   1.417   6.836
 3920SOL    HW112659   2.198   1.406   6.834
 3920SOL    HW212660   2.325   1.478   6.762
 3921SOL     OW12661   0.637   3.702   1.601
 3921SOL    HW112662   0.663   3.644   1.678
 3921SOL    HW212663   0.582   3.779   1.633
 3922SOL     OW12664   1.425   5.295   1.270
 3922SOL    HW112665   1.469   5.210   1.241
 3922SOL    HW212666   1.481   5.373   1.242
 3923SOL     OW12667   6.439   0.464   0.897
 3923SOL    HW112668   6.380   0.404   0.952
 3923SOL    HW212669   6.493   0.409   0.834
 3924SOL     OW12670   6.347   5.230   4.654
 3924SOL    HW112671   6.352   5.330   4.651
 3924SOL    HW212672   6.398   5.197   4.734
 3925SOL     OW12673   1.410   4.950   1.818
 3925SOL    HW112674   1.325   4.940   1.766
 3925SOL    HW212675   1.454   5.037   1.794
 3926SOL     OW12676   3.542   5.342   2.874
 3926SOL    HW112677   3.578   5.435   2.878
 3926SOL    HW212678   3.617   5.278   2.859
 3927SOL     OW12679   0.971   3.404   6.658
 3927SOL    HW112680   0.953   3.499   6.683
 3927SOL    HW212681   0.886   3.360   6.631
 3928SOL     OW12682   6.229   5.922   6.652
 3928SOL    HW112683   6.225   5.889   6.558
 3928SOL    HW212684   6.273   6.011   6.654
 3929SOL     OW12685   0.679   1.496   4.522
 3929SOL    HW112686   0.603   1.443   4.559
 3929SOL    HW212687   0.724   1.442   4.450
 3930SOL     OW12688   3.223   1.774   3.864
 3930SOL    HW112689   3.322   1.762   3.856
 3930SOL    HW212690   3.186   1.799   3.775
 3931SOL     OW12691   4.846   0.257   2.513
 3931SOL    HW112692   4.862   0.216   2.424
 3931SOL    HW212693   4.929   0.307   2.541
 3932SOL     OW12694   1.737   1.863   4.292
 3932SOL    HW112695   1.807   1.829   4.229
 3932SOL    HW212696   1.707   1.953   4.263
 3933SOL     OW12697   1.545   0.092   6.120
 3933SOL    HW112698   1.449   0.120   6.111
 3933SOL    HW212699   1.601   0.173   6.140
 3934SOL     OW12700   5.941   6.482   6.771
 3934SOL    HW112701   5.879   6.445   6.702
 3934SOL    HW212702   5.895   6.556   6.820
 3935SOL     OW12703   5.051   6.624   1.521
 3935SOL    HW112704   4.981   6.590   1.458
 3935SOL    HW212705   5.134   6.568   1.512
 3936SOL     OW12706   0.492   4.388   2.426
 3936SOL    HW112707   0.401   4.350   2.442
 3936SOL    HW212708   0.530   4.352   2.341
 3937SOL     OW12709   0.355   1.808   2.346
 3937SOL    HW112710   0.425   1.874   2.319
 3937SOL    HW212711   0.278   1.857   2.387
 3938SOL     OW12712   0.087   2.390   3.145
 3938SOL    HW112713   0.139   2.344   3.217
 3938SOL    HW212714   0.086   2.333   3.063
 3939SOL     OW12715   2.184   2.216   1.810
 3939SOL    HW112716   2.264   2.169   1.849
 3939SOL    HW212717   2.113   2.149   1.788
 3940SOL     OW12718   4.337   3.726   1.195
 3940SOL    HW112719   4.271   3.799   1.175
 3940SOL    HW212720   4.345   3.666   1.116
 3941SOL     OW12721   4.906   3.245   6.564
 3941SOL    HW112722   4.849   3.164   6.573
 3941SOL    HW212723   4.861   3.311   6.503
 3942SOL     OW12724   0.076   0.458   0.349
 3942SOL    HW112725   0.167   0.423   0.371
 3942SOL    HW212726   0.083   0.553   0.320
 3943SOL     OW12727   6.781   2.848   5.129
 3943SOL    HW112728   6.705   2.784   5.137
 3943SOL    HW212729   6.754   2.937   5.167
 3944SOL     OW12730   5.536   1.508   5.118
 3944SOL    HW112731   5.438   1.499   5.137
 3944SOL    HW212732   5.550   1.555   5.031
 3945SOL     OW12733   6.700   0.784   0.694
 3945SOL    HW112734   6.690   0.848   0.771
 3945SOL    HW212735   6.792   0.793   0.656
 3946SOL     OW12736   3.819   5.188   3.282
 3946SOL    HW112737   3.723   5.194   3.310
 3946SOL    HW212738   3.842   5.268   3.228
 3947SOL     OW12739   6.692   4.256   6.256
 3947SOL    HW112740   6.665   4.159   6.254
 3947SOL    HW212741   6.785   4.264   6.292
 3948SOL     OW12742   6.049   3.691   0.815
 3948SOL    HW112743   6.136   3.729   0.846
 3948SOL    HW212744   5.984   3.690   0.891
 3949SOL     OW12745   5.551   6.089   3.358
 3949SOL    HW112746   5.557   6.025   3.282
 3949SOL    HW212747   5.596   6.050   3.439
 3950SOL     OW12748   1.851   6.245   0.419
 3950SOL    HW112749   1.925   6.178   0.426
 3950SOL    HW212750   1.858   6.293   0.332
 3951SOL     OW12751   5.895   6.604   1.905
 3951SOL    HW112752   5.957   6.565   1.973
 3951SOL    HW212753   5.897   6.704   1.912
 3952SOL     OW12754   5.814   2.078   6.952
 3952SOL    HW112755   5.776   1.994   6.912
 3952SOL    HW212756   5.746   2.151   6.945
 3953SOL     OW12757   3.872   4.038   2.909
 3953SOL    HW112758   3.911   3.949   2.932
 3953SOL    HW212759   3.831   4.078   2.991
 3954SOL     OW12760   4.182   5.080   5.862
 3954SOL    HW112761   4.265   5.080   5.806
 3954SOL    HW212762   4.207   5.074   5.959
 3955SOL     OW12763   4.176   1.249   4.737
 3955SOL    HW112764   4.255   1.265   4.678
 3955SOL    HW212765   4.092   1.255   4.683
 3956SOL     OW12766   2.443   1.447   1.789
 3956SOL    HW112767   2.488   1.536   1.775
 3956SOL    HW212768   2.490   1.398   1.863
 3957SOL     OW12769   3.705   1.111   4.280
 3957SOL    HW112770   3.715   1.030   4.338
 3957SOL    HW212771   3.781   1.116   4.216
 3958SOL     OW12772   5.717   6.933   5.607
 3958SOL    HW112773   5.772   7.003   5.654
 3958SOL    HW212774   5.658   6.977   5.539
 3959SOL     OW12775   4.981   5.187   0.035
 3959SOL    HW112776   4.970   5.286   0.031
 3959SOL    HW212777   5.052   5.158   7.000
 3960SOL     OW12778   6.053   1.724   4.795
 3960SOL    HW112779   6.043   1.625   4.795
 3960SOL    HW212780   6.135   1.749   4.848
 3961SOL     OW12781   5.433   6.222   4.016
 3961SOL    HW112782   5.471   6.268   3.936
 3961SOL    HW212783   5.422   6.124   3.997
 3962SOL     OW12784   6.836   5.726   5.119
 3962SOL    HW112785   6.831   5.755   5.215
 3962SOL    HW212786   6.901   5.784   5.070
 3963SOL     OW12787   4.544   6.977   1.808
 3963SOL    HW112788   4.471   6.911   1.792
 3963SOL    HW212789   4.626   6.948   1.757
 3964SOL     OW12790   5.488   2.974   3.312
 3964SOL    HW112791   5.487   3.031   3.230
 3964SOL    HW212792   5.550   3.014   3.380
 3965SOL     OW12793   4.765   4.135   4.187
 3965SOL    HW112794   4.795   4.098   4.275
 3965SOL    HW212795   4.804   4.226   4.174
 3966SOL     OW12796   2.528   6.860   6.423
 3966SOL    HW112797   2.575   6.776   6.449
 3966SOL    HW212798   2.595   6.934   6.412
 3967SOL     OW12799   2.077   4.291   3.838
 3967SOL    HW112800   2.023   4.367   3.873
 3967SOL    HW212801   2.141   4.260   3.908
 3968SOL     OW12802   3.571   0.092   0.661
 3968SOL    HW112803   3.484   0.066   0.704
 3968SOL    HW212804   3.580   0.043   0.574
 3969SOL     OW12805   0.874   4.949   3.162
 3969SOL    HW112806   0.825   4.940   3.249
 3969SOL    HW212807   0.813   4.986   3.093
 3970SOL     OW12808   5.141   6.310   1.946
 3970SOL    HW112809   5.161   6.303   2.044
 3970SOL    HW212810   5.046   6.287   1.930
 3971SOL     OW12811   1.823   6.272   3.758
 3971SOL    HW112812   1.898   6.207   3.746
 3971SOL    HW212813   1.832   6.318   3.846
 3972SOL     OW12814   1.262   3.514   6.825
 3972SOL    HW112815   1.248   3.472   6.914
 3972SOL    HW212816   1.325   3.458   6.771
 3973SOL     OW12817   2.063   4.836   0.823
 3973SOL    HW112818   2.087   4.931   0.843
 3973SOL    HW212819   1.978   4.834   0.771
 3974SOL     OW12820   2.339   1.525   5.658
 3974SOL    HW112821   2.281   1.561   5.585
 3974SOL    HW212822   2.302   1.554   5.747
 3975SOL     OW12823   6.328   3.097   6.389
 3975SOL    HW112824   6.301   3.011   6.346
 3975SOL    HW212825   6.419   3.124   6.355
 3976SOL     OW12826   1.826   4.581   2.691
 3976SOL    HW112827   1.840   4.598   2.593
 3976SOL    HW212828   1.877   4.648   2.744
 3977SOL     OW12829   0.749   2.926   0.113
 3977SOL    HW112830   0.677   2.951   0.178
 3977SOL    HW212831   0.712   2.928   0.020
 3978SOL     OW12832   5.891   4.409   3.598
 3978SOL    HW112833   5.798   4.379   3.617
 3978SOL    HW212834   5.947   4.331   3.572
 3979SOL     OW12835   4.336   6.561   6.048
 3979SOL    HW112836   4.242   6.539   6.022
 3979SOL    HW212837   4.380   6.480   6.086
 3980SOL     OW12838   5.127   5.390   5.738
 3980SOL    HW112839   5.219   5.395   5.699
 3980SOL    HW212840   5.076   5.472   5.712
 3981SOL     OW12841   4.558   5.746   0.287
 3981SOL    HW112842   4.521   5.735   0.194
 3981SOL    HW212843   4.626   5.820   0.287
 3982SOL     OW12844   2.769   5.973   3.469
 3982SOL    HW112845   2.850   5.981   3.410
 3982SOL    HW212846   2.723   6.061   3.476
 3983SOL     OW12847   3.395   5.647   4.484
 3983SOL    HW112848   3.305   5.635   4.441
 3983SOL    HW212849   3.423   5.743   4.477
 3984SOL     OW12850   6.572   2.653   3.461
 3984SOL    HW112851   6.553   2.708   3.543
 3984SOL    HW212852   6.546   2.558   3.479
 3985SOL     OW12853   4.157   5.041   6.401
 3985SOL    HW112854   4.188   4.973   6.467
 3985SOL    HW212855   4.205   5.127   6.416
 3986SOL     OW12856   5.516   0.527   2.804
 3986SOL    HW112857   5.491   0.466   2.880
 3986SOL    HW212858   5.566   0.606   2.839
 3987SOL     OW12859   3.785   5.558   5.010
 3987SOL    HW112860   3.798   5.656   4.994
 3987SOL    HW212861   3.816   5.507   4.930
 3988SOL     OW12862   3.692   5.751   1.083
 3988SOL    HW112863   3.769   5.739   1.145
 3988SOL    HW212864   3.607   5.749   1.135
 3989SOL     OW12865   5.569   2.566   0.754
 3989SOL    HW112866   5.486   2.619   0.769
 3989SOL    HW212867   5.637   2.591   0.823
 3990SOL     OW12868   6.555   1.720   2.394
 3990SOL    HW112869   6.646   1.679   2.384
 3990SOL    HW212870   6.545   1.796   2.331
 3991SOL     OW12871   5.997   0.549   3.077
 3991SOL    HW112872   5.988   0.548   2.977
 3991SOL    HW212873   6.073   0.490   3.104
 3992SOL     OW12874   3.426   2.165   0.874
 3992SOL    HW112875   3.392   2.079   0.912
 3992SOL    HW212876   3.386   2.180   0.784
 3993SOL     OW12877   0.895   2.697   2.074
 3993SOL    HW112878   0.858   2.761   2.141
 3993SOL    HW212879   0.935   2.748   1.998
 3994SOL     OW12880   2.242   6.351   4.440
 3994SOL    HW112881   2.186   6.271   4.462
 3994SOL    HW212882   2.327   6.347   4.494
 3995SOL     OW12883   1.743   1.761   4.555
 3995SOL    HW112884   1.667   1.815   4.589
 3995SOL    HW212885   1.733   1.747   4.456
 3996SOL     OW12886   6.926   6.290   4.479
 3996SOL    HW112887   6.978   6.233   4.416
 3996SOL    HW212888   6.923   6.384   4.444
 3997SOL     OW12889   4.207   0.789   4.385
 3997SOL    HW112890   4.162   0.728   4.451
 3997SOL    HW212891   4.190   0.756   4.292
 3998SOL     OW12892   4.689   2.249   3.065
 3998SOL    HW112893   4.663   2.242   3.161
 3998SOL    HW212894   4.607   2.249   3.007
 3999SOL     OW12895   4.996   1.982   4.476
 3999SOL    HW112896   5.008   2.051   4.405
 3999SOL    HW212897   4.983   2.027   4.564
 4000SOL     OW12898   4.207   6.711   4.034
 4000SOL    HW112899   4.119   6.664   4.044
 4000SOL    HW212900   4.201   6.777   3.960
 4001SOL     OW12901   1.295   1.687   4.135
 4001SOL    HW112902   1.346   1.726   4.058
 4001SOL    HW212903   1.302   1.588   4.133
 4002SOL     OW12904   2.420   4.461   1.697
 4002SOL    HW112905   2.372   4.492   1.779
 4002SOL    HW212906   2.515   4.438   1.720
 4003SOL     OW12907   3.828   2.107   4.989
 4003SOL    HW112908   3.748   2.050   4.973
 4003SOL    HW212909   3.819   2.152   5.078
 4004SOL     OW12910   6.283   1.895   5.725
 4004SOL    HW112911   6.207   1.892   5.790
 4004SOL    HW212912   6.369   1.876   5.773
 4005SOL     OW12913   5.781   4.681   5.424
 4005SOL    HW112914   5.749   4.588   5.408
 4005SOL    HW212915   5.808   4.722   5.337
 4006SOL     OW12916   3.922   5.766   2.626
 4006SOL    HW112917   3.992   5.732   2.563
 4006SOL    HW212918   3.932   5.722   2.715
 4007SOL     OW12919   0.147   1.329   6.081
 4007SOL    HW112920   0.216   1.378   6.028
 4007SOL    HW212921   0.160   1.348   6.178
 4008SOL     OW12922   2.967   1.930   5.157
 4008SOL    HW112923   2.972   1.920   5.257
 4008SOL    HW212924   2.937   2.022   5.135
 4009SOL     OW12925   3.178   3.402   3.002
 4009SOL    HW112926   3.085   3.367   3.016
 4009SOL    HW212927   3.211   3.442   3.087
 4010SOL     OW12928   1.192   2.999   6.893
 4010SOL    HW112929   1.101   3.039   6.883
 4010SOL    HW212930   1.256   3.071   6.921
 4011SOL     OW12931   0.884   2.775   0.757
 4011SOL    HW112932   0.977   2.738   0.751
 4011SOL    HW212933   0.845   2.753   0.847
 4012SOL     OW12934   5.451   3.232   3.671
 4012SOL    HW112935   5.369   3.237   3.615
 4012SOL    HW212936   5.447   3.301   3.743
 4013SOL     OW12937   5.025   2.498   3.274
 4013SOL    HW112938   4.944   2.494   3.334
 4013SOL    HW212939   5.051   2.405   3.249
 4014SOL     OW12940   5.895   6.194   2.093
 4014SOL    HW112941   5.864   6.289   2.092
 4014SOL    HW212942   5.880   6.153   2.003
 4015SOL     OW12943   4.599   3.537   0.070
 4015SOL    HW112944   4.500   3.536   0.077
 4015SOL    HW212945   4.627   3.540   7.004
 4016SOL     OW12946   3.563   6.077   5.183
 4016SOL    HW112947   3.580   6.066   5.085
 4016SOL    HW212948   3.466   6.095   5.198
 4017SOL     OW12949   6.183   6.709   6.937
 4017SOL    HW112950   6.193   6.785   7.002
 4017SOL    HW212951   6.234   6.729   6.854
 4018SOL     OW12952   1.401   0.043   7.004
 4018SOL    HW112953   1.367   6.990   6.959
 4018SOL    HW212954   1.487   0.022   0.020
 4019SOL     OW12955   4.769   5.520   3.325
 4019SOL    HW112956   4.726   5.461   3.257
 4019SOL    HW212957   4.704   5.539   3.399
 4020SOL     OW12958   5.217   1.944   5.124
 4020SOL    HW112959   5.271   1.902   5.197
 4020SOL    HW212960   5.262   1.929   5.036
 4021SOL     OW12961   4.702   3.972   6.826
 4021SOL    HW112962   4.602   3.974   6.827
 4021SOL    HW212963   4.737   3.970   6.920
 4022SOL     OW12964   4.966   0.481   0.885
 4022SOL    HW112965   5.055   0.494   0.841
 4022SOL    HW212966   4.895   0.523   0.830
 4023SOL     OW12967   6.345   0.250   5.550
 4023SOL    HW112968   6.435   0.263   5.592
 4023SOL    HW212969   6.273   0.275   5.616
 4024SOL     OW12970   4.502   4.580   4.845
 4024SOL    HW112971   4.463   4.528   4.769
 4024SOL    HW212972   4.434   4.587   4.918
 4025SOL     OW12973   1.078   3.989   3.917
 4025SOL    HW112974   1.106   3.919   3.851
 4025SOL    HW212975   1.107   3.962   4.009
 4026SOL     OW12976   5.071   0.068   4.997
 4026SOL    HW112977   5.025   0.151   4.965
 4026SOL    HW212978   5.003   7.024   5.006
 4027SOL     OW12979   3.217   5.218   2.451
 4027SOL    HW112980   3.277   5.255   2.522
 4027SOL    HW212981   3.262   5.139   2.408
 4028SOL     OW12982   2.500   6.103   3.670
 4028SOL    HW112983   2.548   6.020   3.643
 4028SOL    HW212984   2.486   6.103   3.769
 4029SOL     OW12985   1.979   4.063   3.648
 4029SOL    HW112986   2.021   4.123   3.716
 4029SOL    HW212987   2.019   3.971   3.656
 4030SOL     OW12988   1.518   1.536   6.016
 4030SOL    HW112989   1.439   1.507   5.963
 4030SOL    HW212990   1.522   1.484   6.101
 4031SOL     OW12991   6.280   5.645   4.431
 4031SOL    HW112992   6.223   5.726   4.439
 4031SOL    HW212993   6.253   5.593   4.350
 4032SOL     OW12994   3.577   0.146   4.911
 4032SOL    HW112995   3.642   0.222   4.903
 4032SOL    HW212996   3.572   0.097   4.823
 4033SOL     OW12997   3.637   3.892   6.110
 4033SOL    HW112998   3.574   3.950   6.057
 4033SOL    HW212999   3.599   3.878   6.201
 4034SOL     OW13000   5.737   3.069   5.291
 4034SOL    HW113001   5.798   3.115   5.356
 4034SOL    HW213002   5.666   3.133   5.261
 4035SOL     OW13003   0.514   5.811   1.673
 4035SOL    HW113004   0.457   5.739   1.711
 4035SOL    HW213005   0.543   5.873   1.747
 4036SOL     OW13006   6.850   5.950   2.656
 4036SOL    HW113007   6.759   5.989   2.668
 4036SOL    HW213008   6.910   5.982   2.728
 4037SOL     OW13009   0.334   3.834   5.302
 4037SOL    HW113010   0.335   3.933   5.289
 4037SOL    HW213011   0.278   3.811   5.381
 4038SOL     OW13012   5.764   5.159   2.985
 4038SOL    HW113013   5.838   5.173   3.051
 4038SOL    HW213014   5.758   5.061   2.962
 4039SOL     OW13015   2.733   5.984   1.212
 4039SOL    HW113016   2.694   5.906   1.164
 4039SOL    HW213017   2.818   6.011   1.167
 4040SOL     OW13018   3.234   6.807   0.083
 4040SOL    HW113019   3.186   6.830   7.028
 4040SOL    HW213020   3.206   6.716   0.113
 4041SOL     OW13021   0.790   6.019   3.077
 4041SOL    HW113022   0.745   6.107   3.063
 4041SOL    HW213023   0.819   6.012   3.173
 4042SOL     OW13024   5.976   6.113   2.591
 4042SOL    HW113025   6.008   6.019   2.577
 4042SOL    HW213026   5.951   6.153   2.503
 4043SOL     OW13027   6.265   4.034   1.326
 4043SOL    HW113028   6.279   3.935   1.331
 4043SOL    HW213029   6.206   4.064   1.401
 4044SOL     OW13030   5.973   5.061   2.445
 4044SOL    HW113031   5.896   5.071   2.508
 4044SOL    HW213032   5.948   4.999   2.371
 4045SOL     OW13033   2.592   4.647   5.943
 4045SOL    HW113034   2.492   4.654   5.944
 4045SOL    HW213035   2.628   4.700   5.866
 4046SOL     OW13036   7.028   3.492   0.786
 4046SOL    HW113037   0.027   3.464   0.878
 4046SOL    HW213038   7.027   3.592   0.780
 4047SOL     OW13039   2.938   3.701   2.603
 4047SOL    HW113040   2.899   3.623   2.651
 4047SOL    HW213041   2.970   3.769   2.669
 4048SOL     OW13042   4.557   2.543   0.779
 4048SOL    HW113043   4.563   2.643   0.773
 4048SOL    HW213044   4.645   2.506   0.809
 4049SOL     OW13045   6.736   0.541   6.720
 4049SOL    HW113046   6.805   0.610   6.741
 4049SOL    HW213047   6.739   0.519   6.623
 4050SOL     OW13048   3.216   0.557   2.527
 4050SOL    HW113049   3.287   0.517   2.586
 4050SOL    HW213050   3.232   0.655   2.517
 4051SOL     OW13051   1.576   4.001   1.260
 4051SOL    HW113052   1.500   3.956   1.212
 4051SOL    HW213053   1.597   4.088   1.215
 4052SOL     OW13054   1.423   0.264   1.277
 4052SOL    HW113055   1.464   0.224   1.359
 4052SOL    HW213056   1.407   0.361   1.292
 4053SOL     OW13057   2.673   5.109   3.298
 4053SOL    HW113058   2.674   5.025   3.352
 4053SOL    HW213059   2.602   5.170   3.334
 4054SOL     OW13060   5.260   1.611   6.935
 4054SOL    HW113061   5.172   1.639   6.973
 4054SOL    HW213062   5.248   1.530   6.878
 4055SOL     OW13063   4.640   3.275   0.100
 4055SOL    HW113064   4.706   3.262   0.174
 4055SOL    HW213065   4.631   3.372   0.079
 4056SOL     OW13066   4.360   2.813   0.234
 4056SOL    HW113067   4.424   2.881   0.198
 4056SOL    HW213068   4.306   2.855   0.308
 4057SOL     OW13069   6.126   2.816   0.418
 4057SOL    HW113070   6.197   2.843   0.353
 4057SOL    HW213071   6.136   2.868   0.503
 4058SOL     OW13072   0.624   1.661   3.819
 4058SOL    HW113073   0.572   1.645   3.736
 4058SOL    HW213074   0.585   1.739   3.868
 4059SOL     OW13075   6.855   2.106   5.259
 4059SOL    HW113076   6.940   2.148   5.289
 4059SOL    HW213077   6.870   2.009   5.241
 4060SOL     OW13078   3.547   6.125   5.767
 4060SOL    HW113079   3.493   6.155   5.846
 4060SOL    HW213080   3.614   6.196   5.745
 4061SOL     OW13081   2.260   3.143   1.452
 4061SOL    HW113082   2.296   3.193   1.373
 4061SOL    HW213083   2.180   3.090   1.424
 4062SOL     OW13084   3.007   6.746   2.942
 4062SOL    HW113085   2.919   6.712   2.907
 4062SOL    HW213086   3.019   6.717   3.037
 4063SOL     OW13087   2.846   5.639   6.457
 4063SOL    HW113088   2.776   5.679   6.399
 4063SOL    HW213089   2.933   5.633   6.407
 4064SOL     OW13090   6.581   0.221   4.121
 4064SOL    HW113091   6.662   0.264   4.160
 4064SOL    HW213092   6.536   0.284   4.058
 4065SOL     OW13093   0.807   4.415   5.973
 4065SOL    HW113094   0.734   4.349   5.953
 4065SOL    HW213095   0.892   4.366   5.989
 4066SOL     OW13096   4.887   5.472   1.270
 4066SOL    HW113097   4.859   5.413   1.346
 4066SOL    HW213098   4.861   5.430   1.183
 4067SOL     OW13099   5.614   0.586   1.356
 4067SOL    HW113100   5.599   0.685   1.366
 4067SOL    HW213101   5.679   0.570   1.282
 4068SOL     OW13102   5.324   0.937   4.675
 4068SOL    HW113103   5.254   0.866   4.680
 4068SOL    HW213104   5.403   0.902   4.625
 4069SOL     OW13105   6.459   6.242   1.194
 4069SOL    HW113106   6.420   6.152   1.211
 4069SOL    HW213107   6.559   6.236   1.201
 4070SOL     OW13108   6.568   3.622   2.905
 4070SOL    HW113109   6.587   3.634   3.003
 4070SOL    HW213110   6.633   3.556   2.867
 4071SOL     OW13111   2.696   0.549   4.284
 4071SOL    HW113112   2.723   0.557   4.380
 4071SOL    HW213113   2.604   0.587   4.272
 4072SOL     OW13114   0.873   0.151   4.175
 4072SOL    HW113115   0.883   0.051   4.182
 4072SOL    HW213116   0.826   0.185   4.256
 4073SOL     OW13117   2.359   5.155   2.436
 4073SOL    HW113118   2.300   5.105   2.372
 4073SOL    HW213119   2.393   5.091   2.506
 4074SOL     OW13120   0.139   3.311   0.646
 4074SOL    HW113121   0.089   3.383   0.693
 4074SOL    HW213122   0.192   3.350   0.570
 4075SOL     OW13123   5.705   6.906   3.878
 4075SOL    HW113124   5.749   6.923   3.789
 4075SOL    HW213125   5.642   6.980   3.899
 4076SOL     OW13126   1.954   2.972   3.045
 4076SOL    HW113127   2.014   2.963   3.125
 4076SOL    HW213128   1.951   3.067   3.017
 4077SOL     OW13129   3.924   1.025   0.882
 4077SOL    HW113130   3.940   1.054   0.977
 4077SOL    HW213131   3.860   1.088   0.838
 4078SOL     OW13132   4.484   4.775   3.034
 4078SOL    HW113133   4.481   4.691   3.089
 4078SOL    HW213134   4.427   4.763   2.952
 4079SOL     OW13135   4.991   0.737   3.990
 4079SOL    HW113136   5.069   0.698   3.940
 4079SOL    HW213137   5.014   0.746   4.087
 4080SOL     OW13138   3.089   3.857   3.955
 4080SOL    HW113139   3.064   3.875   4.050
 4080SOL    HW213140   3.082   3.759   3.937
 4081SOL     OW13141   2.392   1.346   0.038
 4081SOL    HW113142   2.324   1.279   0.069
 4081SOL    HW213143   2.366   1.382   6.978
 4082SOL     OW13144   0.990   1.477   6.115
 4082SOL    HW113145   0.900   1.436   6.103
 4082SOL    HW213146   0.979   1.576   6.126
 4083SOL     OW13147   6.245   5.061   2.272
 4083SOL    HW113148   6.311   4.992   2.302
 4083SOL    HW213149   6.165   5.060   2.332
 4084SOL     OW13150   4.453   6.700   2.033
 4084SOL    HW113151   4.525   6.639   2.064
 4084SOL    HW213152   4.409   6.662   1.951
 4085SOL     OW13153   2.353   4.576   2.531
 4085SOL    HW113154   2.314   4.582   2.439
 4085SOL    HW213155   2.452   4.588   2.526
 4086SOL     OW13156   5.792   5.262   4.825
 4086SOL    HW113157   5.758   5.169   4.841
 4086SOL    HW213158   5.862   5.283   4.893
 4087SOL     OW13159   2.030   0.794   2.478
 4087SOL    HW113160   1.982   0.803   2.391
 4087SOL    HW213161   2.003   0.868   2.540
 4088SOL     OW13162   0.286   1.472   5.650
 4088SOL    HW113163   0.355   1.529   5.605
 4088SOL    HW213164   0.290   1.380   5.611
 4089SOL     OW13165   1.462   0.593   2.726
 4089SOL    HW113166   1.405   0.664   2.768
 4089SOL    HW213167   1.529   0.561   2.794
 4090SOL     OW13168   3.154   2.579   5.594
 4090SOL    HW113169   3.157   2.572   5.494
 4090SOL    HW213170   3.059   2.595   5.623
 4091SOL     OW13171   3.529   5.737   2.067
 4091SOL    HW113172   3.487   5.663   2.120
 4091SOL    HW213173   3.457   5.789   2.021
 4092SOL     OW13174   5.415   1.713   6.352
 4092SOL    HW113175   5.373   1.697   6.441
 4092SOL    HW213176   5.483   1.785   6.359
 4093SOL     OW13177   5.711   4.038   2.201
 4093SOL    HW113178   5.671   4.003   2.285
 4093SOL    HW213179   5.647   4.101   2.157
 4094SOL     OW13180   6.846   6.887   0.076
 4094SOL    HW113181   6.923   6.858   0.018
 4094SOL    HW213182   6.764   6.837   0.050
 4095SOL     OW13183   1.868   5.089   1.055
 4095SOL    HW113184   1.777   5.065   1.090
 4095SOL    HW213185   1.937   5.030   1.097
 4096SOL     OW13186   0.580   0.215   6.299
 4096SOL    HW113187   0.568   0.134   6.357
 4096SOL    HW213188   0.500   0.226   6.240
 4097SOL     OW13189   1.222   3.895   5.601
 4097SOL    HW113190   1.301   3.834   5.593
 4097SOL    HW213191   1.160   3.861   5.672
 4098SOL     OW13192   1.406   5.929   2.060
 4098SOL    HW113193   1.459   5.862   2.112
 4098SOL    HW213194   1.413   5.908   1.962
 4099SOL     OW13195   6.991   3.249   5.613
 4099SOL    HW113196   0.000   3.187   5.545
 4099SOL    HW213197   6.997   3.208   5.704
 4100SOL     OW13198   2.359   0.371   3.171
 4100SOL    HW113199   2.296   0.394   3.245
 4100SOL    HW213200   2.388   0.275   3.181
 4101SOL     OW13201   6.321   6.279   5.996
 4101SOL    HW113202   6.321   6.205   5.928
 4101SOL    HW213203   6.315   6.367   5.949
 4102SOL     OW13204   1.924   5.346   0.424
 4102SOL    HW113205   1.962   5.435   0.448
 4102SOL    HW213206   1.910   5.292   0.506
 4103SOL     OW13207   2.236   5.142   3.241
 4103SOL    HW113208   2.285   5.084   3.176
 4103SOL    HW213209   2.299   5.173   3.312
 4104SOL     OW13210   1.669   6.005   5.497
 4104SOL    HW113211   1.634   6.052   5.416
 4104SOL    HW213212   1.592   5.976   5.554
 4105SOL     OW13213   3.629   6.678   1.874
 4105SOL    HW113214   3.626   6.747   1.802
 4105SOL    HW213215   3.724   6.664   1.902
 4106SOL     OW13216   1.460   0.086   2.986
 4106SOL    HW113217   1.411   0.172   2.998
 4106SOL    HW213218   1.558   0.101   2.997
 4107SOL     OW13219   1.946   1.718   1.012
 4107SOL    HW113220   1.915   1.718   0.917
 4107SOL    HW213221   1.874   1.758   1.070
 4108SOL     OW13222   0.260   6.580   5.053
 4108SOL    HW113223   0.270   6.540   4.962
 4108SOL    HW213224   0.208   6.518   5.112
 4109SOL     OW13225   4.988   6.783   4.897
 4109SOL    HW113226   4.953   6.849   4.831
 4109SOL    HW213227   5.074   6.744   4.864
 4110SOL     OW13228   4.014   3.070   0.757
 4110SOL    HW113229   3.955   3.074   0.837
 4110SOL    HW213230   4.110   3.062   0.786
 4111SOL     OW13231   5.630   4.687   3.522
 4111SOL    HW113232   5.550   4.693   3.582
 4111SOL    HW213233   5.705   4.741   3.561
 4112SOL     OW13234   4.460   5.780   5.108
 4112SOL    HW113235   4.364   5.756   5.124
 4112SOL    HW213236   4.494   5.836   5.183
 4113SOL     OW13237   4.771   5.562   5.265
 4113SOL    HW113238   4.834   5.491   5.298
 4113SOL    HW213239   4.764   5.634   5.334
 4114SOL     OW13240   6.748   1.021   2.940
 4114SOL    HW113241   6.724   0.991   3.032
 4114SOL    HW213242   6.842   0.993   2.919
 4115SOL     OW13243   3.923   6.412   4.409
 4115SOL    HW113244   4.000   6.436   4.467
 4115SOL    HW213245   3.956   6.361   4.329
 4116SOL     OW13246   6.412   3.441   4.016
 4116SOL    HW113247   6.422   3.388   4.100
 4116SOL    HW213248   6.498   3.488   3.996
 4117SOL     OW13249   0.161   1.742   2.770
 4117SOL    HW113250   0.260   1.732   2.780
 4117SOL    HW213251   0.121   1.655   2.742
 4118SOL     OW13252   1.208   0.271   1.755
 4118SOL    HW113253   1.170   0.225   1.836
 4118SOL    HW213254   1.154   0.247   1.675
 4119SOL     OW13255   6.982   0.634   5.492
 4119SOL    HW113256   0.029   0.601   5.438
 4119SOL    HW213257   6.896   0.614   5.445
 4120SOL     OW13258   1.722   0.730   5.943
 4120SOL    HW113259   1.649   0.779   5.894
 4120SOL    HW213260   1.811   0.764   5.913
 4121SOL     OW13261   6.580   1.091   1.424
 4121SOL    HW113262   6.534   1.142   1.496
 4121SOL    HW213263   6.622   1.009   1.462
 4122SOL     OW13264   0.661   4.723   3.742
 4122SOL    HW113265   0.577   4.670   3.732
 4122SOL    HW213266   0.650   4.811   3.694
 4123SOL     OW13267   5.862   4.668   1.356
 4123SOL    HW113268   5.785   4.610   1.331
 4123SOL    HW213269   5.930   4.613   1.404
 4124SOL     OW13270   6.432   7.019   0.121
 4124SOL    HW113271   6.402   0.078   0.084
 4124SOL    HW213272   6.505   0.003   0.187
 4125SOL     OW13273   6.944   2.373   6.637
 4125SOL    HW113274   6.858   2.323   6.645
 4125SOL    HW213275   6.938   2.459   6.687
 4126SOL     OW13276   1.589   4.239   4.170
 4126SOL    HW113277   1.662   4.183   4.133
 4126SOL    HW213278   1.504   4.186   4.173
 4127SOL     OW13279   4.840   2.522   3.931
 4127SOL    HW113280   4.920   2.504   3.873
 4127SOL    HW213281   4.777   2.582   3.883
 4128SOL     OW13282   6.618   2.100   6.193
 4128SOL    HW113283   6.632   2.047   6.276
 4128SOL    HW213284   6.544   2.166   6.207
 4129SOL     OW13285   3.463   0.441   1.594
 4129SOL    HW113286   3.450   0.537   1.569
 4129SOL    HW213287   3.560   0.416   1.584
 4130SOL     OW13288   5.124   2.713   0.043
 4130SOL    HW113289   5.215   2.677   0.062
 4130SOL    HW213290   5.090   2.761   0.124
 4131SOL     OW13291   5.021   6.044   3.787
 4131SOL    HW113292   5.106   6.085   3.753
 4131SOL    HW213293   5.035   6.016   3.882
 4132SOL     OW13294   6.611   3.966   3.204
 4132SOL    HW113295   6.686   3.905   3.180
 4132SOL    HW213296   6.637   4.060   3.184
 4133SOL     OW13297   5.450   6.385   3.778
 4133SOL    HW113298   5.495   6.351   3.696
 4133SOL    HW213299   5.404   6.471   3.758
 4134SOL     OW13300   1.137   3.392   1.182
 4134SOL    HW113301   1.215   3.369   1.124
 4134SOL    HW213302   1.063   3.428   1.125
 4135SOL     OW13303   5.972   1.683   1.141
 4135SOL    HW113304   5.966   1.604   1.080
 4135SOL    HW213305   6.013   1.655   1.228
 4136SOL     OW13306   0.794   5.195   0.431
 4136SOL    HW113307   0.790   5.278   0.375
 4136SOL    HW213308   0.842   5.124   0.381
 4137SOL     OW13309   0.140   2.684   5.811
 4137SOL    HW113310   0.097   2.724   5.730
 4137SOL    HW213311   0.106   2.730   5.893
 4138SOL     OW13312   5.385   6.813   6.161
 4138SOL    HW113313   5.433   6.774   6.083
 4138SOL    HW213314   5.359   6.739   6.224
 4139SOL     OW13315   1.662   4.398   2.452
 4139SOL    HW113316   1.761   4.409   2.458
 4139SOL    HW213317   1.620   4.431   2.536
 4140SOL     OW13318   2.282   0.007   0.048
 4140SOL    HW113319   2.379   7.027   0.068
 4140SOL    HW213320   2.236   6.949   0.061
 4141SOL     OW13321   5.154   0.409   5.850
 4141SOL    HW113322   5.176   0.368   5.939
 4141SOL    HW213323   5.145   0.508   5.861
 4142SOL     OW13324   6.950   6.582   1.515
 4142SOL    HW113325   7.006   6.501   1.533
 4142SOL    HW213326   6.854   6.560   1.527
 4143SOL     OW13327   6.606   3.625   6.739
 4143SOL    HW113328   6.691   3.600   6.694
 4143SOL    HW213329   6.553   3.542   6.759
 4144SOL     OW13330   4.411   0.443   1.694
 4144SOL    HW113331   4.479   0.371   1.709
 4144SOL    HW213332   4.403   0.499   1.777
 4145SOL     OW13333   5.449   0.686   1.016
 4145SOL    HW113334   5.405   0.698   1.105
 4145SOL    HW213335   5.517   0.613   1.022
 4146SOL     OW13336   4.195   0.016   2.580
 4146SOL    HW113337   4.150   0.079   2.643
 4146SOL    HW213338   4.148   6.957   2.582
 4147SOL     OW13339   4.649   4.338   6.893
 4147SOL    HW113340   4.677   4.304   6.983
 4147SOL    HW213341   4.556   4.375   6.898
 4148SOL     OW13342   3.081   1.468   5.986
 4148SOL    HW113343   3.108   1.507   5.898
 4148SOL    HW213344   3.143   1.392   6.008
 4149SOL     OW13345   1.717   3.174   6.902
 4149SOL    HW113346   1.715   3.125   6.815
 4149SOL    HW213347   1.763   3.119   6.971
 4150SOL     OW13348   6.173   1.416   0.866
 4150SOL    HW113349   6.097   1.411   0.930
 4150SOL    HW213350   6.252   1.459   0.910
 4151SOL     OW13351   3.062   5.729   5.018
 4151SOL    HW113352   2.985   5.680   5.058
 4151SOL    HW213353   3.130   5.749   5.088
 4152SOL     OW13354   2.979   4.160   1.138
 4152SOL    HW113355   2.967   4.117   1.228
 4152SOL    HW213356   2.896   4.211   1.114
 4153SOL     OW13357   6.840   6.015   1.282
 4153SOL    HW113358   6.772   6.039   1.352
 4153SOL    HW213359   6.873   6.099   1.238
 4154SOL     OW13360   0.464   6.395   4.539
 4154SOL    HW113361   0.484   6.415   4.443
 4154SOL    HW213362   0.381   6.444   4.567
 4155SOL     OW13363   5.762   1.217   1.740
 4155SOL    HW113364   5.805   1.160   1.809
 4155SOL    HW213365   5.782   1.313   1.758
 4156SOL     OW13366   0.594   4.730   5.675
 4156SOL    HW113367   0.643   4.758   5.757
 4156SOL    HW213368   0.608   4.799   5.603
 4157SOL     OW13369   5.250   6.240   0.796
 4157SOL    HW113370   5.236   6.183   0.877
 4157SOL    HW213371   5.322   6.307   0.814
 4158SOL     OW13372   6.554   2.387   0.530
 4158SOL    HW113373   6.559   2.391   0.630
 4158SOL    HW213374   6.561   2.292   0.499
 4159SOL     OW13375   3.245   0.301   4.538
 4159SOL    HW113376   3.162   0.333   4.491
 4159SOL    HW213377   3.289   0.378   4.585
 4160SOL     OW13378   1.863   0.078   5.556
 4160SOL    HW113379   1.945   0.133   5.543
 4160SOL    HW213380   1.782   0.134   5.537
 4161SOL     OW13381   3.186   3.030   3.788
 4161SOL    HW113382   3.162   3.067   3.878
 4161SOL    HW213383   3.270   2.976   3.795
 4162SOL     OW13384   5.467   6.093   1.449
 4162SOL    HW113385   5.527   6.172   1.450
 4162SOL    HW213386   5.452   6.064   1.354
 4163SOL     OW13387   3.469   5.670   1.246
 4163SOL    HW113388   3.455   5.597   1.178
 4163SOL    HW213389   3.429   5.642   1.333
 4164SOL     OW13390   5.491   1.686   6.807
 4164SOL    HW113391   5.553   1.755   6.845
 4164SOL    HW213392   5.408   1.683   6.862
 4165SOL     OW13393   3.451   1.846   4.044
 4165SOL    HW113394   3.454   1.798   3.956
 4165SOL    HW213395   3.493   1.937   4.034
 4166SOL     OW13396   6.127   2.060   2.292
 4166SOL    HW113397   6.078   2.060   2.379
 4166SOL    HW213398   6.090   2.132   2.233
 4167SOL     OW13399   4.014   5.806   4.484
 4167SOL    HW113400   4.071   5.731   4.519
 4167SOL    HW213401   3.922   5.798   4.522
 4168SOL     OW13402   5.122   3.979   6.436
 4168SOL    HW113403   5.090   4.070   6.461
 4168SOL    HW213404   5.073   3.947   6.355
 4169SOL     OW13405   5.108   3.836   6.666
 4169SOL    HW113406   5.108   3.742   6.631
 4169SOL    HW213407   5.128   3.899   6.591
 4170SOL     OW13408   1.414   3.524   4.940
 4170SOL    HW113409   1.500   3.511   4.891
 4170SOL    HW213410   1.339   3.539   4.875
 4171SOL     OW13411   0.604   0.969   6.272
 4171SOL    HW113412   0.575   0.952   6.178
 4171SOL    HW213413   0.588   0.887   6.327
 4172SOL     OW13414   2.760   2.746   6.488
 4172SOL    HW113415   2.715   2.669   6.445
 4172SOL    HW213416   2.798   2.718   6.576
 4173SOL     OW13417   5.209   0.866   5.108
 4173SOL    HW113418   5.134   0.918   5.067
 4173SOL    HW213419   5.296   0.907   5.079
 4174SOL     OW13420   3.323   6.962   4.004
 4174SOL    HW113421   3.389   6.887   4.002
 4174SOL    HW213422   3.284   6.975   3.913
 4175SOL     OW13423   0.993   4.637   6.740
 4175SOL    HW113424   0.935   4.614   6.818
 4175SOL    HW213425   1.002   4.558   6.680
 4176SOL     OW13426   4.480   0.251   5.068
 4176SOL    HW113427   4.459   0.154   5.078
 4176SOL    HW213428   4.451   0.300   5.150
 4177SOL     OW13429   3.992   5.482   3.426
 4177SOL    HW113430   4.006   5.384   3.413
 4177SOL    HW213431   3.938   5.497   3.509
 4178SOL     OW13432   3.979   6.467   1.145
 4178SOL    HW113433   3.894   6.428   1.180
 4178SOL    HW213434   3.977   6.468   1.045
 4179SOL     OW13435   4.483   2.300   6.524
 4179SOL    HW113436   4.424   2.258   6.592
 4179SOL    HW213437   4.547   2.363   6.570
 4180SOL     OW13438   3.654   4.238   6.842
 4180SOL    HW113439   3.622   4.271   6.931
 4180SOL    HW213440   3.718   4.163   6.856
 4181SOL     OW13441   5.602   6.605   5.494
 4181SOL    HW113442   5.585   6.678   5.560
 4181SOL    HW213443   5.522   6.592   5.436
 4182SOL     OW13444   0.123   5.731   5.462
 4182SOL    HW113445   0.134   5.632   5.468
 4182SOL    HW213446   0.210   5.772   5.432
 4183SOL     OW13447   5.079   2.289   0.331
 4183SOL    HW113448   5.089   2.215   0.264
 4183SOL    HW213449   4.982   2.300   0.353
 4184SOL     OW13450   2.928   5.397   3.287
 4184SOL    HW113451   2.942   5.307   3.245
 4184SOL    HW213452   3.011   5.451   3.278
 4185SOL     OW13453   4.756   4.195   3.165
 4185SOL    HW113454   4.767   4.106   3.121
 4185SOL    HW213455   4.719   4.260   3.100
 4186SOL     OW13456   1.913   5.058   6.794
 4186SOL    HW113457   1.896   5.097   6.704
 4186SOL    HW213458   1.856   4.977   6.807
 4187SOL     OW13459   2.514   4.218   6.322
 4187SOL    HW113460   2.421   4.183   6.310
 4187SOL    HW213461   2.519   4.313   6.289
 4188SOL     OW13462   5.247   0.695   6.809
 4188SOL    HW113463   5.347   0.700   6.815
 4188SOL    HW213464   5.207   0.704   6.900
 4189SOL     OW13465   4.848   5.118   3.195
 4189SOL    HW113466   4.823   5.069   3.112
 4189SOL    HW213467   4.766   5.154   3.239
 4190SOL     OW13468   6.454   6.667   2.099
 4190SOL    HW113469   6.515   6.591   2.123
 4190SOL    HW213470   6.507   6.751   2.093
 4191SOL     OW13471   4.441   2.607   6.450
 4191SOL    HW113472   4.533   2.613   6.412
 4191SOL    HW213473   4.427   2.680   6.516
 4192SOL     OW13474   1.786   3.866   6.209
 4192SOL    HW113475   1.860   3.817   6.163
 4192SOL    HW213476   1.734   3.802   6.266
 4193SOL     OW13477   6.639   0.330   0.759
 4193SOL    HW113478   6.616   0.263   0.688
 4193SOL    HW213479   6.655   0.282   0.845
 4194SOL     OW13480   5.783   0.555   6.462
 4194SOL    HW113481   5.702   0.582   6.515
 4194SOL    HW213482   5.771   0.583   6.366
 4195SOL     OW13483   2.353   6.343   0.953
 4195SOL    HW113484   2.433   6.379   1.002
 4195SOL    HW213485   2.313   6.416   0.897
 4196SOL     OW13486   0.054   2.707   3.570
 4196SOL    HW113487   0.135   2.657   3.539
 4196SOL    HW213488   7.009   2.642   3.585
 4197SOL     OW13489   3.896   0.706   0.039
 4197SOL    HW113490   3.828   0.779   0.030
 4197SOL    HW213491   3.987   0.746   0.034
 4198SOL     OW13492   6.905   2.510   1.924
 4198SOL    HW113493   6.951   2.598   1.911
 4198SOL    HW213494   6.964   2.449   1.977
 4199SOL     OW13495   0.820   3.638   6.755
 4199SOL    HW113496   0.796   3.665   6.662
 4199SOL    HW213497   0.895   3.696   6.788
 4200SOL     OW13498   5.210   2.008   3.621
 4200SOL    HW113499   5.245   2.073   3.553
 4200SOL    HW213500   5.166   2.059   3.695
 4201SOL     OW13501   5.478   0.114   4.540
 4201SOL    HW113502   5.528   0.115   4.626
 4201SOL    HW213503   5.395   0.170   4.549
 4202SOL     OW13504   4.466   3.954   1.659
 4202SOL    HW113505   4.447   4.042   1.702
 4202SOL    HW213506   4.389   3.928   1.600
 4203SOL     OW13507   6.163   4.179   5.361
 4203SOL    HW113508   6.064   4.186   5.358
 4203SOL    HW213509   6.202   4.215   5.276
 4204SOL     OW13510   1.787   4.038   6.431
 4204SOL    HW113511   1.780   3.967   6.360
 4204SOL    HW213512   1.881   4.044   6.463
 4205SOL     OW13513   5.292   6.117   5.789
 4205SOL    HW113514   5.299   6.160   5.879
 4205SOL    HW213515   5.378   6.130   5.739
 4206SOL     OW13516   2.742   2.167   4.434
 4206SOL    HW113517   2.832   2.203   4.457
 4206SOL    HW213518   2.735   2.155   4.335
 4207SOL     OW13519   1.687   2.638   1.573
 4207SOL    HW113520   1.760   2.597   1.628
 4207SOL    HW213521   1.654   2.571   1.507
 4208SOL     OW13522   2.804   2.170   3.615
 4208SOL    HW113523   2.900   2.193   3.632
 4208SOL    HW213524   2.746   2.220   3.680
 4209SOL     OW13525   6.411   5.517   2.588
 4209SOL    HW113526   6.396   5.611   2.558
 4209SOL    HW213527   6.331   5.487   2.642
 4210SOL     OW13528   2.974   4.430   5.489
 4210SOL    HW113529   2.947   4.459   5.397
 4210SOL    HW213530   2.911   4.470   5.556
 4211SOL     OW13531   4.158   2.756   5.588
 4211SOL    HW113532   4.147   2.687   5.660
 4211SOL    HW213533   4.074   2.762   5.535
 4212SOL     OW13534   0.968   2.696   2.894
 4212SOL    HW113535   1.026   2.643   2.956
 4212SOL    HW213536   0.878   2.707   2.935
 4213SOL     OW13537   3.883   0.622   3.710
 4213SOL    HW113538   3.820   0.678   3.655
 4213SOL    HW213539   3.838   0.596   3.796
 4214SOL     OW13540   6.855   6.070   3.655
 4214SOL    HW113541   6.780   6.005   3.641
 4214SOL    HW213542   6.923   6.057   3.583
 4215SOL     OW13543   6.353   0.330   5.271
 4215SOL    HW113544   6.270   0.309   5.219
 4215SOL    HW213545   6.357   0.272   5.353
 4216SOL     OW13546   2.615   5.608   2.320
 4216SOL    HW113547   2.623   5.593   2.221
 4216SOL    HW213548   2.552   5.684   2.337
 4217SOL     OW13549   1.114   0.634   2.902
 4217SOL    HW113550   1.144   0.539   2.888
 4217SOL    HW213551   1.194   0.692   2.918
 4218SOL     OW13552   3.404   0.937   1.960
 4218SOL    HW113553   3.332   0.868   1.970
 4218SOL    HW213554   3.367   1.016   1.912
 4219SOL     OW13555   3.302   5.160   3.169
 4219SOL    HW113556   3.211   5.118   3.174
 4219SOL    HW213557   3.363   5.101   3.117
 4220SOL     OW13558   6.203   2.421   1.430
 4220SOL    HW113559   6.253   2.343   1.468
 4220SOL    HW213560   6.217   2.501   1.487
 4221SOL     OW13561   0.567   6.367   0.392
 4221SOL    HW113562   0.560   6.268   0.405
 4221SOL    HW213563   0.496   6.397   0.328
 4222SOL     OW13564   4.928   3.362   4.654
 4222SOL    HW113565   4.904   3.458   4.669
 4222SOL    HW213566   4.889   3.331   4.568
 4223SOL     OW13567   3.309   4.081   2.471
 4223SOL    HW113568   3.260   4.093   2.557
 4223SOL    HW213569   3.244   4.053   2.400
 4224SOL     OW13570   4.990   4.472   4.729
 4224SOL    HW113571   5.064   4.408   4.750
 4224SOL    HW213572   4.979   4.536   4.805
 4225SOL     OW13573   0.644   1.813   6.194
 4225SOL    HW113574   0.637   1.721   6.233
 4225SOL    HW213575   0.585   1.876   6.246
 4226SOL     OW13576   6.089   4.652   4.553
 4226SOL    HW113577   6.184   4.632   4.577
 4226SOL    HW213578   6.065   4.744   4.583
 4227SOL     OW13579   5.179   5.215   1.299
 4227SOL    HW113580   5.083   5.225   1.272
 4227SOL    HW213581   5.227   5.301   1.284
 4228SOL     OW13582   1.704   4.451   3.418
 4228SOL    HW113583   1.799   4.418   3.419
 4228SOL    HW213584   1.643   4.375   3.397
 4229SOL     OW13585   6.327   6.179   5.478
 4229SOL    HW113586   6.373   6.267   5.490
 4229SOL    HW213587   6.392   6.111   5.445
 4230SOL     OW13588   0.193   1.101   1.752
 4230SOL    HW113589   0.099   1.099   1.786
 4230SOL    HW213590   0.198   1.160   1.671
 4231SOL     OW13591   0.662   0.385   6.477
 4231SOL    HW113592   0.618   0.311   6.425
 4231SOL    HW213593   0.732   0.346   6.536
 4232SOL     OW13594   1.570   4.788   3.910
 4232SOL    HW113595   1.623   4.811   3.828
 4232SOL    HW213596   1.617   4.716   3.961
 4233SOL     OW13597   4.272   4.935   2.138
 4233SOL    HW113598   4.261   5.031   2.165
 4233SOL    HW213599   4.292   4.880   2.219
 4234SOL     OW13600   3.685   5.549   6.097
 4234SOL    HW113601   3.585   5.549   6.094
 4234SOL    HW213602   3.719   5.640   6.076
 4235SOL     OW13603   6.877   6.313   6.569
 4235SOL    HW113604   6.934   6.246   6.616
 4235SOL    HW213605   6.854   6.280   6.478
 4236SOL     OW13606   0.757   5.323   2.997
 4236SOL    HW113607   0.736   5.316   3.094
 4236SOL    HW213608   0.831   5.260   2.974
 4237SOL     OW13609   6.674   4.637   3.861
 4237SOL    HW113610   6.699   4.706   3.794
 4237SOL    HW213611   6.629   4.681   3.939
 4238SOL     OW13612   2.906   5.747   2.763
 4238SOL    HW113613   2.916   5.675   2.831
 4238SOL    HW213614   2.943   5.833   2.799
 4239SOL     OW13615   3.993   1.076   3.308
 4239SOL    HW113616   4.042   1.145   3.254
 4239SOL    HW213617   3.907   1.115   3.341
 4240SOL     OW13618   5.841   6.775   2.415
 4240SOL    HW113619   5.820   6.848   2.479
 4240SOL    HW213620   5.840   6.687   2.463
 4241SOL     OW13621   6.452   4.675   0.298
 4241SOL    HW113622   6.486   4.616   0.371
 4241SOL    HW213623   6.457   4.628   0.210
 4242SOL     OW13624   3.642   2.114   3.380
 4242SOL    HW113625   3.610   2.194   3.430
 4242SOL    HW213626   3.570   2.084   3.316
 4243SOL     OW13627   3.756   2.120   2.976
 4243SOL    HW113628   3.846   2.139   3.016
 4243SOL    HW213629   3.764   2.119   2.876
 4244SOL     OW13630   3.052   3.052   4.857
 4244SOL    HW113631   2.952   3.053   4.851
 4244SOL    HW213632   3.090   3.013   4.772
 4245SOL     OW13633   6.512   0.427   6.403
 4245SOL    HW113634   6.510   0.409   6.304
 4245SOL    HW213635   6.523   0.526   6.418
 4246SOL     OW13636   0.134   4.787   6.178
 4246SOL    HW113637   0.168   4.699   6.145
 4246SOL    HW213638   0.066   4.822   6.114
 4247SOL     OW13639   6.988   5.834   4.908
 4247SOL    HW113640   7.019   5.778   4.831
 4247SOL    HW213641   0.010   5.920   4.909
 4248SOL     OW13642   2.481   3.465   6.456
 4248SOL    HW113643   2.506   3.543   6.513
 4248SOL    HW213644   2.457   3.387   6.514
 4249SOL     OW13645   5.566   3.365   6.204
 4249SOL    HW113646   5.600   3.307   6.130
 4249SOL    HW213647   5.640   3.381   6.270
 4250SOL     OW13648   7.013   3.945   4.013
 4250SOL    HW113649   6.965   3.881   4.074
 4250SOL    HW213650   0.046   4.001   4.066
 4251SOL     OW13651   5.701   4.758   6.518
 4251SOL    HW113652   5.632   4.703   6.566
 4251SOL    HW213653   5.685   4.855   6.536
 4252SOL     OW13654   6.623   4.986   4.917
 4252SOL    HW113655   6.709   4.936   4.931
 4252SOL    HW213656   6.593   4.976   4.822
 4253SOL     OW13657   3.336   6.163   3.168
 4253SOL    HW113658   3.300   6.075   3.198
 4253SOL    HW213659   3.279   6.200   3.095
 4254SOL     OW13660   2.798   3.661   1.683
 4254SOL    HW113661   2.747   3.611   1.613
 4254SOL    HW213662   2.804   3.605   1.765
 4255SOL     OW13663   0.664   2.462   4.304
 4255SOL    HW113664   0.655   2.556   4.336
 4255SOL    HW213665   0.581   2.412   4.326
 4256SOL     OW13666   2.006   1.054   2.131
 4256SOL    HW113667   1.957   1.120   2.188
 4256SOL    HW213668   2.103   1.060   2.150
 4257SOL     OW13669   4.238   2.212   5.316
 4257SOL    HW113670   4.202   2.150   5.245
 4257SOL    HW213671   4.308   2.164   5.369
 4258SOL     OW13672   5.245   5.951   2.586
 4258SOL    HW113673   5.169   5.902   2.544
 4258SOL    HW213674   5.331   5.920   2.545
 4259SOL     OW13675   2.435   3.290   1.220
 4259SOL    HW113676   2.471   3.227   1.150
 4259SOL    HW213677   2.377   3.358   1.176
 4260SOL     OW13678   3.732   5.709   4.600
 4260SOL    HW113679   3.697   5.800   4.625
 4260SOL    HW213680   3.670   5.667   4.533
 4261SOL     OW13681   0.958   1.383   2.789
 4261SOL    HW113682   0.939   1.402   2.886
 4261SOL    HW213683   0.964   1.470   2.739
 4262SOL     OW13684   0.655   6.267   6.084
 4262SOL    HW113685   0.636   6.303   6.176
 4262SOL    HW213686   0.719   6.190   6.091
 4263SOL     OW13687   4.314   5.312   6.488
 4263SOL    HW113688   4.326   5.329   6.586
 4263SOL    HW213689   4.395   5.345   6.439
 4264SOL     OW13690   0.739   0.256   1.482
 4264SOL    HW113691   0.728   0.313   1.564
 4264SOL    HW213692   0.649   0.225   1.451
 4265SOL     OW13693   1.569   1.489   0.408
 4265SOL    HW113694   1.505   1.555   0.370
 4265SOL    HW213695   1.629   1.455   0.336
 4266SOL     OW13696   3.731   4.721   1.030
 4266SOL    HW113697   3.768   4.756   0.943
 4266SOL    HW213698   3.631   4.729   1.029
 4267SOL     OW13699   1.482   4.289   5.584
 4267SOL    HW113700   1.502   4.266   5.679
 4267SOL    HW213701   1.504   4.385   5.568
 4268SOL     OW13702   1.664   1.073   1.574
 4268SOL    HW113703   1.752   1.121   1.582
 4268SOL    HW213704   1.627   1.086   1.482
 4269SOL     OW13705   2.618   3.833   0.807
 4269SOL    HW113706   2.545   3.834   0.876
 4269SOL    HW213707   2.690   3.770   0.836
 4270SOL     OW13708   3.641   2.929   6.493
 4270SOL    HW113709   3.737   2.954   6.478
 4270SOL    HW213710   3.613   2.959   6.585
 4271SOL     OW13711   1.585   0.955   1.058
 4271SOL    HW113712   1.635   1.005   0.987
 4271SOL    HW213713   1.571   1.015   1.137
 4272SOL     OW13714   0.254   4.011   4.108
 4272SOL    HW113715   0.254   3.934   4.045
 4272SOL    HW213716   0.325   4.076   4.081
 4273SOL     OW13717   5.759   6.686   4.091
 4273SOL    HW113718   5.762   6.776   4.047
 4273SOL    HW213719   5.783   6.616   4.024
 4274SOL     OW13720   2.367   0.321   3.917
 4274SOL    HW113721   2.400   0.313   4.011
 4274SOL    HW213722   2.422   0.262   3.857
 4275SOL     OW13723   0.552   0.258   5.607
 4275SOL    HW113724   0.569   0.315   5.687
 4275SOL    HW213725   0.638   0.220   5.574
 4276SOL     OW13726   1.917   4.648   2.411
 4276SOL    HW113727   1.939   4.583   2.339
 4276SOL    HW213728   1.900   4.738   2.371
 4277SOL     OW13729   0.554   5.600   5.926
 4277SOL    HW113730   0.539   5.506   5.895
 4277SOL    HW213731   0.584   5.599   6.021
 4278SOL     OW13732   1.345   6.342   6.222
 4278SOL    HW113733   1.386   6.424   6.182
 4278SOL    HW213734   1.416   6.289   6.268
 4279SOL     OW13735   2.968   5.823   3.849
 4279SOL    HW113736   2.979   5.728   3.879
 4279SOL    HW213737   2.881   5.858   3.882
 4280SOL     OW13738   5.005   2.776   3.547
 4280SOL    HW113739   5.092   2.731   3.529
 4280SOL    HW213740   5.021   2.862   3.595
 4281SOL     OW13741   2.223   4.306   5.153
 4281SOL    HW113742   2.287   4.360   5.207
 4281SOL    HW213743   2.271   4.230   5.109
 4282SOL     OW13744   0.493   2.956   0.778
 4282SOL    HW113745   0.576   3.010   0.790
 4282SOL    HW213746   0.414   3.009   0.809
 4283SOL     OW13747   2.441   1.033   4.686
 4283SOL    HW113748   2.407   1.063   4.597
 4283SOL    HW213749   2.373   0.975   4.730
 4284SOL     OW13750   0.130   1.980   3.282
 4284SOL    HW113751   0.169   1.931   3.204
 4284SOL    HW213752   0.032   1.993   3.268
 4285SOL     OW13753   0.979   5.837   4.835
 4285SOL    HW113754   0.949   5.779   4.911
 4285SOL    HW213755   0.927   5.923   4.835
 4286SOL     OW13756   4.460   5.686   6.348
 4286SOL    HW113757   4.477   5.641   6.436
 4286SOL    HW213758   4.542   5.736   6.320
 4287SOL     OW13759   4.025   6.297   5.609
 4287SOL    HW113760   4.088   6.372   5.632
 4287SOL    HW213761   4.020   6.286   5.510
 4288SOL     OW13762   0.973   5.732   3.340
 4288SOL    HW113763   1.071   5.731   3.320
 4288SOL    HW213764   0.935   5.820   3.312
 4289SOL     OW13765   0.020   3.944   0.439
 4289SOL    HW113766   0.090   3.902   0.498
 4289SOL    HW213767   0.058   3.957   0.348
 4290SOL     OW13768   2.132   1.613   3.391
 4290SOL    HW113769   2.129   1.606   3.292
 4290SOL    HW213770   2.170   1.702   3.417
 4291SOL     OW13771   0.132   4.279   1.141
 4291SOL    HW113772   0.042   4.318   1.163
 4291SOL    HW213773   0.200   4.314   1.205
 4292SOL     OW13774   5.585   5.499   5.614
 4292SOL    HW113775   5.639   5.430   5.566
 4292SOL    HW213776   5.639   5.538   5.688
 4293SOL     OW13777   0.213   2.023   6.612
 4293SOL    HW113778   0.147   1.955   6.646
 4293SOL    HW213779   0.293   1.976   6.576
 4294SOL     OW13780   4.809   1.763   5.960
 4294SOL    HW113781   4.759   1.746   6.045
 4294SOL    HW213782   4.778   1.849   5.920
 4295SOL     OW13783   3.737   5.939   5.782
 4295SOL    HW113784   3.796   5.919   5.703
 4295SOL    HW213785   3.651   5.980   5.749
 4296SOL     OW13786   2.618   1.241   2.869
 4296SOL    HW113787   2.713   1.242   2.839
 4296SOL    HW213788   2.560   1.216   2.791
 4297SOL     OW13789   5.423   0.329   0.556
 4297SOL    HW113790   5.469   0.241   0.550
 4297SOL    HW213791   5.469   0.395   0.497
 4298SOL     OW13792   2.039   5.197   1.812
 4298SOL    HW113793   1.968   5.165   1.875
 4298SOL    HW213794   2.035   5.297   1.804
 4299SOL     OW13795   0.948   4.954   5.380
 4299SOL    HW113796   1.027   4.934   5.437
 4299SOL    HW213797   0.865   4.917   5.422
 4300SOL     OW13798   6.121   6.588   5.408
 4300SOL    HW113799   6.113   6.491   5.431
 4300SOL    HW213800   6.030   6.630   5.407
 4301SOL     OW13801   2.965   0.771   0.459
 4301SOL    HW113802   2.986   0.675   0.479
 4301SOL    HW213803   2.871   0.790   0.488
 4302SOL     OW13804   1.032   6.895   6.500
 4302SOL    HW113805   1.067   6.821   6.443
 4302SOL    HW213806   1.109   6.944   6.541
 4303SOL     OW13807   6.839   4.352   1.291
 4303SOL    HW113808   6.771   4.334   1.363
 4303SOL    HW213809   6.813   4.433   1.239
 4304SOL     OW13810   3.369   3.560   5.320
 4304SOL    HW113811   3.442   3.495   5.341
 4304SOL    HW213812   3.348   3.614   5.401
 4305SOL     OW13813   6.556   1.288   5.171
 4305SOL    HW113814   6.556   1.276   5.270
 4305SOL    HW213815   6.626   1.230   5.130
 4306SOL     OW13816   5.979   5.813   5.600
 4306SOL    HW113817   5.916   5.786   5.673
 4306SOL    HW213818   6.067   5.838   5.640
 4307SOL     OW13819   5.356   3.467   0.150
 4307SOL    HW113820   5.296   3.532   0.196
 4307SOL    HW213821   5.314   3.376   0.152
 4308SOL     OW13822   3.542   6.859   5.327
 4308SOL    HW113823   3.473   6.914   5.279
 4308SOL    HW213824   3.528   6.762   5.307
 4309SOL     OW13825   1.877   0.630   1.542
 4309SOL    HW113826   1.806   0.693   1.573
 4309SOL    HW213827   1.841   0.572   1.470
 4310SOL     OW13828   1.640   0.538   2.932
 4310SOL    HW113829   1.646   0.636   2.952
 4310SOL    HW213830   1.713   0.512   2.869
 4311SOL     OW13831   1.149   5.495   4.793
 4311SOL    HW113832   1.141   5.395   4.800
 4311SOL    HW213833   1.058   5.536   4.790
 4312SOL     OW13834   1.496   5.747   1.232
 4312SOL    HW113835   1.404   5.709   1.218
 4312SOL    HW213836   1.561   5.672   1.241
 4313SOL     OW13837   5.151   1.084   1.422
 4313SOL    HW113838   5.145   1.020   1.346
 4313SOL    HW213839   5.239   1.071   1.469
 4314SOL     OW13840   5.870   3.526   1.721
 4314SOL    HW113841   5.844   3.565   1.808
 4314SOL    HW213842   5.908   3.434   1.735
 4315SOL     OW13843   2.243   1.392   2.738
 4315SOL    HW113844   2.183   1.441   2.802
 4315SOL    HW213845   2.272   1.455   2.665
 4316SOL     OW13846   0.887   0.885   2.444
 4316SOL    HW113847   0.802   0.846   2.407
 4316SOL    HW213848   0.870   0.978   2.477
 4317SOL     OW13849   4.070   0.561   3.279
 4317SOL    HW113850   4.068   0.546   3.180
 4317SOL    HW213851   4.101   0.654   3.297
 4318SOL     OW13852   6.329   2.343   4.963
 4318SOL    HW113853   6.264   2.281   5.007
 4318SOL    HW213854   6.294   2.437   4.968
 4319SOL     OW13855   3.025   2.788   6.038
 4319SOL    HW113856   2.989   2.748   6.122
 4319SOL    HW213857   3.116   2.752   6.020
 4320SOL     OW13858   0.127   5.553   3.399
 4320SOL    HW113859   0.087   5.527   3.487
 4320SOL    HW213860   0.063   5.612   3.350
 4321SOL     OW13861   0.742   0.593   4.727
 4321SOL    HW113862   0.803   0.666   4.696
 4321SOL    HW213863   0.775   0.557   4.814
 4322SOL     OW13864   5.951   1.404   1.028
 4322SOL    HW113865   5.855   1.425   1.010
 4322SOL    HW213866   5.963   1.379   1.124
 4323SOL     OW13867   0.166   1.894   3.895
 4323SOL    HW113868   0.124   1.807   3.868
 4323SOL    HW213869   0.093   1.960   3.917
 4324SOL     OW13870   5.539   2.664   5.856
 4324SOL    HW113871   5.525   2.571   5.890
 4324SOL    HW213872   5.525   2.667   5.757
 4325SOL     OW13873   1.518   2.310   6.299
 4325SOL    HW113874   1.465   2.227   6.283
 4325SOL    HW213875   1.483   2.358   6.379
 4326SOL     OW13876   6.445   2.623   5.182
 4326SOL    HW113877   6.415   2.695   5.119
 4326SOL    HW213878   6.478   2.545   5.131
 4327SOL     OW13879   5.264   1.060   2.919
 4327SOL    HW113880   5.172   1.101   2.922
 4327SOL    HW213881   5.261   0.978   2.863
 4328SOL     OW13882   5.895   5.135   0.365
 4328SOL    HW113883   5.821   5.123   0.431
 4328SOL    HW213884   5.957   5.056   0.370
 4329SOL     OW13885   5.094   1.922   6.957
 4329SOL    HW113886   5.178   1.950   6.912
 4329SOL    HW213887   5.106   1.830   6.995
 4330SOL     OW13888   1.360   0.976   6.435
 4330SOL    HW113889   1.413   0.891   6.436
 4330SOL    HW213890   1.371   1.021   6.346
 4331SOL     OW13891   5.527   2.175   6.740
 4331SOL    HW113892   5.537   2.192   6.642
 4331SOL    HW213893   5.568   2.251   6.791
 4332SOL     OW13894   5.496   2.997   1.517
 4332SOL    HW113895   5.398   2.977   1.511
 4332SOL    HW213896   5.510   3.095   1.505
 4333SOL     OW13897   6.313   1.458   5.530
 4333SOL    HW113898   6.409   1.482   5.519
 4333SOL    HW213899   6.264   1.533   5.573
 4334SOL     OW13900   4.676   0.207   1.813
 4334SOL    HW113901   4.630   0.119   1.819
 4334SOL    HW213902   4.745   0.204   1.741
 4335SOL     OW13903   3.625   4.370   5.563
 4335SOL    HW113904   3.608   4.402   5.656
 4335SOL    HW213905   3.717   4.399   5.535
 4336SOL     OW13906   1.068   6.544   5.698
 4336SOL    HW113907   1.061   6.591   5.785
 4336SOL    HW213908   0.977   6.517   5.667
 4337SOL     OW13909   0.496   5.835   0.443
 4337SOL    HW113910   0.514   5.822   0.540
 4337SOL    HW213911   0.515   5.750   0.394
 4338SOL     OW13912   5.291   6.037   3.496
 4338SOL    HW113913   5.302   6.107   3.425
 4338SOL    HW213914   5.323   6.073   3.584
 4339SOL     OW13915   6.550   1.226   6.840
 4339SOL    HW113916   6.486   1.173   6.784
 4339SOL    HW213917   6.545   1.323   6.815
 4340SOL     OW13918   4.464   3.475   1.688
 4340SOL    HW113919   4.526   3.396   1.682
 4340SOL    HW213920   4.395   3.469   1.616
 4341SOL     OW13921   0.720   3.605   0.417
 4341SOL    HW113922   0.676   3.629   0.504
 4341SOL    HW213923   0.657   3.622   0.342
 4342SOL     OW13924   0.492   2.181   3.176
 4342SOL    HW113925   0.413   2.169   3.235
 4342SOL    HW213926   0.533   2.270   3.193
 4343SOL     OW13927   2.680   2.010   1.226
 4343SOL    HW113928   2.612   1.950   1.184
 4343SOL    HW213929   2.771   1.970   1.217
 4344SOL     OW13930   1.902   3.904   2.205
 4344SOL    HW113931   1.931   3.920   2.299
 4344SOL    HW213932   1.981   3.875   2.150
 4345SOL     OW13933   2.605   1.493   6.074
 4345SOL    HW113934   2.589   1.565   6.006
 4345SOL    HW213935   2.517   1.460   6.109
 4346SOL     OW13936   0.002   3.602   1.241
 4346SOL    HW113937   0.014   3.701   1.252
 4346SOL    HW213938   6.938   3.583   1.212
 4347SOL     OW13939   4.961   5.977   2.160
 4347SOL    HW113940   5.024   5.905   2.130
 4347SOL    HW213941   4.936   6.033   2.081
 4348SOL     OW13942   1.277   3.988   0.184
 4348SOL    HW113943   1.247   3.905   0.232
 4348SOL    HW213944   1.349   3.966   0.120
 4349SOL     OW13945   6.592   0.827   1.890
 4349SOL    HW113946   6.591   0.843   1.791
 4349SOL    HW213947   6.678   0.862   1.928
 4350SOL     OW13948   4.508   0.412   2.966
 4350SOL    HW113949   4.417   0.444   2.938
 4350SOL    HW213950   4.512   0.408   3.066
 4351SOL     OW13951   3.110   0.156   7.017
 4351SOL    HW113952   3.122   0.129   0.083
 4351SOL    HW213953   3.180   0.224   6.993
 4352SOL     OW13954   6.596   1.884   2.667
 4352SOL    HW113955   6.561   1.971   2.633
 4352SOL    HW213956   6.609   1.821   2.591
 4353SOL     OW13957   2.764   5.925   1.723
 4353SOL    HW113958   2.748   5.833   1.760
 4353SOL    HW213959   2.722   5.932   1.633
 4354SOL     OW13960   2.808   0.681   1.366
 4354SOL    HW113961   2.761   0.766   1.393
 4354SOL    HW213962   2.905   0.689   1.388
 4355SOL     OW13963   4.722   0.128   0.255
 4355SOL    HW113964   4.701   0.046   0.308
 4355SOL    HW213965   4.647   0.147   0.191
 4356SOL     OW13966   3.768   4.190   0.256
 4356SOL    HW113967   3.669   4.183   0.246
 4356SOL    HW213968   3.790   4.221   0.349
 4357SOL     OW13969   5.896   0.857   0.234
 4357SOL    HW113970   5.837   0.924   0.191
 4357SOL    HW213971   5.980   0.848   0.181
 4358SOL     OW13972   6.169   0.884   1.027
 4358SOL    HW113973   6.125   0.930   1.105
 4358SOL    HW213974   6.232   0.815   1.060
 4359SOL     OW13975   5.740   3.608   4.134
 4359SOL    HW113976   5.736   3.694   4.082
 4359SOL    HW213977   5.833   3.571   4.131
 4360SOL     OW13978   2.220   3.484   1.222
 4360SOL    HW113979   2.175   3.525   1.142
 4360SOL    HW213980   2.182   3.393   1.238
 4361SOL     OW13981   5.802   2.042   2.058
 4361SOL    HW113982   5.868   2.115   2.079
 4361SOL    HW213983   5.763   2.007   2.143
 4362SOL     OW13984   5.348   4.154   2.819
 4362SOL    HW113985   5.306   4.163   2.729
 4362SOL    HW213986   5.296   4.209   2.885
 4363SOL     OW13987   5.153   0.627   6.228
 4363SOL    HW113988   5.232   0.635   6.289
 4363SOL    HW213989   5.112   0.536   6.239
 4364SOL     OW13990   3.514   3.889   4.451
 4364SOL    HW113991   3.513   3.904   4.550
 4364SOL    HW213992   3.516   3.977   4.404
 4365SOL     OW13993   4.214   1.802   0.518
 4365SOL    HW113994   4.281   1.865   0.557
 4365SOL    HW213995   4.157   1.765   0.592
 4366SOL     OW13996   5.482   5.067   0.366
 4366SOL    HW113997   5.450   5.159   0.387
 4366SOL    HW213998   5.407   5.015   0.325
 4367SOL     OW13999   6.949   0.161   0.958
 4367SOL    HW114000   6.857   0.165   0.998
 4367SOL    HW214001   6.946   0.200   0.866
 4368SOL     OW14002   4.541   4.634   2.118
 4368SOL    HW114003   4.605   4.710   2.104
 4368SOL    HW214004   4.504   4.605   2.030
 4369SOL     OW14005   2.978   5.191   1.520
 4369SOL    HW114006   3.005   5.188   1.616
 4369SOL    HW214007   2.886   5.152   1.510
 4370SOL     OW14008   5.543   4.208   2.083
 4370SOL    HW114009   5.458   4.162   2.058
 4370SOL    HW214010   5.583   4.251   2.002
 4371SOL     OW14011   0.996   1.920   2.522
 4371SOL    HW114012   1.039   1.886   2.438
 4371SOL    HW214013   1.030   1.869   2.600
 4372SOL     OW14014   5.006   0.248   3.390
 4372SOL    HW114015   4.935   0.316   3.371
 4372SOL    HW214016   5.093   0.295   3.407
 4373SOL     OW14017   6.624   1.566   6.336
 4373SOL    HW114018   6.707   1.524   6.372
 4373SOL    HW214019   6.615   1.543   6.238
 4374SOL     OW14020   3.457   1.261   0.975
 4374SOL    HW114021   3.502   1.294   1.058
 4374SOL    HW214022   3.374   1.315   0.960
 4375SOL     OW14023   3.706   5.798   4.315
 4375SOL    HW114024   3.698   5.709   4.270
 4375SOL    HW214025   3.692   5.871   4.248
 4376SOL     OW14026   0.185   2.154   4.420
 4376SOL    HW114027   0.185   2.084   4.349
 4376SOL    HW214028   0.270   2.207   4.414
 4377SOL     OW14029   6.587   5.260   6.151
 4377SOL    HW114030   6.507   5.204   6.135
 4377SOL    HW214031   6.670   5.209   6.125
 4378SOL     OW14032   3.494   1.782   3.778
 4378SOL    HW114033   3.492   1.696   3.728
 4378SOL    HW214034   3.528   1.855   3.719
 4379SOL     OW14035   3.674   2.212   6.156
 4379SOL    HW114036   3.640   2.248   6.243
 4379SOL    HW214037   3.622   2.131   6.131
 4380SOL     OW14038   0.247   2.224   3.315
 4380SOL    HW114039   0.193   2.140   3.320
 4380SOL    HW214040   0.279   2.249   3.407
 4381SOL     OW14041   1.510   5.655   6.896
 4381SOL    HW114042   1.524   5.563   6.859
 4381SOL    HW214043   1.547   5.660   6.988
 4382SOL     OW14044   0.864   5.274   4.560
 4382SOL    HW114045   0.906   5.301   4.473
 4382SOL    HW214046   0.908   5.191   4.594
 4383SOL     OW14047   6.926   4.138   0.585
 4383SOL    HW114048   6.992   4.202   0.624
 4383SOL    HW214049   6.975   4.062   0.541
 4384SOL     OW14050   5.132   6.943   3.506
 4384SOL    HW114051   5.153   6.853   3.546
 4384SOL    HW214052   5.035   6.948   3.485
 4385SOL     OW14053   4.607   1.575   5.648
 4385SOL    HW114054   4.603   1.486   5.601
 4385SOL    HW214055   4.677   1.572   5.719
 4386SOL     OW14056   1.893   3.342   4.181
 4386SOL    HW114057   1.969   3.407   4.179
 4386SOL    HW214058   1.892   3.288   4.097
 4387SOL     OW14059   5.612   2.100   0.994
 4387SOL    HW114060   5.703   2.140   1.001
 4387SOL    HW214061   5.559   2.123   1.076
 4388SOL     OW14062   5.202   3.697   0.156
 4388SOL    HW114063   5.211   3.737   0.065
 4388SOL    HW214064   5.162   3.764   0.218
 4389SOL     OW14065   1.687   1.433   0.180
 4389SOL    HW114066   1.769   1.385   0.147
 4389SOL    HW214067   1.656   1.498   0.111
 4390SOL     OW14068   0.011   1.883   1.043
 4390SOL    HW114069   0.026   1.808   0.979
 4390SOL    HW214070   6.995   1.959   0.996
 4391SOL     OW14071   0.798   5.970   0.691
 4391SOL    HW114072   0.860   5.981   0.769
 4391SOL    HW214073   0.743   6.053   0.681
 4392SOL     OW14074   1.056   2.949   5.979
 4392SOL    HW114075   1.012   2.975   6.065
 4392SOL    HW214076   1.151   2.923   5.996
 4393SOL     OW14077   6.072   0.375   2.171
 4393SOL    HW114078   6.064   0.374   2.071
 4393SOL    HW214079   5.989   0.413   2.211
 4394SOL     OW14080   0.494   0.389   2.456
 4394SOL    HW114081   0.566   0.377   2.388
 4394SOL    HW214082   0.498   0.314   2.522
 4395SOL     OW14083   1.550   4.495   2.219
 4395SOL    HW114084   1.582   4.589   2.212
 4395SOL    HW214085   1.599   4.448   2.292
 4396SOL     OW14086   3.325   0.883   2.782
 4396SOL    HW114087   3.339   0.980   2.800
 4396SOL    HW214088   3.409   0.843   2.745
 4397SOL     OW14089   3.341   1.206   4.898
 4397SOL    HW114090   3.267   1.223   4.833
 4397SOL    HW214091   3.384   1.293   4.922
 4398SOL     OW14092   2.244   3.638   5.508
 4398SOL    HW114093   2.296   3.702   5.452
 4398SOL    HW214094   2.220   3.558   5.453
 4399SOL     OW14095   2.776   6.869   1.676
 4399SOL    HW114096   2.729   6.879   1.764
 4399SOL    HW214097   2.854   6.931   1.673
 4400SOL     OW14098   1.900   6.096   5.061
 4400SOL    HW114099   1.836   6.030   5.100
 4400SOL    HW214100   1.962   6.050   4.998
 4401SOL     OW14101   2.720   0.025   6.466
 4401SOL    HW114102   2.810   7.019   6.443
 4401SOL    HW214103   2.724   0.068   6.557
 4402SOL     OW14104   1.894   0.977   2.978
 4402SOL    HW114105   1.874   0.918   3.056
 4402SOL    HW214106   1.978   1.029   2.996
 4403SOL     OW14107   0.354   5.521   2.411
 4403SOL    HW114108   0.340   5.590   2.482
 4403SOL    HW214109   0.423   5.553   2.346
 4404SOL     OW14110   0.645   6.654   6.217
 4404SOL    HW114111   0.673   6.745   6.249
 4404SOL    HW214112   0.710   6.586   6.250
 4405SOL     OW14113   1.511   5.266   2.379
 4405SOL    HW114114   1.604   5.233   2.397
 4405SOL    HW214115   1.445   5.194   2.403
 4406SOL     OW14116   6.448   4.385   1.982
 4406SOL    HW114117   6.407   4.462   2.031
 4406SOL    HW214118   6.457   4.307   2.043
 4407SOL     OW14119   6.008   6.750   1.101
 4407SOL    HW114120   6.030   6.813   1.176
 4407SOL    HW214121   5.920   6.775   1.061
 4408SOL     OW14122   4.231   1.064   0.886
 4408SOL    HW114123   4.283   0.983   0.858
 4408SOL    HW214124   4.149   1.073   0.829
 4409SOL     OW14125   2.623   0.472   4.030
 4409SOL    HW114126   2.677   0.508   4.106
 4409SOL    HW214127   2.562   0.400   4.063
 4410SOL     OW14128   0.597   0.313   0.959
 4410SOL    HW114129   0.665   0.251   0.919
 4410SOL    HW214130   0.542   0.263   1.026
 4411SOL     OW14131   4.630   4.501   5.232
 4411SOL    HW114132   4.697   4.427   5.242
 4411SOL    HW214133   4.655   4.558   5.154
 4412SOL     OW14134   4.395   6.349   1.962
 4412SOL    HW114135   4.487   6.386   1.945
 4412SOL    HW214136   4.358   6.390   2.046
 4413SOL     OW14137   4.586   5.542   3.848
 4413SOL    HW114138   4.571   5.631   3.891
 4413SOL    HW214139   4.681   5.514   3.861
 4414SOL     OW14140   5.334   3.764   1.468
 4414SOL    HW114141   5.343   3.676   1.421
 4414SOL    HW214142   5.264   3.819   1.422
 4415SOL     OW14143   1.446   4.043   0.846
 4415SOL    HW114144   1.519   3.984   0.880
 4415SOL    HW214145   1.373   4.049   0.913
 4416SOL     OW14146   4.821   3.048   4.440
 4416SOL    HW114147   4.823   3.019   4.344
 4416SOL    HW214148   4.911   3.083   4.465
 4417SOL     OW14149   0.148   4.499   1.683
 4417SOL    HW114150   0.091   4.436   1.631
 4417SOL    HW214151   0.091   4.554   1.744
 4418SOL     OW14152   6.061   0.897   5.692
 4418SOL    HW114153   6.054   0.799   5.713
 4418SOL    HW214154   6.157   0.924   5.695
 4419SOL     OW14155   6.513   6.249   6.768
 4419SOL    HW114156   6.612   6.244   6.781
 4419SOL    HW214157   6.467   6.225   6.853
 4420SOL     OW14158   4.173   1.804   1.142
 4420SOL    HW114159   4.151   1.897   1.112
 4420SOL    HW214160   4.250   1.769   1.090
 4421SOL     OW14161   1.986   2.763   0.320
 4421SOL    HW114162   2.038   2.786   0.237
 4421SOL    HW214163   1.888   2.764   0.299
 4422SOL     OW14164   0.314   3.047   5.993
 4422SOL    HW114165   0.391   2.986   5.975
 4422SOL    HW214166   0.343   3.121   6.053
 4423SOL     OW14167   5.986   4.452   4.370
 4423SOL    HW114168   5.888   4.474   4.374
 4423SOL    HW214169   6.033   4.497   4.446
 4424SOL     OW14170   4.535   6.007   2.444
 4424SOL    HW114171   4.627   5.977   2.418
 4424SOL    HW214172   4.487   6.042   2.363
 4425SOL     OW14173   0.893   6.230   1.284
 4425SOL    HW114174   0.884   6.168   1.206
 4425SOL    HW214175   0.814   6.291   1.287
 4426SOL     OW14176   0.330   0.506   4.451
 4426SOL    HW114177   0.233   0.486   4.470
 4426SOL    HW214178   0.362   0.446   4.378
 4427SOL     OW14179   2.457   5.840   2.387
 4427SOL    HW114180   2.477   5.899   2.465
 4427SOL    HW214181   2.359   5.819   2.385
 4428SOL     OW14182   6.563   5.669   3.408
 4428SOL    HW114183   6.594   5.615   3.487
 4428SOL    HW214184   6.488   5.728   3.435
 4429SOL     OW14185   2.700   6.374   3.146
 4429SOL    HW114186   2.692   6.309   3.222
 4429SOL    HW214187   2.789   6.363   3.103
 4430SOL     OW14188   6.171   3.450   5.020
 4430SOL    HW114189   6.124   3.384   5.078
 4430SOL    HW214190   6.111   3.529   5.003
 4431SOL     OW14191   4.497   6.581   4.739
 4431SOL    HW114192   4.563   6.545   4.804
 4431SOL    HW214193   4.486   6.516   4.664
 4432SOL     OW14194   1.198   3.291   6.150
 4432SOL    HW114195   1.269   3.224   6.172
 4432SOL    HW214196   1.194   3.305   6.051
 4433SOL     OW14197   0.988   0.654   4.364
 4433SOL    HW114198   0.982   0.568   4.314
 4433SOL    HW214199   1.008   0.728   4.300
 4434SOL     OW14200   6.850   0.877   1.994
 4434SOL    HW114201   6.899   0.900   1.910
 4434SOL    HW214202   6.912   0.828   2.056
 4435SOL     OW14203   2.501   4.272   0.588
 4435SOL    HW114204   2.525   4.335   0.514
 4435SOL    HW214205   2.472   4.325   0.668
 4436SOL     OW14206   4.770   2.278   1.593
 4436SOL    HW114207   4.692   2.222   1.569
 4436SOL    HW214208   4.739   2.371   1.615
 4437SOL     OW14209   6.368   4.563   0.050
 4437SOL    HW114210   6.374   4.528   6.986
 4437SOL    HW214211   6.272   4.573   0.076
 4438SOL     OW14212   4.253   1.621   4.739
 4438SOL    HW114213   4.299   1.611   4.651
 4438SOL    HW214214   4.312   1.585   4.812
 4439SOL     OW14215   2.219   5.639   2.873
 4439SOL    HW114216   2.264   5.719   2.913
 4439SOL    HW214217   2.131   5.667   2.834
 4440SOL     OW14218   1.619   5.150   5.055
 4440SOL    HW114219   1.717   5.166   5.044
 4440SOL    HW214220   1.604   5.059   5.095
 4441SOL     OW14221   6.996   1.864   1.320
 4441SOL    HW114222   7.007   1.846   1.222
 4441SOL    HW214223   6.907   1.906   1.336
 4442SOL     OW14224   2.156   4.650   1.418
 4442SOL    HW114225   2.120   4.638   1.325
 4442SOL    HW214226   2.084   4.681   1.479
 4443SOL     OW14227   0.595   5.792   6.132
 4443SOL    HW114228   0.658   5.748   6.196
 4443SOL    HW214229   0.503   5.796   6.172
 4444SOL     OW14230   5.678   5.417   0.285
 4444SOL    HW114231   5.601   5.369   0.326
 4444SOL    HW214232   5.654   5.512   0.269
 4445SOL     OW14233   2.249   4.005   0.184
 4445SOL    HW114234   2.301   3.948   0.247
 4445SOL    HW214235   2.165   4.036   0.229
 4446SOL     OW14236   4.676   1.728   2.078
 4446SOL    HW114237   4.763   1.683   2.057
 4446SOL    HW214238   4.694   1.818   2.119
 4447SOL     OW14239   4.586   5.682   4.904
 4447SOL    HW114240   4.534   5.728   4.976
 4447SOL    HW214241   4.681   5.674   4.932
 4448SOL     OW14242   3.355   6.518   3.007
 4448SOL    HW114243   3.372   6.580   3.084
 4448SOL    HW214244   3.439   6.509   2.953
 4449SOL     OW14245   3.989   1.570   5.575
 4449SOL    HW114246   3.930   1.494   5.600
 4449SOL    HW214247   3.969   1.648   5.634
 4450SOL     OW14248   1.986   6.355   0.222
 4450SOL    HW114249   1.930   6.292   0.167
 4450SOL    HW214250   2.050   6.403   0.162
 4451SOL     OW14251   4.475   5.446   3.278
 4451SOL    HW114252   4.432   5.396   3.203
 4451SOL    HW214253   4.472   5.544   3.259
 4452SOL     OW14254   4.966   4.885   3.703
 4452SOL    HW114255   4.910   4.961   3.735
 4452SOL    HW214256   4.911   4.801   3.701
 4453SOL     OW14257   0.562   4.855   0.980
 4453SOL    HW114258   0.551   4.907   1.064
 4453SOL    HW214259   0.561   4.918   0.902
 4454SOL     OW14260   0.665   2.163   0.439
 4454SOL    HW114261   0.733   2.170   0.512
 4454SOL    HW214262   0.700   2.103   0.367
 4455SOL     OW14263   1.412   0.202   4.182
 4455SOL    HW114264   1.358   0.282   4.157
 4455SOL    HW214265   1.353   0.122   4.188
 4456SOL     OW14266   1.703   6.114   4.593
 4456SOL    HW114267   1.797   6.094   4.620
 4456SOL    HW214268   1.694   6.109   4.494
 4457SOL     OW14269   1.493   1.230   4.538
 4457SOL    HW114270   1.449   1.143   4.515
 4457SOL    HW214271   1.432   1.305   4.514
 4458SOL     OW14272   1.440   3.070   6.306
 4458SOL    HW114273   1.355   3.056   6.356
 4458SOL    HW214274   1.469   2.983   6.266
 4459SOL     OW14275   0.408   3.801   3.621
 4459SOL    HW114276   0.453   3.838   3.703
 4459SOL    HW214277   0.349   3.870   3.581
 4460SOL     OW14278   6.975   2.701   5.240
 4460SOL    HW114279   0.041   2.729   5.253
 4460SOL    HW214280   6.923   2.775   5.200
 4461SOL     OW14281   2.017   0.630   0.820
 4461SOL    HW114282   1.923   0.640   0.786
 4461SOL    HW214283   2.029   0.691   0.899
 4462SOL     OW14284   6.429   4.131   2.095
 4462SOL    HW114285   6.368   4.080   2.155
 4462SOL    HW214286   6.511   4.075   2.076
 4463SOL     OW14287   5.842   1.757   0.216
 4463SOL    HW114288   5.752   1.797   0.235
 4463SOL    HW214289   5.898   1.823   0.167
 4464SOL     OW14290   0.545   3.615   1.350
 4464SOL    HW114291   0.569   3.644   1.442
 4464SOL    HW214292   0.486   3.534   1.355
 4465SOL     OW14293   4.468   5.221   1.986
 4465SOL    HW114294   4.549   5.163   1.974
 4465SOL    HW214295   4.397   5.191   1.923
 4466SOL     OW14296   0.636   3.149   2.567
 4466SOL    HW114297   0.696   3.156   2.648
 4466SOL    HW214298   0.572   3.225   2.567
 4467SOL     OW14299   5.417   4.672   1.746
 4467SOL    HW114300   5.407   4.659   1.647
 4467SOL    HW214301   5.474   4.752   1.763
 4468SOL     OW14302   1.886   3.015   1.045
 4468SOL    HW114303   1.884   2.992   0.948
 4468SOL    HW214304   1.835   3.100   1.060
 4469SOL     OW14305   1.954   6.177   1.328
 4469SOL    HW114306   1.991   6.241   1.261
 4469SOL    HW214307   1.997   6.192   1.417
 4470SOL     OW14308   0.793   6.995   2.578
 4470SOL    HW114309   0.802   7.021   2.675
 4470SOL    HW214310   0.838   0.034   2.522
 4471SOL     OW14311   1.031   0.526   6.932
 4471SOL    HW114312   1.108   0.534   6.994
 4471SOL    HW214313   1.063   0.533   6.838
 4472SOL     OW14314   1.452   2.567   1.083
 4472SOL    HW114315   1.474   2.606   1.173
 4472SOL    HW214316   1.407   2.478   1.095
 4473SOL     OW14317   0.188   2.785   5.024
 4473SOL    HW114318   0.240   2.851   4.970
 4473SOL    HW214319   0.195   2.809   5.121
 4474SOL     OW14320   2.307   6.200   0.729
 4474SOL    HW114321   2.327   6.231   0.822
 4474SOL    HW214322   2.391   6.204   0.674
 4475SOL     OW14323   0.606   3.696   0.192
 4475SOL    HW114324   0.644   3.787   0.206
 4475SOL    HW214325   0.612   3.671   0.095
 4476SOL     OW14326   5.386   0.758   3.634
 4476SOL    HW114327   5.449   0.687   3.667
 4476SOL    HW214328   5.360   0.737   3.540
 4477SOL     OW14329   6.984   1.090   4.259
 4477SOL    HW114330   0.031   1.154   4.257
 4477SOL    HW214331   6.990   1.028   4.181
 4478SOL     OW14332   1.802   0.839   2.312
 4478SOL    HW114333   1.793   0.771   2.239
 4478SOL    HW214334   1.745   0.812   2.390
 4479SOL     OW14335   2.226   2.910   6.437
 4479SOL    HW114336   2.319   2.935   6.462
 4479SOL    HW214337   2.181   2.867   6.515
 4480SOL     OW14338   0.148   0.024   3.354
 4480SOL    HW114339   0.237   0.052   3.390
 4480SOL    HW214340   0.075   0.068   3.406
 4481SOL     OW14341   1.909   4.134   6.109
 4481SOL    HW114342   1.872   4.043   6.127
 4481SOL    HW214343   1.862   4.175   6.031
 4482SOL     OW14344   2.685   0.298   1.103
 4482SOL    HW114345   2.760   0.360   1.076
 4482SOL    HW214346   2.610   0.352   1.141
 4483SOL     OW14347   0.985   3.650   0.635
 4483SOL    HW114348   0.887   3.643   0.618
 4483SOL    HW214349   1.003   3.725   0.699
 4484SOL     OW14350   3.404   0.899   0.277
 4484SOL    HW114351   3.438   0.814   0.319
 4484SOL    HW214352   3.311   0.917   0.311
 4485SOL     OW14353   0.146   3.318   5.188
 4485SOL    HW114354   0.200   3.398   5.160
 4485SOL    HW214355   0.172   3.292   5.281
 4486SOL     OW14356   4.782   4.428   3.314
 4486SOL    HW114357   4.710   4.435   3.384
 4486SOL    HW214358   4.768   4.345   3.260
 4487SOL     OW14359   0.355   3.036   6.481
 4487SOL    HW114360   0.430   3.058   6.544
 4487SOL    HW214361   0.354   2.938   6.464
 4488SOL     OW14362   6.340   4.512   3.385
 4488SOL    HW114363   6.327   4.486   3.290
 4488SOL    HW214364   6.351   4.429   3.441
 4489SOL     OW14365   3.552   5.941   6.811
 4489SOL    HW114366   3.607   5.866   6.847
 4489SOL    HW214367   3.605   6.025   6.812
 4490SOL     OW14368   5.805   1.652   2.089
 4490SOL    HW114369   5.873   1.687   2.154
 4490SOL    HW214370   5.717   1.642   2.136
 4491SOL     OW14371   0.571   3.831   2.850
 4491SOL    HW114372   0.581   3.777   2.935
 4491SOL    HW214373   0.566   3.928   2.873
 4492SOL     OW14374   5.898   1.372   2.724
 4492SOL    HW114375   5.864   1.460   2.693
 4492SOL    HW214376   5.864   1.354   2.816
 4493SOL     OW14377   5.393   1.567   5.952
 4493SOL    HW114378   5.376   1.484   5.899
 4493SOL    HW214379   5.319   1.632   5.937
 4494SOL     OW14380   1.527   1.047   2.569
 4494SOL    HW114381   1.596   0.982   2.538
 4494SOL    HW214382   1.445   1.038   2.513
 4495SOL     OW14383   4.812   6.210   0.822
 4495SOL    HW114384   4.858   6.123   0.807
 4495SOL    HW214385   4.749   6.202   0.899
 4496SOL     OW14386   2.289   5.974   6.317
 4496SOL    HW114387   2.366   6.005   6.261
 4496SOL    HW214388   2.204   6.014   6.284
 4497SOL     OW14389   4.066   0.258   5.766
 4497SOL    HW114390   4.050   0.204   5.684
 4497SOL    HW214391   4.078   0.197   5.845
 4498SOL     OW14392   1.414   4.873   4.398
 4498SOL    HW114393   1.360   4.927   4.464
 4498SOL    HW214394   1.427   4.781   4.434
 4499SOL     OW14395   5.837   1.417   2.310
 4499SOL    HW114396   5.926   1.449   2.278
 4499SOL    HW214397   5.770   1.491   2.304
 4500SOL     OW14398   3.479   6.910   7.027
 4500SOL    HW114399   3.384   6.888   0.018
 4500SOL    HW214400   3.516   6.844   6.961
 4501SOL     OW14401   6.447   6.911   2.807
 4501SOL    HW114402   6.362   6.960   2.822
 4501SOL    HW214403   6.431   6.813   2.818
 4502SOL     OW14404   1.537   4.030   6.522
 4502SOL    HW114405   1.502   4.110   6.571
 4502SOL    HW214406   1.630   4.048   6.490
 4503SOL     OW14407   3.694   1.368   2.657
 4503SOL    HW114408   3.691   1.384   2.755
 4503SOL    HW214409   3.689   1.455   2.609
 4504SOL     OW14410   1.454   2.135   3.884
 4504SOL    HW114411   1.483   2.102   3.794
 4504SOL    HW214412   1.487   2.229   3.898
 4505SOL     OW14413   6.423   3.009   3.156
 4505SOL    HW114414   6.366   3.068   3.098
 4505SOL    HW214415   6.365   2.948   3.209
 4506SOL     OW14416   3.974   4.167   0.084
 4506SOL    HW114417   3.908   4.181   0.158
 4506SOL    HW214418   4.050   4.111   0.118
 4507SOL     OW14419   6.053   2.554   2.699
 4507SOL    HW114420   6.124   2.603   2.648
 4507SOL    HW214421   5.993   2.619   2.744
 4508SOL     OW14422   6.287   5.077   0.670
 4508SOL    HW114423   6.300   4.996   0.612
 4508SOL    HW214424   6.309   5.159   0.619
 4509SOL     OW14425   4.986   2.133   2.143
 4509SOL    HW114426   4.899   2.128   2.192
 4509SOL    HW214427   5.050   2.066   2.181
 4510SOL     OW14428   5.042   1.445   4.137
 4510SOL    HW114429   4.957   1.444   4.084
 4510SOL    HW214430   5.020   1.445   4.235
 4511SOL     OW14431   0.064   4.638   0.030
 4511SOL    HW114432   0.056   4.683   0.119
 4511SOL    HW214433   7.024   4.674   6.998
 4512SOL     OW14434   2.871   3.352   5.879
 4512SOL    HW114435   2.874   3.321   5.784
 4512SOL    HW214436   2.853   3.274   5.939
 4513SOL     OW14437   0.111   0.391   1.003
 4513SOL    HW114438   0.128   0.389   0.904
 4513SOL    HW214439   0.028   0.444   1.021
 4514SOL     OW14440   4.584   4.558   6.471
 4514SOL    HW114441   4.659   4.515   6.521
 4514SOL    HW214442   4.617   4.638   6.422
 4515SOL     OW14443   4.516   0.045   6.091
 4515SOL    HW114444   4.473   6.998   6.139
 4515SOL    HW214445   4.529   0.122   6.154
 4516SOL     OW14446   3.772   2.227   5.243
 4516SOL    HW114447   3.676   2.256   5.242
 4516SOL    HW214448   3.803   2.217   5.337
 4517SOL     OW14449   3.709   0.526   4.562
 4517SOL    HW114450   3.685   0.546   4.467
 4517SOL    HW214451   3.731   0.611   4.610
 4518SOL     OW14452   6.899   0.239   0.659
 4518SOL    HW114453   6.815   0.286   0.685
 4518SOL    HW214454   6.881   0.180   0.580
 4519SOL     OW14455   5.198   0.025   6.392
 4519SOL    HW114456   5.194   6.958   6.417
 4519SOL    HW214457   5.105   0.059   6.374
 4520SOL     OW14458   4.512   4.998   5.577
 4520SOL    HW114459   4.425   5.041   5.601
 4520SOL    HW214460   4.580   5.069   5.557
 4521SOL     OW14461   4.826   2.492   4.413
 4521SOL    HW114462   4.739   2.525   4.450
 4521SOL    HW214463   4.814   2.469   4.316
 4522SOL     OW14464   5.822   3.424   3.321
 4522SOL    HW114465   5.745   3.478   3.354
 4522SOL    HW214466   5.865   3.471   3.244
 4523SOL     OW14467   0.090   3.117   6.560
 4523SOL    HW114468   0.179   3.082   6.530
 4523SOL    HW214469   0.070   3.202   6.513
 4524SOL     OW14470   1.927   3.850   1.833
 4524SOL    HW114471   1.878   3.812   1.911
 4524SOL    HW214472   1.990   3.922   1.864
 4525SOL     OW14473   3.687   1.811   5.891
 4525SOL    HW114474   3.729   1.851   5.972
 4525SOL    HW214475   3.690   1.711   5.898
 4526SOL     OW14476   2.000   0.507   5.378
 4526SOL    HW114477   2.077   0.548   5.329
 4526SOL    HW214478   2.021   0.411   5.399
 4527SOL     OW14479   0.742   2.177   2.506
 4527SOL    HW114480   0.768   2.244   2.575
 4527SOL    HW214481   0.803   2.097   2.512
 4528SOL     OW14482   5.286   1.382   4.731
 4528SOL    HW114483   5.276   1.309   4.800
 4528SOL    HW214484   5.202   1.390   4.679
 4529SOL     OW14485   1.994   1.773   3.909
 4529SOL    HW114486   2.014   1.786   3.811
 4529SOL    HW214487   2.015   1.857   3.958
 4530SOL     OW14488   4.254   4.507   6.242
 4530SOL    HW114489   4.172   4.475   6.289
 4530SOL    HW214490   4.249   4.607   6.231
 4531SOL     OW14491   2.223   0.105   5.309
 4531SOL    HW114492   2.315   0.065   5.316
 4531SOL    HW214493   2.177   0.069   5.227
 4532SOL     OW14494   5.801   1.219   2.049
 4532SOL    HW114495   5.833   1.250   2.139
 4532SOL    HW214496   5.741   1.139   2.061
 4533SOL     OW14497   2.825   6.589   1.216
 4533SOL    HW114498   2.822   6.491   1.235
 4533SOL    HW214499   2.770   6.637   1.285
 4534SOL     OW14500   5.773   0.902   4.261
 4534SOL    HW114501   5.705   0.922   4.191
 4534SOL    HW214502   5.761   0.964   4.339
 4535SOL     OW14503   1.454   1.160   6.894
 4535SOL    HW114504   1.522   1.089   6.878
 4535SOL    HW214505   1.462   1.194   6.988
 4536SOL     OW14506   3.884   0.988   5.567
 4536SOL    HW114507   3.868   0.889   5.568
 4536SOL    HW214508   3.982   1.006   5.574
 4537SOL     OW14509   3.076   3.359   3.275
 4537SOL    HW114510   3.124   3.385   3.359
 4537SOL    HW214511   2.978   3.354   3.292
 4538SOL     OW14512   1.092   2.527   0.226
 4538SOL    HW114513   1.065   2.538   0.321
 4538SOL    HW214514   1.088   2.616   0.180
 4539SOL     OW14515   1.240   5.031   4.580
 4539SOL    HW114516   1.141   5.045   4.586
 4539SOL    HW214517   1.283   5.115   4.546
 4540SOL     OW14518   1.849   1.807   0.778
 4540SOL    HW114519   1.819   1.902   0.786
 4540SOL    HW214520   1.790   1.760   0.712
 4541SOL     OW14521   3.751   3.141   7.002
 4541SOL    HW114522   3.815   3.066   6.981
 4541SOL    HW214523   3.712   3.176   6.917
 4542SOL     OW14524   0.083   1.237   0.616
 4542SOL    HW114525   7.024   1.223   0.572
 4542SOL    HW214526   0.112   1.332   0.604
 4543SOL     OW14527   4.549   1.392   1.165
 4543SOL    HW114528   4.555   1.430   1.258
 4543SOL    HW214529   4.459   1.351   1.151
 4544SOL     OW14530   4.914   5.964   0.786
 4544SOL    HW114531   4.878   5.881   0.744
 4544SOL    HW214532   5.013   5.967   0.776
 4545SOL     OW14533   2.861   2.914   5.524
 4545SOL    HW114534   2.839   2.953   5.613
 4545SOL    HW214535   2.832   2.978   5.452
 4546SOL     OW14536   4.797   7.007   6.135
 4546SOL    HW114537   4.823   6.911   6.138
 4546SOL    HW214538   4.704   7.016   6.101
 4547SOL     OW14539   0.056   0.820   0.435
 4547SOL    HW114540   0.134   0.788   0.489
 4547SOL    HW214541   0.076   0.910   0.397
 4548SOL     OW14542   3.109   1.133   2.019
 4548SOL    HW114543   3.159   1.217   2.040
 4548SOL    HW214544   3.135   1.061   2.084
 4549SOL     OW14545   6.118   4.267   3.482
 4549SOL    HW114546   6.205   4.222   3.462
 4549SOL    HW214547   6.063   4.272   3.399
 4550SOL     OW14548   2.333   5.580   6.668
 4550SOL    HW114549   2.322   5.482   6.655
 4550SOL    HW214550   2.255   5.628   6.628
 4551SOL     OW14551   3.378   2.847   6.377
 4551SOL    HW114552   3.407   2.854   6.281
 4551SOL    HW214553   3.458   2.854   6.436
 4552SOL     OW14554   4.870   0.935   6.895
 4552SOL    HW114555   4.905   1.027   6.913
 4552SOL    HW214556   4.943   0.879   6.856
 4553SOL     OW14557   0.381   6.720   0.044
 4553SOL    HW114558   0.351   6.659   0.116
 4553SOL    HW214559   0.481   6.723   0.042
 4554SOL     OW14560   5.502   6.319   3.500
 4554SOL    HW114561   5.517   6.231   3.456
 4554SOL    HW214562   5.418   6.360   3.464
 4555SOL     OW14563   0.887   0.133   2.358
 4555SOL    HW114564   0.923   0.066   2.294
 4555SOL    HW214565   0.964   0.183   2.400
 4556SOL     OW14566   5.182   4.541   4.186
 4556SOL    HW114567   5.231   4.598   4.252
 4556SOL    HW214568   5.193   4.445   4.211
 4557SOL     OW14569   6.888   5.341   4.841
 4557SOL    HW114570   6.805   5.352   4.896
 4557SOL    HW214571   6.959   5.299   4.897
 4558SOL     OW14572   0.977   4.502   4.631
 4558SOL    HW114573   1.001   4.405   4.642
 4558SOL    HW214574   0.917   4.530   4.706
 4559SOL     OW14575   0.099   2.791   4.189
 4559SOL    HW114576   0.021   2.775   4.250
 4559SOL    HW214577   0.075   2.761   4.097
 4560SOL     OW14578   6.331   4.394   3.144
 4560SOL    HW114579   6.414   4.417   3.092
 4560SOL    HW214580   6.288   4.313   3.104
 4561SOL     OW14581   4.741   2.883   4.028
 4561SOL    HW114582   4.784   2.824   4.096
 4561SOL    HW214583   4.714   2.969   4.071
 4562SOL     OW14584   4.671   1.254   0.625
 4562SOL    HW114585   4.586   1.268   0.677
 4562SOL    HW214586   4.738   1.206   0.683
 4563SOL     OW14587   1.011   4.332   1.613
 4563SOL    HW114588   0.980   4.423   1.641
 4563SOL    HW214589   1.054   4.338   1.523
 4564SOL     OW14590   2.022   4.363   2.468
 4564SOL    HW114591   2.002   4.400   2.377
 4564SOL    HW214592   2.100   4.411   2.508
 4565SOL     OW14593   2.356   0.415   5.751
 4565SOL    HW114594   2.373   0.408   5.850
 4565SOL    HW214595   2.306   0.334   5.721
 4566SOL     OW14596   6.986   4.789   3.118
 4566SOL    HW114597   6.889   4.813   3.117
 4566SOL    HW214598   7.005   4.726   3.193
 4567SOL     OW14599   0.305   0.191   0.148
 4567SOL    HW114600   0.308   0.240   0.235
 4567SOL    HW214601   0.374   0.119   0.147
 4568SOL     OW14602   0.976   4.245   3.546
 4568SOL    HW114603   1.074   4.231   3.533
 4568SOL    HW214604   0.960   4.293   3.633
 4569SOL     OW14605   1.099   2.637   3.531
 4569SOL    HW114606   1.112   2.704   3.604
 4569SOL    HW214607   1.045   2.677   3.457
 4570SOL     OW14608   5.460   5.924   1.213
 4570SOL    HW114609   5.365   5.899   1.198
 4570SOL    HW214610   5.503   5.948   1.126
 4571SOL     OW14611   1.872   3.393   5.675
 4571SOL    HW114612   1.791   3.399   5.733
 4571SOL    HW214613   1.857   3.446   5.592
 4572SOL     OW14614   4.393   3.123   1.709
 4572SOL    HW114615   4.440   3.093   1.626
 4572SOL    HW214616   4.446   3.097   1.789
 4573SOL     OW14617   2.339   4.618   1.045
 4573SOL    HW114618   2.393   4.695   1.080
 4573SOL    HW214619   2.244   4.628   1.074
 4574SOL     OW14620   5.334   0.500   1.730
 4574SOL    HW114621   5.252   0.556   1.734
 4574SOL    HW214622   5.357   0.482   1.634
 4575SOL     OW14623   0.088   1.240   5.066
 4575SOL    HW114624   0.108   1.154   5.113
 4575SOL    HW214625   0.174   1.290   5.052
 4576SOL     OW14626   3.336   3.558   0.182
 4576SOL    HW114627   3.406   3.618   0.144
 4576SOL    HW214628   3.246   3.585   0.147
 4577SOL     OW14629   0.837   1.603   1.720
 4577SOL    HW114630   0.804   1.663   1.792
 4577SOL    HW214631   0.870   1.518   1.760
 4578SOL     OW14632   1.562   1.138   3.225
 4578SOL    HW114633   1.522   1.205   3.287
 4578SOL    HW214634   1.622   1.184   3.160
 4579SOL     OW14635   4.646   1.074   3.401
 4579SOL    HW114636   4.705   1.084   3.482
 4579SOL    HW214637   4.565   1.130   3.413
 4580SOL     OW14638   0.691   0.659   1.934
 4580SOL    HW114639   0.720   0.663   1.838
 4580SOL    HW214640   0.592   0.650   1.939
 4581SOL     OW14641   3.097   0.344   1.059
 4581SOL    HW114642   3.033   0.417   1.084
 4581SOL    HW214643   3.049   0.275   1.005
 4582SOL     OW14644   6.246   0.538   3.666
 4582SOL    HW114645   6.264   0.625   3.621
 4582SOL    HW214646   6.301   0.531   3.749
 4583SOL     OW14647   1.622   6.806   0.059
 4583SOL    HW114648   1.691   6.740   0.091
 4583SOL    HW214649   1.625   6.886   0.118
 4584SOL     OW14650   0.472   1.274   4.011
 4584SOL    HW114651   0.431   1.365   4.007
 4584SOL    HW214652   0.423   1.212   3.949
 4585SOL     OW14653   1.168   2.972   3.236
 4585SOL    HW114654   1.153   2.978   3.335
 4585SOL    HW214655   1.081   2.988   3.188
 4586SOL     OW14656   6.780   5.075   5.763
 4586SOL    HW114657   6.788   5.106   5.857
 4586SOL    HW214658   6.689   5.098   5.728
 4587SOL     OW14659   4.526   3.531   6.347
 4587SOL    HW114660   4.569   3.487   6.268
 4587SOL    HW214661   4.450   3.588   6.317
 4588SOL     OW14662   2.903   4.362   6.516
 4588SOL    HW114663   2.846   4.300   6.462
 4588SOL    HW214664   2.911   4.327   6.609
 4589SOL     OW14665   5.480   5.707   2.085
 4589SOL    HW114666   5.436   5.792   2.058
 4589SOL    HW214667   5.571   5.727   2.121
 4590SOL     OW14668   2.458   5.278   1.886
 4590SOL    HW114669   2.385   5.345   1.869
 4590SOL    HW214670   2.514   5.307   1.963
 4591SOL     OW14671   2.249   0.883   4.785
 4591SOL    HW114672   2.183   0.809   4.770
 4591SOL    HW214673   2.213   0.947   4.853
 4592SOL     OW14674   3.089   2.201   3.656
 4592SOL    HW114675   3.105   2.189   3.558
 4592SOL    HW214676   3.174   2.182   3.706
 4593SOL     OW14677   1.476   5.815   4.718
 4593SOL    HW114678   1.391   5.860   4.691
 4593SOL    HW214679   1.455   5.726   4.759
 4594SOL     OW14680   1.454   6.172   4.122
 4594SOL    HW114681   1.514   6.252   4.129
 4594SOL    HW214682   1.359   6.204   4.114
 4595SOL     OW14683   5.838   2.096   6.576
 4595SOL    HW114684   5.903   2.034   6.531
 4595SOL    HW214685   5.869   2.114   6.669
 4596SOL     OW14686   1.056   1.704   2.030
 4596SOL    HW114687   1.093   1.614   2.053
 4596SOL    HW214688   1.110   1.745   1.957
 4597SOL     OW14689   2.254   5.837   0.868
 4597SOL    HW114690   2.217   5.745   0.880
 4597SOL    HW214691   2.181   5.898   0.837
 4598SOL     OW14692   0.605   2.796   6.894
 4598SOL    HW114693   0.581   2.799   6.797
 4598SOL    HW214694   0.529   2.758   6.946
 4599SOL     OW14695   3.219   6.276   2.938
 4599SOL    HW114696   3.264   6.346   2.994
 4599SOL    HW214697   3.219   6.305   2.843
 4600SOL     OW14698   0.651   6.385   6.356
 4600SOL    HW114699   0.726   6.451   6.350
 4600SOL    HW214700   0.667   6.324   6.434
 4601SOL     OW14701   1.406   0.941   5.478
 4601SOL    HW114702   1.430   0.857   5.528
 4601SOL    HW214703   1.455   1.018   5.516
 4602SOL     OW14704   4.135   1.039   6.589
 4602SOL    HW114705   4.202   1.079   6.652
 4602SOL    HW214706   4.072   1.110   6.558
 4603SOL     OW14707   3.946   0.018   0.991
 4603SOL    HW114708   3.895   6.962   1.003
 4603SOL    HW214709   3.893   0.081   0.934
 4604SOL     OW14710   0.489   6.598   3.264
 4604SOL    HW114711   0.549   6.605   3.184
 4604SOL    HW214712   0.541   6.620   3.346
 4605SOL     OW14713   4.452   1.085   1.722
 4605SOL    HW114714   4.519   1.020   1.757
 4605SOL    HW214715   4.368   1.078   1.776
 4606SOL     OW14716   0.015   6.904   4.771
 4606SOL    HW114717   0.078   6.982   4.768
 4606SOL    HW214718   6.952   6.937   4.785
 4607SOL     OW14719   3.378   1.831   1.147
 4607SOL    HW114720   3.350   1.921   1.114
 4607SOL    HW214721   3.391   1.834   1.246
 4608SOL     OW14722   0.209   2.536   5.362
 4608SOL    HW114723   0.197   2.508   5.457
 4608SOL    HW214724   0.216   2.455   5.304
 4609SOL     OW14725   5.797   5.433   6.244
 4609SOL    HW114726   5.705   5.393   6.244
 4609SOL    HW214727   5.865   5.362   6.262
 4610SOL     OW14728   4.921   5.017   6.740
 4610SOL    HW114729   4.991   5.089   6.732
 4610SOL    HW214730   4.964   4.934   6.774
 4611SOL     OW14731   0.135   1.014   6.704
 4611SOL    HW114732   0.049   1.064   6.720
 4611SOL    HW214733   0.142   0.938   6.769
 4612SOL     OW14734   2.807   1.301   3.199
 4612SOL    HW114735   2.718   1.331   3.165
 4612SOL    HW214736   2.795   1.246   3.281
 4613SOL     OW14737   1.427   5.129   2.944
 4613SOL    HW114738   1.357   5.111   2.874
 4613SOL    HW214739   1.450   5.226   2.943
 4614SOL     OW14740   0.538   4.240   2.691
 4614SOL    HW114741   0.608   4.234   2.619
 4614SOL    HW214742   0.449   4.257   2.649
 4615SOL     OW14743   1.117   4.356   7.002
 4615SOL    HW114744   1.091   4.271   0.018
 4615SOL    HW214745   1.089   4.352   6.906
 4616SOL     OW14746   1.231   4.051   6.600
 4616SOL    HW114747   1.307   4.101   6.641
 4616SOL    HW214748   1.224   3.960   6.641
 4617SOL     OW14749   0.033   4.332   3.857
 4617SOL    HW114750   7.001   4.290   3.924
 4617SOL    HW214751   0.002   4.425   3.838
 4618SOL     OW14752   2.230   4.319   5.619
 4618SOL    HW114753   2.251   4.281   5.709
 4618SOL    HW214754   2.285   4.272   5.550
 4619SOL     OW14755   4.298   5.704   6.851
 4619SOL    HW114756   4.302   5.801   6.828
 4619SOL    HW214757   4.350   5.688   6.936
 4620SOL     OW14758   1.314   4.685   1.268
 4620SOL    HW114759   1.238   4.674   1.204
 4620SOL    HW214760   1.302   4.770   1.320
 4621SOL     OW14761   2.960   0.198   2.637
 4621SOL    HW114762   2.866   0.192   2.601
 4621SOL    HW214763   3.021   0.144   2.579
 4622SOL     OW14764   5.506   0.081   0.507
 4622SOL    HW114765   5.506   0.077   0.407
 4622SOL    HW214766   5.577   0.020   0.542
 4623SOL     OW14767   2.921   4.893   2.960
 4623SOL    HW114768   2.870   4.823   2.910
 4623SOL    HW214769   2.908   4.881   3.058
 4624SOL     OW14770   5.150   1.870   1.006
 4624SOL    HW114771   5.248   1.876   0.986
 4624SOL    HW214772   5.132   1.905   1.098
 4625SOL     OW14773   1.481   6.822   1.904
 4625SOL    HW114774   1.411   6.894   1.903
 4625SOL    HW214775   1.569   6.861   1.931
 4626SOL     OW14776   4.156   3.407   1.893
 4626SOL    HW114777   4.153   3.318   1.846
 4626SOL    HW214778   4.151   3.480   1.825
 4627SOL     OW14779   6.183   6.408   5.090
 4627SOL    HW114780   6.191   6.505   5.067
 4627SOL    HW214781   6.274   6.367   5.093
 4628SOL     OW14782   6.785   4.591   2.768
 4628SOL    HW114783   6.693   4.624   2.789
 4628SOL    HW214784   6.851   4.663   2.788
 4629SOL     OW14785   1.382   5.237   0.922
 4629SOL    HW114786   1.300   5.233   0.865
 4629SOL    HW214787   1.382   5.323   0.974
 4630SOL     OW14788   1.745   3.869   1.458
 4630SOL    HW114789   1.665   3.907   1.412
 4630SOL    HW214790   1.787   3.939   1.516
 4631SOL     OW14791   6.239   1.348   2.721
 4631SOL    HW114792   6.219   1.353   2.623
 4631SOL    HW214793   6.320   1.403   2.741
 4632SOL     OW14794   2.990   4.862   3.802
 4632SOL    HW114795   3.051   4.865   3.881
 4632SOL    HW214796   3.044   4.859   3.718
 4633SOL     OW14797   5.560   3.101   4.128
 4633SOL    HW114798   5.545   3.150   4.043
 4633SOL    HW214799   5.595   3.010   4.108
 4634SOL     OW14800   3.939   3.036   4.589
 4634SOL    HW114801   3.950   3.106   4.519
 4634SOL    HW214802   4.016   2.972   4.584
 4635SOL     OW14803   4.152   6.697   2.252
 4635SOL    HW114804   4.101   6.777   2.284
 4635SOL    HW214805   4.250   6.714   2.262
 4636SOL     OW14806   1.559   5.531   6.482
 4636SOL    HW114807   1.525   5.467   6.551
 4636SOL    HW214808   1.482   5.579   6.441
 4637SOL     OW14809   2.280   2.289   3.145
 4637SOL    HW114810   2.194   2.336   3.128
 4637SOL    HW214811   2.319   2.319   3.232
 4638SOL     OW14812   3.748   4.796   0.767
 4638SOL    HW114813   3.729   4.894   0.770
 4638SOL    HW214814   3.675   4.750   0.717
 4639SOL     OW14815   4.134   2.199   2.252
 4639SOL    HW114816   4.038   2.174   2.242
 4639SOL    HW214817   4.175   2.208   2.161
 4640SOL     OW14818   6.561   3.092   0.912
 4640SOL    HW114819   6.652   3.052   0.921
 4640SOL    HW214820   6.536   3.096   0.815
 4641SOL     OW14821   0.803   6.039   4.902
 4641SOL    HW114822   0.727   6.002   4.956
 4641SOL    HW214823   0.848   6.111   4.954
 4642SOL     OW14824   6.138   1.420   5.827
 4642SOL    HW114825   6.214   1.446   5.767
 4642SOL    HW214826   6.137   1.321   5.838
 4643SOL     OW14827   0.376   1.744   0.266
 4643SOL    HW114828   0.383   1.841   0.288
 4643SOL    HW214829   0.321   1.732   0.183
 4644SOL     OW14830   1.372   1.392   1.282
 4644SOL    HW114831   1.323   1.479   1.294
 4644SOL    HW214832   1.322   1.335   1.217
 4645SOL     OW14833   6.032   2.475   5.086
 4645SOL    HW114834   6.103   2.526   5.038
 4645SOL    HW214835   5.953   2.534   5.101
 4646SOL     OW14836   1.429   3.981   2.519
 4646SOL    HW114837   1.347   4.033   2.543
 4646SOL    HW214838   1.499   3.996   2.589
 4647SOL     OW14839   2.082   6.343   2.659
 4647SOL    HW114840   2.096   6.436   2.695
 4647SOL    HW214841   2.001   6.303   2.701
 4648SOL     OW14842   2.740   1.232   4.675
 4648SOL    HW114843   2.832   1.262   4.650
 4648SOL    HW214844   2.736   1.132   4.674
 4649SOL     OW14845   5.071   2.437   0.794
 4649SOL    HW114846   5.065   2.536   0.782
 4649SOL    HW214847   5.146   2.401   0.738
 4650SOL     OW14848   3.919   5.236   0.658
 4650SOL    HW114849   3.970   5.291   0.592
 4650SOL    HW214850   3.898   5.292   0.739
 4651SOL     OW14851   1.014   3.905   7.018
 4651SOL    HW114852   1.025   3.857   6.931
 4651SOL    HW214853   1.062   3.856   0.060
 4652SOL     OW14854   6.773   0.340   5.189
 4652SOL    HW114855   6.802   0.258   5.237
 4652SOL    HW214856   6.678   0.331   5.160
 4653SOL     OW14857   6.999   6.021   0.452
 4653SOL    HW114858   0.064   5.990   0.446
 4653SOL    HW214859   6.970   6.059   0.364
 4654SOL     OW14860   0.653   1.009   5.427
 4654SOL    HW114861   0.602   1.087   5.464
 4654SOL    HW214862   0.662   0.939   5.498
 4655SOL     OW14863   5.206   4.537   2.963
 4655SOL    HW114864   5.194   4.626   2.918
 4655SOL    HW214865   5.252   4.551   3.051
 4656SOL     OW14866   5.872   0.636   1.497
 4656SOL    HW114867   5.926   0.703   1.446
 4656SOL    HW214868   5.789   0.615   1.446
 4657SOL     OW14869   4.041   1.452   2.683
 4657SOL    HW114870   3.947   1.420   2.672
 4657SOL    HW214871   4.054   1.536   2.630
 4658SOL     OW14872   0.963   1.902   6.918
 4658SOL    HW114873   0.895   1.972   6.938
 4658SOL    HW214874   1.002   1.868   7.004
 4659SOL     OW14875   2.511   4.453   0.397
 4659SOL    HW114876   2.527   4.472   0.300
 4659SOL    HW214877   2.419   4.483   0.422
 4660SOL     OW14878   0.208   4.957   4.475
 4660SOL    HW114879   0.199   5.020   4.552
 4660SOL    HW214880   0.273   4.995   4.409
 4661SOL     OW14881   1.078   1.331   5.874
 4661SOL    HW114882   1.064   1.364   5.967
 4661SOL    HW214883   1.078   1.231   5.873
 4662SOL     OW14884   2.743   0.649   5.813
 4662SOL    HW114885   2.705   0.742   5.816
 4662SOL    HW214886   2.679   0.589   5.764
 4663SOL     OW14887   0.988   0.557   1.190
 4663SOL    HW114888   0.964   0.467   1.223
 4663SOL    HW214889   1.045   0.549   1.108
 4664SOL     OW14890   5.937   6.126   5.393
 4664SOL    HW114891   5.894   6.213   5.419
 4664SOL    HW214892   5.894   6.052   5.444
 4665SOL     OW14893   7.023   0.928   2.572
 4665SOL    HW114894   0.091   0.904   2.567
 4665SOL    HW214895   6.976   0.893   2.491
 4666SOL     OW14896   1.530   2.583   5.734
 4666SOL    HW114897   1.509   2.513   5.803
 4666SOL    HW214898   1.629   2.595   5.729
 4667SOL     OW14899   5.998   3.099   1.360
 4667SOL    HW114900   5.930   3.030   1.337
 4667SOL    HW214901   6.079   3.088   1.302
 4668SOL     OW14902   4.598   1.792   5.509
 4668SOL    HW114903   4.691   1.827   5.505
 4668SOL    HW214904   4.599   1.700   5.548
 4669SOL     OW14905   5.311   7.015   6.010
 4669SOL    HW114906   5.327   6.942   6.076
 4669SOL    HW214907   5.213   0.004   6.004
 4670SOL     OW14908   0.042   3.544   6.639
 4670SOL    HW114909   6.976   3.530   6.614
 4670SOL    HW214910   0.051   3.630   6.690
 4671SOL     OW14911   6.763   2.625   1.665
 4671SOL    HW114912   6.755   2.644   1.763
 4671SOL    HW214913   6.858   2.636   1.636
 4672SOL     OW14914   3.331   3.307   0.099
 4672SOL    HW114915   3.297   3.399   0.118
 4672SOL    HW214916   3.378   3.271   0.179
 4673SOL     OW14917   5.356   0.905   0.832
 4673SOL    HW114918   5.388   0.827   0.886
 4673SOL    HW214919   5.393   0.900   0.740
 4674SOL     OW14920   1.434   2.726   0.864
 4674SOL    HW114921   1.508   2.693   0.805
 4674SOL    HW214922   1.434   2.673   0.949
 4675SOL     OW14923   1.777   6.227   0.052
 4675SOL    HW114924   1.784   6.151   7.018
 4675SOL    HW214925   1.680   6.245   0.071
 4676SOL     OW14926   0.832   5.535   4.724
 4676SOL    HW114927   0.839   5.443   4.685
 4676SOL    HW214928   0.742   5.572   4.706
 4677SOL     OW14929   4.010   6.935   6.819
 4677SOL    HW114930   4.084   6.960   6.881
 4677SOL    HW214931   3.986   6.839   6.833
 4678SOL     OW14932   2.304   4.655   6.967
 4678SOL    HW114933   2.207   4.633   6.956
 4678SOL    HW214934   2.350   4.645   6.879
 4679SOL     OW14935   2.261   6.864   5.383
 4679SOL    HW114936   2.219   6.784   5.426
 4679SOL    HW214937   2.206   6.945   5.403
 4680SOL     OW14938   0.454   5.138   6.674
 4680SOL    HW114939   0.392   5.183   6.610
 4680SOL    HW214940   0.475   5.046   6.641
 4681SOL     OW14941   6.617   5.840   4.681
 4681SOL    HW114942   6.656   5.748   4.690
 4681SOL    HW214943   6.541   5.849   4.746
 4682SOL     OW14944   2.658   0.341   0.814
 4682SOL    HW114945   2.615   0.431   0.812
 4682SOL    HW214946   2.675   0.313   0.908
 4683SOL     OW14947   0.501   4.734   3.097
 4683SOL    HW114948   0.445   4.688   3.028
 4683SOL    HW214949   0.449   4.739   3.183
 4684SOL     OW14950   1.704   1.289   5.079
 4684SOL    HW114951   1.625   1.243   5.039
 4684SOL    HW214952   1.746   1.230   5.147
 4685SOL     OW14953   5.355   4.458   4.569
 4685SOL    HW114954   5.356   4.506   4.481
 4685SOL    HW214955   5.347   4.525   4.643
 4686SOL     OW14956   5.007   5.782   6.931
 4686SOL    HW114957   5.089   5.791   6.988
 4686SOL    HW214958   5.018   5.704   6.869
 4687SOL     OW14959   4.870   6.914   4.378
 4687SOL    HW114960   4.828   6.918   4.469
 4687SOL    HW214961   4.798   6.915   4.308
 4688SOL     OW14962   6.918   1.701   0.682
 4688SOL    HW114963   7.014   1.721   0.662
 4688SOL    HW214964   6.902   1.603   0.669
 4689SOL     OW14965   1.925   5.523   4.562
 4689SOL    HW114966   1.865   5.442   4.559
 4689SOL    HW214967   1.912   5.571   4.648
 4690SOL     OW14968   2.198   1.750   1.158
 4690SOL    HW114969   2.260   1.718   1.086
 4690SOL    HW214970   2.106   1.759   1.121
 4691SOL     OW14971   3.283   4.246   0.540
 4691SOL    HW114972   3.362   4.279   0.592
 4691SOL    HW214973   3.201   4.295   0.569
 4692SOL     OW14974   0.955   5.725   3.605
 4692SOL    HW114975   0.950   5.704   3.507
 4692SOL    HW214976   1.041   5.772   3.625
 4693SOL     OW14977   1.081   0.772   2.208
 4693SOL    HW114978   1.003   0.814   2.255
 4693SOL    HW214979   1.127   0.840   2.152
 4694SOL     OW14980   1.132   0.980   5.405
 4694SOL    HW114981   1.100   1.073   5.388
 4694SOL    HW214982   1.230   0.981   5.425
 4695SOL     OW14983   3.232   3.364   2.660
 4695SOL    HW114984   3.217   3.456   2.622
 4695SOL    HW214985   3.243   3.370   2.759
 4696SOL     OW14986   6.598   3.536   0.645
 4696SOL    HW114987   6.500   3.518   0.640
 4696SOL    HW214988   6.617   3.599   0.721
 4697SOL     OW14989   0.822   5.740   6.573
 4697SOL    HW114990   0.831   5.717   6.670
 4697SOL    HW214991   0.816   5.656   6.520
 4698SOL     OW14992   6.215   3.244   1.940
 4698SOL    HW114993   6.266   3.292   2.011
 4698SOL    HW214994   6.160   3.172   1.981
 4699SOL     OW14995   6.771   6.457   3.293
 4699SOL    HW114996   6.718   6.374   3.311
 4699SOL    HW214997   6.769   6.516   3.374
 4700SOL     OW14998   5.110   6.700   6.786
 4700SOL    HW114999   5.045   6.776   6.798
 4700SOL    HW215000   5.190   6.733   6.737
 4701SOL     OW15001   1.680   0.625   6.889
 4701SOL    HW115002   1.639   0.539   6.857
 4701SOL    HW215003   1.614   0.677   6.942
 4702SOL     OW15004   2.467   3.127   0.542
 4702SOL    HW115005   2.516   3.204   0.503
 4702SOL    HW215006   2.478   3.128   0.642
 4703SOL     OW15007   1.004   7.014   2.159
 4703SOL    HW115008   0.921   6.992   2.108
 4703SOL    HW215009   1.036   6.933   2.208
 4704SOL     OW15010   4.864   6.819   6.463
 4704SOL    HW115011   4.901   6.865   6.543
 4704SOL    HW215012   4.839   6.887   6.394
 4705SOL     OW15013   4.147   3.407   4.751
 4705SOL    HW115014   4.157   3.470   4.674
 4705SOL    HW215015   4.236   3.369   4.776
 4706SOL     OW15016   5.580   4.236   6.635
 4706SOL    HW115017   5.584   4.267   6.730
 4706SOL    HW215018   5.567   4.137   6.633
 4707SOL     OW15019   2.768   5.576   1.314
 4707SOL    HW115020   2.826   5.528   1.249
 4707SOL    HW215021   2.826   5.631   1.375
 4708SOL     OW15022   1.672   3.614   2.389
 4708SOL    HW115023   1.688   3.519   2.365
 4708SOL    HW215024   1.576   3.637   2.372
 4709SOL     OW15025   2.820   4.730   0.655
 4709SOL    HW115026   2.787   4.746   0.562
 4709SOL    HW215027   2.762   4.662   0.700
 4710SOL     OW15028   4.757   3.108   1.222
 4710SOL    HW115029   4.831   3.152   1.172
 4710SOL    HW215030   4.794   3.058   1.300
 4711SOL     OW15031   2.746   7.020   3.392
 4711SOL    HW115032   2.649   6.999   3.390
 4711SOL    HW215033   2.759   0.088   3.407
 4712SOL     OW15034   1.549   3.874   6.753
 4712SOL    HW115035   1.549   3.929   6.670
 4712SOL    HW215036   1.642   3.841   6.771
 4713SOL     OW15037   1.169   5.215   0.703
 4713SOL    HW115038   1.069   5.217   0.704
 4713SOL    HW215039   1.199   5.127   0.666
 4714SOL     OW15040   3.772   2.239   1.457
 4714SOL    HW115041   3.789   2.324   1.507
 4714SOL    HW215042   3.696   2.252   1.393
 4715SOL     OW15043   4.944   3.846   4.925
 4715SOL    HW115044   4.906   3.938   4.932
 4715SOL    HW215045   4.889   3.782   4.978
 4716SOL     OW15046   2.687   5.406   6.499
 4716SOL    HW115047   2.729   5.492   6.526
 4716SOL    HW215048   2.600   5.423   6.455
 4717SOL     OW15049   2.412   5.098   4.770
 4717SOL    HW115050   2.403   5.197   4.779
 4717SOL    HW215051   2.474   5.063   4.841
 4718SOL     OW15052   5.022   0.655   0.311
 4718SOL    HW115053   5.083   0.576   0.296
 4718SOL    HW215054   4.943   0.648   0.250
 4719SOL     OW15055   4.132   3.176   1.708
 4719SOL    HW115056   4.111   3.227   1.625
 4719SOL    HW215057   4.227   3.146   1.706
 4720SOL     OW15058   3.162   1.344   3.429
 4720SOL    HW115059   3.200   1.372   3.517
 4720SOL    HW215060   3.176   1.246   3.415
 4721SOL     OW15061   1.850   1.444   1.532
 4721SOL    HW115062   1.932   1.387   1.524
 4721SOL    HW215063   1.772   1.396   1.492
 4722SOL     OW15064   3.286   0.353   2.308
 4722SOL    HW115065   3.382   0.378   2.294
 4722SOL    HW215066   3.249   0.404   2.385
 4723SOL     OW15067   2.803   6.819   5.058
 4723SOL    HW115068   2.850   6.862   4.981
 4723SOL    HW215069   2.868   6.762   5.109
 4724SOL     OW15070   4.486   4.895   0.637
 4724SOL    HW115071   4.448   4.897   0.544
 4724SOL    HW215072   4.570   4.840   0.637
 4725SOL     OW15073   6.050   5.307   2.456
 4725SOL    HW115074   6.084   5.325   2.548
 4725SOL    HW215075   6.020   5.212   2.449
 4726SOL     OW15076   0.251   6.542   4.651
 4726SOL    HW115077   0.254   6.639   4.627
 4726SOL    HW215078   0.197   6.493   4.583
 4727SOL     OW15079   6.128   6.905   1.605
 4727SOL    HW115080   6.050   6.953   1.644
 4727SOL    HW215081   6.211   6.960   1.617
 4728SOL     OW15082   6.323   0.777   6.967
 4728SOL    HW115083   6.253   0.707   6.983
 4728SOL    HW215084   6.278   0.865   6.949
 4729SOL     OW15085   3.128   0.679   1.018
 4729SOL    HW115086   3.059   0.644   0.955
 4729SOL    HW215087   3.211   0.702   0.968
 4730SOL     OW15088   2.212   0.679   6.107
 4730SOL    HW115089   2.197   0.774   6.082
 4730SOL    HW215090   2.200   0.621   6.026
 4731SOL     OW15091   4.907   2.127   6.327
 4731SOL    HW115092   4.820   2.102   6.283
 4731SOL    HW215093   4.936   2.054   6.388
 4732SOL     OW15094   0.692   0.521   0.162
 4732SOL    HW115095   0.787   0.535   0.191
 4732SOL    HW215096   0.673   0.423   0.158
 4733SOL     OW15097   6.719   3.666   3.461
 4733SOL    HW115098   6.810   3.697   3.488
 4733SOL    HW215099   6.713   3.566   3.470
 4734SOL     OW15100   5.780   4.395   5.673
 4734SOL    HW115101   5.837   4.314   5.657
 4734SOL    HW215102   5.691   4.368   5.707
 4735SOL     OW15103   0.199   4.244   3.670
 4735SOL    HW115104   0.270   4.176   3.690
 4735SOL    HW215105   0.149   4.266   3.754
 4736SOL     OW15106   1.582   0.121   2.051
 4736SOL    HW115107   1.549   0.200   1.999
 4736SOL    HW215108   1.616   0.052   1.988
 4737SOL     OW15109   3.346   5.014   1.683
 4737SOL    HW115110   3.259   5.014   1.634
 4737SOL    HW215111   3.340   4.951   1.761
 4738SOL     OW15112   0.567   6.581   2.423
 4738SOL    HW115113   0.474   6.609   2.447
 4738SOL    HW215114   0.563   6.507   2.356
 4739SOL     OW15115   3.896   0.096   1.898
 4739SOL    HW115116   3.945   0.179   1.870
 4739SOL    HW215117   3.875   0.101   1.996
 4740SOL     OW15118   0.539   2.122   4.192
 4740SOL    HW115119   0.604   2.102   4.265
 4740SOL    HW215120   0.486   2.204   4.216
 4741SOL     OW15121   4.080   3.710   2.360
 4741SOL    HW115122   4.033   3.659   2.287
 4741SOL    HW215123   4.178   3.712   2.341
 4742SOL     OW15124   4.810   0.920   1.613
 4742SOL    HW115125   4.777   1.014   1.616
 4742SOL    HW215126   4.870   0.903   1.692
 4743SOL     OW15127   1.790   5.341   0.969
 4743SOL    HW115128   1.830   5.254   0.997
 4743SOL    HW215129   1.726   5.325   0.893
 4744SOL     OW15130   1.771   5.699   1.277
 4744SOL    HW115131   1.729   5.781   1.315
 4744SOL    HW215132   1.866   5.719   1.252
 4745SOL     OW15133   1.774   3.279   0.588
 4745SOL    HW115134   1.697   3.307   0.530
 4745SOL    HW215135   1.766   3.324   0.677
 4746SOL     OW15136   5.245   5.381   4.058
 4746SOL    HW115137   5.223   5.406   4.152
 4746SOL    HW215138   5.300   5.298   4.057
 4747SOL     OW15139   3.441   0.528   0.137
 4747SOL    HW115140   3.382   0.584   0.196
 4747SOL    HW215141   3.396   0.514   0.049
 4748SOL     OW15142   1.812   0.378   2.741
 4748SOL    HW115143   1.871   0.333   2.808
 4748SOL    HW215144   1.868   0.426   2.674
 4749SOL     OW15145   2.476   1.670   1.312
 4749SOL    HW115146   2.469   1.570   1.318
 4749SOL    HW215147   2.385   1.709   1.297
 4750SOL     OW15148   4.713   3.291   6.241
 4750SOL    HW115149   4.631   3.248   6.203
 4750SOL    HW215150   4.750   3.355   6.174
 4751SOL     OW15151   4.851   0.831   2.110
 4751SOL    HW115152   4.752   0.815   2.111
 4751SOL    HW215153   4.881   0.862   2.200
 4752SOL     OW15154   5.643   1.339   6.769
 4752SOL    HW115155   5.650   1.247   6.730
 4752SOL    HW215156   5.572   1.340   6.839
 4753SOL     OW15157   2.648   6.310   5.317
 4753SOL    HW115158   2.559   6.298   5.273
 4753SOL    HW215159   2.674   6.407   5.314
 4754SOL     OW15160   5.333   4.372   6.685
 4754SOL    HW115161   5.276   4.388   6.605
 4754SOL    HW215162   5.405   4.306   6.662
 4755SOL     OW15163   0.846   1.340   1.335
 4755SOL    HW115164   0.855   1.439   1.324
 4755SOL    HW215165   0.823   1.319   1.430
 4756SOL     OW15166   0.139   3.500   5.668
 4756SOL    HW115167   0.105   3.443   5.742
 4756SOL    HW215168   0.064   3.520   5.604
 4757SOL     OW15169   1.864   3.106   0.266
 4757SOL    HW115170   1.775   3.077   0.300
 4757SOL    HW215171   1.875   3.077   0.171
 4758SOL     OW15172   2.221   4.900   2.669
 4758SOL    HW115173   2.196   4.811   2.631
 4758SOL    HW215174   2.319   4.915   2.656
 4759SOL     OW15175   0.587   6.367   2.200
 4759SOL    HW115176   0.581   6.274   2.234
 4759SOL    HW215177   0.681   6.387   2.172
 4760SOL     OW15178   1.646   6.371   1.684
 4760SOL    HW115179   1.734   6.336   1.650
 4760SOL    HW215180   1.601   6.424   1.612
 4761SOL     OW15181   5.152   6.666   1.823
 4761SOL    HW115182   5.201   6.654   1.736
 4761SOL    HW215183   5.099   6.584   1.843
 4762SOL     OW15184   1.216   0.905   3.118
 4762SOL    HW115185   1.185   0.916   3.212
 4762SOL    HW215186   1.294   0.842   3.115
 4763SOL     OW15187   5.684   5.132   1.930
 4763SOL    HW115188   5.703   5.114   1.833
 4763SOL    HW215189   5.600   5.186   1.938
 4764SOL     OW15190   4.732   3.030   6.582
 4764SOL    HW115191   4.635   3.045   6.562
 4764SOL    HW215192   4.764   2.948   6.535
 4765SOL     OW15193   4.027   1.500   5.909
 4765SOL    HW115194   4.094   1.573   5.894
 4765SOL    HW215195   3.976   1.483   5.825
 4766SOL     OW15196   0.882   0.771   4.578
 4766SOL    HW115197   0.904   0.867   4.595
 4766SOL    HW215198   0.936   0.738   4.500
 4767SOL     OW15199   1.913   4.686   3.756
 4767SOL    HW115200   1.934   4.714   3.850
 4767SOL    HW215201   1.861   4.758   3.711
 4768SOL     OW15202   4.617   2.079   6.078
 4768SOL    HW115203   4.555   2.122   6.144
 4768SOL    HW215204   4.687   2.145   6.051
 4769SOL     OW15205   2.463   3.072   1.019
 4769SOL    HW115206   2.550   3.024   1.014
 4769SOL    HW215207   2.392   3.017   0.975
 4770SOL     OW15208   6.838   1.575   3.418
 4770SOL    HW115209   6.928   1.562   3.378
 4770SOL    HW215210   6.821   1.672   3.432
 4771SOL     OW15211   2.581   0.066   4.299
 4771SOL    HW115212   2.592   0.136   4.370
 4771SOL    HW215213   2.660   0.068   4.238
 4772SOL     OW15214   2.660   4.769   3.044
 4772SOL    HW115215   2.612   4.726   2.967
 4772SOL    HW215216   2.660   4.868   3.033
 4773SOL     OW15217   2.784   5.254   4.712
 4773SOL    HW115218   2.876   5.290   4.698
 4773SOL    HW215219   2.783   5.157   4.688
 4774SOL     OW15220   0.975   4.496   0.869
 4774SOL    HW115221   0.919   4.494   0.786
 4774SOL    HW215222   0.920   4.531   0.945
 4775SOL     OW15223   5.916   5.115   4.442
 4775SOL    HW115224   5.826   5.153   4.420
 4775SOL    HW215225   5.955   5.165   4.520
 4776SOL     OW15226   6.368   1.584   4.846
 4776SOL    HW115227   6.400   1.613   4.756
 4776SOL    HW215228   6.348   1.665   4.901
 4777SOL     OW15229   1.429   6.814   3.457
 4777SOL    HW115230   1.431   6.874   3.378
 4777SOL    HW215231   1.339   6.772   3.465
 4778SOL     OW15232   2.016   6.945   0.173
 4778SOL    HW115233   1.958   6.867   0.197
 4778SOL    HW215234   1.960   7.016   0.130
 4779SOL     OW15235   5.179   1.156   4.570
 4779SOL    HW115236   5.234   1.081   4.606
 4779SOL    HW215237   5.219   1.190   4.485
 4780SOL     OW15238   4.852   2.958   4.694
 4780SOL    HW115239   4.837   3.003   4.606
 4780SOL    HW215240   4.907   3.017   4.753
 4781SOL     OW15241   1.827   5.369   2.043
 4781SOL    HW115242   1.870   5.429   2.111
 4781SOL    HW215243   1.730   5.358   2.065
 4782SOL     OW15244   1.292   5.995   3.158
 4782SOL    HW115245   1.306   5.907   3.113
 4782SOL    HW215246   1.210   6.038   3.123
 4783SOL     OW15247   0.286   3.406   6.686
 4783SOL    HW115248   0.316   3.387   6.780
 4783SOL    HW215249   0.201   3.459   6.689
 4784SOL     OW15250   5.728   3.007   6.983
 4784SOL    HW115251   5.639   3.004   6.936
 4784SOL    HW215252   5.720   2.964   0.043
 4785SOL     OW15253   0.148   0.133   3.653
 4785SOL    HW115254   0.183   0.212   3.604
 4785SOL    HW215255   0.080   0.162   3.721
 4786SOL     OW15256   0.815   5.502   0.509
 4786SOL    HW115257   0.732   5.488   0.563
 4786SOL    HW215258   0.795   5.483   0.413
 4787SOL     OW15259   4.555   0.820   4.917
 4787SOL    HW115260   4.474   0.858   4.871
 4787SOL    HW215261   4.529   0.737   4.966
 4788SOL     OW15262   0.005   5.772   1.007
 4788SOL    HW115263   0.102   5.749   0.999
 4788SOL    HW215264   6.986   5.696   1.050
 4789SOL     OW15265   5.963   0.801   2.810
 4789SOL    HW115266   6.061   0.779   2.812
 4789SOL    HW215267   5.916   0.740   2.746
 4790SOL     OW15268   6.509   2.127   4.903
 4790SOL    HW115269   6.465   2.210   4.937
 4790SOL    HW215270   6.477   2.108   4.810
 4791SOL     OW15271   0.595   0.761   6.760
 4791SOL    HW115272   0.591   0.712   6.673
 4791SOL    HW215273   0.643   0.705   6.827
 4792SOL     OW15274   0.323   3.834   1.639
 4792SOL    HW115275   0.277   3.776   1.572
 4792SOL    HW215276   0.300   3.930   1.621
 4793SOL     OW15277   0.864   3.756   5.297
 4793SOL    HW115278   0.794   3.773   5.366
 4793SOL    HW215279   0.916   3.839   5.280
 4794SOL     OW15280   5.415   1.481   6.213
 4794SOL    HW115281   5.412   1.560   6.275
 4794SOL    HW215282   5.392   1.511   6.120
 4795SOL     OW15283   0.158   0.791   6.869
 4795SOL    HW115284   0.074   0.736   6.873
 4795SOL    HW215285   0.165   0.846   6.952
 4796SOL     OW15286   5.611   0.929   5.793
 4796SOL    HW115287   5.671   0.977   5.729
 4796SOL    HW215288   5.587   0.839   5.755
 4797SOL     OW15289   2.380   5.219   5.714
 4797SOL    HW115290   2.475   5.220   5.746
 4797SOL    HW215291   2.379   5.237   5.615
 4798SOL     OW15292   3.231   6.344   0.058
 4798SOL    HW115293   3.237   6.279   0.134
 4798SOL    HW215294   3.140   6.339   0.016
 4799SOL     OW15295   3.636   3.264   0.583
 4799SOL    HW115296   3.722   3.218   0.562
 4799SOL    HW215297   3.577   3.260   0.502
 4800SOL     OW15298   0.988   4.597   0.446
 4800SOL    HW115299   0.890   4.599   0.466
 4800SOL    HW215300   1.039   4.589   0.531
 4801SOL     OW15301   5.000   2.834   3.259
 4801SOL    HW115302   5.044   2.820   3.348
 4801SOL    HW215303   4.968   2.746   3.224
 4802SOL     OW15304   6.946   0.583   5.018
 4802SOL    HW115305   6.948   0.564   5.116
 4802SOL    HW215306   6.988   0.671   5.000
 4803SOL     OW15307   5.127   3.652   5.626
 4803SOL    HW115308   5.216   3.633   5.668
 4803SOL    HW215309   5.136   3.728   5.561
 4804SOL     OW15310   4.959   2.685   0.312
 4804SOL    HW115311   4.936   2.592   0.340
 4804SOL    HW215312   4.882   2.746   0.332
 4805SOL     OW15313   5.668   0.881   6.458
 4805SOL    HW115314   5.646   0.809   6.524
 4805SOL    HW215315   5.760   0.866   6.421
 4806SOL     OW15316   0.911   2.375   3.317
 4806SOL    HW115317   0.847   2.408   3.386
 4806SOL    HW215318   0.970   2.304   3.356
 4807SOL     OW15319   0.544   4.099   6.973
 4807SOL    HW115320   0.473   4.031   6.958
 4807SOL    HW215321   0.633   4.063   6.942
 4808SOL     OW15322   3.628   6.156   2.632
 4808SOL    HW115323   3.716   6.112   2.651
 4808SOL    HW215324   3.554   6.093   2.655
 4809SOL     OW15325   2.944   3.727   0.560
 4809SOL    HW115326   3.025   3.694   0.609
 4809SOL    HW215327   2.974   3.780   0.480
 4810SOL     OW15328   1.860   5.644   4.774
 4810SOL    HW115329   1.840   5.627   4.870
 4810SOL    HW215330   1.819   5.731   4.745
 4811SOL     OW15331   3.144   3.618   4.624
 4811SOL    HW115332   3.054   3.599   4.584
 4811SOL    HW215333   3.190   3.688   4.570
 4812SOL     OW15334   2.575   6.556   2.268
 4812SOL    HW115335   2.483   6.595   2.263
 4812SOL    HW215336   2.642   6.630   2.263
 4813SOL     OW15337   0.807   2.708   4.708
 4813SOL    HW115338   0.791   2.763   4.789
 4813SOL    HW215339   0.792   2.763   4.626
 4814SOL     OW15340   6.383   2.276   0.786
 4814SOL    HW115341   6.319   2.319   0.722
 4814SOL    HW215342   6.332   2.227   0.857
 4815SOL     OW15343   6.647   4.339   2.292
 4815SOL    HW115344   6.660   4.402   2.368
 4815SOL    HW215345   6.686   4.378   2.208
 4816SOL     OW15346   2.589   0.572   2.535
 4816SOL    HW115347   2.518   0.503   2.518
 4816SOL    HW215348   2.599   0.630   2.454
 4817SOL     OW15349   3.787   2.436   0.342
 4817SOL    HW115350   3.831   2.388   0.266
 4817SOL    HW215351   3.703   2.481   0.309
 4818SOL     OW15352   5.002   6.655   4.496
 4818SOL    HW115353   5.081   6.615   4.542
 4818SOL    HW215354   4.935   6.684   4.563
 4819SOL     OW15355   3.432   0.970   0.004
 4819SOL    HW115356   3.402   0.960   0.099
 4819SOL    HW215357   3.405   0.889   6.982
 4820SOL     OW15358   6.502   4.715   1.716
 4820SOL    HW115359   6.488   4.617   1.704
 4820SOL    HW215360   6.483   4.740   1.811
 4821SOL     OW15361   6.779   6.109   1.659
 4821SOL    HW115362   6.811   6.096   1.753
 4821SOL    HW215363   6.858   6.122   1.599
 4822SOL     OW15364   0.271   4.103   1.684
 4822SOL    HW115365   0.314   4.147   1.605
 4822SOL    HW215366   0.341   4.079   1.751
 4823SOL     OW15367   0.287   1.694   3.241
 4823SOL    HW115368   0.214   1.677   3.175
 4823SOL    HW215369   0.304   1.792   3.248
 4824SOL     OW15370   5.677   1.943   2.329
 4824SOL    HW115371   5.622   1.867   2.364
 4824SOL    HW215372   5.621   2.025   2.323
 4825SOL     OW15373   1.073   3.532   4.321
 4825SOL    HW115374   1.104   3.589   4.396
 4825SOL    HW215375   1.142   3.530   4.249
 4826SOL     OW15376   6.875   6.975   0.336
 4826SOL    HW115377   6.961   7.026   0.336
 4826SOL    HW215378   6.865   6.925   0.250
 4827SOL     OW15379   4.943   2.109   0.162
 4827SOL    HW115380   4.865   2.069   0.115
 4827SOL    HW215381   5.020   2.115   0.099
 4828SOL     OW15382   5.665   2.985   6.529
 4828SOL    HW115383   5.636   2.910   6.470
 4828SOL    HW215384   5.764   2.982   6.542
 4829SOL     OW15385   3.292   0.405   5.331
 4829SOL    HW115386   3.338   0.319   5.352
 4829SOL    HW215387   3.271   0.453   5.416
 4830SOL     OW15388   5.148   4.868   4.820
 4830SOL    HW115389   5.103   4.939   4.766
 4830SOL    HW215390   5.192   4.910   4.900
 4831SOL     OW15391   6.217   2.051   6.862
 4831SOL    HW115392   6.261   2.044   6.772
 4831SOL    HW215393   6.161   1.970   6.878
 4832SOL     OW15394   1.709   2.885   6.420
 4832SOL    HW115395   1.652   2.805   6.440
 4832SOL    HW215396   1.785   2.888   6.485
 4833SOL     OW15397   6.251   2.324   3.656
 4833SOL    HW115398   6.313   2.280   3.721
 4833SOL    HW215399   6.182   2.259   3.626
 4834SOL     OW15400   5.950   0.194   3.282
 4834SOL    HW115401   5.855   0.226   3.278
 4834SOL    HW215402   5.955   0.113   3.339
 4835SOL     OW15403   1.899   1.641   6.679
 4835SOL    HW115404   1.968   1.686   6.622
 4835SOL    HW215405   1.809   1.650   6.635
 4836SOL     OW15406   5.939   3.226   2.497
 4836SOL    HW115407   5.962   3.205   2.592
 4836SOL    HW215408   5.846   3.196   2.478
 4837SOL     OW15409   0.338   5.171   1.263
 4837SOL    HW115410   0.254   5.124   1.292
 4837SOL    HW215411   0.313   5.258   1.220
 4838SOL     OW15412   2.511   6.055   2.565
 4838SOL    HW115413   2.511   6.150   2.531
 4838SOL    HW215414   2.433   6.042   2.626
 4839SOL     OW15415   1.005   0.351   6.215
 4839SOL    HW115416   0.945   0.278   6.185
 4839SOL    HW215417   0.988   0.433   6.160
 4840SOL     OW15418   6.514   6.057   6.190
 4840SOL    HW115419   6.439   6.081   6.251
 4840SOL    HW215420   6.579   5.998   6.238
 4841SOL     OW15421   1.934   5.820   0.619
 4841SOL    HW115422   1.990   5.849   0.696
 4841SOL    HW215423   1.863   5.887   0.602
 4842SOL     OW15424   3.162   6.795   1.020
 4842SOL    HW115425   3.139   6.892   1.018
 4842SOL    HW215426   3.090   6.743   0.975
 4843SOL     OW15427   1.721   3.562   6.833
 4843SOL    HW115428   1.712   3.463   6.823
 4843SOL    HW215429   1.651   3.595   6.897
 4844SOL     OW15430   1.022   1.735   5.289
 4844SOL    HW115431   1.111   1.776   5.311
 4844SOL    HW215432   1.007   1.740   5.191
 4845SOL     OW15433   5.503   5.842   3.544
 4845SOL    HW115434   5.427   5.882   3.493
 4845SOL    HW215435   5.473   5.760   3.591
 4846SOL     OW15436   6.773   5.287   6.385
 4846SOL    HW115437   6.711   5.292   6.463
 4846SOL    HW215438   6.769   5.372   6.333
 4847SOL     OW15439   4.692   2.744   4.530
 4847SOL    HW115440   4.665   2.837   4.554
 4847SOL    HW215441   4.792   2.739   4.522
 4848SOL     OW15442   2.807   3.232   1.776
 4848SOL    HW115443   2.783   3.319   1.821
 4848SOL    HW215444   2.877   3.185   1.830
 4849SOL     OW15445   2.165   6.461   5.912
 4849SOL    HW115446   2.226   6.387   5.940
 4849SOL    HW215447   2.094   6.425   5.852
 4850SOL     OW15448   3.802   6.942   3.196
 4850SOL    HW115449   3.868   6.869   3.211
 4850SOL    HW215450   3.820   6.986   3.108
 4851SOL     OW15451   5.017   1.367   5.767
 4851SOL    HW115452   4.988   1.283   5.813
 4851SOL    HW215453   5.075   1.343   5.689
 4852SOL     OW15454   1.861   1.754   1.869
 4852SOL    HW115455   1.943   1.708   1.902
 4852SOL    HW215456   1.812   1.795   1.946
 4853SOL     OW15457   3.822   1.703   2.305
 4853SOL    HW115458   3.800   1.607   2.284
 4853SOL    HW215459   3.841   1.752   2.220
 4854SOL     OW15460   3.715   0.222   6.254
 4854SOL    HW115461   3.721   0.126   6.227
 4854SOL    HW215462   3.770   0.237   6.337
 4855SOL     OW15463   6.750   2.561   2.476
 4855SOL    HW115464   6.697   2.524   2.552
 4855SOL    HW215465   6.692   2.621   2.420
 4856SOL     OW15466   0.054   4.411   2.113
 4856SOL    HW115467   0.114   4.333   2.102
 4856SOL    HW215468   7.013   4.389   2.180
 4857SOL     OW15469   0.425   0.824   5.585
 4857SOL    HW115470   0.505   0.809   5.642
 4857SOL    HW215471   0.451   0.816   5.488
 4858SOL     OW15472   2.063   0.487   3.691
 4858SOL    HW115473   1.997   0.465   3.619
 4858SOL    HW215474   2.120   0.563   3.662
 4859SOL     OW15475   3.655   6.265   6.057
 4859SOL    HW115476   3.724   6.226   5.996
 4859SOL    HW215477   3.692   6.273   6.149
 4860SOL     OW15478   3.468   4.606   0.714
 4860SOL    HW115479   3.413   4.566   0.788
 4860SOL    HW215480   3.422   4.688   0.680
 4861SOL     OW15481   4.242   4.211   6.368
 4861SOL    HW115482   4.308   4.285   6.380
 4861SOL    HW215483   4.284   4.124   6.393
 4862SOL     OW15484   1.163   7.007   0.627
 4862SOL    HW115485   1.172   0.064   0.677
 4862SOL    HW215486   1.159   6.932   0.693
 4863SOL     OW15487   5.237   3.667   6.249
 4863SOL    HW115488   5.199   3.730   6.181
 4863SOL    HW215489   5.336   3.664   6.240
 4864SOL     OW15490   3.331   1.449   4.263
 4864SOL    HW115491   3.256   1.398   4.220
 4864SOL    HW215492   3.295   1.509   4.334
 4865SOL     OW15493   1.542   6.728   5.157
 4865SOL    HW115494   1.454   6.737   5.112
 4865SOL    HW215495   1.600   6.665   5.105
 4866SOL     OW15496   6.983   4.496   5.807
 4866SOL    HW115497   0.030   4.557   5.789
 4866SOL    HW215498   6.973   4.432   5.731
 4867SOL     OW15499   4.584   1.053   2.917
 4867SOL    HW115500   4.613   1.013   3.004
 4867SOL    HW215501   4.610   1.150   2.915
 4868SOL     OW15502   6.701   4.963   0.254
 4868SOL    HW115503   6.731   4.937   0.345
 4868SOL    HW215504   6.628   5.031   0.261
 4869SOL     OW15505   0.482   1.761   1.014
 4869SOL    HW115506   0.417   1.687   1.031
 4869SOL    HW215507   0.511   1.801   1.101
 4870SOL     OW15508   0.414   0.186   1.112
 4870SOL    HW115509   0.338   0.162   1.051
 4870SOL    HW215510   0.444   0.104   1.161
 4871SOL     OW15511   0.718   1.697   3.047
 4871SOL    HW115512   0.751   1.774   3.101
 4871SOL    HW215513   0.725   1.718   2.950
 4872SOL     OW15514   5.635   0.226   3.278
 4872SOL    HW115515   5.661   0.322   3.263
 4872SOL    HW215516   5.561   0.203   3.215
 4873SOL     OW15517   7.029   5.484   4.108
 4873SOL    HW115518   7.029   5.553   4.181
 4873SOL    HW215519   0.075   5.421   4.123
 4874SOL     OW15520   5.179   3.741   2.118
 4874SOL    HW115521   5.101   3.788   2.077
 4874SOL    HW215522   5.186   3.648   2.081
 4875SOL     OW15523   6.562   5.956   5.069
 4875SOL    HW115524   6.626   5.936   4.996
 4875SOL    HW215525   6.571   5.887   5.142
 4876SOL     OW15526   6.755   1.225   2.449
 4876SOL    HW115527   6.802   1.152   2.499
 4876SOL    HW215528   6.665   1.241   2.490
 4877SOL     OW15529   0.146   1.355   0.007
 4877SOL    HW115530   0.200   1.298   6.975
 4877SOL    HW215531   0.051   1.357   7.005
 4878SOL     OW15532   6.430   3.768   3.187
 4878SOL    HW115533   6.428   3.712   3.270
 4878SOL    HW215534   6.504   3.836   3.194
 4879SOL     OW15535   5.448   0.408   3.048
 4879SOL    HW115536   5.431   0.314   3.078
 4879SOL    HW215537   5.460   0.467   3.129
 4880SOL     OW15538   7.028   3.036   6.112
 4880SOL    HW115539   7.026   3.100   6.035
 4880SOL    HW215540   0.092   3.002   6.124
 4881SOL     OW15541   0.424   3.644   1.884
 4881SOL    HW115542   0.372   3.664   1.967
 4881SOL    HW215543   0.415   3.719   1.819
 4882SOL     OW15544   5.196   1.665   4.159
 4882SOL    HW115545   5.141   1.582   4.151
 4882SOL    HW215546   5.141   1.744   4.136
 4883SOL     OW15547   5.886   4.204   6.948
 4883SOL    HW115548   5.898   4.194   0.017
 4883SOL    HW215549   5.969   4.173   6.901
 4884SOL     OW15550   2.097   1.638   1.927
 4884SOL    HW115551   2.153   1.705   1.976
 4884SOL    HW215552   2.126   1.546   1.952
 4885SOL     OW15553   0.748   5.163   0.035
 4885SOL    HW115554   0.708   5.198   6.979
 4885SOL    HW215555   0.823   5.101   0.013
 4886SOL     OW15556   2.858   0.607   2.305
 4886SOL    HW115557   2.862   0.508   2.317
 4886SOL    HW215558   2.765   0.639   2.323
 4887SOL     OW15559   4.427   5.714   0.677
 4887SOL    HW115560   4.386   5.686   0.590
 4887SOL    HW215561   4.445   5.813   0.675
 4888SOL     OW15562   4.817   0.319   2.838
 4888SOL    HW115563   4.830   0.234   2.788
 4888SOL    HW215564   4.720   0.332   2.859
 4889SOL     OW15565   5.743   3.514   3.791
 4889SOL    HW115566   5.722   3.597   3.740
 4889SOL    HW215567   5.839   3.490   3.779
 4890SOL     OW15568   6.636   1.546   4.605
 4890SOL    HW115569   6.554   1.496   4.577
 4890SOL    HW215570   6.635   1.560   4.704
 4891SOL     OW15571   2.278   5.820   0.395
 4891SOL    HW115572   2.361   5.862   0.360
 4891SOL    HW215573   2.299   5.769   0.478
 4892SOL     OW15574   5.670   5.080   2.458
 4892SOL    HW115575   5.669   5.080   2.358
 4892SOL    HW215576   5.649   5.172   2.492
 4893SOL     OW15577   1.103   3.094   1.326
 4893SOL    HW115578   1.097   3.194   1.333
 4893SOL    HW215579   1.124   3.069   1.231
 4894SOL     OW15580   5.186   5.918   0.739
 4894SOL    HW115581   5.246   5.838   0.733
 4894SOL    HW215582   5.234   5.998   0.704
 4895SOL     OW15583   6.812   4.294   5.237
 4895SOL    HW115584   6.798   4.238   5.319
 4895SOL    HW215585   6.889   4.356   5.253
 4896SOL     OW15586   2.788   5.172   5.256
 4896SOL    HW115587   2.715   5.115   5.293
 4896SOL    HW215588   2.770   5.189   5.159
 4897SOL     OW15589   2.095   1.680   5.140
 4897SOL    HW115590   2.189   1.650   5.123
 4897SOL    HW215591   2.055   1.715   5.055
 4898SOL     OW15592   4.524   2.066   4.004
 4898SOL    HW115593   4.499   2.152   3.958
 4898SOL    HW215594   4.520   2.079   4.103
 4899SOL     OW15595   6.486   6.262   1.911
 4899SOL    HW115596   6.549   6.332   1.879
 4899SOL    HW215597   6.538   6.179   1.935
 4900SOL     OW15598   3.489   5.978   6.056
 4900SOL    HW115599   3.488   6.064   6.006
 4900SOL    HW215600   3.548   5.988   6.136
 4901SOL     OW15601   2.213   1.097   6.814
 4901SOL    HW115602   2.235   1.175   6.872
 4901SOL    HW215603   2.186   1.019   6.871
 4902SOL     OW15604   3.061   0.054   5.302
 4902SOL    HW115605   3.060   6.985   5.319
 4902SOL    HW215606   3.019   0.101   5.380
 4903SOL     OW15607   4.792   3.937   2.521
 4903SOL    HW115608   4.729   3.991   2.576
 4903SOL    HW215609   4.872   3.912   2.576
 4904SOL     OW15610   1.497   0.330   1.855
 4904SOL    HW115611   1.409   0.326   1.807
 4904SOL    HW215612   1.534   0.423   1.848
 4905SOL     OW15613   2.462   0.920   2.457
 4905SOL    HW115614   2.396   0.979   2.410
 4905SOL    HW215615   2.555   0.954   2.441
 4906SOL     OW15616   5.378   3.467   5.086
 4906SOL    HW115617   5.290   3.480   5.040
 4906SOL    HW215618   5.379   3.379   5.133
 4907SOL     OW15619   3.378   2.489   0.544
 4907SOL    HW115620   3.455   2.428   0.523
 4907SOL    HW215621   3.363   2.550   0.466
 4908SOL     OW15622   3.381   6.800   6.323
 4908SOL    HW115623   3.418   6.858   6.251
 4908SOL    HW215624   3.402   6.704   6.303
 4909SOL     OW15625   4.907   5.220   4.454
 4909SOL    HW115626   4.850   5.299   4.430
 4909SOL    HW215627   4.939   5.176   4.371
 4910SOL     OW15628   3.862   1.799   0.061
 4910SOL    HW115629   3.912   1.829   7.010
 4910SOL    HW215630   3.856   1.699   0.060
 4911SOL     OW15631   6.731   4.598   3.181
 4911SOL    HW115632   6.686   4.577   3.268
 4911SOL    HW215633   6.701   4.688   3.150
 4912SOL     OW15634   5.895   2.751   3.863
 4912SOL    HW115635   5.885   2.758   3.764
 4912SOL    HW215636   5.886   2.656   3.891
 4913SOL     OW15637   0.472   4.301   5.240
 4913SOL    HW115638   0.418   4.367   5.189
 4913SOL    HW215639   0.424   4.214   5.244
 4914SOL     OW15640   4.052   6.451   3.759
 4914SOL    HW115641   3.967   6.492   3.728
 4914SOL    HW215642   4.116   6.446   3.682
 4915SOL     OW15643   3.713   6.004   5.430
 4915SOL    HW115644   3.706   6.082   5.492
 4915SOL    HW215645   3.645   6.013   5.357
 4916SOL     OW15646   5.380   2.555   3.837
 4916SOL    HW115647   5.372   2.491   3.913
 4916SOL    HW215648   5.288   2.582   3.808
 4917SOL     OW15649   4.292   6.554   6.389
 4917SOL    HW115650   4.205   6.549   6.340
 4917SOL    HW215651   4.300   6.643   6.435
 4918SOL     OW15652   5.633   5.796   3.852
 4918SOL    HW115653   5.557   5.737   3.826
 4918SOL    HW215654   5.709   5.783   3.788
 4919SOL     OW15655   4.072   3.918   2.016
 4919SOL    HW115656   4.036   3.963   2.098
 4919SOL    HW215657   4.076   3.820   2.031
 4920SOL     OW15658   5.965   0.741   5.972
 4920SOL    HW115659   5.952   0.692   5.885
 4920SOL    HW215660   5.956   0.839   5.957
 4921SOL     OW15661   6.945   6.849   2.306
 4921SOL    HW115662   6.990   6.892   2.384
 4921SOL    HW215663   6.989   6.879   2.221
 4922SOL     OW15664   4.129   1.127   5.788
 4922SOL    HW115665   4.068   1.139   5.867
 4922SOL    HW215666   4.224   1.131   5.819
 4923SOL     OW15667   3.883   1.530   1.738
 4923SOL    HW115668   3.944   1.533   1.658
 4923SOL    HW215669   3.835   1.617   1.746
 4924SOL     OW15670   2.607   1.610   5.119
 4924SOL    HW115671   2.660   1.667   5.182
 4924SOL    HW215672   2.663   1.588   5.039
 4925SOL     OW15673   4.576   5.912   3.764
 4925SOL    HW115674   4.658   5.889   3.713
 4925SOL    HW215675   4.498   5.862   3.725
 4926SOL     OW15676   5.405   2.760   1.752
 4926SOL    HW115677   5.375   2.802   1.666
 4926SOL    HW215678   5.328   2.758   1.817
 4927SOL     OW15679   2.592   1.313   0.230
 4927SOL    HW115680   2.523   1.326   0.158
 4927SOL    HW215681   2.548   1.321   0.319
 4928SOL     OW15682   0.048   0.973   1.204
 4928SOL    HW115683   0.072   0.897   1.264
 4928SOL    HW215684   0.122   1.041   1.205
 4929SOL     OW15685   6.918   0.009   5.133
 4929SOL    HW115686   7.016   7.023   5.122
 4929SOL    HW215687   6.898   0.026   5.230
 4930SOL     OW15688   4.276   5.705   2.733
 4930SOL    HW115689   4.241   5.660   2.650
 4930SOL    HW215690   4.369   5.674   2.751
 4931SOL     OW15691   5.944   0.212   1.124
 4931SOL    HW115692   6.031   0.256   1.148
 4931SOL    HW215693   5.958   0.155   1.043
 4932SOL     OW15694   3.390   3.711   3.088
 4932SOL    HW115695   3.416   3.635   3.148
 4932SOL    HW215696   3.346   3.674   3.006
 4933SOL     OW15697   1.607   6.839   4.840
 4933SOL    HW115698   1.635   6.756   4.888
 4933SOL    HW215699   1.665   6.853   4.760
 4934SOL     OW15700   3.206   6.926   2.874
 4934SOL    HW115701   3.186   7.000   2.809
 4934SOL    HW215702   3.124   6.903   2.926
 4935SOL     OW15703   6.623   0.651   4.953
 4935SOL    HW115704   6.718   0.650   4.983
 4935SOL    HW215705   6.566   0.695   5.023
 4936SOL     OW15706   4.286   2.985   0.807
 4936SOL    HW115707   4.323   2.958   0.718
 4936SOL    HW215708   4.346   2.952   0.880
 4937SOL     OW15709   4.020   2.878   5.249
 4937SOL    HW115710   3.921   2.873   5.233
 4937SOL    HW215711   4.055   2.786   5.267
 4938SOL     OW15712   3.347   4.592   6.841
 4938SOL    HW115713   3.393   4.584   6.753
 4938SOL    HW215714   3.258   4.547   6.835
 4939SOL     OW15715   4.419   3.825   6.301
 4939SOL    HW115716   4.407   3.893   6.373
 4939SOL    HW215717   4.332   3.781   6.281
 4940SOL     OW15718   1.921   5.895   3.998
 4940SOL    HW115719   1.883   5.810   4.034
 4940SOL    HW215720   1.855   5.969   4.011
 4941SOL     OW15721   6.112   0.828   1.534
 4941SOL    HW115722   6.186   0.893   1.553
 4941SOL    HW215723   6.151   0.744   1.496
 4942SOL     OW15724   5.307   2.070   5.937
 4942SOL    HW115725   5.332   2.007   5.864
 4942SOL    HW215726   5.307   2.164   5.902
 4943SOL     OW15727   5.499   2.935   1.115
 4943SOL    HW115728   5.529   2.906   1.024
 4943SOL    HW215729   5.506   2.857   1.178
 4944SOL     OW15730   2.147   3.791   2.096
 4944SOL    HW115731   2.193   3.724   2.037
 4944SOL    HW215732   2.204   3.808   2.177
 4945SOL     OW15733   0.136   5.912   4.331
 4945SOL    HW115734   0.107   6.007   4.324
 4945SOL    HW215735   0.118   5.865   4.245
 4946SOL     OW15736   6.770   4.428   2.076
 4946SOL    HW115737   6.799   4.338   2.042
 4946SOL    HW215738   6.739   4.485   2.000
 4947SOL     OW15739   5.927   0.829   0.611
 4947SOL    HW115740   5.992   0.797   0.542
 4947SOL    HW215741   5.974   0.886   0.677
 4948SOL     OW15742   2.419   1.565   2.573
 4948SOL    HW115743   2.467   1.490   2.528
 4948SOL    HW215744   2.376   1.623   2.503
 4949SOL     OW15745   5.327   2.207   5.120
 4949SOL    HW115746   5.361   2.223   5.027
 4949SOL    HW215747   5.291   2.114   5.126
 4950SOL     OW15748   3.080   5.569   4.805
 4950SOL    HW115749   3.178   5.553   4.790
 4950SOL    HW215750   3.067   5.616   4.892
 4951SOL     OW15751   4.145   2.136   4.023
 4951SOL    HW115752   4.161   2.043   4.057
 4951SOL    HW215753   4.095   2.188   4.092
 4952SOL     OW15754   6.752   4.467   4.364
 4952SOL    HW115755   6.671   4.484   4.420
 4952SOL    HW215756   6.735   4.390   4.302
 4953SOL     OW15757   0.765   4.382   1.997
 4953SOL    HW115758   0.857   4.391   2.035
 4953SOL    HW215759   0.759   4.435   1.912
 4954SOL     OW15760   6.412   6.520   6.566
 4954SOL    HW115761   6.316   6.493   6.562
 4954SOL    HW215762   6.469   6.445   6.533
 4955SOL     OW15763   1.845   0.282   1.565
 4955SOL    HW115764   1.867   0.327   1.652
 4955SOL    HW215765   1.928   0.273   1.510
 4956SOL     OW15766   6.091   6.303   3.682
 4956SOL    HW115767   6.106   6.402   3.683
 4956SOL    HW215768   6.014   6.282   3.622
 4957SOL     OW15769   1.404   5.857   4.185
 4957SOL    HW115770   1.460   5.815   4.256
 4957SOL    HW215771   1.443   5.946   4.161
 4958SOL     OW15772   0.062   6.646   6.653
 4958SOL    HW115773   0.011   6.731   6.665
 4958SOL    HW215774   0.076   6.628   6.556
 4959SOL     OW15775   0.758   2.086   6.962
 4959SOL    HW115776   0.831   2.143   6.926
 4959SOL    HW215777   0.689   2.071   6.891
 4960SOL     OW15778   3.617   0.152   5.447
 4960SOL    HW115779   3.687   0.130   5.379
 4960SOL    HW215780   3.528   0.117   5.415
 4961SOL     OW15781   5.253   0.405   5.080
 4961SOL    HW115782   5.193   0.485   5.081
 4961SOL    HW215783   5.206   0.327   5.122
 4962SOL     OW15784   6.394   2.320   2.121
 4962SOL    HW115785   6.323   2.337   2.052
 4962SOL    HW215786   6.382   2.227   2.158
 4963SOL     OW15787   0.298   4.586   1.195
 4963SOL    HW115788   0.361   4.654   1.230
 4963SOL    HW215789   0.265   4.529   1.271
 4964SOL     OW15790   2.981   6.704   3.246
 4964SOL    HW115791   2.918   6.737   3.317
 4964SOL    HW215792   3.034   6.781   3.212
 4965SOL     OW15793   0.031   5.984   4.624
 4965SOL    HW115794   0.045   5.890   4.655
 4965SOL    HW215795   0.115   6.036   4.636
 4966SOL     OW15796   4.852   5.644   4.999
 4966SOL    HW115797   4.831   5.602   5.087
 4966SOL    HW215798   4.914   5.585   4.948
 4967SOL     OW15799   6.011   1.931   0.067
 4967SOL    HW115800   6.060   1.854   0.024
 4967SOL    HW215801   5.968   1.986   7.026
 4968SOL     OW15802   5.151   4.423   6.483
 4968SOL    HW115803   5.085   4.350   6.499
 4968SOL    HW215804   5.173   4.427   6.385
 4969SOL     OW15805   1.809   1.725   1.481
 4969SOL    HW115806   1.903   1.750   1.457
 4969SOL    HW215807   1.808   1.633   1.521
 4970SOL     OW15808   1.774   2.686   5.810
 4970SOL    HW115809   1.858   2.650   5.851
 4970SOL    HW215810   1.798   2.744   5.732
 4971SOL     OW15811   6.504   5.365   3.806
 4971SOL    HW115812   6.459   5.297   3.748
 4971SOL    HW215813   6.526   5.324   3.894
 4972SOL     OW15814   1.603   2.116   4.760
 4972SOL    HW115815   1.590   2.092   4.664
 4972SOL    HW215816   1.700   2.133   4.777
 4973SOL     OW15817   4.966   5.565   2.792
 4973SOL    HW115818   5.048   5.540   2.740
 4973SOL    HW215819   4.968   5.663   2.812
 4974SOL     OW15820   3.861   6.841   6.420
 4974SOL    HW115821   3.785   6.803   6.475
 4974SOL    HW215822   3.824   6.879   6.335
 4975SOL     OW15823   3.843   6.330   0.496
 4975SOL    HW115824   3.809   6.397   0.430
 4975SOL    HW215825   3.935   6.356   0.525
 4976SOL     OW15826   2.218   0.767   4.462
 4976SOL    HW115827   2.186   0.824   4.537
 4976SOL    HW215828   2.235   0.825   4.381
 4977SOL     OW15829   3.663   3.234   0.858
 4977SOL    HW115830   3.654   3.286   0.773
 4977SOL    HW215831   3.652   3.136   0.839
 4978SOL     OW15832   6.442   4.373   6.230
 4978SOL    HW115833   6.397   4.330   6.308
 4978SOL    HW215834   6.535   4.337   6.221
 4979SOL     OW15835   2.291   2.332   3.846
 4979SOL    HW115836   2.357   2.347   3.772
 4979SOL    HW215837   2.320   2.255   3.902
 4980SOL     OW15838   2.169   4.868   3.244
 4980SOL    HW115839   2.123   4.824   3.321
 4980SOL    HW215840   2.147   4.966   3.243
 4981SOL     OW15841   5.215   5.571   5.211
 4981SOL    HW115842   5.284   5.502   5.188
 4981SOL    HW215843   5.202   5.632   5.133
 4982SOL     OW15844   2.394   1.565   6.590
 4982SOL    HW115845   2.371   1.660   6.569
 4982SOL    HW215846   2.348   1.505   6.524
 4983SOL     OW15847   6.692   2.445   4.590
 4983SOL    HW115848   6.595   2.468   4.589
 4983SOL    HW215849   6.741   2.506   4.528
 4984SOL     OW15850   4.951   4.643   3.275
 4984SOL    HW115851   4.957   4.543   3.273
 4984SOL    HW215852   4.857   4.670   3.298
 4985SOL     OW15853   5.851   3.761   2.311
 4985SOL    HW115854   5.847   3.695   2.386
 4985SOL    HW215855   5.863   3.853   2.349
 4986SOL     OW15856   4.525   5.119   2.975
 4986SOL    HW115857   4.478   5.090   2.892
 4986SOL    HW215858   4.624   5.119   2.959
 4987SOL     OW15859   0.713   3.161   0.574
 4987SOL    HW115860   0.657   3.113   0.506
 4987SOL    HW215861   0.751   3.095   0.638
 4988SOL     OW15862   1.871   2.487   5.597
 4988SOL    HW115863   1.958   2.528   5.624
 4988SOL    HW215864   1.831   2.540   5.522
 4989SOL     OW15865   0.199   1.195   1.203
 4989SOL    HW115866   0.135   1.258   1.158
 4989SOL    HW215867   0.271   1.170   1.139
 4990SOL     OW15868   1.472   2.110   6.732
 4990SOL    HW115869   1.397   2.049   6.760
 4990SOL    HW215870   1.507   2.081   6.643
 4991SOL     OW15871   2.823   1.988   5.592
 4991SOL    HW115872   2.904   2.002   5.536
 4991SOL    HW215873   2.848   1.945   5.678
 4992SOL     OW15874   4.010   6.552   4.872
 4992SOL    HW115875   3.915   6.519   4.875
 4992SOL    HW215876   4.034   6.577   4.778
 4993SOL     OW15877   1.616   6.375   4.111
 4993SOL    HW115878   1.681   6.382   4.187
 4993SOL    HW215879   1.556   6.454   4.111
 4994SOL     OW15880   0.067   6.671   3.066
 4994SOL    HW115881   0.105   6.662   3.158
 4994SOL    HW215882   0.012   6.591   3.044
 4995SOL     OW15883   5.792   3.096   5.610
 4995SOL    HW115884   5.861   3.059   5.548
 4995SOL    HW215885   5.792   3.044   5.695
 4996SOL     OW15886   1.002   1.586   3.524
 4996SOL    HW115887   1.002   1.490   3.555
 4996SOL    HW215888   0.955   1.642   3.591
 4997SOL     OW15889   6.965   2.600   4.007
 4997SOL    HW115890   0.017   2.563   3.962
 4997SOL    HW215891   6.902   2.526   4.028
 4998SOL     OW15892   0.973   5.797   5.558
 4998SOL    HW115893   0.942   5.890   5.537
 4998SOL    HW215894   0.923   5.762   5.637
 4999SOL     OW15895   6.037   4.853   0.971
 4999SOL    HW115896   6.032   4.952   0.954
 4999SOL    HW215897   5.976   4.805   0.908
 5000SOL     OW15898   6.331   5.010   4.451
 5000SOL    HW115899   6.335   5.092   4.509
 5000SOL    HW215900   6.423   4.989   4.417
 5001SOL     OW15901   4.872   3.468   5.461
 5001SOL    HW115902   4.837   3.557   5.489
 5001SOL    HW215903   4.972   3.469   5.463
 5002SOL     OW15904   1.403   2.227   1.746
 5002SOL    HW115905   1.324   2.178   1.710
 5002SOL    HW215906   1.483   2.168   1.744
 5003SOL     OW15907   6.768   5.356   4.229
 5003SOL    HW115908   6.843   5.397   4.177
 5003SOL    HW215909   6.681   5.392   4.197
 5004SOL     OW15910   2.029   4.496   6.295
 5004SOL    HW115911   2.090   4.573   6.277
 5004SOL    HW215912   1.941   4.513   6.251
 5005SOL     OW15913   4.819   2.371   0.457
 5005SOL    HW115914   4.833   2.313   0.537
 5005SOL    HW215915   4.725   2.407   0.458
 5006SOL     OW15916   5.229   4.547   2.122
 5006SOL    HW115917   5.314   4.533   2.072
 5006SOL    HW215918   5.246   4.604   2.202
 5007SOL     OW15919   4.188   0.206   4.959
 5007SOL    HW115920   4.180   0.186   5.057
 5007SOL    HW215921   4.284   0.197   4.932
 5008SOL     OW15922   6.426   1.738   3.897
 5008SOL    HW115923   6.505   1.799   3.892
 5008SOL    HW215924   6.369   1.750   3.815
 5009SOL     OW15925   2.446   6.688   1.975
 5009SOL    HW115926   2.401   6.768   1.935
 5009SOL    HW215927   2.534   6.716   2.013
 5010SOL     OW15928   3.241   3.719   5.880
 5010SOL    HW115929   3.183   3.660   5.825
 5010SOL    HW215930   3.227   3.699   5.977
 5011SOL     OW15931   1.271   1.573   3.479
 5011SOL    HW115932   1.307   1.565   3.572
 5011SOL    HW215933   1.173   1.556   3.480
 5012SOL     OW15934   5.989   3.002   6.989
 5012SOL    HW115935   5.891   3.017   6.976
 5012SOL    HW215936   6.004   2.914   0.004
 5013SOL     OW15937   4.833   1.890   5.500
 5013SOL    HW115938   4.872   1.982   5.504
 5013SOL    HW215939   4.891   1.832   5.443
 5014SOL     OW15940   6.801   5.339   6.754
 5014SOL    HW115941   6.731   5.301   6.693
 5014SOL    HW215942   6.758   5.406   6.815
 5015SOL     OW15943   4.815   2.118   3.857
 5015SOL    HW115944   4.887   2.171   3.902
 5015SOL    HW215945   4.748   2.087   3.925
 5016SOL     OW15946   2.828   6.192   1.758
 5016SOL    HW115947   2.789   6.232   1.842
 5016SOL    HW215948   2.829   6.093   1.766
 5017SOL     OW15949   1.408   1.814   1.788
 5017SOL    HW115950   1.495   1.838   1.833
 5017SOL    HW215951   1.333   1.834   1.850
 5018SOL     OW15952   6.365   4.993   3.954
 5018SOL    HW115953   6.391   4.982   3.858
 5018SOL    HW215954   6.268   4.973   3.965
 5019SOL     OW15955   3.180   5.531   5.317
 5019SOL    HW115956   3.106   5.565   5.374
 5019SOL    HW215957   3.145   5.460   5.256
 5020SOL     OW15958   4.501   4.895   0.018
 5020SOL    HW115959   4.596   4.925   0.023
 5020SOL    HW215960   4.446   4.947   0.083
 5021SOL     OW15961   1.786   4.531   5.573
 5021SOL    HW115962   1.814   4.593   5.646
 5021SOL    HW215963   1.862   4.470   5.550
 5022SOL     OW15964   1.873   3.836   0.260
 5022SOL    HW115965   1.950   3.895   0.284
 5022SOL    HW215966   1.904   3.768   0.194
 5023SOL     OW15967   0.189   3.082   4.770
 5023SOL    HW115968   0.209   3.078   4.868
 5023SOL    HW215969   0.169   2.991   4.736
 5024SOL     OW15970   4.714   3.769   5.526
 5024SOL    HW115971   4.672   3.853   5.561
 5024SOL    HW215972   4.718   3.702   5.600
 5025SOL     OW15973   5.883   0.652   4.259
 5025SOL    HW115974   5.898   0.640   4.357
 5025SOL    HW215975   5.850   0.745   4.242
 5026SOL     OW15976   0.666   5.538   2.883
 5026SOL    HW115977   0.710   5.462   2.929
 5026SOL    HW215978   0.601   5.582   2.945
 5027SOL     OW15979   1.179   5.438   3.394
 5027SOL    HW115980   1.213   5.373   3.326
 5027SOL    HW215981   1.207   5.531   3.368
 5028SOL     OW15982   0.873   6.546   3.103
 5028SOL    HW115983   0.887   6.513   3.009
 5028SOL    HW215984   0.887   6.471   3.167
 5029SOL     OW15985   6.105   0.737   3.965
 5029SOL    HW115986   6.065   0.799   4.033
 5029SOL    HW215987   6.183   0.782   3.922
 5030SOL     OW15988   1.293   6.403   0.207
 5030SOL    HW115989   1.227   6.328   0.209
 5030SOL    HW215990   1.271   6.465   0.131
 5031SOL     OW15991   5.473   0.259   6.757
 5031SOL    HW115992   5.426   0.175   6.731
 5031SOL    HW215993   5.565   0.237   6.791
 5032SOL     OW15994   1.187   5.090   2.494
 5032SOL    HW115995   1.102   5.142   2.509
 5032SOL    HW215996   1.218   5.104   2.400
 5033SOL     OW15997   0.511   4.795   4.615
 5033SOL    HW115998   0.429   4.739   4.606
 5033SOL    HW215999   0.537   4.831   4.526
 5034SOL     OW16000   0.406   3.486   6.430
 5034SOL    HW116001   0.351   3.422   6.377
 5034SOL    HW216002   0.377   3.485   6.526
 5035SOL     OW16003   0.024   3.888   1.509
 5035SOL    HW116004   6.961   3.913   1.483
 5035SOL    HW216005   0.083   3.968   1.506
 5036SOL     OW16006   0.930   1.642   2.715
 5036SOL    HW116007   0.853   1.666   2.656
 5036SOL    HW216008   0.951   1.718   2.776
 5037SOL     OW16009   5.158   3.979   1.842
 5037SOL    HW116010   5.117   4.040   1.774
 5037SOL    HW216011   5.086   3.934   1.894
 5038SOL     OW16012   3.290   5.677   5.588
 5038SOL    HW116013   3.385   5.705   5.589
 5038SOL    HW216014   3.259   5.665   5.494
 5039SOL     OW16015   1.528   2.323   3.398
 5039SOL    HW116016   1.601   2.273   3.350
 5039SOL    HW216017   1.563   2.412   3.429
 5040SOL     OW16018   2.946   3.622   5.811
 5040SOL    HW116019   2.937   3.530   5.850
 5040SOL    HW216020   2.915   3.621   5.716
 5041SOL     OW16021   6.977   5.714   0.419
 5041SOL    HW116022   6.917   5.678   0.491
 5041SOL    HW216023   7.004   5.807   0.442
 5042SOL     OW16024   5.845   1.658   6.252
 5042SOL    HW116025   5.851   1.708   6.338
 5042SOL    HW216026   5.792   1.575   6.264
 5043SOL     OW16027   5.240   5.770   3.751
 5043SOL    HW116028   5.167   5.764   3.819
 5043SOL    HW216029   5.201   5.769   3.659
 5044SOL     OW16030   6.180   4.325   1.821
 5044SOL    HW116031   6.272   4.331   1.783
 5044SOL    HW216032   6.179   4.259   1.896
 5045SOL     OW16033   5.544   2.389   5.501
 5045SOL    HW116034   5.460   2.434   5.530
 5045SOL    HW216035   5.581   2.436   5.421
 5046SOL     OW16036   3.846   3.411   6.044
 5046SOL    HW116037   3.796   3.443   5.964
 5046SOL    HW216038   3.897   3.487   6.084
 5047SOL     OW16039   0.176   1.477   2.425
 5047SOL    HW116040   0.154   1.402   2.487
 5047SOL    HW216041   0.267   1.513   2.448
 5048SOL     OW16042   6.049   3.449   0.964
 5048SOL    HW116043   6.005   3.373   1.011
 5048SOL    HW216044   5.991   3.530   0.970
 5049SOL     OW16045   0.927   1.308   1.610
 5049SOL    HW116046   0.973   1.327   1.697
 5049SOL    HW216047   0.898   1.212   1.609
 5050SOL     OW16048   2.287   4.513   0.533
 5050SOL    HW116049   2.204   4.458   0.522
 5050SOL    HW216050   2.261   4.607   0.556
 5051SOL     OW16051   2.278   4.070   6.225
 5051SOL    HW116052   2.227   4.128   6.161
 5051SOL    HW216053   2.238   3.979   6.227
 5052SOL     OW16054   6.074   2.749   0.924
 5052SOL    HW116055   6.064   2.650   0.928
 5052SOL    HW216056   6.120   2.775   0.839
 5053SOL     OW16057   1.175   4.299   1.323
 5053SOL    HW116058   1.192   4.305   1.225
 5053SOL    HW216059   1.139   4.209   1.345
 5054SOL     OW16060   4.058   6.147   5.314
 5054SOL    HW116061   4.046   6.057   5.356
 5054SOL    HW216062   4.121   6.140   5.237
 5055SOL     OW16063   0.736   0.646   3.556
 5055SOL    HW116064   0.829   0.653   3.521
 5055SOL    HW216065   0.683   0.725   3.526
 5056SOL     OW16066   3.375   2.430   6.192
 5056SOL    HW116067   3.297   2.367   6.187
 5056SOL    HW216068   3.446   2.401   6.128
 5057SOL     OW16069   0.308   4.001   2.562
 5057SOL    HW116070   0.252   4.079   2.592
 5057SOL    HW216071   0.317   4.003   2.462
 5058SOL     OW16072   3.758   2.054   0.060
 5058SOL    HW116073   3.808   1.968   0.069
 5058SOL    HW216074   3.815   2.122   0.014
 5059SOL     OW16075   5.499   2.194   2.599
 5059SOL    HW116076   5.522   2.237   2.687
 5059SOL    HW216077   5.400   2.198   2.585
 5060SOL     OW16078   6.281   2.927   5.690
 5060SOL    HW116079   6.184   2.951   5.689
 5060SOL    HW216080   6.308   2.896   5.599
 5061SOL     OW16081   3.876   2.738   5.604
 5061SOL    HW116082   3.860   2.824   5.651
 5061SOL    HW216083   3.847   2.662   5.662
 5062SOL     OW16084   5.581   1.407   3.254
 5062SOL    HW116085   5.490   1.438   3.282
 5062SOL    HW216086   5.617   1.469   3.184
 5063SOL     OW16087   0.636   1.609   1.482
 5063SOL    HW116088   0.691   1.630   1.401
 5063SOL    HW216089   0.692   1.622   1.564
 5064SOL     OW16090   6.310   5.056   1.324
 5064SOL    HW116091   6.231   5.038   1.266
 5064SOL    HW216092   6.389   5.004   1.291
 5065SOL     OW16093   2.231   1.853   2.636
 5065SOL    HW116094   2.321   1.855   2.679
 5065SOL    HW216095   2.204   1.946   2.611
 5066SOL     OW16096   1.599   5.249   3.368
 5066SOL    HW116097   1.542   5.221   3.446
 5066SOL    HW216098   1.577   5.192   3.289
 5067SOL     OW16099   5.018   2.687   0.763
 5067SOL    HW116100   5.019   2.725   0.855
 5067SOL    HW216101   4.962   2.744   0.704
 5068SOL     OW16102   1.479   6.643   1.076
 5068SOL    HW116103   1.502   6.693   1.159
 5068SOL    HW216104   1.553   6.581   1.052
 5069SOL     OW16105   4.489   4.372   5.802
 5069SOL    HW116106   4.572   4.413   5.841
 5069SOL    HW216107   4.436   4.443   5.756
 5070SOL     OW16108   6.712   3.602   6.005
 5070SOL    HW116109   6.801   3.607   6.050
 5070SOL    HW216110   6.641   3.634   6.067
 5071SOL     OW16111   2.523   6.489   2.691
 5071SOL    HW116112   2.446   6.433   2.722
 5071SOL    HW216113   2.609   6.445   2.716
 5072SOL     OW16114   1.068   1.820   2.280
 5072SOL    HW116115   1.056   1.727   2.315
 5072SOL    HW216116   1.056   1.820   2.181
 5073SOL     OW16117   1.915   1.410   3.642
 5073SOL    HW116118   1.904   1.500   3.599
 5073SOL    HW216119   1.975   1.417   3.721
 5074SOL     OW16120   3.644   2.204   0.750
 5074SOL    HW116121   3.696   2.142   0.809
 5074SOL    HW216122   3.549   2.208   0.782
 5075SOL     OW16123   6.273   2.396   0.301
 5075SOL    HW116124   6.344   2.447   0.348
 5075SOL    HW216125   6.256   2.310   0.349
 5076SOL     OW16126   6.786   1.085   6.052
 5076SOL    HW116127   6.871   1.091   6.000
 5076SOL    HW216128   6.716   1.141   6.009
 5077SOL     OW16129   0.250   4.443   3.972
 5077SOL    HW116130   0.249   4.531   3.923
 5077SOL    HW216131   0.175   4.386   3.939
 5078SOL     OW16132   6.299   2.366   2.980
 5078SOL    HW116133   6.323   2.334   2.888
 5078SOL    HW216134   6.371   2.427   3.014
 5079SOL     OW16135   1.901   4.172   4.955
 5079SOL    HW116136   1.907   4.271   4.962
 5079SOL    HW216137   1.814   4.141   4.993
 5080SOL     OW16138   6.429   5.387   0.045
 5080SOL    HW116139   6.421   5.437   6.988
 5080SOL    HW216140   6.422   5.452   0.121
 5081SOL     OW16141   2.580   4.594   5.547
 5081SOL    HW116142   2.480   4.583   5.548
 5081SOL    HW216143   2.617   4.556   5.463
 5082SOL     OW16144   6.060   0.120   2.715
 5082SOL    HW116145   6.043   0.162   2.626
 5082SOL    HW216146   5.974   0.106   2.763
 5083SOL     OW16147   0.855   6.827   3.489
 5083SOL    HW116148   0.949   6.794   3.496
 5083SOL    HW216149   0.793   6.759   3.529
 5084SOL     OW16150   3.481   5.335   6.034
 5084SOL    HW116151   3.422   5.367   5.960
 5084SOL    HW216152   3.562   5.291   5.995
 5085SOL     OW16153   0.247   4.094   5.593
 5085SOL    HW116154   0.336   4.054   5.571
 5085SOL    HW216155   0.176   4.053   5.535
 5086SOL     OW16156   1.014   4.449   2.086
 5086SOL    HW116157   1.038   4.484   2.176
 5086SOL    HW216158   1.077   4.486   2.018
 5087SOL     OW16159   6.992   5.727   1.799
 5087SOL    HW116160   7.023   5.669   1.724
 5087SOL    HW216161   6.981   5.672   1.882
 5088SOL     OW16162   4.543   4.900   2.008
 5088SOL    HW116163   4.457   4.904   2.058
 5088SOL    HW216164   4.614   4.947   2.060
 5089SOL     OW16165   5.378   6.588   5.355
 5089SOL    HW116166   5.302   6.557   5.412
 5089SOL    HW216167   5.349   6.664   5.297
 5090SOL     OW16168   2.327   6.629   4.429
 5090SOL    HW116169   2.330   6.687   4.347
 5090SOL    HW216170   2.294   6.538   4.404
 5091SOL     OW16171   6.194   5.913   5.735
 5091SOL    HW116172   6.251   5.836   5.763
 5091SOL    HW216173   6.222   5.994   5.787
 5092SOL     OW16174   3.797   2.982   4.215
 5092SOL    HW116175   3.861   2.911   4.245
 5092SOL    HW216176   3.759   3.029   4.295
 5093SOL     OW16177   3.599   2.134   3.760
 5093SOL    HW116178   3.581   2.152   3.857
 5093SOL    HW216179   3.696   2.113   3.747
 5094SOL     OW16180   2.012   6.134   5.301
 5094SOL    HW116181   1.974   6.050   5.339
 5094SOL    HW216182   1.967   6.154   5.214
 5095SOL     OW16183   6.609   1.324   3.306
 5095SOL    HW116184   6.589   1.388   3.380
 5095SOL    HW216185   6.528   1.268   3.288
 5096SOL     OW16186   6.073   2.772   6.027
 5096SOL    HW116187   6.073   2.716   6.110
 5096SOL    HW216188   6.153   2.749   5.972
 5097SOL     OW16189   1.022   1.504   5.426
 5097SOL    HW116190   1.028   1.577   5.358
 5097SOL    HW216191   1.020   1.544   5.517
 5098SOL     OW16192   3.238   2.029   1.020
 5098SOL    HW116193   3.165   2.098   1.020
 5098SOL    HW216194   3.219   1.962   0.948
 5099SOL     OW16195   2.089   5.417   2.661
 5099SOL    HW116196   2.070   5.492   2.724
 5099SOL    HW216197   2.089   5.330   2.711
 5100SOL     OW16198   5.503   3.539   1.723
 5100SOL    HW116199   5.418   3.588   1.706
 5100SOL    HW216200   5.561   3.592   1.784
 5101SOL     OW16201   3.008   1.436   5.144
 5101SOL    HW116202   2.913   1.441   5.175
 5101SOL    HW216203   3.065   1.398   5.217
 5102SOL     OW16204   5.686   4.426   5.399
 5102SOL    HW116205   5.752   4.374   5.452
 5102SOL    HW216206   5.594   4.413   5.437
 5103SOL     OW16207   0.936   0.458   5.829
 5103SOL    HW116208   0.892   0.520   5.764
 5103SOL    HW216209   0.872   0.384   5.852
 5104SOL     OW16210   3.709   3.661   3.535
 5104SOL    HW116211   3.796   3.674   3.581
 5104SOL    HW216212   3.722   3.672   3.436
 5105SOL     OW16213   4.273   3.189   6.804
 5105SOL    HW116214   4.226   3.108   6.838
 5105SOL    HW216215   4.341   3.219   6.870
 5106SOL     OW16216   3.648   1.283   1.501
 5106SOL    HW116217   3.655   1.250   1.406
 5106SOL    HW216218   3.564   1.337   1.512
 5107SOL     OW16219   5.846   5.352   6.651
 5107SOL    HW116220   5.849   5.451   6.665
 5107SOL    HW216221   5.937   5.313   6.665
 5108SOL     OW16222   4.203   4.167   1.276
 5108SOL    HW116223   4.262   4.245   1.293
 5108SOL    HW216224   4.125   4.169   1.339
 5109SOL     OW16225   1.910   2.602   2.462
 5109SOL    HW116226   1.982   2.627   2.527
 5109SOL    HW216227   1.942   2.525   2.406
 5110SOL     OW16228   3.912   6.061   4.771
 5110SOL    HW116229   4.000   6.018   4.794
 5110SOL    HW216230   3.902   6.062   4.671
 5111SOL     OW16231   2.244   5.487   5.936
 5111SOL    HW116232   2.232   5.388   5.931
 5111SOL    HW216233   2.185   5.531   5.869
 5112SOL     OW16234   1.039   4.569   2.341
 5112SOL    HW116235   1.040   4.669   2.338
 5112SOL    HW216236   1.130   4.535   2.365
 5113SOL     OW16237   2.379   3.922   0.935
 5113SOL    HW116238   2.363   3.962   1.025
 5113SOL    HW216239   2.304   3.948   0.873
 5114SOL     OW16240   4.440   4.854   1.721
 5114SOL    HW116241   4.450   4.763   1.680
 5114SOL    HW216242   4.479   4.854   1.813
 5115SOL     OW16243   1.371   4.864   0.932
 5115SOL    HW116244   1.450   4.803   0.929
 5115SOL    HW216245   1.338   4.880   0.839
 5116SOL     OW16246   0.382   6.488   5.550
 5116SOL    HW116247   0.464   6.514   5.601
 5116SOL    HW216248   0.303   6.538   5.585
 5117SOL     OW16249   7.000   3.323   3.596
 5117SOL    HW116250   6.924   3.355   3.540
 5117SOL    HW216251   0.032   3.267   3.540
 5118SOL     OW16252   4.049   5.363   6.852
 5118SOL    HW116253   3.961   5.376   6.898
 5118SOL    HW216254   4.076   5.449   6.808
 5119SOL     OW16255   5.580   1.697   0.932
 5119SOL    HW116256   5.655   1.635   0.910
 5119SOL    HW216257   5.616   1.782   0.969
 5120SOL     OW16258   5.806   6.540   6.205
 5120SOL    HW116259   5.891   6.552   6.154
 5120SOL    HW216260   5.817   6.574   6.298
 5121SOL     OW16261   1.035   3.346   0.229
 5121SOL    HW116262   1.008   3.273   0.167
 5121SOL    HW216263   0.966   3.356   0.301
 5122SOL     OW16264   4.220   4.809   3.357
 5122SOL    HW116265   4.258   4.738   3.415
 5122SOL    HW216266   4.152   4.861   3.408
 5123SOL     OW16267   5.197   2.438   1.383
 5123SOL    HW116268   5.270   2.375   1.355
 5123SOL    HW216269   5.222   2.531   1.358
 5124SOL     OW16270   0.525   5.788   4.136
 5124SOL    HW116271   0.577   5.816   4.055
 5124SOL    HW216272   0.473   5.866   4.170
 5125SOL     OW16273   5.920   2.456   3.886
 5125SOL    HW116274   5.857   2.421   3.816
 5125SOL    HW216275   5.902   2.410   3.973
 5126SOL     OW16276   2.203   1.401   1.980
 5126SOL    HW116277   2.271   1.426   1.912
 5126SOL    HW216278   2.244   1.341   2.050
 5127SOL     OW16279   2.156   6.777   6.999
 5127SOL    HW116280   2.097   6.833   0.027
 5127SOL    HW216281   2.145   6.681   7.023
 5128SOL     OW16282   4.398   6.700   0.980
 5128SOL    HW116283   4.388   6.693   1.079
 5128SOL    HW216284   4.327   6.759   0.943
 5129SOL     OW16285   6.399   5.948   0.288
 5129SOL    HW116286   6.472   5.918   0.348
 5129SOL    HW216287   6.312   5.908   0.318
 5130SOL     OW16288   6.434   4.857   2.585
 5130SOL    HW116289   6.465   4.860   2.490
 5130SOL    HW216290   6.349   4.805   2.590
 5131SOL     OW16291   2.623   2.455   2.659
 5131SOL    HW116292   2.565   2.456   2.578
 5131SOL    HW216293   2.638   2.549   2.691
 5132SOL     OW16294   2.462   5.908   5.329
 5132SOL    HW116295   2.536   5.967   5.297
 5132SOL    HW216296   2.447   5.834   5.262
 5133SOL     OW16297   3.467   6.350   4.684
 5133SOL    HW116298   3.449   6.349   4.783
 5133SOL    HW216299   3.451   6.259   4.646
 5134SOL     OW16300   6.800   3.500   6.563
 5134SOL    HW116301   6.766   3.449   6.485
 5134SOL    HW216302   6.803   3.441   6.643
 5135SOL     OW16303   6.999   1.844   4.203
 5135SOL    HW116304   6.901   1.826   4.200
 5135SOL    HW216305   7.022   1.915   4.136
 5136SOL     OW16306   2.961   1.954   6.666
 5136SOL    HW116307   2.942   1.861   6.697
 5136SOL    HW216308   2.932   2.019   6.737
 5137SOL     OW16309   4.004   3.458   6.930
 5137SOL    HW116310   3.929   3.496   6.876
 5137SOL    HW216311   4.091   3.480   6.887
 5138SOL     OW16312   2.282   3.556   5.816
 5138SOL    HW116313   2.205   3.503   5.851
 5138SOL    HW216314   2.249   3.626   5.754
 5139SOL     OW16315   1.141   6.600   3.731
 5139SOL    HW116316   1.137   6.613   3.830
 5139SOL    HW216317   1.211   6.533   3.708
 5140SOL     OW16318   3.089   2.999   1.490
 5140SOL    HW116319   3.086   2.931   1.417
 5140SOL    HW216320   3.182   3.032   1.501
 5141SOL     OW16321   1.236   4.176   5.939
 5141SOL    HW116322   1.258   4.168   5.842
 5141SOL    HW216323   1.212   4.086   5.975
 5142SOL     OW16324   5.604   3.369   2.017
 5142SOL    HW116325   5.628   3.290   2.073
 5142SOL    HW216326   5.524   3.346   1.961
 5143SOL     OW16327   6.947   5.043   5.542
 5143SOL    HW116328   6.938   4.951   5.503
 5143SOL    HW216329   6.896   5.047   5.629
 5144SOL     OW16330   2.028   1.805   4.906
 5144SOL    HW116331   1.993   1.732   4.847
 5144SOL    HW216332   2.072   1.875   4.851
 5145SOL     OW16333   3.437   5.786   5.864
 5145SOL    HW116334   3.435   5.865   5.925
 5145SOL    HW216335   3.506   5.801   5.793
 5146SOL     OW16336   3.267   4.547   0.918
 5146SOL    HW116337   3.222   4.548   1.008
 5146SOL    HW216338   3.248   4.460   0.873
 5147SOL     OW16339   6.598   5.238   6.588
 5147SOL    HW116340   6.601   5.179   6.669
 5147SOL    HW216341   6.551   5.190   6.514
 5148SOL     OW16342   0.102   0.709   1.361
 5148SOL    HW116343   0.186   0.661   1.334
 5148SOL    HW216344   0.024   0.647   1.351
 5149SOL     OW16345   6.607   0.270   5.659
 5149SOL    HW116346   6.628   0.172   5.666
 5149SOL    HW216347   6.691   0.320   5.640
 5150SOL     OW16348   2.503   5.427   5.288
 5150SOL    HW116349   2.443   5.444   5.210
 5150SOL    HW216350   2.504   5.507   5.348
 5151SOL     OW16351   3.901   0.726   5.532
 5151SOL    HW116352   3.810   0.691   5.512
 5151SOL    HW216353   3.951   0.660   5.589
 5152SOL     OW16354   0.096   4.937   6.864
 5152SOL    HW116355   0.049   4.849   6.864
 5152SOL    HW216356   0.034   5.009   6.895
 5153SOL     OW16357   1.939   2.321   1.191
 5153SOL    HW116358   1.894   2.402   1.154
 5153SOL    HW216359   1.891   2.290   1.273
 5154SOL     OW16360   1.704   4.799   4.632
 5154SOL    HW116361   1.748   4.888   4.646
 5154SOL    HW216362   1.684   4.757   4.720
 5155SOL     OW16363   3.925   0.283   2.496
 5155SOL    HW116364   4.015   0.243   2.512
 5155SOL    HW216365   3.869   0.274   2.579
 5156SOL     OW16366   5.159   3.099   5.806
 5156SOL    HW116367   5.197   3.101   5.898
 5156SOL    HW216368   5.093   3.025   5.799
 5157SOL     OW16369   6.338   1.866   4.167
 5157SOL    HW116370   6.393   1.818   4.235
 5157SOL    HW216371   6.333   1.811   4.084
 5158SOL     OW16372   3.777   0.715   0.955
 5158SOL    HW116373   3.804   0.773   0.879
 5158SOL    HW216374   3.705   0.761   1.007
 5159SOL     OW16375   2.044   3.306   4.577
 5159SOL    HW116376   2.076   3.391   4.617
 5159SOL    HW216377   2.048   3.233   4.645
 5160SOL     OW16378   2.735   2.343   3.810
 5160SOL    HW116379   2.678   2.381   3.883
 5160SOL    HW216380   2.829   2.333   3.843
 5161SOL     OW16381   2.100   3.166   6.580
 5161SOL    HW116382   2.100   3.148   6.678
 5161SOL    HW216383   2.019   3.124   6.539
 5162SOL     OW16384   6.913   5.497   4.607
 5162SOL    HW116385   6.847   5.525   4.537
 5162SOL    HW216386   6.867   5.443   4.677
 5163SOL     OW16387   5.514   3.995   0.995
 5163SOL    HW116388   5.591   4.052   0.966
 5163SOL    HW216389   5.429   4.033   0.957
 5164SOL     OW16390   6.472   6.078   4.615
 5164SOL    HW116391   6.510   6.146   4.678
 5164SOL    HW216392   6.382   6.050   4.648
 5165SOL     OW16393   5.583   3.594   5.033
 5165SOL    HW116394   5.643   3.572   5.110
 5165SOL    HW216395   5.496   3.546   5.044
 5166SOL     OW16396   1.395   0.038   2.522
 5166SOL    HW116397   1.454   0.019   2.444
 5166SOL    HW216398   1.434   0.112   2.576
 5167SOL     OW16399   2.044   0.356   5.925
 5167SOL    HW116400   1.980   0.322   5.856
 5167SOL    HW216401   2.082   0.278   5.976
 5168SOL     OW16402   3.570   2.007   2.556
 5168SOL    HW116403   3.471   2.001   2.546
 5168SOL    HW216404   3.615   1.944   2.492
 5169SOL     OW16405   4.143   4.623   6.512
 5169SOL    HW116406   4.114   4.641   6.418
 5169SOL    HW216407   4.070   4.649   6.575
 5170SOL     OW16408   4.016   5.300   3.981
 5170SOL    HW116409   4.021   5.242   4.062
 5170SOL    HW216410   3.923   5.295   3.943
 5171SOL     OW16411   2.696   4.795   5.192
 5171SOL    HW116412   2.627   4.724   5.177
 5171SOL    HW216413   2.787   4.755   5.180
 5172SOL     OW16414   1.752   4.329   6.658
 5172SOL    HW116415   1.766   4.282   6.746
 5172SOL    HW216416   1.833   4.319   6.601
 5173SOL     OW16417   0.171   2.488   4.988
 5173SOL    HW116418   0.172   2.585   5.012
 5173SOL    HW216419   0.111   2.439   5.051
 5174SOL     OW16420   2.489   4.775   6.554
 5174SOL    HW116421   2.458   4.849   6.613
 5174SOL    HW216422   2.579   4.743   6.585
 5175SOL     OW16423   0.107   5.680   6.612
 5175SOL    HW116424   0.043   5.756   6.601
 5175SOL    HW216425   0.095   5.639   6.702
 5176SOL     OW16426   5.743   3.913   6.439
 5176SOL    HW116427   5.740   4.013   6.433
 5176SOL    HW216428   5.676   3.882   6.506
 5177SOL     OW16429   5.343   5.398   5.555
 5177SOL    HW116430   5.307   5.489   5.533
 5177SOL    HW216431   5.440   5.405   5.577
 5178SOL     OW16432   2.885   4.282   0.689
 5178SOL    HW116433   2.913   4.186   0.690
 5178SOL    HW216434   2.964   4.340   0.670
 5179SOL     OW16435   3.476   6.334   5.184
 5179SOL    HW116436   3.386   6.292   5.168
 5179SOL    HW216437   3.547   6.264   5.180
 5180SOL     OW16438   4.491   1.648   0.245
 5180SOL    HW116439   4.447   1.722   0.194
 5180SOL    HW216440   4.590   1.652   0.232
 5181SOL     OW16441   3.264   6.002   2.248
 5181SOL    HW116442   3.219   5.914   2.246
 5181SOL    HW216443   3.237   6.057   2.169
 5182SOL     OW16444   4.786   4.304   1.094
 5182SOL    HW116445   4.792   4.260   1.005
 5182SOL    HW216446   4.702   4.274   1.140
 5183SOL     OW16447   3.678   0.591   3.935
 5183SOL    HW116448   3.697   0.532   4.014
 5183SOL    HW216449   3.627   0.671   3.965
 5184SOL     OW16450   0.933   2.673   3.318
 5184SOL    HW116451   0.927   2.576   3.295
 5184SOL    HW216452   0.868   2.725   3.262
 5185SOL     OW16453   3.928   0.073   1.333
 5185SOL    HW116454   3.921   7.018   1.387
 5185SOL    HW216455   3.985   0.055   1.253
 5186SOL     OW16456   5.243   4.464   6.965
 5186SOL    HW116457   5.231   4.402   0.013
 5186SOL    HW216458   5.270   4.412   6.885
 5187SOL     OW16459   4.910   3.098   4.174
 5187SOL    HW116460   4.999   3.062   4.147
 5187SOL    HW216461   4.890   3.181   4.122
 5188SOL     OW16462   0.488   1.048   3.813
 5188SOL    HW116463   0.413   0.995   3.853
 5188SOL    HW216464   0.574   1.023   3.858
 5189SOL     OW16465   4.786   6.084   5.898
 5189SOL    HW116466   4.825   6.108   5.809
 5189SOL    HW216467   4.707   6.142   5.917
 5190SOL     OW16468   2.252   2.596   2.069
 5190SOL    HW116469   2.212   2.622   2.157
 5190SOL    HW216470   2.311   2.670   2.037
 5191SOL     OW16471   4.753   0.561   2.488
 5191SOL    HW116472   4.831   0.571   2.426
 5191SOL    HW216473   4.742   0.464   2.512
 5192SOL     OW16474   6.493   4.132   1.252
 5192SOL    HW116475   6.423   4.079   1.299
 5192SOL    HW216476   6.467   4.228   1.249
 5193SOL     OW16477   3.686   4.878   2.246
 5193SOL    HW116478   3.623   4.954   2.230
 5193SOL    HW216479   3.669   4.806   2.179
 5194SOL     OW16480   5.306   0.758   0.380
 5194SOL    HW116481   5.276   0.679   0.326
 5194SOL    HW216482   5.230   0.790   0.436
 5195SOL     OW16483   0.490   6.746   5.108
 5195SOL    HW116484   0.560   6.722   5.176
 5195SOL    HW216485   0.424   6.671   5.100
 5196SOL     OW16486   0.048   4.019   3.775
 5196SOL    HW116487   0.007   3.991   3.862
 5196SOL    HW216488   7.013   4.076   3.724
 5197SOL     OW16489   4.212   5.662   5.128
 5197SOL    HW116490   4.204   5.623   5.220
 5197SOL    HW216491   4.134   5.723   5.111
 5198SOL     OW16492   4.265   1.536   5.531
 5198SOL    HW116493   4.172   1.566   5.555
 5198SOL    HW216494   4.326   1.552   5.608
 5199SOL     OW16495   0.343   5.826   1.278
 5199SOL    HW116496   0.244   5.839   1.271
 5199SOL    HW216497   0.363   5.730   1.299
 5200SOL     OW16498   6.794   0.377   4.653
 5200SOL    HW116499   6.737   0.299   4.625
 5200SOL    HW216500   6.736   0.457   4.666
 5201SOL     OW16501   6.494   4.372   5.522
 5201SOL    HW116502   6.462   4.278   5.531
 5201SOL    HW216503   6.559   4.393   5.594
 5202SOL     OW16504   3.727   2.480   6.019
 5202SOL    HW116505   3.766   2.521   6.102
 5202SOL    HW216506   3.763   2.388   6.007
 5203SOL     OW16507   1.139   0.758   6.524
 5203SOL    HW116508   1.148   0.719   6.432
 5203SOL    HW216509   1.107   0.852   6.517
 5204SOL     OW16510   1.622   0.561   1.840
 5204SOL    HW116511   1.710   0.513   1.838
 5204SOL    HW216512   1.629   0.646   1.787
 5205SOL     OW16513   0.021   0.020   1.997
 5205SOL    HW116514   0.120   0.034   1.984
 5205SOL    HW216515   7.023   6.966   1.950
 5206SOL     OW16516   0.975   5.028   4.679
 5206SOL    HW116517   0.899   4.964   4.690
 5206SOL    HW216518   1.026   5.033   4.765
 5207SOL     OW16519   4.976   0.309   4.920
 5207SOL    HW116520   4.896   0.330   4.976
 5207SOL    HW216521   4.993   0.385   4.857
 5208SOL     OW16522   6.703   1.755   0.145
 5208SOL    HW116523   6.707   1.719   0.238
 5208SOL    HW216524   6.635   1.829   0.140
 5209SOL     OW16525   5.207   6.184   2.182
 5209SOL    HW116526   5.296   6.142   2.167
 5209SOL    HW216527   5.135   6.114   2.178
 5210SOL     OW16528   6.043   4.457   1.210
 5210SOL    HW116529   5.967   4.463   1.145
 5210SOL    HW216530   6.087   4.546   1.218
 5211SOL     OW16531   5.526   2.902   5.394
 5211SOL    HW116532   5.611   2.952   5.378
 5211SOL    HW216533   5.476   2.945   5.469
 5212SOL     OW16534   6.513   3.836   6.598
 5212SOL    HW116535   6.589   3.855   6.537
 5212SOL    HW216536   6.538   3.762   6.660
 5213SOL     OW16537   3.458   2.890   3.264
 5213SOL    HW116538   3.359   2.878   3.272
 5213SOL    HW216539   3.500   2.874   3.353
 5214SOL     OW16540   5.458   3.031   5.914
 5214SOL    HW116541   5.373   3.039   5.967
 5214SOL    HW216542   5.530   2.991   5.971
 5215SOL     OW16543   0.097   5.567   5.044
 5215SOL    HW116544   0.187   5.536   5.013
 5215SOL    HW216545   0.079   5.659   5.011
 5216SOL     OW16546   6.352   4.097   1.009
 5216SOL    HW116547   6.262   4.069   1.042
 5216SOL    HW216548   6.417   4.094   1.085
 5217SOL     OW16549   3.929   6.836   2.823
 5217SOL    HW116550   3.845   6.785   2.809
 5217SOL    HW216551   3.907   6.929   2.853
 5218SOL     OW16552   5.883   0.105   0.533
 5218SOL    HW116553   5.845   0.183   0.484
 5218SOL    HW216554   5.949   0.137   0.601
 5219SOL     OW16555   3.883   1.742   4.833
 5219SOL    HW116556   3.917   1.654   4.864
 5219SOL    HW216557   3.861   1.738   4.736
 5220SOL     OW16558   1.923   4.941   4.365
 5220SOL    HW116559   1.950   4.995   4.445
 5220SOL    HW216560   1.824   4.942   4.357
 5221SOL     OW16561   5.203   5.900   1.245
 5221SOL    HW116562   5.211   5.933   1.339
 5221SOL    HW216563   5.137   5.825   1.242
 5222SOL     OW16564   6.832   3.683   2.396
 5222SOL    HW116565   6.752   3.648   2.444
 5222SOL    HW216566   6.880   3.608   2.351
 5223SOL     OW16567   0.275   2.608   1.026
 5223SOL    HW116568   0.189   2.605   0.974
 5223SOL    HW216569   0.333   2.531   0.999
 5224SOL     OW16570   1.772   1.091   4.384
 5224SOL    HW116571   1.862   1.133   4.371
 5224SOL    HW216572   1.731   1.128   4.467
 5225SOL     OW16573   6.772   2.141   5.954
 5225SOL    HW116574   6.721   2.091   5.884
 5225SOL    HW216575   6.728   2.127   6.043
 5226SOL     OW16576   0.095   6.637   4.065
 5226SOL    HW116577   0.089   6.607   3.969
 5226SOL    HW216578   0.170   6.589   4.110
 5227SOL     OW16579   1.326   2.907   5.965
 5227SOL    HW116580   1.362   2.876   6.053
 5227SOL    HW216581   1.396   2.961   5.918
 5228SOL     OW16582   1.142   2.582   4.996
 5228SOL    HW116583   1.187   2.665   4.963
 5228SOL    HW216584   1.075   2.552   4.928
 5229SOL     OW16585   3.704   1.783   6.768
 5229SOL    HW116586   3.651   1.830   6.839
 5229SOL    HW216587   3.683   1.823   6.679
 5230SOL     OW16588   6.867   0.409   2.244
 5230SOL    HW116589   6.965   0.407   2.262
 5230SOL    HW216590   6.824   0.479   2.301
 5231SOL     OW16591   6.076   3.309   1.730
 5231SOL    HW116592   6.127   3.255   1.797
 5231SOL    HW216593   6.011   3.249   1.683
 5232SOL     OW16594   1.678   1.857   5.697
 5232SOL    HW116595   1.761   1.881   5.646
 5232SOL    HW216596   1.661   1.759   5.688
 5233SOL     OW16597   2.991   6.895   3.576
 5233SOL    HW116598   2.913   6.853   3.529
 5233SOL    HW216599   3.075   6.849   3.550
 5234SOL     OW16600   2.644   2.365   6.483
 5234SOL    HW116601   2.618   2.448   6.433
 5234SOL    HW216602   2.561   2.314   6.508
 5235SOL     OW16603   2.261   2.693   1.650
 5235SOL    HW116604   2.296   2.601   1.668
 5235SOL    HW216605   2.292   2.723   1.560
 5236SOL     OW16606   2.831   4.872   2.297
 5236SOL    HW116607   2.760   4.943   2.296
 5236SOL    HW216608   2.853   4.849   2.392
 5237SOL     OW16609   1.748   1.876   2.104
 5237SOL    HW116610   1.815   1.942   2.137
 5237SOL    HW216611   1.701   1.834   2.182
 5238SOL     OW16612   6.440   0.606   2.880
 5238SOL    HW116613   6.531   0.579   2.911
 5238SOL    HW216614   6.401   0.672   2.944
 5239SOL     OW16615   3.035   4.422   0.324
 5239SOL    HW116616   2.936   4.417   0.336
 5239SOL    HW216617   3.057   4.494   0.258
 5240SOL     OW16618   2.028   4.472   5.900
 5240SOL    HW116619   1.985   4.449   5.988
 5240SOL    HW216620   2.126   4.453   5.905
 5241SOL     OW16621   1.630   6.114   3.529
 5241SOL    HW116622   1.603   6.076   3.618
 5241SOL    HW216623   1.591   6.206   3.519
 5242SOL     OW16624   4.398   6.260   5.591
 5242SOL    HW116625   4.344   6.320   5.533
 5242SOL    HW216626   4.491   6.297   5.600
 5243SOL     OW16627   2.006   5.797   3.736
 5243SOL    HW116628   1.996   5.842   3.825
 5243SOL    HW216629   2.079   5.842   3.684
 5244SOL     OW16630   5.028   1.308   6.265
 5244SOL    HW116631   4.953   1.251   6.299
 5244SOL    HW216632   4.991   1.380   6.206
 5245SOL     OW16633   3.141   3.999   2.260
 5245SOL    HW116634   3.153   4.012   2.162
 5245SOL    HW216635   3.085   3.918   2.277
 5246SOL     OW16636   6.577   3.248   5.942
 5246SOL    HW116637   6.519   3.327   5.965
 5246SOL    HW216638   6.673   3.276   5.944
 5247SOL     OW16639   4.532   1.111   5.916
 5247SOL    HW116640   4.594   1.180   5.954
 5247SOL    HW216641   4.485   1.149   5.836
 5248SOL     OW16642   4.717   0.919   3.130
 5248SOL    HW116643   4.723   0.828   3.089
 5248SOL    HW216644   4.777   0.923   3.210
 5249SOL     OW16645   0.075   5.412   1.781
 5249SOL    HW116646   0.000   5.346   1.784
 5249SOL    HW216647   0.088   5.444   1.687
 5250SOL     OW16648   1.986   5.167   0.683
 5250SOL    HW116649   2.018   5.140   0.774
 5250SOL    HW216650   2.065   5.189   0.626
 5251SOL     OW16651   0.896   4.907   7.020
 5251SOL    HW116652   0.872   4.918   6.924
 5251SOL    HW216653   0.834   4.841   0.033
 5252SOL     OW16654   3.798   5.540   3.245
 5252SOL    HW116655   3.860   5.553   3.322
 5252SOL    HW216656   3.831   5.465   3.188
 5253SOL     OW16657   0.258   6.133   4.605
 5253SOL    HW116658   0.315   6.114   4.525
 5253SOL    HW216659   0.306   6.196   4.666
 5254SOL     OW16660   4.580   6.397   2.226
 5254SOL    HW116661   4.584   6.495   2.248
 5254SOL    HW216662   4.569   6.344   2.310
 5255SOL     OW16663   0.290   1.220   6.433
 5255SOL    HW116664   0.380   1.221   6.390
 5255SOL    HW216665   0.299   1.192   6.529
 5256SOL     OW16666   4.301   2.360   2.648
 5256SOL    HW116667   4.259   2.386   2.735
 5256SOL    HW216668   4.374   2.294   2.665
 5257SOL     OW16669   5.235   1.398   6.763
 5257SOL    HW116670   5.217   1.419   6.667
 5257SOL    HW216671   5.299   1.322   6.769
 5258SOL     OW16672   5.419   1.751   5.305
 5258SOL    HW116673   5.480   1.729   5.229
 5258SOL    HW216674   5.365   1.670   5.328
 5259SOL     OW16675   4.801   5.837   3.939
 5259SOL    HW116676   4.707   5.822   3.971
 5259SOL    HW216677   4.802   5.837   3.839
 5260SOL     OW16678   1.717   5.904   1.441
 5260SOL    HW116679   1.632   5.935   1.485
 5260SOL    HW216680   1.787   5.888   1.511
 5261SOL     OW16681   6.016   4.929   0.118
 5261SOL    HW116682   6.103   4.892   0.151
 5261SOL    HW216683   6.029   5.022   0.086
 5262SOL     OW16684   1.912   2.371   1.510
 5262SOL    HW116685   1.876   2.395   1.601
 5262SOL    HW216686   1.930   2.273   1.508
 5263SOL     OW16687   0.904   5.997   3.324
 5263SOL    HW116688   0.838   6.065   3.355
 5263SOL    HW216689   0.986   6.000   3.382
 5264SOL     OW16690   6.635   2.568   2.000
 5264SOL    HW116691   6.730   2.587   1.976
 5264SOL    HW216692   6.605   2.631   2.071
 5265SOL     OW16693   0.118   5.956   6.213
 5265SOL    HW116694   0.164   6.029   6.163
 5265SOL    HW216695   0.066   5.899   6.149
 5266SOL     OW16696   1.587   6.970   6.349
 5266SOL    HW116697   1.651   6.901   6.316
 5266SOL    HW216698   1.562   0.001   6.273
 5267SOL     OW16699   5.992   1.176   4.747
 5267SOL    HW116700   6.071   1.118   4.768
 5267SOL    HW216701   6.005   1.218   4.658
 5268SOL     OW16702   5.540   0.036   5.880
 5268SOL    HW116703   5.458   0.011   5.932
 5268SOL    HW216704   5.528   0.127   5.840
 5269SOL     OW16705   1.404   0.641   4.412
 5269SOL    HW116706   1.443   0.707   4.348
 5269SOL    HW216707   1.328   0.683   4.461
 5270SOL     OW16708   0.766   1.788   6.738
 5270SOL    HW116709   0.840   1.825   6.794
 5270SOL    HW216710   0.786   1.803   6.641
 5271SOL     OW16711   1.394   5.519   5.871
 5271SOL    HW116712   1.340   5.535   5.953
 5271SOL    HW216713   1.478   5.573   5.876
 5272SOL     OW16714   4.257   0.407   6.128
 5272SOL    HW116715   4.275   0.395   6.030
 5272SOL    HW216716   4.254   0.504   6.150
 5273SOL     OW16717   2.279   1.398   3.444
 5273SOL    HW116718   2.221   1.480   3.447
 5273SOL    HW216719   2.227   1.320   3.479
 5274SOL     OW16720   5.431   4.356   1.161
 5274SOL    HW116721   5.522   4.313   1.164
 5274SOL    HW216722   5.431   4.430   1.094
 5275SOL     OW16723   5.580   1.077   6.239
 5275SOL    HW116724   5.671   1.115   6.223
 5275SOL    HW216725   5.571   1.052   6.336
 5276SOL     OW16726   3.623   6.505   1.647
 5276SOL    HW116727   3.625   6.582   1.582
 5276SOL    HW216728   3.596   6.539   1.737
 5277SOL     OW16729   1.989   3.642   1.675
 5277SOL    HW116730   1.967   3.730   1.717
 5277SOL    HW216731   1.929   3.627   1.596
 5278SOL     OW16732   3.631   3.712   2.521
 5278SOL    HW116733   3.670   3.620   2.521
 5278SOL    HW216734   3.699   3.777   2.487
 5279SOL     OW16735   1.585   6.329   2.942
 5279SOL    HW116736   1.580   6.408   3.004
 5279SOL    HW216737   1.602   6.246   2.996
 5280SOL     OW16738   3.767   0.473   4.158
 5280SOL    HW116739   3.761   0.532   4.238
 5280SOL    HW216740   3.755   0.378   4.185
 5281SOL     OW16741   6.517   3.132   3.824
 5281SOL    HW116742   6.418   3.146   3.825
 5281SOL    HW216743   6.548   3.111   3.917
 5282SOL     OW16744   4.753   2.578   1.407
 5282SOL    HW116745   4.822   2.521   1.362
 5282SOL    HW216746   4.798   2.652   1.457
 5283SOL     OW16747   5.109   4.686   5.784
 5283SOL    HW116748   5.065   4.765   5.743
 5283SOL    HW216749   5.046   4.644   5.850
 5284SOL     OW16750   5.180   2.936   4.310
 5284SOL    HW116751   5.194   3.000   4.234
 5284SOL    HW216752   5.124   2.980   4.381
 5285SOL     OW16753   4.320   6.425   2.453
 5285SOL    HW116754   4.333   6.331   2.483
 5285SOL    HW216755   4.281   6.426   2.361
 5286SOL     OW16756   1.905   5.170   2.240
 5286SOL    HW116757   1.954   5.255   2.221
 5286SOL    HW216758   1.880   5.126   2.154
 5287SOL     OW16759   1.106   0.609   2.452
 5287SOL    HW116760   1.167   0.663   2.509
 5287SOL    HW216761   1.081   0.661   2.371
 5288SOL     OW16762   3.738   0.291   1.062
 5288SOL    HW116763   3.721   0.207   1.113
 5288SOL    HW216764   3.762   0.268   0.967
 5289SOL     OW16765   1.893   6.524   1.468
 5289SOL    HW116766   1.935   6.440   1.502
 5289SOL    HW216767   1.878   6.588   1.544
 5290SOL     OW16768   5.731   5.924   6.898
 5290SOL    HW116769   5.715   5.999   6.963
 5290SOL    HW216770   5.755   5.841   6.949
 5291SOL     OW16771   1.000   5.429   0.060
 5291SOL    HW116772   0.987   5.517   0.106
 5291SOL    HW216773   0.931   5.364   0.093
 5292SOL     OW16774   5.593   1.530   1.209
 5292SOL    HW116775   5.602   1.548   1.111
 5292SOL    HW216776   5.567   1.614   1.256
 5293SOL     OW16777   1.758   1.215   4.098
 5293SOL    HW116778   1.669   1.214   4.145
 5293SOL    HW216779   1.831   1.202   4.165
 5294SOL     OW16780   3.318   2.140   6.410
 5294SOL    HW116781   3.276   2.156   6.499
 5294SOL    HW216782   3.254   2.164   6.337
 5295SOL     OW16783   6.748   1.872   3.384
 5295SOL    HW116784   6.771   1.969   3.392
 5295SOL    HW216785   6.649   1.862   3.378
 5296SOL     OW16786   0.074   2.593   6.856
 5296SOL    HW116787   0.153   2.642   6.891
 5296SOL    HW216788   0.055   2.514   6.914
 5297SOL     OW16789   1.112   2.365   1.947
 5297SOL    HW116790   1.148   2.455   1.971
 5297SOL    HW216791   1.086   2.364   1.850
 5298SOL     OW16792   1.190   4.580   1.918
 5298SOL    HW116793   1.221   4.615   2.006
 5298SOL    HW216794   1.263   4.525   1.877
 5299SOL     OW16795   3.978   7.020   0.584
 5299SOL    HW116796   3.929   0.071   0.615
 5299SOL    HW216797   4.070   7.020   0.625
 5300SOL     OW16798   6.475   4.933   3.686
 5300SOL    HW116799   6.420   4.851   3.675
 5300SOL    HW216800   6.568   4.908   3.716
 5301SOL     OW16801   5.896   0.475   6.687
 5301SOL    HW116802   5.879   0.504   6.593
 5301SOL    HW216803   5.883   0.553   6.749
 5302SOL     OW16804   6.779   4.323   3.954
 5302SOL    HW116805   6.750   4.409   3.913
 5302SOL    HW216806   6.711   4.252   3.934
 5303SOL     OW16807   1.905   4.499   3.204
 5303SOL    HW116808   1.959   4.474   3.124
 5303SOL    HW216809   1.818   4.540   3.175
 5304SOL     OW16810   4.416   2.232   5.850
 5304SOL    HW116811   4.451   2.140   5.867
 5304SOL    HW216812   4.318   2.227   5.831
 5305SOL     OW16813   3.486   2.063   4.965
 5305SOL    HW116814   3.391   2.039   4.988
 5305SOL    HW216815   3.535   1.981   4.936
 5306SOL     OW16816   2.794   6.760   3.438
 5306SOL    HW116817   2.766   6.852   3.411
 5306SOL    HW216818   2.715   6.709   3.471
 5307SOL     OW16819   5.314   6.498   6.900
 5307SOL    HW116820   5.393   6.557   6.885
 5307SOL    HW216821   5.233   6.554   6.916
 5308SOL     OW16822   0.027   1.341   1.971
 5308SOL    HW116823   0.026   1.411   1.899
 5308SOL    HW216824   0.007   1.385   2.059
 5309SOL     OW16825   3.951   3.194   4.832
 5309SOL    HW116826   3.967   3.137   4.751
 5309SOL    HW216827   3.991   3.285   4.817
 5310SOL     OW16828   5.189   2.799   6.786
 5310SOL    HW116829   5.197   2.899   6.789
 5310SOL    HW216830   5.164   2.766   6.877
 5311SOL     OW16831   6.716   6.356   0.263
 5311SOL    HW116832   6.692   6.338   0.358
 5311SOL    HW216833   6.691   6.277   0.207
 5312SOL     OW16834   0.241   3.488   1.689
 5312SOL    HW116835   0.275   3.399   1.659
 5312SOL    HW216836   0.296   3.520   1.767
 5313SOL     OW16837   0.033   6.773   6.971
 5313SOL    HW116838   6.996   6.757   6.898
 5313SOL    HW216839   0.103   6.837   6.940
 5314SOL     OW16840   3.764   5.045   1.363
 5314SOL    HW116841   3.720   5.064   1.450
 5314SOL    HW216842   3.703   4.991   1.305
 5315SOL     OW16843   5.510   1.303   2.073
 5315SOL    HW116844   5.550   1.214   2.052
 5315SOL    HW216845   5.554   1.374   2.019
 5316SOL     OW16846   5.233   5.434   4.318
 5316SOL    HW116847   5.296   5.509   4.337
 5316SOL    HW216848   5.273   5.348   4.351
 5317SOL     OW16849   6.509   5.018   1.736
 5317SOL    HW116850   6.495   4.921   1.716
 5317SOL    HW216851   6.461   5.043   1.820
 5318SOL     OW16852   6.643   2.555   3.821
 5318SOL    HW116853   6.650   2.476   3.760
 5318SOL    HW216854   6.619   2.636   3.768
 5319SOL     OW16855   3.093   6.318   2.681
 5319SOL    HW116856   3.088   6.417   2.699
 5319SOL    HW216857   3.057   6.300   2.589
 5320SOL     OW16858   6.502   2.189   0.200
 5320SOL    HW116859   6.584   2.199   0.145
 5320SOL    HW216860   6.431   2.252   0.166
 5321SOL     OW16861   2.908   4.450   7.015
 5321SOL    HW116862   2.846   4.392   0.038
 5321SOL    HW216863   2.881   4.546   7.025
 5322SOL     OW16864   2.415   6.556   0.238
 5322SOL    HW116865   2.425   6.644   0.284
 5322SOL    HW216866   2.403   6.484   0.306
 5323SOL     OW16867   5.904   3.297   0.333
 5323SOL    HW116868   5.808   3.280   0.308
 5323SOL    HW216869   5.923   3.255   0.421
 5324SOL     OW16870   3.910   3.524   1.771
 5324SOL    HW116871   3.853   3.582   1.830
 5324SOL    HW216872   3.997   3.570   1.754
 5325SOL     OW16873   3.325   6.188   5.606
 5325SOL    HW116874   3.358   6.243   5.530
 5325SOL    HW216875   3.402   6.153   5.658
 5326SOL     OW16876   6.362   0.823   3.015
 5326SOL    HW116877   6.415   0.882   2.954
 5326SOL    HW216878   6.337   0.873   3.097
 5327SOL     OW16879   6.190   6.870   4.356
 5327SOL    HW116880   6.241   6.826   4.430
 5327SOL    HW216881   6.208   6.968   4.356
 5328SOL     OW16882   2.962   5.145   6.441
 5328SOL    HW116883   2.906   5.168   6.361
 5328SOL    HW216884   2.908   5.159   6.524
 5329SOL     OW16885   0.208   6.516   6.849
 5329SOL    HW116886   0.235   6.590   6.911
 5329SOL    HW216887   0.143   6.551   6.782
 5330SOL     OW16888   4.579   4.389   0.813
 5330SOL    HW116889   4.605   4.307   0.763
 5330SOL    HW216890   4.481   4.389   0.830
 5331SOL     OW16891   5.701   0.943   6.796
 5331SOL    HW116892   5.608   0.919   6.768
 5331SOL    HW216893   5.739   1.010   6.732
 5332SOL     OW16894   6.275   2.656   6.908
 5332SOL    HW116895   6.291   2.655   7.007
 5332SOL    HW216896   6.363   2.661   6.861
 5333SOL     OW16897   0.780   6.807   4.102
 5333SOL    HW116898   0.768   6.710   4.084
 5333SOL    HW216899   0.780   6.857   4.015
 5334SOL     OW16900   3.366   6.064   1.490
 5334SOL    HW116901   3.428   6.022   1.424
 5334SOL    HW216902   3.384   6.162   1.495
 5335SOL     OW16903   0.307   5.287   1.516
 5335SOL    HW116904   0.327   5.253   1.424
 5335SOL    HW216905   0.213   5.266   1.541
 5336SOL     OW16906   1.337   3.031   5.614
 5336SOL    HW116907   1.311   3.113   5.563
 5336SOL    HW216908   1.408   3.054   5.681
 5337SOL     OW16909   6.631   1.669   0.969
 5337SOL    HW116910   6.599   1.612   0.893
 5337SOL    HW216911   6.581   1.756   0.969
 5338SOL     OW16912   0.190   3.440   1.409
 5338SOL    HW116913   0.123   3.501   1.366
 5338SOL    HW216914   0.230   3.485   1.489
 5339SOL     OW16915   5.066   3.633   3.242
 5339SOL    HW116916   5.120   3.549   3.246
 5339SOL    HW216917   4.969   3.610   3.249
 5340SOL     OW16918   4.914   3.372   0.800
 5340SOL    HW116919   5.002   3.418   0.792
 5340SOL    HW216920   4.841   3.435   0.771
 5341SOL     OW16921   4.797   5.132   3.488
 5341SOL    HW116922   4.863   5.086   3.429
 5341SOL    HW216923   4.716   5.156   3.436
 5342SOL     OW16924   6.069   5.536   5.095
 5342SOL    HW116925   6.062   5.548   5.194
 5342SOL    HW216926   6.063   5.625   5.050
 5343SOL     OW16927   3.454   3.387   6.889
 5343SOL    HW116928   3.411   3.347   6.970
 5343SOL    HW216929   3.393   3.376   6.811
 5344SOL     OW16930   6.378   1.524   0.151
 5344SOL    HW116931   6.290   1.477   0.146
 5344SOL    HW216932   6.450   1.458   0.174
 5345SOL     OW16933   3.670   1.624   0.168
 5345SOL    HW116934   3.754   1.623   0.223
 5345SOL    HW216935   3.663   1.539   0.116
 5346SOL     OW16936   1.975   6.076   3.183
 5346SOL    HW116937   1.946   5.986   3.151
 5346SOL    HW216938   1.949   6.087   3.279
 5347SOL     OW16939   5.897   1.454   5.309
 5347SOL    HW116940   5.894   1.384   5.380
 5347SOL    HW216941   5.905   1.544   5.352
 5348SOL     OW16942   4.927   2.665   5.321
 5348SOL    HW116943   4.845   2.641   5.268
 5348SOL    HW216944   4.900   2.693   5.413
 5349SOL     OW16945   1.045   4.258   0.505
 5349SOL    HW116946   1.108   4.257   0.583
 5349SOL    HW216947   1.062   4.339   0.449
 5350SOL     OW16948   1.125   6.514   6.708
 5350SOL    HW116949   1.200   6.520   6.641
 5350SOL    HW216950   1.039   6.538   6.663
 5351SOL     OW16951   0.554   5.513   3.813
 5351SOL    HW116952   0.567   5.473   3.722
 5351SOL    HW216953   0.628   5.483   3.873
 5352SOL     OW16954   0.218   2.491   5.621
 5352SOL    HW116955   0.159   2.542   5.683
 5352SOL    HW216956   0.309   2.481   5.662
 5353SOL     OW16957   2.680   6.651   3.114
 5353SOL    HW116958   2.682   6.552   3.123
 5353SOL    HW216959   2.763   6.690   3.155
 5354SOL     OW16960   3.190   5.855   1.870
 5354SOL    HW116961   3.168   5.806   1.954
 5354SOL    HW216962   3.160   5.802   1.791
 5355SOL     OW16963   5.531   4.722   5.287
 5355SOL    HW116964   5.491   4.804   5.327
 5355SOL    HW216965   5.628   4.737   5.268
 5356SOL     OW16966   0.531   6.540   1.642
 5356SOL    HW116967   0.628   6.541   1.617
 5356SOL    HW216968   0.521   6.496   1.731
 5357SOL     OW16969   6.527   3.273   2.677
 5357SOL    HW116970   6.518   3.206   2.603
 5357SOL    HW216971   6.471   3.245   2.755
 5358SOL     OW16972   6.120   0.716   6.502
 5358SOL    HW116973   6.106   0.617   6.506
 5358SOL    HW216974   6.194   0.742   6.564
 5359SOL     OW16975   3.080   2.350   6.964
 5359SOL    HW116976   3.066   2.429   7.024
 5359SOL    HW216977   3.135   2.378   6.885
 5360SOL     OW16978   5.718   4.781   2.798
 5360SOL    HW116979   5.728   4.685   2.772
 5360SOL    HW216980   5.729   4.789   2.897
 5361SOL     OW16981   1.604   3.716   2.701
 5361SOL    HW116982   1.529   3.706   2.636
 5361SOL    HW216983   1.687   3.743   2.653
 5362SOL     OW16984   5.869   1.757   3.687
 5362SOL    HW116985   5.825   1.843   3.711
 5362SOL    HW216986   5.896   1.759   3.590
 5363SOL     OW16987   6.204   5.096   4.954
 5363SOL    HW116988   6.257   5.179   4.967
 5363SOL    HW216989   6.265   5.018   4.944
 5364SOL     OW16990   4.496   2.432   1.859
 5364SOL    HW116991   4.401   2.402   1.848
 5364SOL    HW216992   4.526   2.477   1.775
 5365SOL     OW16993   3.598   3.072   6.231
 5365SOL    HW116994   3.586   3.047   6.328
 5365SOL    HW216995   3.646   2.998   6.183
 5366SOL     OW16996   0.650   4.301   3.521
 5366SOL    HW116997   0.565   4.351   3.536
 5366SOL    HW216998   0.727   4.358   3.549
 5367SOL     OW16999   6.585   6.106   1.407
 5367SOL    HW117000   6.534   6.021   1.421
 5367SOL    HW217001   6.577   6.164   1.488
 5368SOL     OW17002   6.768   6.066   5.345
 5368SOL    HW117003   6.792   6.087   5.250
 5368SOL    HW217004   6.668   6.069   5.355
 5369SOL     OW17005   3.846   0.014   2.950
 5369SOL    HW117006   3.778   0.080   2.918
 5369SOL    HW217007   3.925   0.063   2.987
 5370SOL     OW17008   2.492   2.744   0.751
 5370SOL    HW117009   2.565   2.793   0.702
 5370SOL    HW217010   2.434   2.696   0.685
 5371SOL     OW17011   5.992   5.126   3.475
 5371SOL    HW117012   6.083   5.157   3.448
 5371SOL    HW217013   5.996   5.089   3.568
 5372SOL     OW17014   0.607   0.059   4.032
 5372SOL    HW117015   0.698   0.100   4.042
 5372SOL    HW217016   0.566   0.092   3.947
 5373SOL     OW17017   3.926   6.870   0.378
 5373SOL    HW117018   3.993   6.908   0.313
 5373SOL    HW217019   3.939   6.913   0.468
 5374SOL     OW17020   1.291   3.901   1.206
 5374SOL    HW117021   1.223   3.894   1.280
 5374SOL    HW217022   1.296   3.815   1.156
 5375SOL     OW17023   3.084   4.795   5.139
 5375SOL    HW117024   3.127   4.739   5.210
 5375SOL    HW217025   2.997   4.755   5.112
 5376SOL     OW17026   0.284   6.952   1.928
 5376SOL    HW117027   0.272   6.874   1.866
 5376SOL    HW217028   0.369   6.999   1.906
 5377SOL     OW17029   0.872   2.404   2.102
 5377SOL    HW117030   0.968   2.390   2.077
 5377SOL    HW217031   0.849   2.501   2.092
 5378SOL     OW17032   5.434   6.688   3.343
 5378SOL    HW117033   5.412   6.688   3.246
 5378SOL    HW217034   5.514   6.745   3.359
 5379SOL     OW17035   3.041   2.188   4.405
 5379SOL    HW117036   3.023   2.285   4.391
 5379SOL    HW217037   3.028   2.164   4.501
 5380SOL     OW17038   4.648   6.549   1.720
 5380SOL    HW117039   4.551   6.560   1.741
 5380SOL    HW217040   4.659   6.500   1.634
 5381SOL     OW17041   3.293   2.012   2.498
 5381SOL    HW117042   3.297   1.912   2.490
 5381SOL    HW217043   3.226   2.047   2.432
 5382SOL     OW17044   4.968   0.939   2.436
 5382SOL    HW117045   4.920   1.014   2.391
 5382SOL    HW217046   4.913   0.906   2.513
 5383SOL     OW17047   2.386   4.194   5.422
 5383SOL    HW117048   2.381   4.149   5.333
 5383SOL    HW217049   2.479   4.229   5.437
 5384SOL     OW17050   5.200   6.552   6.216
 5384SOL    HW117051   5.126   6.531   6.152
 5384SOL    HW217052   5.211   6.476   6.280
 5385SOL     OW17053   3.780   4.095   0.635
 5385SOL    HW117054   3.835   4.021   0.672
 5385SOL    HW217055   3.707   4.057   0.578
 5386SOL     OW17056   4.401   4.604   3.474
 5386SOL    HW117057   4.493   4.565   3.482
 5386SOL    HW217058   4.372   4.640   3.563
 5387SOL     OW17059   0.992   2.428   4.522
 5387SOL    HW117060   1.054   2.378   4.584
 5387SOL    HW217061   0.899   2.393   4.534
 5388SOL     OW17062   6.627   6.260   3.459
 5388SOL    HW117063   6.537   6.270   3.417
 5388SOL    HW217064   6.618   6.264   3.559
 5389SOL     OW17065   5.688   1.470   4.865
 5389SOL    HW117066   5.714   1.414   4.786
 5389SOL    HW217067   5.728   1.432   4.948
 5390SOL     OW17068   5.802   3.146   3.252
 5390SOL    HW117069   5.808   3.246   3.252
 5390SOL    HW217070   5.768   3.115   3.341
 5391SOL     OW17071   4.403   2.989   0.571
 5391SOL    HW117072   4.452   3.054   0.512
 5391SOL    HW217073   4.320   2.959   0.525
 5392SOL     OW17074   5.312   0.798   4.113
 5392SOL    HW117075   5.401   0.761   4.085
 5392SOL    HW217076   5.291   0.880   4.060
 5393SOL     OW17077   4.832   2.629   3.110
 5393SOL    HW117078   4.751   2.608   3.165
 5393SOL    HW217079   4.898   2.555   3.118
 5394SOL     OW17080   0.147   3.003   2.887
 5394SOL    HW117081   0.230   3.059   2.882
 5394SOL    HW217082   0.172   2.908   2.902
 5395SOL     OW17083   7.009   0.483   1.945
 5395SOL    HW117084   0.037   0.560   1.919
 5395SOL    HW217085   6.936   0.471   1.878
 5396SOL     OW17086   4.143   2.441   0.051
 5396SOL    HW117087   4.105   2.348   0.054
 5396SOL    HW217088   4.075   2.506   0.085
 5397SOL     OW17089   0.826   6.734   2.462
 5397SOL    HW117090   0.811   6.823   2.505
 5397SOL    HW217091   0.754   6.670   2.491
 5398SOL     OW17092   6.132   2.645   3.119
 5398SOL    HW117093   6.069   2.580   3.162
 5398SOL    HW217094   6.142   2.726   3.177
 5399SOL     OW17095   2.499   3.217   0.071
 5399SOL    HW117096   2.496   3.201   7.002
 5399SOL    HW217097   2.587   3.259   0.095
 5400SOL     OW17098   5.480   2.890   0.547
 5400SOL    HW117099   5.455   2.827   0.620
 5400SOL    HW217100   5.414   2.966   0.544
 5401SOL     OW17101   5.271   4.053   0.886
 5401SOL    HW117102   5.199   4.010   0.941
 5401SOL    HW217103   5.237   4.139   0.847
 5402SOL     OW17104   1.805   6.097   1.760
 5402SOL    HW117105   1.763   6.038   1.828
 5402SOL    HW217106   1.844   6.042   1.686
 5403SOL     OW17107   6.090   2.401   5.373
 5403SOL    HW117108   6.025   2.449   5.433
 5403SOL    HW217109   6.066   2.418   5.278
 5404SOL     OW17110   4.748   6.437   0.666
 5404SOL    HW117111   4.780   6.354   0.711
 5404SOL    HW217112   4.664   6.469   0.709
 5405SOL     OW17113   6.653   4.833   6.039
 5405SOL    HW117114   6.678   4.925   6.071
 5405SOL    HW217115   6.563   4.837   5.994
 5406SOL     OW17116   2.175   1.008   5.101
 5406SOL    HW117117   2.261   0.956   5.102
 5406SOL    HW217118   2.111   0.966   5.165
 5407SOL     OW17119   2.010   1.547   2.878
 5407SOL    HW117120   2.047   1.574   2.967
 5407SOL    HW217121   1.958   1.623   2.839
 5408SOL     OW17122   1.881   2.332   4.475
 5408SOL    HW117123   1.936   2.295   4.550
 5408SOL    HW217124   1.797   2.371   4.511
 5409SOL     OW17125   0.010   4.628   3.348
 5409SOL    HW117126   7.014   4.538   3.313
 5409SOL    HW217127   6.961   4.670   3.394
 5410SOL     OW17128   5.601   2.165   0.430
 5410SOL    HW117129   5.697   2.159   0.458
 5410SOL    HW217130   5.563   2.253   0.458
 5411SOL     OW17131   3.065   5.726   1.638
 5411SOL    HW117132   3.116   5.650   1.598
 5411SOL    HW217133   3.003   5.763   1.569
 5412SOL     OW17134   1.718   1.622   6.230
 5412SOL    HW117135   1.692   1.586   6.141
 5412SOL    HW217136   1.763   1.711   6.218
 5413SOL     OW17137   7.006   5.800   5.759
 5413SOL    HW117138   6.960   5.855   5.690
 5413SOL    HW217139   0.039   5.736   5.716
 5414SOL     OW17140   5.768   6.139   6.291
 5414SOL    HW117141   5.754   6.187   6.205
 5414SOL    HW217142   5.860   6.159   6.326
 5415SOL     OW17143   2.194   1.169   0.146
 5415SOL    HW117144   2.114   1.192   0.091
 5415SOL    HW217145   2.165   1.124   0.230
 5416SOL     OW17146   3.821   5.549   6.453
 5416SOL    HW117147   3.919   5.532   6.462
 5416SOL    HW217148   3.781   5.559   6.544
 5417SOL     OW17149   5.511   0.001   2.028
 5417SOL    HW117150   5.537   0.025   2.121
 5417SOL    HW217151   5.539   6.936   2.008
 5418SOL     OW17152   0.728   3.179   5.147
 5418SOL    HW117153   0.740   3.169   5.048
 5418SOL    HW217154   0.630   3.176   5.169
 5419SOL     OW17155   3.548   2.280   6.379
 5419SOL    HW117156   3.452   2.255   6.393
 5419SOL    HW217157   3.566   2.369   6.422
 5420SOL     OW17158   2.388   1.584   0.966
 5420SOL    HW117159   2.451   1.640   0.912
 5420SOL    HW217160   2.433   1.557   1.051
 5421SOL     OW17161   4.350   5.224   1.435
 5421SOL    HW117162   4.288   5.157   1.476
 5421SOL    HW217163   4.321   5.316   1.460
 5422SOL     OW17164   2.332   6.733   2.737
 5422SOL    HW117165   2.326   6.658   2.803
 5422SOL    HW217166   2.415   6.723   2.683
 5423SOL     OW17167   4.415   6.810   2.297
 5423SOL    HW117168   4.460   6.732   2.340
 5423SOL    HW217169   4.427   6.804   2.197
 5424SOL     OW17170   3.459   3.344   5.010
 5424SOL    HW117171   3.498   3.255   5.035
 5424SOL    HW217172   3.364   3.348   5.039
 5425SOL     OW17173   0.835   5.229   5.381
 5425SOL    HW117174   0.851   5.130   5.378
 5425SOL    HW217175   0.805   5.254   5.473
 5426SOL     OW17176   1.242   4.463   0.224
 5426SOL    HW117177   1.194   4.416   0.150
 5426SOL    HW217178   1.239   4.562   0.210
 5427SOL     OW17179   4.908   2.236   0.681
 5427SOL    HW117180   4.970   2.311   0.704
 5427SOL    HW217181   4.873   2.195   0.765
 5428SOL     OW17182   4.577   5.696   2.768
 5428SOL    HW117183   4.607   5.661   2.856
 5428SOL    HW217184   4.594   5.795   2.764
 5429SOL     OW17185   2.574   6.545   3.464
 5429SOL    HW117186   2.547   6.497   3.547
 5429SOL    HW217187   2.521   6.628   3.454
 5430SOL     OW17188   1.147   4.534   5.430
 5430SOL    HW117189   1.077   4.604   5.441
 5430SOL    HW217190   1.141   4.495   5.338
 5431SOL     OW17191   5.253   4.358   1.371
 5431SOL    HW117192   5.159   4.364   1.336
 5431SOL    HW217193   5.317   4.350   1.295
 5432SOL     OW17194   0.882   5.268   5.916
 5432SOL    HW117195   0.980   5.279   5.931
 5432SOL    HW217196   0.850   5.337   5.851
 5433SOL     OW17197   2.686   0.467   1.478
 5433SOL    HW117198   2.727   0.382   1.445
 5433SOL    HW217199   2.734   0.545   1.438
 5434SOL     OW17200   4.984   5.655   4.286
 5434SOL    HW117201   4.890   5.624   4.274
 5434SOL    HW217202   5.043   5.576   4.303
 5435SOL     OW17203   6.792   3.465   6.978
 5435SOL    HW117204   6.696   3.459   7.004
 5435SOL    HW217205   6.837   3.537   0.002
 5436SOL     OW17206   1.126   4.687   1.023
 5436SOL    HW117207   1.212   4.729   0.995
 5436SOL    HW217208   1.101   4.616   0.957
 5437SOL     OW17209   3.743   6.553   6.322
 5437SOL    HW117210   3.692   6.605   6.253
 5437SOL    HW217211   3.831   6.597   6.338
 5438SOL     OW17212   5.206   6.446   2.574
 5438SOL    HW117213   5.223   6.358   2.619
 5438SOL    HW217214   5.260   6.451   2.490
 5439SOL     OW17215   1.313   3.732   1.452
 5439SOL    HW117216   1.299   3.821   1.496
 5439SOL    HW217217   1.226   3.696   1.419
 5440SOL     OW17218   6.188   6.703   4.001
 5440SOL    HW117219   6.174   6.782   4.061
 5440SOL    HW217220   6.187   6.620   4.057
 5441SOL     OW17221   5.548   0.682   5.024
 5441SOL    HW117222   5.500   0.687   4.936
 5441SOL    HW217223   5.506   0.611   5.081
 5442SOL     OW17224   2.911   0.307   6.839
 5442SOL    HW117225   2.858   0.228   6.809
 5442SOL    HW217226   3.007   0.280   6.851
 5443SOL     OW17227   5.530   1.122   3.559
 5443SOL    HW117228   5.511   1.027   3.535
 5443SOL    HW217229   5.504   1.181   3.483
 5444SOL     OW17230   1.322   1.300   6.383
 5444SOL    HW117231   1.416   1.298   6.416
 5444SOL    HW217232   1.260   1.308   6.461
 5445SOL     OW17233   5.869   6.624   4.782
 5445SOL    HW117234   5.917   6.698   4.829
 5445SOL    HW217235   5.783   6.658   4.744
 5446SOL     OW17236   2.398   4.732   6.267
 5446SOL    HW117237   2.411   4.805   6.200
 5446SOL    HW217238   2.428   4.763   6.357
 5447SOL     OW17239   6.498   2.219   1.334
 5447SOL    HW117240   6.545   2.269   1.407
 5447SOL    HW217241   6.441   2.148   1.374
 5448SOL     OW17242   6.287   4.867   1.524
 5448SOL    HW117243   6.293   4.950   1.469
 5448SOL    HW217244   6.356   4.801   1.492
 5449SOL     OW17245   2.172   0.189   2.384
 5449SOL    HW117246   2.165   0.129   2.464
 5449SOL    HW217247   2.268   0.201   2.360
 5450SOL     OW17248   4.695   5.532   1.997
 5450SOL    HW117249   4.729   5.469   1.927
 5450SOL    HW217250   4.721   5.626   1.973
 5451SOL     OW17251   0.646   5.932   3.931
 5451SOL    HW117252   0.702   5.980   3.998
 5451SOL    HW217253   0.693   5.849   3.901
 5452SOL     OW17254   2.191   3.992   2.887
 5452SOL    HW117255   2.105   4.022   2.846
 5452SOL    HW217256   2.196   3.892   2.884
 5453SOL     OW17257   5.733   4.767   4.072
 5453SOL    HW117258   5.755   4.800   3.981
 5453SOL    HW217259   5.816   4.764   4.128
 5454SOL     OW17260   6.092   3.544   1.929
 5454SOL    HW117261   6.105   3.454   1.888
 5454SOL    HW217262   6.034   3.537   2.010
 5455SOL     OW17263   2.451   2.323   3.385
 5455SOL    HW117264   2.536   2.287   3.347
 5455SOL    HW217265   2.460   2.332   3.484
 5456SOL     OW17266   4.997   3.007   0.468
 5456SOL    HW117267   4.955   3.082   0.417
 5456SOL    HW217268   4.926   2.943   0.498
 5457SOL     OW17269   6.603   1.373   0.342
 5457SOL    HW117270   6.575   1.320   0.422
 5457SOL    HW217271   6.594   1.316   0.260
 5458SOL     OW17272   6.118   5.035   5.787
 5458SOL    HW117273   6.163   4.950   5.760
 5458SOL    HW217274   6.085   5.027   5.881
 5459SOL     OW17275   2.329   3.848   5.354
 5459SOL    HW117276   2.350   3.914   5.282
 5459SOL    HW217277   2.327   3.894   5.442
 5460SOL     OW17278   0.119   0.682   1.834
 5460SOL    HW117279   0.163   0.732   1.908
 5460SOL    HW217280   0.189   0.642   1.774
 5461SOL     OW17281   5.633   1.138   6.534
 5461SOL    HW117282   5.714   1.194   6.520
 5461SOL    HW217283   5.656   1.042   6.524
 5462SOL     OW17284   4.912   5.278   6.377
 5462SOL    HW117285   4.991   5.258   6.321
 5462SOL    HW217286   4.878   5.369   6.356
 5463SOL     OW17287   2.201   5.409   6.914
 5463SOL    HW117288   2.167   5.381   7.004
 5463SOL    HW217289   2.300   5.400   6.911
 5464SOL     OW17290   1.769   5.678   4.112
 5464SOL    HW117291   1.709   5.709   4.037
 5464SOL    HW217292   1.723   5.606   4.163
 5465SOL     OW17293   0.818   0.973   4.940
 5465SOL    HW117294   0.911   0.988   4.908
 5465SOL    HW217295   0.754   1.018   4.877
 5466SOL     OW17296   5.000   2.544   4.833
 5466SOL    HW117297   4.979   2.535   4.931
 5466SOL    HW217298   4.982   2.457   4.787
 5467SOL     OW17299   5.699   3.815   3.744
 5467SOL    HW117300   5.733   3.834   3.836
 5467SOL    HW217301   5.605   3.848   3.736
 5468SOL     OW17302   0.478   2.969   1.641
 5468SOL    HW117303   0.525   3.001   1.724
 5468SOL    HW217304   0.536   2.904   1.593
 5469SOL     OW17305   4.453   1.502   3.604
 5469SOL    HW117306   4.464   1.594   3.568
 5469SOL    HW217307   4.359   1.471   3.588
 5470SOL     OW17308   2.861   4.834   4.082
 5470SOL    HW117309   2.870   4.915   4.025
 5470SOL    HW217310   2.926   4.764   4.052
 5471SOL     OW17311   5.516   0.540   3.739
 5471SOL    HW117312   5.498   0.442   3.732
 5471SOL    HW217313   5.554   0.560   3.829
 5472SOL     OW17314   2.582   3.869   6.882
 5472SOL    HW117315   2.647   3.861   6.958
 5472SOL    HW217316   2.630   3.906   6.802
 5473SOL     OW17317   2.679   4.701   2.154
 5473SOL    HW117318   2.738   4.761   2.207
 5473SOL    HW217319   2.736   4.635   2.103
 5474SOL     OW17320   1.177   4.950   1.667
 5474SOL    HW117321   1.135   5.040   1.655
 5474SOL    HW217322   1.108   4.885   1.698
 5475SOL     OW17323   0.542   0.615   5.163
 5475SOL    HW117324   0.547   0.547   5.236
 5475SOL    HW217325   0.483   0.581   5.090
 5476SOL     OW17326   2.427   0.919   5.104
 5476SOL    HW117327   2.456   0.837   5.055
 5476SOL    HW217328   2.498   0.989   5.097
 5477SOL     OW17329   2.103   3.886   3.361
 5477SOL    HW117330   2.004   3.895   3.361
 5477SOL    HW217331   2.142   3.952   3.297
 5478SOL     OW17332   6.492   3.573   5.370
 5478SOL    HW117333   6.448   3.578   5.460
 5478SOL    HW217334   6.438   3.625   5.304
 5479SOL     OW17335   5.046   3.606   4.100
 5479SOL    HW117336   5.086   3.534   4.043
 5479SOL    HW217337   4.996   3.563   4.176
 5480SOL     OW17338   1.669   3.131   5.168
 5480SOL    HW117339   1.616   3.213   5.144
 5480SOL    HW217340   1.610   3.067   5.217
 5481SOL     OW17341   4.538   1.344   0.271
 5481SOL    HW117342   4.521   1.438   0.242
 5481SOL    HW217343   4.453   1.304   0.307
 5482SOL     OW17344   5.182   4.335   2.279
 5482SOL    HW117345   5.242   4.387   2.218
 5482SOL    HW217346   5.112   4.289   2.224
 5483SOL     OW17347   5.849   2.135   0.517
 5483SOL    HW117348   5.900   2.172   0.595
 5483SOL    HW217349   5.911   2.127   0.438
 5484SOL     OW17350   6.221   0.593   5.443
 5484SOL    HW117351   6.226   0.502   5.403
 5484SOL    HW217352   6.127   0.628   5.437
 5485SOL     OW17353   2.961   0.985   3.971
 5485SOL    HW117354   2.872   0.953   3.942
 5485SOL    HW217355   3.006   1.033   3.895
 5486SOL     OW17356   0.350   6.995   3.745
 5486SOL    HW117357   0.410   0.038   3.779
 5486SOL    HW217358   0.278   0.006   3.688
 5487SOL     OW17359   4.733   5.330   0.821
 5487SOL    HW117360   4.645   5.288   0.840
 5487SOL    HW217361   4.773   5.365   0.905
 5488SOL     OW17362   5.069   1.022   6.150
 5488SOL    HW117363   5.125   0.997   6.228
 5488SOL    HW217364   4.975   1.042   6.181
 5489SOL     OW17365   6.879   3.931   2.518
 5489SOL    HW117366   6.803   3.992   2.494
 5489SOL    HW217367   6.864   3.841   2.478
 5490SOL     OW17368   3.184   1.573   6.453
 5490SOL    HW117369   3.232   1.655   6.485
 5490SOL    HW217370   3.087   1.580   6.476
 5491SOL     OW17371   6.949   5.693   2.734
 5491SOL    HW117372   6.888   5.765   2.701
 5491SOL    HW217373   6.962   5.624   2.662
 5492SOL     OW17374   1.079   1.016   4.823
 5492SOL    HW117375   1.168   1.051   4.794
 5492SOL    HW217376   1.013   1.027   4.749
 5493SOL     OW17377   3.918   1.645   0.579
 5493SOL    HW117378   3.896   1.734   0.537
 5493SOL    HW217379   3.965   1.660   0.665
 5494SOL     OW17380   5.097   3.134   2.446
 5494SOL    HW117381   5.181   3.086   2.424
 5494SOL    HW217382   5.036   3.134   2.367
 5495SOL     OW17383   3.483   2.928   3.797
 5495SOL    HW117384   3.460   2.898   3.889
 5495SOL    HW217385   3.491   3.027   3.794
 5496SOL     OW17386   4.855   5.741   1.883
 5496SOL    HW117387   4.879   5.658   1.832
 5496SOL    HW217388   4.929   5.808   1.875
 5497SOL     OW17389   5.422   0.424   0.038
 5497SOL    HW117390   5.452   0.342   7.020
 5497SOL    HW217391   5.496   0.491   0.042
 5498SOL     OW17392   4.190   1.888   4.149
 5498SOL    HW117393   4.215   1.892   4.246
 5498SOL    HW217394   4.235   1.809   4.107
 5499SOL     OW17395   0.090   0.558   5.247
 5499SOL    HW117396   0.124   0.468   5.274
 5499SOL    HW217397   0.144   0.591   5.169
 5500SOL     OW17398   2.244   6.542   0.787
 5500SOL    HW117399   2.158   6.497   0.762
 5500SOL    HW217400   2.277   6.595   0.709
 5501SOL     OW17401   2.838   0.338   2.359
 5501SOL    HW117402   2.873   0.250   2.326
 5501SOL    HW217403   2.745   0.326   2.393
 5502SOL     OW17404   4.723   3.534   0.648
 5502SOL    HW117405   4.647   3.479   0.683
 5502SOL    HW217406   4.730   3.523   0.549
 5503SOL     OW17407   6.816   0.188   3.694
 5503SOL    HW117408   6.830   0.282   3.726
 5503SOL    HW217409   6.857   0.124   3.759
 5504SOL     OW17410   3.019   2.185   4.697
 5504SOL    HW117411   3.038   2.221   4.789
 5504SOL    HW217412   2.996   2.088   4.703
 5505SOL     OW17413   3.290   4.958   0.897
 5505SOL    HW117414   3.319   4.954   0.801
 5505SOL    HW217415   3.190   4.952   0.901
 5506SOL     OW17416   0.518   6.852   6.062
 5506SOL    HW117417   0.591   6.807   6.113
 5506SOL    HW217418   0.444   6.878   6.125
 5507SOL     OW17419   3.052   5.069   5.229
 5507SOL    HW117420   2.962   5.089   5.267
 5507SOL    HW217421   3.061   4.970   5.217
 5508SOL     OW17422   1.510   0.806   5.169
 5508SOL    HW117423   1.540   0.751   5.247
 5508SOL    HW217424   1.411   0.818   5.172
 5509SOL     OW17425   6.350   0.119   6.233
 5509SOL    HW117426   6.374   0.088   6.141
 5509SOL    HW217427   6.252   0.108   6.248
 5510SOL     OW17428   6.707   0.195   6.191
 5510SOL    HW117429   6.642   0.157   6.256
 5510SOL    HW217430   6.675   0.285   6.161
 5511SOL     OW17431   0.378   2.664   1.417
 5511SOL    HW117432   0.322   2.584   1.395
 5511SOL    HW217433   0.346   2.743   1.366
 5512SOL     OW17434   6.091   0.653   0.457
 5512SOL    HW117435   6.149   0.723   0.414
 5512SOL    HW217436   6.065   0.585   0.389
 5513SOL     OW17437   2.969   5.908   4.842
 5513SOL    HW117438   2.996   5.822   4.885
 5513SOL    HW217439   3.039   5.936   4.776
 5514SOL     OW17440   6.422   5.936   3.591
 5514SOL    HW117441   6.412   6.036   3.595
 5514SOL    HW217442   6.350   5.894   3.646
 5515SOL     OW17443   7.019   4.008   3.231
 5515SOL    HW117444   7.017   4.068   3.311
 5515SOL    HW217445   6.939   3.948   3.233
 5516SOL     OW17446   1.055   2.236   0.166
 5516SOL    HW117447   1.015   2.232   0.075
 5516SOL    HW217448   1.050   2.330   0.200
 5517SOL     OW17449   2.751   0.920   2.421
 5517SOL    HW117450   2.798   0.859   2.358
 5517SOL    HW217451   2.817   0.963   2.482
 5518SOL     OW17452   5.517   4.158   5.437
 5518SOL    HW117453   5.494   4.218   5.360
 5518SOL    HW217454   5.504   4.062   5.409
 5519SOL     OW17455   5.562   4.353   2.313
 5519SOL    HW117456   5.645   4.403   2.289
 5519SOL    HW217457   5.535   4.294   2.237
 5520SOL     OW17458   1.730   2.493   1.166
 5520SOL    HW117459   1.685   2.461   1.249
 5520SOL    HW217460   1.666   2.548   1.112
 5521SOL     OW17461   5.148   5.415   6.540
 5521SOL    HW117462   5.235   5.419   6.491
 5521SOL    HW217463   5.076   5.386   6.478
 5522SOL     OW17464   1.930   2.436   2.231
 5522SOL    HW117465   1.954   2.483   2.146
 5522SOL    HW217466   1.839   2.395   2.222
 5523SOL     OW17467   3.207   6.602   1.442
 5523SOL    HW117468   3.251   6.617   1.530
 5523SOL    HW217469   3.203   6.689   1.392
 5524SOL     OW17470   6.283   6.491   5.797
 5524SOL    HW117471   6.328   6.561   5.853
 5524SOL    HW217472   6.310   6.502   5.701
 5525SOL     OW17473   6.598   5.822   3.152
 5525SOL    HW117474   6.637   5.912   3.172
 5525SOL    HW217475   6.582   5.772   3.237
 5526SOL     OW17476   5.174   2.900   4.750
 5526SOL    HW117477   5.161   2.801   4.743
 5526SOL    HW217478   5.106   2.938   4.813
 5527SOL     OW17479   2.078   3.276   0.055
 5527SOL    HW117480   2.051   3.296   0.149
 5527SOL    HW217481   2.050   3.351   7.025
 5528SOL     OW17482   6.553   2.677   2.312
 5528SOL    HW117483   6.514   2.762   2.347
 5528SOL    HW217484   6.479   2.613   2.290
 5529SOL     OW17485   0.903   0.902   3.682
 5529SOL    HW117486   0.874   0.822   3.631
 5529SOL    HW217487   1.003   0.906   3.686
 5530SOL     OW17488   6.761   3.077   0.065
 5530SOL    HW117489   6.698   3.045   0.136
 5530SOL    HW217490   6.716   3.073   7.006
 5531SOL     OW17491   1.836   2.955   0.027
 5531SOL    HW117492   1.784   2.876   7.024
 5531SOL    HW217493   1.930   2.928   0.047
 5532SOL     OW17494   2.451   2.623   1.251
 5532SOL    HW117495   2.392   2.545   1.230
 5532SOL    HW217496   2.501   2.651   1.169
 5533SOL     OW17497   4.065   0.480   1.189
 5533SOL    HW117498   3.974   0.512   1.217
 5533SOL    HW217499   4.101   0.540   1.118
 5534SOL     OW17500   0.586   3.871   5.188
 5534SOL    HW117501   0.490   3.848   5.204
 5534SOL    HW217502   0.627   3.802   5.129
 5535SOL     OW17503   5.441   4.108   3.397
 5535SOL    HW117504   5.458   4.186   3.338
 5535SOL    HW217505   5.353   4.120   3.444
 5536SOL     OW17506   2.579   0.757   4.091
 5536SOL    HW117507   2.556   0.680   4.032
 5536SOL    HW217508   2.601   0.837   4.034
 5537SOL     OW17509   3.732   0.901   4.452
 5537SOL    HW117510   3.830   0.920   4.443
 5537SOL    HW217511   3.705   0.912   4.548
 5538SOL     OW17512   5.524   2.169   2.300
 5538SOL    HW117513   5.505   2.178   2.398
 5538SOL    HW217514   5.438   2.177   2.249
 5539SOL     OW17515   2.337   0.104   6.680
 5539SOL    HW117516   2.313   0.019   6.728
 5539SOL    HW217517   2.303   0.101   6.586
 5540SOL     OW17518   5.323   6.803   5.205
 5540SOL    HW117519   5.392   6.849   5.149
 5540SOL    HW217520   5.255   6.761   5.146
 5541SOL     OW17521   4.699   2.467   6.919
 5541SOL    HW117522   4.799   2.471   6.928
 5541SOL    HW217523   4.662   2.402   6.985
 5542SOL     OW17524   4.817   4.469   6.602
 5542SOL    HW117525   4.792   4.452   6.698
 5542SOL    HW217526   4.913   4.496   6.597
 5543SOL     OW17527   0.845   0.251   6.645
 5543SOL    HW117528   0.941   0.274   6.630
 5543SOL    HW217529   0.833   0.152   6.639
 5544SOL     OW17530   3.842   5.077   0.447
 5544SOL    HW117531   3.896   5.084   0.531
 5544SOL    HW217532   3.880   5.139   0.378
 5545SOL     OW17533   5.765   1.591   2.640
 5545SOL    HW117534   5.763   1.689   2.619
 5545SOL    HW217535   5.673   1.554   2.634
 5546SOL     OW17536   0.374   5.556   4.420
 5546SOL    HW117537   0.327   5.547   4.332
 5546SOL    HW217538   0.401   5.465   4.452
 5547SOL     OW17539   5.226   1.538   5.172
 5547SOL    HW117540   5.214   1.591   5.088
 5547SOL    HW217541   5.139   1.532   5.220
 5548SOL     OW17542   0.156   3.792   5.006
 5548SOL    HW117543   0.245   3.837   4.994
 5548SOL    HW217544   0.126   3.754   4.918
 5549SOL     OW17545   3.366   2.885   0.542
 5549SOL    HW117546   3.328   2.926   0.626
 5549SOL    HW217547   3.461   2.858   0.559
 5550SOL     OW17548   2.398   4.103   1.592
 5550SOL    HW117549   2.419   4.052   1.508
 5550SOL    HW217550   2.447   4.191   1.589
 5551SOL     OW17551   1.359   4.737   2.792
 5551SOL    HW117552   1.453   4.728   2.824
 5551SOL    HW217553   1.357   4.725   2.693
 5552SOL     OW17554   1.011   0.176   0.175
 5552SOL    HW117555   1.110   0.158   0.170
 5552SOL    HW217556   0.973   0.128   0.254
 5553SOL     OW17557   5.031   6.961   0.109
 5553SOL    HW117558   5.069   6.976   0.200
 5553SOL    HW217559   5.089   6.898   0.058
 5554SOL     OW17560   6.618   2.602   1.241
 5554SOL    HW117561   6.696   2.656   1.208
 5554SOL    HW217562   6.649   2.539   1.312
 5555SOL     OW17563   1.171   5.138   2.201
 5555SOL    HW117564   1.161   5.227   2.156
 5555SOL    HW217565   1.164   5.065   2.133
 5556SOL     OW17566   0.205   1.105   4.778
 5556SOL    HW117567   0.276   1.075   4.714
 5556SOL    HW217568   0.209   1.205   4.787
 5557SOL     OW17569   3.846   6.022   2.683
 5557SOL    HW117570   3.851   5.922   2.676
 5557SOL    HW217571   3.925   6.063   2.638
 5558SOL     OW17572   4.698   3.658   6.556
 5558SOL    HW117573   4.703   3.756   6.537
 5558SOL    HW217574   4.613   3.621   6.518
 5559SOL     OW17575   3.535   0.768   2.514
 5559SOL    HW117576   3.627   0.797   2.491
 5559SOL    HW217577   3.537   0.673   2.547
 5560SOL     OW17578   0.094   5.585   3.693
 5560SOL    HW117579   0.028   5.615   3.762
 5560SOL    HW217580   0.177   5.640   3.701
 5561SOL     OW17581   3.592   0.364   3.546
 5561SOL    HW117582   3.599   0.348   3.644
 5561SOL    HW217583   3.513   0.422   3.527
 5562SOL     OW17584   3.957   3.153   0.513
 5562SOL    HW117585   4.026   3.208   0.466
 5562SOL    HW217586   3.992   3.125   0.602
 5563SOL     OW17587   2.489   4.827   2.347
 5563SOL    HW117588   2.415   4.759   2.344
 5563SOL    HW217589   2.513   4.853   2.253
 5564SOL     OW17590   4.938   0.095   6.360
 5564SOL    HW117591   4.886   0.152   6.424
 5564SOL    HW217592   4.875   0.055   6.293
 5565SOL     OW17593   3.849   1.360   5.766
 5565SOL    HW117594   3.833   1.279   5.822
 5565SOL    HW217595   3.875   1.331   5.674
 5566SOL     OW17596   1.374   5.261   5.771
 5566SOL    HW117597   1.399   5.355   5.794
 5566SOL    HW217598   1.347   5.256   5.675
 5567SOL     OW17599   0.233   4.997   0.251
 5567SOL    HW117600   0.211   4.908   0.292
 5567SOL    HW217601   0.257   5.062   0.323
 5568SOL     OW17602   4.800   4.706   1.507
 5568SOL    HW117603   4.722   4.689   1.446
 5568SOL    HW217604   4.773   4.769   1.579
 5569SOL     OW17605   2.295   2.667   3.159
 5569SOL    HW117606   2.385   2.628   3.181
 5569SOL    HW217607   2.228   2.593   3.155
 5570SOL     OW17608   6.750   3.843   1.482
 5570SOL    HW117609   6.657   3.878   1.490
 5570SOL    HW217610   6.752   3.747   1.509
 5571SOL     OW17611   6.464   4.397   0.799
 5571SOL    HW117612   6.530   4.390   0.874
 5571SOL    HW217613   6.447   4.305   0.761
 5572SOL     OW17614   1.656   4.099   5.076
 5572SOL    HW117615   1.626   4.087   5.170
 5572SOL    HW217616   1.578   4.092   5.014
 5573SOL     OW17617   3.130   5.468   4.064
 5573SOL    HW117618   3.209   5.503   4.013
 5573SOL    HW217619   3.054   5.455   4.001
 5574SOL     OW17620   0.681   1.827   5.584
 5574SOL    HW117621   0.764   1.866   5.545
 5574SOL    HW217622   0.698   1.733   5.612
 5575SOL     OW17623   0.096   0.060   1.673
 5575SOL    HW117624   0.058   0.114   1.598
 5575SOL    HW217625   0.033   7.015   1.695
 5576SOL     OW17626   1.502   4.918   3.535
 5576SOL    HW117627   1.462   4.839   3.489
 5576SOL    HW217628   1.435   4.958   3.597
 5577SOL     OW17629   1.994   2.772   6.240
 5577SOL    HW117630   2.085   2.733   6.252
 5577SOL    HW217631   1.969   2.769   6.143
 5578SOL     OW17632   3.711   4.096   3.807
 5578SOL    HW117633   3.770   4.174   3.829
 5578SOL    HW217634   3.766   4.013   3.802
 5579SOL     OW17635   6.362   3.116   1.607
 5579SOL    HW117636   6.422   3.084   1.681
 5579SOL    HW217637   6.315   3.200   1.636
 5580SOL     OW17638   5.633   1.900   5.527
 5580SOL    HW117639   5.623   1.926   5.431
 5580SOL    HW217640   5.622   1.981   5.584
 5581SOL     OW17641   0.996   1.903   6.440
 5581SOL    HW117642   0.910   1.950   6.419
 5581SOL    HW217643   1.062   1.919   6.366
 5582SOL     OW17644   2.734   2.829   6.003
 5582SOL    HW117645   2.834   2.822   5.999
 5582SOL    HW217646   2.708   2.900   6.068
 5583SOL     OW17647   5.688   7.017   0.923
 5583SOL    HW117648   5.781   0.017   0.948
 5583SOL    HW217649   5.628   7.027   1.002
 5584SOL     OW17650   2.065   2.947   4.496
 5584SOL    HW117651   2.048   2.855   4.530
 5584SOL    HW217652   2.074   3.010   4.574
 5585SOL     OW17653   5.585   5.098   1.585
 5585SOL    HW117654   5.664   5.099   1.524
 5585SOL    HW217655   5.520   5.168   1.556
 5586SOL     OW17656   0.877   5.180   0.707
 5586SOL    HW117657   0.875   5.277   0.728
 5586SOL    HW217658   0.856   5.166   0.611
 5587SOL     OW17659   6.328   0.813   5.978
 5587SOL    HW117660   6.233   0.830   6.004
 5587SOL    HW217661   6.334   0.806   5.878
 5588SOL     OW17662   3.249   6.714   0.783
 5588SOL    HW117663   3.233   6.742   0.878
 5588SOL    HW217664   3.272   6.617   0.780
 5589SOL     OW17665   6.760   4.603   6.094
 5589SOL    HW117666   6.711   4.531   6.045
 5589SOL    HW217667   6.702   4.684   6.101
 5590SOL     OW17668   5.967   5.480   3.271
 5590SOL    HW117669   6.039   5.546   3.293
 5590SOL    HW217670   5.878   5.520   3.290
 5591SOL     OW17671   5.397   1.247   1.778
 5591SOL    HW117672   5.481   1.289   1.815
 5591SOL    HW217673   5.422   1.176   1.712
 5592SOL     OW17674   0.308   4.362   3.234
 5592SOL    HW117675   0.326   4.303   3.155
 5592SOL    HW217676   0.217   4.402   3.226
 5593SOL     OW17677   0.964   3.995   0.563
 5593SOL    HW117678   0.919   3.951   0.485
 5593SOL    HW217679   0.988   4.089   0.538
 5594SOL     OW17680   6.003   1.661   5.902
 5594SOL    HW117681   5.910   1.640   5.934
 5594SOL    HW217682   6.046   1.578   5.869
 5595SOL     OW17683   0.701   2.438   0.557
 5595SOL    HW117684   0.717   2.414   0.653
 5595SOL    HW217685   0.647   2.366   0.512
 5596SOL     OW17686   3.288   6.035   3.530
 5596SOL    HW117687   3.221   6.027   3.456
 5596SOL    HW217688   3.243   6.025   3.618
 5597SOL     OW17689   4.879   3.306   1.864
 5597SOL    HW117690   4.874   3.263   1.954
 5597SOL    HW217691   4.834   3.249   1.796
 5598SOL     OW17692   4.794   0.958   4.816
 5598SOL    HW117693   4.729   0.928   4.886
 5598SOL    HW217694   4.766   0.921   4.727
 5599SOL     OW17695   0.929   1.357   3.333
 5599SOL    HW117696   0.898   1.263   3.326
 5599SOL    HW217697   0.850   1.418   3.342
 5600SOL     OW17698   2.232   2.699   5.361
 5600SOL    HW117699   2.199   2.761   5.291
 5600SOL    HW217700   2.323   2.728   5.391
 5601SOL     OW17701   2.948   0.879   6.294
 5601SOL    HW117702   2.870   0.912   6.346
 5601SOL    HW217703   3.027   0.939   6.310
 5602SOL     OW17704   1.922   0.904   0.009
 5602SOL    HW117705   1.895   0.808   0.011
 5602SOL    HW217706   1.954   0.932   0.099
 5603SOL     OW17707   6.206   4.357   5.672
 5603SOL    HW117708   6.202   4.419   5.594
 5603SOL    HW217709   6.284   4.381   5.730
 5604SOL     OW17710   5.813   1.459   5.973
 5604SOL    HW117711   5.786   1.402   6.051
 5604SOL    HW217712   5.753   1.439   5.895
 5605SOL     OW17713   0.450   1.897   6.579
 5605SOL    HW117714   0.487   1.896   6.486
 5605SOL    HW217715   0.412   1.807   6.601
 5606SOL     OW17716   5.788   6.641   3.204
 5606SOL    HW117717   5.772   6.738   3.184
 5606SOL    HW217718   5.794   6.590   3.118
 5607SOL     OW17719   5.797   0.513   1.186
 5607SOL    HW117720   5.756   0.525   1.095
 5607SOL    HW217721   5.858   0.434   1.185
 5608SOL     OW17722   4.234   6.151   5.111
 5608SOL    HW117723   4.245   6.146   5.012
 5608SOL    HW217724   4.322   6.175   5.152
 5609SOL     OW17725   1.096   5.502   5.716
 5609SOL    HW117726   1.175   5.562   5.705
 5609SOL    HW217727   1.025   5.549   5.770
 5610SOL     OW17728   4.423   0.633   6.337
 5610SOL    HW117729   4.510   0.626   6.289
 5610SOL    HW217730   4.358   0.683   6.279
 5611SOL     OW17731   2.238   4.142   4.026
 5611SOL    HW117732   2.302   4.219   4.027
 5611SOL    HW217733   2.170   4.155   4.098
 5612SOL     OW17734   3.129   6.730   4.691
 5612SOL    HW117735   3.102   6.634   4.687
 5612SOL    HW217736   3.228   6.736   4.678
 5613SOL     OW17737   3.390   5.536   1.482
 5613SOL    HW117738   3.301   5.497   1.503
 5613SOL    HW217739   3.431   5.574   1.566
 5614SOL     OW17740   5.400   1.691   4.361
 5614SOL    HW117741   5.335   1.745   4.415
 5614SOL    HW217742   5.359   1.669   4.272
 5615SOL     OW17743   1.868   1.318   1.960
 5615SOL    HW117744   1.964   1.330   1.985
 5615SOL    HW217745   1.848   1.374   1.880
 5616SOL     OW17746   2.081   6.895   4.880
 5616SOL    HW117747   2.181   6.902   4.888
 5616SOL    HW217748   2.053   6.801   4.897
 5617SOL     OW17749   0.895   0.746   5.430
 5617SOL    HW117750   0.983   0.773   5.470
 5617SOL    HW217751   0.882   0.795   5.344
 5618SOL     OW17752   6.381   4.884   3.008
 5618SOL    HW117753   6.332   4.933   3.081
 5618SOL    HW217754   6.322   4.814   2.969
 5619SOL     OW17755   2.046   4.046   5.125
 5619SOL    HW117756   2.122   4.101   5.160
 5619SOL    HW217757   1.995   4.099   5.058
 5620SOL     OW17758   4.532   1.367   7.015
 5620SOL    HW117759   4.548   1.324   0.074
 5620SOL    HW217760   4.619   1.379   6.967
 5621SOL     OW17761   2.662   1.591   6.621
 5621SOL    HW117762   2.678   1.665   6.685
 5621SOL    HW217763   2.564   1.579   6.606
 5622SOL     OW17764   5.445   0.511   5.231
 5622SOL    HW117765   5.371   0.447   5.209
 5622SOL    HW217766   5.410   0.584   5.289
 5623SOL     OW17767   0.643   6.274   6.821
 5623SOL    HW117768   0.649   6.373   6.811
 5623SOL    HW217769   0.591   6.252   6.904
 5624SOL     OW17770   0.182   3.956   1.982
 5624SOL    HW117771   0.252   3.941   1.912
 5624SOL    HW217772   0.114   3.883   1.977
 5625SOL     OW17773   6.327   2.202   5.582
 5625SOL    HW117774   6.335   2.212   5.483
 5625SOL    HW217775   6.315   2.106   5.605
 5626SOL     OW17776   5.344   6.761   4.194
 5626SOL    HW117777   5.253   6.803   4.185
 5626SOL    HW217778   5.361   6.700   4.117
 5627SOL     OW17779   0.994   7.009   1.166
 5627SOL    HW117780   1.032   0.070   1.181
 5627SOL    HW217781   1.020   6.949   1.242
 5628SOL     OW17782   1.451   1.442   4.195
 5628SOL    HW117783   1.438   1.348   4.225
 5628SOL    HW217784   1.479   1.498   4.273
 5629SOL     OW17785   3.536   2.917   3.536
 5629SOL    HW117786   3.501   2.902   3.629
 5629SOL    HW217787   3.636   2.924   3.540
 5630SOL     OW17788   6.760   4.135   1.154
 5630SOL    HW117789   6.672   4.125   1.200
 5630SOL    HW217790   6.817   4.199   1.205
 5631SOL     OW17791   5.701   1.424   6.259
 5631SOL    HW117792   5.608   1.453   6.236
 5631SOL    HW217793   5.701   1.382   6.350
 5632SOL     OW17794   2.630   2.116   0.482
 5632SOL    HW117795   2.719   2.128   0.439
 5632SOL    HW217796   2.595   2.205   0.511
 5633SOL     OW17797   7.008   2.974   5.534
 5633SOL    HW117798   0.019   2.953   5.623
 5633SOL    HW217799   6.917   2.933   5.528
 5634SOL     OW17800   5.066   6.150   4.528
 5634SOL    HW117801   5.051   6.063   4.482
 5634SOL    HW217802   5.032   6.225   4.470
 5635SOL     OW17803   3.358   1.726   5.889
 5635SOL    HW117804   3.309   1.781   5.957
 5635SOL    HW217805   3.443   1.773   5.863
 5636SOL     OW17806   4.152   6.301   4.557
 5636SOL    HW117807   4.207   6.298   4.640
 5636SOL    HW217808   4.079   6.232   4.562
 5637SOL     OW17809   6.255   0.058   3.478
 5637SOL    HW117810   6.262   0.033   3.382
 5637SOL    HW217811   6.227   0.154   3.486
 5638SOL     OW17812   6.500   3.479   0.062
 5638SOL    HW117813   6.445   3.548   0.016
 5638SOL    HW217814   6.519   3.510   0.156
 5639SOL     OW17815   4.378   0.273   6.990
 5639SOL    HW117816   4.362   0.281   6.891
 5639SOL    HW217817   4.384   0.364   0.001
 5640SOL     OW17818   1.424   0.378   3.034
 5640SOL    HW117819   1.450   0.365   3.130
 5640SOL    HW217820   1.504   0.406   2.981
 5641SOL     OW17821   6.679   5.589   4.501
 5641SOL    HW117822   6.613   5.537   4.555
 5641SOL    HW217823   6.633   5.669   4.461
 5642SOL     OW17824   1.623   1.738   0.013
 5642SOL    HW117825   1.548   1.715   6.980
 5642SOL    HW217826   1.708   1.747   6.991
 5643SOL     OW17827   5.175   2.009   6.566
 5643SOL    HW117828   5.091   1.980   6.521
 5643SOL    HW217829   5.224   2.073   6.506
 5644SOL     OW17830   2.556   1.156   6.051
 5644SOL    HW117831   2.636   1.198   6.007
 5644SOL    HW217832   2.542   1.198   6.140
 5645SOL     OW17833   5.647   3.845   4.698
 5645SOL    HW117834   5.699   3.894   4.628
 5645SOL    HW217835   5.552   3.834   4.667
 5646SOL     OW17836   0.886   3.862   2.812
 5646SOL    HW117837   0.978   3.822   2.805
 5646SOL    HW217838   0.849   3.875   2.720
 5647SOL     OW17839   5.423   6.180   2.929
 5647SOL    HW117840   5.473   6.266   2.919
 5647SOL    HW217841   5.463   6.127   3.003
 5648SOL     OW17842   4.921   5.749   3.419
 5648SOL    HW117843   4.894   5.797   3.335
 5648SOL    HW217844   4.871   5.662   3.425
 5649SOL     OW17845   0.859   6.915   4.515
 5649SOL    HW117846   0.894   6.981   4.583
 5649SOL    HW217847   0.777   6.871   4.552
 5650SOL     OW17848   6.819   4.074   5.911
 5650SOL    HW117849   6.853   3.983   5.935
 5650SOL    HW217850   6.889   4.142   5.935
 5651SOL     OW17851   2.665   1.089   0.536
 5651SOL    HW117852   2.739   1.087   0.469
 5651SOL    HW217853   2.683   1.161   0.603
 5652SOL     OW17854   0.509   5.897   3.275
 5652SOL    HW117855   0.509   5.854   3.366
 5652SOL    HW217856   0.528   5.827   3.206
 5653SOL     OW17857   6.980   0.444   2.954
 5653SOL    HW117858   0.046   0.474   2.950
 5653SOL    HW217859   6.930   0.502   3.019
 5654SOL     OW17860   3.170   6.017   5.450
 5654SOL    HW117861   3.213   6.097   5.491
 5654SOL    HW217862   3.153   5.949   5.521
 5655SOL     OW17863   5.139   2.824   5.147
 5655SOL    HW117864   5.102   2.806   5.238
 5655SOL    HW217865   5.063   2.834   5.082
 5656SOL     OW17866   0.230   3.859   0.585
 5656SOL    HW117867   0.282   3.830   0.665
 5656SOL    HW217868   0.292   3.876   0.509
 5657SOL     OW17869   5.382   5.871   4.703
 5657SOL    HW117870   5.406   5.923   4.784
 5657SOL    HW217871   5.373   5.933   4.625
 5658SOL     OW17872   2.227   3.070   6.224
 5658SOL    HW117873   2.311   3.046   6.175
 5658SOL    HW217874   2.215   3.007   6.301
 5659SOL     OW17875   2.462   4.171   0.124
 5659SOL    HW117876   2.377   4.126   0.153
 5659SOL    HW217877   2.446   4.269   0.114
 5660SOL     OW17878   3.862   6.969   4.880
 5660SOL    HW117879   3.793   6.913   4.835
 5660SOL    HW217880   3.930   6.998   4.813
 5661SOL     OW17881   1.051   5.838   5.992
 5661SOL    HW117882   1.129   5.794   5.947
 5661SOL    HW217883   0.977   5.849   5.927
 5662SOL     OW17884   3.138   6.467   0.433
 5662SOL    HW117885   3.084   6.392   0.470
 5662SOL    HW217886   3.126   6.548   0.489
 5663SOL     OW17887   1.643   2.843   5.980
 5663SOL    HW117888   1.709   2.913   6.008
 5663SOL    HW217889   1.686   2.782   5.914
 5664SOL     OW17890   4.735   4.983   4.279
 5664SOL    HW117891   4.765   4.902   4.330
 5664SOL    HW217892   4.635   4.989   4.282
 5665SOL     OW17893   2.038   1.427   0.955
 5665SOL    HW117894   1.947   1.444   0.917
 5665SOL    HW217895   2.082   1.515   0.976
 5666SOL     OW17896   5.824   2.651   5.096
 5666SOL    HW117897   5.787   2.638   5.004
 5666SOL    HW217898   5.867   2.741   5.102
 5667SOL     OW17899   2.802   4.896   4.352
 5667SOL    HW117900   2.828   4.862   4.262
 5667SOL    HW217901   2.714   4.855   4.379
 5668SOL     OW17902   4.617   4.421   3.819
 5668SOL    HW117903   4.581   4.405   3.911
 5668SOL    HW217904   4.651   4.335   3.781
 5669SOL     OW17905   5.558   4.340   5.874
 5669SOL    HW117906   5.643   4.347   5.927
 5669SOL    HW217907   5.480   4.360   5.932
 5670SOL     OW17908   1.370   2.578   4.072
 5670SOL    HW117909   1.354   2.649   4.005
 5670SOL    HW217910   1.284   2.529   4.091
 5671SOL     OW17911   6.756   5.240   3.113
 5671SOL    HW117912   6.720   5.304   3.180
 5671SOL    HW217913   6.722   5.263   3.022
 5672SOL     OW17914   5.205   3.356   4.741
 5672SOL    HW117915   5.113   3.371   4.704
 5672SOL    HW217916   5.273   3.390   4.676
 5673SOL     OW17917   0.508   2.456   0.288
 5673SOL    HW117918   0.471   2.513   0.361
 5673SOL    HW217919   0.590   2.408   0.320
 5674SOL     OW17920   2.567   4.993   5.352
 5674SOL    HW117921   2.600   4.917   5.296
 5674SOL    HW217922   2.593   4.979   5.448
 5675SOL     OW17923   3.219   2.395   0.817
 5675SOL    HW117924   3.256   2.328   0.753
 5675SOL    HW217925   3.261   2.484   0.800
 5676SOL     OW17926   3.667   1.364   1.814
 5676SOL    HW117927   3.762   1.372   1.784
 5676SOL    HW217928   3.622   1.292   1.761
 5677SOL     OW17929   0.558   1.554   6.017
 5677SOL    HW117930   0.526   1.627   5.956
 5677SOL    HW217931   0.541   1.465   5.974
 5678SOL     OW17932   3.843   2.106   2.260
 5678SOL    HW117933   3.789   2.022   2.252
 5678SOL    HW217934   3.810   2.173   2.194
 5679SOL     OW17935   0.062   3.929   5.446
 5679SOL    HW117936   0.079   3.878   5.362
 5679SOL    HW217937   0.029   3.867   5.517
 5680SOL     OW17938   0.639   5.856   5.027
 5680SOL    HW117939   0.580   5.844   4.947
 5680SOL    HW217940   0.698   5.776   5.038
 5681SOL     OW17941   1.551   3.415   3.402
 5681SOL    HW117942   1.506   3.328   3.382
 5681SOL    HW217943   1.493   3.491   3.373
 5682SOL     OW17944   2.084   4.704   1.139
 5682SOL    HW117945   2.067   4.803   1.138
 5682SOL    HW217946   1.998   4.656   1.155
 5683SOL     OW17947   7.000   0.215   6.185
 5683SOL    HW117948   6.901   0.207   6.173
 5683SOL    HW217949   7.020   0.288   6.250
 5684SOL     OW17950   2.288   2.880   4.817
 5684SOL    HW117951   2.327   2.928   4.895
 5684SOL    HW217952   2.328   2.789   4.811
 5685SOL     OW17953   2.330   1.426   2.285
 5685SOL    HW117954   2.318   1.524   2.303
 5685SOL    HW217955   2.366   1.381   2.367
 5686SOL     OW17956   5.282   5.708   5.759
 5686SOL    HW117957   5.301   5.638   5.827
 5686SOL    HW217958   5.195   5.753   5.780
 5687SOL     OW17959   2.083   6.922   6.173
 5687SOL    HW117960   2.174   6.881   6.184
 5687SOL    HW217961   2.014   6.862   6.214
 5688SOL     OW17962   1.831   1.892   3.393
 5688SOL    HW117963   1.740   1.881   3.435
 5688SOL    HW217964   1.891   1.819   3.425
 5689SOL     OW17965   0.160   2.459   1.299
 5689SOL    HW117966   0.210   2.440   1.214
 5689SOL    HW217967   0.067   2.489   1.277
 5690SOL     OW17968   3.285   5.554   0.244
 5690SOL    HW117969   3.300   5.552   0.145
 5690SOL    HW217970   3.295   5.462   0.282
 5691SOL     OW17971   4.636   2.679   3.824
 5691SOL    HW117972   4.558   2.625   3.856
 5691SOL    HW217973   4.643   2.763   3.878
 5692SOL     OW17974   6.191   4.744   1.732
 5692SOL    HW117975   6.228   4.753   1.824
 5692SOL    HW217976   6.242   4.804   1.670
 5693SOL     OW17977   3.729   0.348   2.127
 5693SOL    HW117978   3.745   0.446   2.117
 5693SOL    HW217979   3.813   0.298   2.105
 5694SOL     OW17980   0.380   0.080   1.624
 5694SOL    HW117981   0.411   0.101   1.531
 5694SOL    HW217982   0.281   0.088   1.629
 5695SOL     OW17983   2.116   1.226   2.391
 5695SOL    HW117984   2.178   1.151   2.368
 5695SOL    HW217985   2.159   1.313   2.365
 5696SOL     OW17986   0.521   6.919   4.212
 5696SOL    HW117987   0.545   6.992   4.148
 5696SOL    HW217988   0.604   6.871   4.241
 5697SOL     OW17989   6.483   1.909   0.148
 5697SOL    HW117990   6.485   2.008   0.162
 5697SOL    HW217991   6.400   1.872   0.190
 5698SOL     OW17992   3.464   2.103   4.298
 5698SOL    HW117993   3.480   2.142   4.388
 5698SOL    HW217994   3.440   2.006   4.307
 5699SOL     OW17995   1.884   3.242   2.546
 5699SOL    HW117996   1.973   3.231   2.502
 5699SOL    HW217997   1.816   3.187   2.497
 5700SOL     OW17998   6.199   0.261   2.925
 5700SOL    HW117999   6.294   0.235   2.937
 5700SOL    HW218000   6.170   0.240   2.832
 5701SOL     OW18001   1.246   0.646   0.694
 5701SOL    HW118002   1.191   0.626   0.614
 5701SOL    HW218003   1.340   0.667   0.665
 5702SOL     OW18004   1.733   6.614   4.993
 5702SOL    HW118005   1.771   6.633   4.902
 5702SOL    HW218006   1.796   6.556   5.044
 5703SOL     OW18007   0.572   2.801   6.003
 5703SOL    HW118008   0.503   2.787   5.931
 5703SOL    HW218009   0.649   2.853   5.966
 5704SOL     OW18010   4.023   5.452   4.344
 5704SOL    HW118011   4.020   5.458   4.444
 5704SOL    HW218012   4.100   5.506   4.310
 5705SOL     OW18013   5.578   0.394   5.471
 5705SOL    HW118014   5.565   0.409   5.569
 5705SOL    HW218015   5.533   0.467   5.420
 5706SOL     OW18016   5.187   2.000   1.266
 5706SOL    HW118017   5.114   1.942   1.303
 5706SOL    HW218018   5.189   2.087   1.315
 5707SOL     OW18019   6.148   5.522   1.108
 5707SOL    HW118020   6.146   5.621   1.094
 5707SOL    HW218021   6.057   5.484   1.090
 5708SOL     OW18022   5.450   6.115   1.861
 5708SOL    HW118023   5.480   6.037   1.806
 5708SOL    HW218024   5.356   6.100   1.892
 5709SOL     OW18025   0.048   2.662   2.473
 5709SOL    HW118026   7.008   2.724   2.436
 5709SOL    HW218027   0.019   2.567   2.458
 5710SOL     OW18028   4.952   1.531   0.783
 5710SOL    HW118029   4.928   1.571   0.872
 5710SOL    HW218030   5.003   1.597   0.729
 5711SOL     OW18031   4.709   1.904   2.346
 5711SOL    HW118032   4.609   1.900   2.338
 5711SOL    HW218033   4.741   1.991   2.308
 5712SOL     OW18034   6.254   6.005   0.037
 5712SOL    HW118035   6.283   6.091   7.025
 5712SOL    HW218036   6.309   5.987   0.119
 5713SOL     OW18037   1.398   1.259   0.938
 5713SOL    HW118038   1.329   1.188   0.929
 5713SOL    HW218039   1.449   1.268   0.852
 5714SOL     OW18040   6.284   0.114   0.835
 5714SOL    HW118041   6.217   0.143   0.766
 5714SOL    HW218042   6.333   0.034   0.801
 5715SOL     OW18043   7.001   6.476   1.086
 5715SOL    HW118044   6.984   6.546   1.155
 5715SOL    HW218045   7.000   6.518   0.995
 5716SOL     OW18046   0.571   4.707   5.286
 5716SOL    HW118047   0.622   4.781   5.329
 5716SOL    HW218048   0.525   4.741   5.204
 5717SOL     OW18049   0.621   5.362   3.586
 5717SOL    HW118050   0.719   5.360   3.565
 5717SOL    HW218051   0.589   5.270   3.607
 5718SOL     OW18052   0.794   4.031   6.863
 5718SOL    HW118053   0.875   4.007   6.916
 5718SOL    HW218054   0.820   4.039   6.766
 5719SOL     OW18055   2.874   3.498   0.302
 5719SOL    HW118056   2.798   3.553   0.335
 5719SOL    HW218057   2.959   3.529   0.345
 5720SOL     OW18058   3.211   5.185   6.517
 5720SOL    HW118059   3.204   5.267   6.573
 5720SOL    HW218060   3.120   5.162   6.481
 5721SOL     OW18061   1.143   2.974   0.262
 5721SOL    HW118062   1.099   3.043   0.204
 5721SOL    HW218063   1.073   2.930   0.319
 5722SOL     OW18064   1.831   0.501   6.072
 5722SOL    HW118065   1.896   0.442   6.023
 5722SOL    HW218066   1.808   0.580   6.015
 5723SOL     OW18067   4.183   2.953   0.415
 5723SOL    HW118068   4.157   2.987   0.325
 5723SOL    HW218069   4.101   2.928   0.466
 5724SOL     OW18070   5.550   2.089   5.725
 5724SOL    HW118071   5.493   2.169   5.744
 5724SOL    HW218072   5.566   2.038   5.810
 5725SOL     OW18073   0.130   4.503   4.905
 5725SOL    HW118074   0.042   4.454   4.910
 5725SOL    HW218075   0.170   4.489   4.814
 5726SOL     OW18076   4.746   4.155   1.841
 5726SOL    HW118077   4.675   4.220   1.868
 5726SOL    HW218078   4.793   4.189   1.759
 5727SOL     OW18079   1.015   2.999   5.318
 5727SOL    HW118080   1.065   2.976   5.235
 5727SOL    HW218081   0.921   2.965   5.310
 5728SOL     OW18082   3.066   6.823   5.373
 5728SOL    HW118083   3.029   6.762   5.303
 5728SOL    HW218084   3.051   6.783   5.463
 5729SOL     OW18085   2.557   1.986   4.832
 5729SOL    HW118086   2.518   2.014   4.920
 5729SOL    HW218087   2.655   1.971   4.842
 5730SOL     OW18088   6.351   4.453   5.084
 5730SOL    HW118089   6.303   4.525   5.033
 5730SOL    HW218090   6.384   4.490   5.171
 5731SOL     OW18091   0.687   6.324   2.632
 5731SOL    HW118092   0.754   6.368   2.573
 5731SOL    HW218093   0.696   6.359   2.725
 5732SOL     OW18094   5.871   0.280   3.653
 5732SOL    HW118095   5.898   0.256   3.747
 5732SOL    HW218096   5.949   0.268   3.592
 5733SOL     OW18097   2.646   1.090   5.066
 5733SOL    HW118098   2.673   1.017   5.003
 5733SOL    HW218099   2.601   1.163   5.015
 5734SOL     OW18100   1.821   6.514   3.559
 5734SOL    HW118101   1.803   6.478   3.651
 5734SOL    HW218102   1.910   6.479   3.528
 5735SOL     OW18103   3.074   0.752   1.433
 5735SOL    HW118104   3.124   0.697   1.500
 5735SOL    HW218105   3.047   0.839   1.475
 5736SOL     OW18106   1.793   4.975   0.699
 5736SOL    HW118107   1.854   5.053   0.684
 5736SOL    HW218108   1.738   4.990   0.781
 5737SOL     OW18109   5.893   3.882   7.013
 5737SOL    HW118110   5.903   3.967   0.036
 5737SOL    HW218111   5.955   3.813   0.020
 5738SOL     OW18112   0.418   5.080   4.767
 5738SOL    HW118113   0.430   4.988   4.731
 5738SOL    HW218114   0.485   5.142   4.726
 5739SOL     OW18115   0.815   3.037   0.796
 5739SOL    HW118116   0.816   3.077   0.888
 5739SOL    HW218117   0.839   2.940   0.802
 5740SOL     OW18118   4.281   4.834   6.841
 5740SOL    HW118119   4.356   4.866   6.899
 5740SOL    HW218120   4.198   4.884   6.865
 5741SOL     OW18121   6.990   3.028   1.931
 5741SOL    HW118122   7.021   3.067   1.845
 5741SOL    HW218123   7.002   2.929   1.930
 5742SOL     OW18124   0.310   5.727   3.760
 5742SOL    HW118125   0.321   5.809   3.816
 5742SOL    HW218126   0.380   5.661   3.783
 5743SOL     OW18127   1.410   6.669   5.716
 5743SOL    HW118128   1.376   6.749   5.765
 5743SOL    HW218129   1.347   6.645   5.642
 5744SOL     OW18130   6.358   0.402   1.848
 5744SOL    HW118131   6.389   0.361   1.933
 5744SOL    HW218132   6.263   0.431   1.858
 5745SOL     OW18133   0.506   3.619   3.058
 5745SOL    HW118134   0.490   3.546   3.125
 5745SOL    HW218135   0.418   3.659   3.031
 5746SOL     OW18136   6.475   4.333   6.661
 5746SOL    HW118137   6.571   4.321   6.635
 5746SOL    HW218138   6.416   4.298   6.588
 5747SOL     OW18139   0.723   5.742   3.729
 5747SOL    HW118140   0.678   5.657   3.757
 5747SOL    HW218141   0.813   5.720   3.692
 5748SOL     OW18142   1.984   0.044   3.777
 5748SOL    HW118143   2.046   0.119   3.801
 5748SOL    HW218144   1.890   0.069   3.799
 5749SOL     OW18145   1.018   0.999   2.964
 5749SOL    HW118146   0.968   0.920   2.929
 5749SOL    HW218147   1.062   0.974   3.051
 5750SOL     OW18148   5.874   6.478   2.520
 5750SOL    HW118149   5.921   6.427   2.592
 5750SOL    HW218150   5.811   6.416   2.472
 5751SOL     OW18151   0.667   2.531   5.885
 5751SOL    HW118152   0.644   2.587   5.965
 5751SOL    HW218153   0.737   2.464   5.911
 5752SOL     OW18154   1.562   1.564   6.656
 5752SOL    HW118155   1.562   1.469   6.625
 5752SOL    HW218156   1.476   1.584   6.702
 5753SOL     OW18157   4.689   1.802   0.571
 5753SOL    HW118158   4.662   1.810   0.475
 5753SOL    HW218159   4.698   1.706   0.596
 5754SOL     OW18160   6.145   5.966   0.636
 5754SOL    HW118161   6.055   6.008   0.623
 5754SOL    HW218162   6.215   6.037   0.641
 5755SOL     OW18163   3.235   3.696   1.603
 5755SOL    HW118164   3.334   3.683   1.599
 5755SOL    HW218165   3.190   3.608   1.585
 5756SOL     OW18166   6.747   6.499   4.155
 5756SOL    HW118167   6.754   6.571   4.086
 5756SOL    HW218168   6.661   6.509   4.205
 5757SOL     OW18169   6.385   6.291   2.413
 5757SOL    HW118170   6.341   6.373   2.452
 5757SOL    HW218171   6.350   6.275   2.321
 5758SOL     OW18172   2.884   1.574   5.823
 5758SOL    HW118173   2.787   1.552   5.833
 5758SOL    HW218174   2.932   1.552   5.907
 5759SOL     OW18175   0.780   1.303   6.108
 5759SOL    HW118176   0.736   1.338   6.025
 5759SOL    HW218177   0.775   1.203   6.108
 5760SOL     OW18178   6.707   5.833   1.138
 5760SOL    HW118179   6.763   5.750   1.138
 5760SOL    HW218180   6.755   5.906   1.187
 5761SOL     OW18181   4.491   0.437   4.440
 5761SOL    HW118182   4.421   0.500   4.473
 5761SOL    HW218183   4.450   0.349   4.418
 5762SOL     OW18184   5.552   6.352   1.431
 5762SOL    HW118185   5.514   6.423   1.372
 5762SOL    HW218186   5.632   6.312   1.387
 5763SOL     OW18187   2.946   0.621   0.835
 5763SOL    HW118188   3.012   0.588   0.767
 5763SOL    HW218189   2.883   0.686   0.792
 5764SOL     OW18190   4.008   3.201   6.131
 5764SOL    HW118191   4.027   3.224   6.226
 5764SOL    HW218192   3.952   3.273   6.089
 5765SOL     OW18193   6.400   5.553   6.864
 5765SOL    HW118194   6.377   5.516   6.774
 5765SOL    HW218195   6.377   5.650   6.867
 5766SOL     OW18196   2.820   1.414   3.548
 5766SOL    HW118197   2.738   1.371   3.510
 5766SOL    HW218198   2.896   1.349   3.544
 5767SOL     OW18199   5.258   6.714   0.197
 5767SOL    HW118200   5.199   6.634   0.205
 5767SOL    HW218201   5.246   6.756   0.107
 5768SOL     OW18202   6.682   0.104   2.253
 5768SOL    HW118203   6.779   0.128   2.243
 5768SOL    HW218204   6.647   0.144   2.338
 5769SOL     OW18205   1.172   4.400   3.116
 5769SOL    HW118206   1.195   4.445   3.202
 5769SOL    HW218207   1.097   4.335   3.130
 5770SOL     OW18208   5.419   1.769   1.807
 5770SOL    HW118209   5.438   1.867   1.818
 5770SOL    HW218210   5.388   1.732   1.894
 5771SOL     OW18211   1.052   0.827   1.572
 5771SOL    HW118212   1.119   0.802   1.502
 5771SOL    HW218213   1.100   0.847   1.658
 5772SOL     OW18214   6.517   5.203   5.688
 5772SOL    HW118215   6.538   5.250   5.774
 5772SOL    HW218216   6.418   5.190   5.681
 5773SOL     OW18217   5.400   5.272   4.529
 5773SOL    HW118218   5.308   5.295   4.560
 5773SOL    HW218219   5.467   5.323   4.584
 5774SOL     OW18220   2.132   5.363   2.212
 5774SOL    HW118221   2.214   5.311   2.188
 5774SOL    HW218222   2.157   5.437   2.274
 5775SOL     OW18223   1.023   0.611   0.509
 5775SOL    HW118224   0.949   0.569   0.561
 5775SOL    HW218225   1.024   0.573   0.416
 5776SOL     OW18226   5.003   1.098   5.862
 5776SOL    HW118227   4.935   1.081   5.934
 5776SOL    HW218228   5.095   1.085   5.899
 5777SOL     OW18229   5.810   6.268   4.647
 5777SOL    HW118230   5.719   6.263   4.606
 5777SOL    HW218231   5.805   6.317   4.734
 5778SOL     OW18232   2.959   0.089   3.756
 5778SOL    HW118233   2.894   0.063   3.827
 5778SOL    HW218234   2.970   0.013   3.692
 5779SOL     OW18235   4.142   0.494   1.614
 5779SOL    HW118236   4.110   0.463   1.524
 5779SOL    HW218237   4.232   0.453   1.633
 5780SOL     OW18238   6.187   4.108   0.493
 5780SOL    HW118239   6.117   4.038   0.505
 5780SOL    HW218240   6.218   4.141   0.583
 5781SOL     OW18241   3.891   4.198   5.309
 5781SOL    HW118242   3.816   4.155   5.258
 5781SOL    HW218243   3.967   4.134   5.317
 5782SOL     OW18244   4.443   1.719   2.991
 5782SOL    HW118245   4.405   1.743   3.080
 5782SOL    HW218246   4.406   1.780   2.921
 5783SOL     OW18247   3.268   5.750   2.790
 5783SOL    HW118248   3.323   5.700   2.723
 5783SOL    HW218249   3.215   5.821   2.743
 5784SOL     OW18250   1.404   6.260   0.515
 5784SOL    HW118251   1.393   6.226   0.421
 5784SOL    HW218252   1.502   6.272   0.534
 5785SOL     OW18253   2.549   2.587   6.360
 5785SOL    HW118254   2.501   2.614   6.276
 5785SOL    HW218255   2.490   2.606   6.439
 5786SOL     OW18256   1.154   1.907   6.209
 5786SOL    HW118257   1.059   1.908   6.175
 5786SOL    HW218258   1.178   1.815   6.238
 5787SOL     OW18259   0.885   2.507   4.898
 5787SOL    HW118260   0.864   2.568   4.821
 5787SOL    HW218261   0.815   2.437   4.905
 5788SOL     OW18262   0.514   2.047   1.942
 5788SOL    HW118263   0.588   2.020   1.880
 5788SOL    HW218264   0.469   1.965   1.977
 5789SOL     OW18265   2.588   7.008   0.076
 5789SOL    HW118266   2.658   0.041   0.043
 5789SOL    HW218267   2.605   6.986   0.172
 5790SOL     OW18268   6.873   6.520   2.704
 5790SOL    HW118269   6.922   6.447   2.658
 5790SOL    HW218270   6.938   6.588   2.738
 5791SOL     OW18271   4.415   0.804   1.299
 5791SOL    HW118272   4.425   0.845   1.390
 5791SOL    HW218273   4.340   0.848   1.251
 5792SOL     OW18274   4.788   2.694   2.848
 5792SOL    HW118275   4.817   2.656   2.937
 5792SOL    HW218276   4.801   2.793   2.848
 5793SOL     OW18277   4.153   1.888   0.238
 5793SOL    HW118278   4.084   1.959   0.252
 5793SOL    HW218279   4.177   1.847   0.326
 5794SOL     OW18280   2.960   6.361   0.038
 5794SOL    HW118281   2.890   6.421   0.078
 5794SOL    HW218282   2.936   6.265   0.058
 5795SOL     OW18283   1.275   0.844   1.101
 5795SOL    HW118284   1.312   0.877   1.014
 5795SOL    HW218285   1.258   0.746   1.095
 5796SOL     OW18286   4.638   0.399   5.597
 5796SOL    HW118287   4.574   0.365   5.665
 5796SOL    HW218288   4.729   0.359   5.614
 5797SOL     OW18289   6.208   1.685   0.485
 5797SOL    HW118290   6.238   1.590   0.480
 5797SOL    HW218291   6.110   1.688   0.505
 5798SOL     OW18292   2.165   2.404   4.678
 5798SOL    HW118293   2.221   2.352   4.614
 5798SOL    HW218294   2.192   2.500   4.676
 5799SOL     OW18295   2.982   0.330   3.653
 5799SOL    HW118296   3.062   0.347   3.596
 5799SOL    HW218297   2.993   0.243   3.700
 5800SOL     OW18298   1.295   6.220   1.620
 5800SOL    HW118299   1.385   6.214   1.664
 5800SOL    HW218300   1.296   6.289   1.548
 5801SOL     OW18301   1.432   1.973   2.954
 5801SOL    HW118302   1.518   2.019   2.976
 5801SOL    HW218303   1.385   2.022   2.882
 5802SOL     OW18304   7.021   0.097   2.956
 5802SOL    HW118305   7.009   0.114   2.858
 5802SOL    HW218306   6.996   0.003   2.976
 5803SOL     OW18307   0.990   6.875   4.274
 5803SOL    HW118308   0.943   6.902   4.358
 5803SOL    HW218309   0.923   6.843   4.207
 5804SOL     OW18310   6.218   1.986   3.822
 5804SOL    HW118311   6.124   2.018   3.836
 5804SOL    HW218312   6.220   1.923   3.745
 5805SOL     OW18313   1.097   2.663   1.605
 5805SOL    HW118314   1.180   2.633   1.558
 5805SOL    HW218315   1.058   2.741   1.557
 5806SOL     OW18316   6.542   4.428   1.719
 5806SOL    HW118317   6.486   4.405   1.798
 5806SOL    HW218318   6.617   4.361   1.710
 5807SOL     OW18319   1.204   0.992   2.079
 5807SOL    HW118320   1.276   1.015   2.014
 5807SOL    HW218321   1.203   1.058   2.154
 5808SOL     OW18322   6.448   6.657   5.932
 5808SOL    HW118323   6.511   6.733   5.950
 5808SOL    HW218324   6.426   6.611   6.018
 5809SOL     OW18325   0.119   3.820   4.510
 5809SOL    HW118326   0.094   3.735   4.555
 5809SOL    HW218327   0.040   3.881   4.507
 5810SOL     OW18328   1.221   6.603   5.488
 5810SOL    HW118329   1.168   6.574   5.567
 5810SOL    HW218330   1.178   6.682   5.445
 5811SOL     OW18331   3.149   4.994   0.152
 5811SOL    HW118332   3.235   4.958   0.188
 5811SOL    HW218333   3.146   4.983   0.053
 5812SOL     OW18334   6.578   3.060   6.137
 5812SOL    HW118335   6.589   3.131   6.068
 5812SOL    HW218336   6.499   3.003   6.115
 5813SOL     OW18337   6.372   5.314   1.055
 5813SOL    HW118338   6.395   5.217   1.064
 5813SOL    HW218339   6.276   5.328   1.082
 5814SOL     OW18340   4.959   1.896   2.676
 5814SOL    HW118341   4.950   1.845   2.761
 5814SOL    HW218342   4.971   1.993   2.695
 5815SOL     OW18343   6.450   3.387   4.688
 5815SOL    HW118344   6.546   3.390   4.716
 5815SOL    HW218345   6.444   3.415   4.592
 5816SOL     OW18346   6.895   4.444   0.748
 5816SOL    HW118347   6.963   4.374   0.770
 5816SOL    HW218348   6.931   4.503   0.675
 5817SOL     OW18349   6.447   2.746   4.066
 5817SOL    HW118350   6.413   2.760   3.973
 5817SOL    HW218351   6.534   2.696   4.063
 5818SOL     OW18352   2.446   6.817   4.225
 5818SOL    HW118353   2.521   6.835   4.289
 5818SOL    HW218354   2.377   6.889   4.233
 5819SOL     OW18355   4.447   4.414   1.291
 5819SOL    HW118356   4.368   4.457   1.248
 5819SOL    HW218357   4.528   4.470   1.275
 5820SOL     OW18358   0.943   6.480   2.409
 5820SOL    HW118359   0.943   6.580   2.413
 5820SOL    HW218360   0.918   6.451   2.316
 5821SOL     OW18361   6.019   6.464   2.773
 5821SOL    HW118362   6.079   6.387   2.751
 5821SOL    HW218363   6.063   6.550   2.747
 5822SOL     OW18364   0.820   4.070   2.979
 5822SOL    HW118365   0.851   4.156   2.939
 5822SOL    HW218366   0.869   3.994   2.936
 5823SOL     OW18367   2.733   6.419   4.949
 5823SOL    HW118368   2.671   6.483   4.993
 5823SOL    HW218369   2.809   6.398   5.011
 5824SOL     OW18370   2.616   5.451   2.939
 5824SOL    HW118371   2.530   5.423   2.897
 5824SOL    HW218372   2.683   5.378   2.928
 5825SOL     OW18373   3.846   2.148   4.481
 5825SOL    HW118374   3.748   2.164   4.489
 5825SOL    HW218375   3.889   2.156   4.572
 5826SOL     OW18376   1.208   6.348   5.009
 5826SOL    HW118377   1.278   6.414   4.980
 5826SOL    HW218378   1.181   6.368   5.103
 5827SOL     OW18379   2.293   4.072   3.696
 5827SOL    HW118380   2.280   4.082   3.795
 5827SOL    HW218381   2.274   3.978   3.669
 5828SOL     OW18382   4.474   0.013   4.680
 5828SOL    HW118383   4.488   0.109   4.705
 5828SOL    HW218384   4.397   7.005   4.732
 5829SOL     OW18385   2.306   1.388   3.150
 5829SOL    HW118386   2.329   1.478   3.114
 5829SOL    HW218387   2.289   1.394   3.248
 5830SOL     OW18388   4.572   4.809   4.567
 5830SOL    HW118389   4.511   4.856   4.630
 5830SOL    HW218390   4.540   4.715   4.551
 5831SOL     OW18391   2.186   1.673   4.637
 5831SOL    HW118392   2.095   1.646   4.670
 5831SOL    HW218393   2.179   1.703   4.542
 5832SOL     OW18394   2.187   4.840   3.834
 5832SOL    HW118395   2.223   4.929   3.807
 5832SOL    HW218396   2.196   4.829   3.933
 5833SOL     OW18397   2.743   4.668   1.434
 5833SOL    HW118398   2.841   4.686   1.434
 5833SOL    HW218399   2.727   4.572   1.410
 5834SOL     OW18400   5.628   1.963   5.960
 5834SOL    HW118401   5.629   1.864   5.978
 5834SOL    HW218402   5.618   2.012   6.047
 5835SOL     OW18403   3.883   1.176   3.733
 5835SOL    HW118404   3.971   1.130   3.724
 5835SOL    HW218405   3.870   1.238   3.655
 5836SOL     OW18406   4.952   4.961   1.091
 5836SOL    HW118407   5.029   4.969   1.027
 5836SOL    HW218408   4.868   4.946   1.039
 5837SOL     OW18409   2.275   5.007   0.339
 5837SOL    HW118410   2.227   5.052   0.415
 5837SOL    HW218411   2.369   4.986   0.367
 5838SOL     OW18412   3.078   3.580   0.112
 5838SOL    HW118413   2.994   3.535   0.143
 5838SOL    HW218414   3.056   3.650   0.044
 5839SOL     OW18415   2.776   1.455   1.220
 5839SOL    HW118416   2.787   1.432   1.317
 5839SOL    HW218417   2.801   1.550   1.205
 5840SOL     OW18418   6.618   3.694   2.566
 5840SOL    HW118419   6.540   3.756   2.559
 5840SOL    HW218420   6.587   3.600   2.550
 5841SOL     OW18421   5.311   2.689   0.714
 5841SOL    HW118422   5.224   2.735   0.729
 5841SOL    HW218423   5.299   2.617   0.645
 5842SOL     OW18424   4.005   2.068   2.475
 5842SOL    HW118425   3.924   2.058   2.418
 5842SOL    HW218426   4.080   2.108   2.421
 5843SOL     OW18427   2.941   2.504   0.833
 5843SOL    HW118428   3.017   2.441   0.841
 5843SOL    HW218429   2.966   2.579   0.771
 5844SOL     OW18430   6.908   5.308   5.404
 5844SOL    HW118431   6.929   5.341   5.312
 5844SOL    HW218432   6.954   5.220   5.419
 5845SOL     OW18433   1.899   6.195   2.807
 5845SOL    HW118434   1.899   6.231   2.900
 5845SOL    HW218435   1.837   6.117   2.801
 5846SOL     OW18436   0.904   4.391   5.043
 5846SOL    HW118437   0.823   4.400   5.100
 5846SOL    HW218438   0.982   4.434   5.089
 5847SOL     OW18439   2.119   4.277   6.133
 5847SOL    HW118440   2.041   4.214   6.136
 5847SOL    HW218441   2.093   4.364   6.174
 5848SOL     OW18442   3.221   6.607   1.728
 5848SOL    HW118443   3.178   6.518   1.712
 5848SOL    HW218444   3.150   6.676   1.741
 5849SOL     OW18445   3.277   5.539   6.816
 5849SOL    HW118446   3.299   5.606   6.745
 5849SOL    HW218447   3.359   5.521   6.871
 5850SOL     OW18448   5.298   2.036   1.678
 5850SOL    HW118449   5.244   1.952   1.679
 5850SOL    HW218450   5.279   2.087   1.762
 5851SOL     OW18451   1.004   3.252   5.439
 5851SOL    HW118452   1.103   3.259   5.447
 5851SOL    HW218453   0.981   3.181   5.373
 5852SOL     OW18454   4.554   4.834   2.772
 5852SOL    HW118455   4.590   4.852   2.863
 5852SOL    HW218456   4.496   4.911   2.744
 5853SOL     OW18457   4.017   4.853   0.265
 5853SOL    HW118458   3.917   4.861   0.266
 5853SOL    HW218459   4.043   4.757   0.274
 5854SOL     OW18460   2.672   4.468   5.316
 5854SOL    HW118461   2.598   4.503   5.257
 5854SOL    HW218462   2.759   4.479   5.269
 5855SOL     OW18463   1.590   1.794   4.811
 5855SOL    HW118464   1.588   1.892   4.788
 5855SOL    HW218465   1.609   1.784   4.909
 5856SOL     OW18466   0.408   0.647   2.457
 5856SOL    HW118467   0.423   0.549   2.463
 5856SOL    HW218468   0.418   0.688   2.548
 5857SOL     OW18469   6.135   5.399   6.713
 5857SOL    HW118470   6.228   5.365   6.698
 5857SOL    HW218471   6.125   5.426   6.809
 5858SOL     OW18472   2.978   1.713   2.127
 5858SOL    HW118473   2.980   1.617   2.097
 5858SOL    HW218474   3.051   1.729   2.193
 5859SOL     OW18475   5.827   5.080   1.471
 5859SOL    HW118476   5.857   4.985   1.484
 5859SOL    HW218477   5.906   5.137   1.452
 5860SOL     OW18478   1.788   3.730   2.025
 5860SOL    HW118479   1.814   3.777   2.109
 5860SOL    HW218480   1.753   3.639   2.046
 5861SOL     OW18481   5.621   0.057   4.776
 5861SOL    HW118482   5.612   0.116   4.856
 5861SOL    HW218483   5.717   0.047   4.752
 5862SOL     OW18484   6.950   4.891   2.081
 5862SOL    HW118485   6.990   4.917   2.168
 5862SOL    HW218486   6.982   4.799   2.056
 5863SOL     OW18487   4.182   0.043   5.911
 5863SOL    HW118488   4.148   6.978   5.908
 5863SOL    HW218489   4.203   0.067   6.006
 5864SOL     OW18490   3.845   2.974   3.537
 5864SOL    HW118491   3.824   3.059   3.488
 5864SOL    HW218492   3.941   2.950   3.521
 5865SOL     OW18493   6.422   6.823   1.836
 5865SOL    HW118494   6.407   6.800   1.740
 5865SOL    HW218495   6.426   6.740   1.891
 5866SOL     OW18496   3.470   3.562   3.795
 5866SOL    HW118497   3.396   3.500   3.818
 5866SOL    HW218498   3.457   3.597   3.702
 5867SOL     OW18499   4.801   1.229   1.020
 5867SOL    HW118500   4.797   1.220   0.920
 5867SOL    HW218501   4.897   1.236   1.049
 5868SOL     OW18502   1.122   1.098   1.001
 5868SOL    HW118503   1.179   1.016   1.002
 5868SOL    HW218504   1.102   1.126   1.095
 5869SOL     OW18505   2.161   5.327   3.502
 5869SOL    HW118506   2.169   5.427   3.502
 5869SOL    HW218507   2.065   5.301   3.500
 5870SOL     OW18508   4.449   6.645   3.823
 5870SOL    HW118509   4.508   6.566   3.808
 5870SOL    HW218510   4.432   6.656   3.921
 5871SOL     OW18511   4.009   3.476   3.475
 5871SOL    HW118512   3.979   3.434   3.560
 5871SOL    HW218513   4.000   3.410   3.400
 5872SOL     OW18514   3.152   5.767   1.302
 5872SOL    HW118515   3.185   5.675   1.281
 5872SOL    HW218516   3.204   5.834   1.249
 5873SOL     OW18517   4.190   6.991   1.995
 5873SOL    HW118518   4.091   6.973   1.991
 5873SOL    HW218519   4.233   6.923   2.054
 5874SOL     OW18520   6.741   4.181   4.571
 5874SOL    HW118521   6.806   4.257   4.575
 5874SOL    HW218522   6.770   4.109   4.634
 5875SOL     OW18523   3.938   2.340   1.054
 5875SOL    HW118524   3.981   2.423   1.089
 5875SOL    HW218525   4.000   2.263   1.064
 5876SOL     OW18526   3.253   3.075   2.554
 5876SOL    HW118527   3.196   3.050   2.476
 5876SOL    HW218528   3.264   3.175   2.557
 5877SOL     OW18529   4.913   3.994   1.562
 5877SOL    HW118530   4.967   4.071   1.596
 5877SOL    HW218531   4.958   3.908   1.587
 5878SOL     OW18532   0.678   3.570   1.835
 5878SOL    HW118533   0.738   3.619   1.897
 5878SOL    HW218534   0.583   3.594   1.855
 5879SOL     OW18535   2.034   4.604   4.766
 5879SOL    HW118536   2.047   4.698   4.796
 5879SOL    HW218537   2.009   4.547   4.844
 5880SOL     OW18538   2.751   5.163   6.603
 5880SOL    HW118539   2.708   5.110   6.529
 5880SOL    HW218540   2.730   5.260   6.590
 5881SOL     OW18541   1.770   6.107   4.094
 5881SOL    HW118542   1.684   6.139   4.054
 5881SOL    HW218543   1.845   6.167   4.065
 5882SOL     OW18544   4.415   0.703   3.073
 5882SOL    HW118545   4.475   0.670   3.146
 5882SOL    HW218546   4.469   0.726   2.993
 5883SOL     OW18547   1.288   3.002   5.103
 5883SOL    HW118548   1.353   2.990   5.178
 5883SOL    HW218549   1.335   2.994   5.015
 5884SOL     OW18550   0.182   0.923   3.222
 5884SOL    HW118551   0.230   0.998   3.268
 5884SOL    HW218552   0.086   0.947   3.209
 5885SOL     OW18553   5.495   6.714   0.328
 5885SOL    HW118554   5.470   6.641   0.393
 5885SOL    HW218555   5.414   6.743   0.278
 5886SOL     OW18556   5.839   1.331   6.480
 5886SOL    HW118557   5.905   1.354   6.408
 5886SOL    HW218558   5.887   1.325   6.567
 5887SOL     OW18559   3.599   6.486   2.866
 5887SOL    HW118560   3.615   6.467   2.769
 5887SOL    HW218561   3.630   6.578   2.888
 5888SOL     OW18562   6.630   6.468   2.184
 5888SOL    HW118563   6.656   6.514   2.269
 5888SOL    HW218564   6.594   6.378   2.204
 5889SOL     OW18565   2.787   0.177   0.060
 5889SOL    HW118566   2.841   0.203   7.009
 5889SOL    HW218567   2.766   0.259   0.114
 5890SOL     OW18568   3.936   5.710   5.855
 5890SOL    HW118569   3.960   5.613   5.869
 5890SOL    HW218570   3.868   5.738   5.923
 5891SOL     OW18571   1.548   3.485   6.160
 5891SOL    HW118572   1.603   3.541   6.222
 5891SOL    HW218573   1.454   3.480   6.193
 5892SOL     OW18574   2.210   5.741   2.306
 5892SOL    HW118575   2.197   5.743   2.207
 5892SOL    HW218576   2.206   5.646   2.338
 5893SOL     OW18577   1.230   2.649   2.680
 5893SOL    HW118578   1.283   2.623   2.761
 5893SOL    HW218579   1.159   2.714   2.707
 5894SOL     OW18580   1.360   3.667   3.848
 5894SOL    HW118581   1.426   3.723   3.899
 5894SOL    HW218582   1.320   3.722   3.775
 5895SOL     OW18583   5.760   4.504   2.600
 5895SOL    HW118584   5.764   4.404   2.602
 5895SOL    HW218585   5.665   4.534   2.589
 5896SOL     OW18586   5.044   2.240   5.768
 5896SOL    HW118587   5.140   2.239   5.740
 5896SOL    HW218588   4.986   2.266   5.691
 5897SOL     OW18589   4.092   4.485   1.029
 5897SOL    HW118590   4.051   4.570   0.995
 5897SOL    HW218591   4.132   4.434   0.953
 5898SOL     OW18592   1.902   6.318   3.053
 5898SOL    HW118593   1.825   6.357   3.103
 5898SOL    HW218594   1.937   6.238   3.102
 5899SOL     OW18595   5.186   0.566   3.356
 5899SOL    HW118596   5.163   0.508   3.434
 5899SOL    HW218597   5.118   0.554   3.284
 5900SOL     OW18598   3.700   5.018   1.884
 5900SOL    HW118599   3.649   4.945   1.931
 5900SOL    HW218600   3.784   5.038   1.935
 5901SOL     OW18601   3.199   5.970   4.168
 5901SOL    HW118602   3.149   5.884   4.161
 5901SOL    HW218603   3.142   6.045   4.134
 5902SOL     OW18604   6.048   2.572   0.500
 5902SOL    HW118605   5.953   2.594   0.523
 5902SOL    HW218606   6.090   2.648   0.451
 5903SOL     OW18607   0.468   2.004   6.303
 5903SOL    HW118608   0.404   2.065   6.350
 5903SOL    HW218609   0.505   2.051   6.222
 5904SOL     OW18610   1.719   3.294   2.289
 5904SOL    HW118611   1.671   3.350   2.222
 5904SOL    HW218612   1.688   3.199   2.281
 5905SOL     OW18613   7.023   3.904   2.223
 5905SOL    HW118614   7.008   3.860   2.134
 5905SOL    HW218615   0.060   3.851   2.275
 5906SOL     OW18616   6.935   0.956   3.194
 5906SOL    HW118617   6.866   0.917   3.255
 5906SOL    HW218618   6.930   1.056   3.197
 5907SOL     OW18619   2.300   1.053   3.185
 5907SOL    HW118620   2.324   0.965   3.226
 5907SOL    HW218621   2.368   1.122   3.212
 5908SOL     OW18622   0.488   2.840   5.503
 5908SOL    HW118623   0.459   2.795   5.419
 5908SOL    HW218624   0.573   2.798   5.536
 5909SOL     OW18625   6.283   4.783   6.762
 5909SOL    HW118626   6.297   4.852   6.691
 5909SOL    HW218627   6.186   4.764   6.772
 5910SOL     OW18628   1.221   1.231   3.515
 5910SOL    HW118629   1.273   1.312   3.490
 5910SOL    HW218630   1.140   1.258   3.567
 5911SOL     OW18631   6.671   6.181   0.074
 5911SOL    HW118632   6.685   6.208   7.009
 5911SOL    HW218633   6.631   6.089   0.078
 5912SOL     OW18634   0.797   0.832   3.239
 5912SOL    HW118635   0.840   0.749   3.202
 5912SOL    HW218636   0.738   0.873   3.169
 5913SOL     OW18637   6.567   2.947   1.183
 5913SOL    HW118638   6.651   2.895   1.168
 5913SOL    HW218639   6.551   3.007   1.105
 5914SOL     OW18640   1.243   0.178   0.958
 5914SOL    HW118641   1.212   0.198   0.865
 5914SOL    HW218642   1.335   0.141   0.955
 5915SOL     OW18643   3.911   0.347   5.230
 5915SOL    HW118644   3.901   0.293   5.146
 5915SOL    HW218645   3.821   0.358   5.274
 5916SOL     OW18646   1.463   0.472   2.457
 5916SOL    HW118647   1.466   0.522   2.543
 5916SOL    HW218648   1.373   0.485   2.414
 5917SOL     OW18649   3.115   3.110   0.686
 5917SOL    HW118650   3.186   3.051   0.723
 5917SOL    HW218651   3.025   3.075   0.714
 5918SOL     OW18652   3.371   6.821   4.335
 5918SOL    HW118653   3.392   6.919   4.326
 5918SOL    HW218654   3.274   6.806   4.313
 5919SOL     OW18655   3.081   3.866   4.846
 5919SOL    HW118656   3.154   3.830   4.904
 5919SOL    HW218657   3.110   3.867   4.751
 5920SOL     OW18658   1.058   0.851   5.645
 5920SOL    HW118659   1.081   0.906   5.565
 5920SOL    HW218660   1.141   0.808   5.680
 5921SOL     OW18661   2.823   5.308   0.334
 5921SOL    HW118662   2.907   5.352   0.365
 5921SOL    HW218663   2.846   5.231   0.273
 5922SOL     OW18664   5.338   2.419   2.357
 5922SOL    HW118665   5.412   2.381   2.412
 5922SOL    HW218666   5.250   2.394   2.398
 5923SOL     OW18667   5.888   0.828   3.079
 5923SOL    HW118668   5.912   0.740   3.120
 5923SOL    HW218669   5.922   0.831   2.985
 5924SOL     OW18670   6.805   6.634   3.491
 5924SOL    HW118671   6.818   6.730   3.463
 5924SOL    HW218672   6.708   6.619   3.513
 5925SOL     OW18673   4.876   1.129   0.753
 5925SOL    HW118674   4.906   1.058   0.816
 5925SOL    HW218675   4.941   1.136   0.677
 5926SOL     OW18676   5.315   3.178   3.091
 5926SOL    HW118677   5.407   3.143   3.073
 5926SOL    HW218678   5.264   3.183   3.005
 5927SOL     OW18679   0.689   6.401   1.319
 5927SOL    HW118680   0.688   6.494   1.354
 5927SOL    HW218681   0.652   6.400   1.226
 5928SOL     OW18682   3.187   0.336   0.229
 5928SOL    HW118683   3.177   0.240   0.253
 5928SOL    HW218684   3.103   0.385   0.254
 5929SOL     OW18685   1.169   0.435   1.394
 5929SOL    HW118686   1.127   0.506   1.451
 5929SOL    HW218687   1.242   0.475   1.339
 5930SOL     OW18688   0.854   4.092   1.643
 5930SOL    HW118689   0.933   4.151   1.630
 5930SOL    HW218690   0.773   4.133   1.600
 5931SOL     OW18691   4.556   5.795   4.027
 5931SOL    HW118692   4.507   5.829   4.107
 5931SOL    HW218693   4.540   5.856   3.950
 5932SOL     OW18694   3.739   6.062   0.270
 5932SOL    HW118695   3.813   6.128   0.258
 5932SOL    HW218696   3.741   6.026   0.363
 5933SOL     OW18697   6.836   5.739   4.214
 5933SOL    HW118698   6.898   5.795   4.159
 5933SOL    HW218699   6.846   5.762   4.310
 5934SOL     OW18700   3.289   4.323   0.253
 5934SOL    HW118701   3.317   4.290   0.343
 5934SOL    HW218702   3.190   4.316   0.244
 5935SOL     OW18703   1.645   0.299   5.625
 5935SOL    HW118704   1.675   0.363   5.554
 5935SOL    HW218705   1.548   0.315   5.645
 5936SOL     OW18706   3.717   2.908   2.294
 5936SOL    HW118707   3.760   2.820   2.273
 5936SOL    HW218708   3.682   2.948   2.209
 5937SOL     OW18709   0.522   3.087   0.292
 5937SOL    HW118710   0.465   3.088   0.374
 5937SOL    HW218711   0.467   3.111   0.212
 5938SOL     OW18712   0.905   3.374   4.606
 5938SOL    HW118713   0.973   3.377   4.679
 5938SOL    HW218714   0.923   3.447   4.540
 5939SOL     OW18715   4.413   1.220   5.682
 5939SOL    HW118716   4.469   1.303   5.677
 5939SOL    HW218717   4.350   1.218   5.604
 5940SOL     OW18718   4.900   5.202   1.209
 5940SOL    HW118719   4.885   5.106   1.184
 5940SOL    HW218720   4.858   5.220   1.298
 5941SOL     OW18721   0.796   1.790   3.458
 5941SOL    HW118722   0.834   1.806   3.550
 5941SOL    HW218723   0.814   1.871   3.401
 5942SOL     OW18724   5.120   2.647   6.253
 5942SOL    HW118725   5.067   2.726   6.283
 5942SOL    HW218726   5.112   2.574   6.321
 5943SOL     OW18727   1.862   5.017   1.670
 5943SOL    HW118728   1.788   5.081   1.647
 5943SOL    HW218729   1.949   5.065   1.669
 5944SOL     OW18730   6.508   4.035   5.982
 5944SOL    HW118731   6.490   4.021   6.079
 5944SOL    HW218732   6.604   4.062   5.969
 5945SOL     OW18733   6.964   6.530   4.334
 5945SOL    HW118734   6.865   6.515   4.330
 5945SOL    HW218735   6.996   6.563   4.245
 5946SOL     OW18736   2.402   2.811   0.198
 5946SOL    HW118737   2.392   2.886   0.133
 5946SOL    HW218738   2.354   2.833   0.283
 5947SOL     OW18739   3.466   3.197   4.594
 5947SOL    HW118740   3.533   3.173   4.664
 5947SOL    HW218741   3.408   3.271   4.627
 5948SOL     OW18742   4.645   4.049   1.501
 5948SOL    HW118743   4.737   4.020   1.531
 5948SOL    HW218744   4.577   4.008   1.561
 5949SOL     OW18745   1.021   4.276   3.888
 5949SOL    HW118746   1.104   4.326   3.911
 5949SOL    HW218747   1.038   4.178   3.896
 5950SOL     OW18748   2.817   6.400   4.673
 5950SOL    HW118749   2.727   6.403   4.631
 5950SOL    HW218750   2.807   6.394   4.772
 5951SOL     OW18751   6.829   3.017   6.273
 5951SOL    HW118752   6.907   3.016   6.211
 5951SOL    HW218753   6.744   3.011   6.220
 5952SOL     OW18754   3.835   4.300   1.625
 5952SOL    HW118755   3.842   4.240   1.705
 5952SOL    HW218756   3.741   4.332   1.615
 5953SOL     OW18757   6.948   2.675   6.637
 5953SOL    HW118758   7.020   2.653   6.703
 5953SOL    HW218759   6.887   2.744   6.676
 5954SOL     OW18760   1.723   4.888   3.702
 5954SOL    HW118761   1.767   4.970   3.740
 5954SOL    HW218762   1.652   4.916   3.637
 5955SOL     OW18763   3.693   2.874   0.553
 5955SOL    HW118764   3.732   2.788   0.584
 5955SOL    HW218765   3.744   2.907   0.474
 5956SOL     OW18766   4.317   2.601   6.178
 5956SOL    HW118767   4.374   2.617   6.258
 5956SOL    HW218768   4.302   2.688   6.130
 5957SOL     OW18769   6.447   2.155   3.794
 5957SOL    HW118770   6.385   2.091   3.839
 5957SOL    HW218771   6.515   2.187   3.860
 5958SOL     OW18772   2.315   6.007   2.807
 5958SOL    HW118773   2.218   5.995   2.824
 5958SOL    HW218774   2.368   5.960   2.878
 5959SOL     OW18775   5.263   3.965   3.056
 5959SOL    HW118776   5.351   3.920   3.074
 5959SOL    HW218777   5.271   4.022   2.974
 5960SOL     OW18778   5.623   7.001   6.560
 5960SOL    HW118779   5.560   7.014   6.484
 5960SOL    HW218780   5.682   0.052   6.567
 5961SOL     OW18781   3.164   1.875   4.106
 5961SOL    HW118782   3.198   1.817   4.180
 5961SOL    HW218783   3.201   1.844   4.019
 5962SOL     OW18784   4.882   4.086   0.408
 5962SOL    HW118785   4.929   4.141   0.338
 5962SOL    HW218786   4.787   4.115   0.414
 5963SOL     OW18787   1.611   3.891   0.224
 5963SOL    HW118788   1.549   3.879   0.302
 5963SOL    HW218789   1.701   3.854   0.246
 5964SOL     OW18790   1.804   6.903   3.087
 5964SOL    HW118791   1.785   6.829   3.022
 5964SOL    HW218792   1.900   6.929   3.080
 5965SOL     OW18793   2.504   0.456   1.239
 5965SOL    HW118794   2.554   0.464   1.325
 5965SOL    HW218795   2.480   0.547   1.206
 5966SOL     OW18796   3.148   1.713   5.062
 5966SOL    HW118797   3.115   1.623   5.090
 5966SOL    HW218798   3.073   1.779   5.064
 5967SOL     OW18799   4.602   2.246   5.445
 5967SOL    HW118800   4.604   2.315   5.372
 5967SOL    HW218801   4.543   2.170   5.417
 5968SOL     OW18802   6.368   1.994   3.043
 5968SOL    HW118803   6.366   2.006   2.944
 5968SOL    HW218804   6.292   1.935   3.071
 5969SOL     OW18805   5.232   0.257   1.348
 5969SOL    HW118806   5.239   0.194   1.425
 5969SOL    HW218807   5.204   0.207   1.266
 5970SOL     OW18808   6.396   2.702   0.140
 5970SOL    HW118809   6.369   2.794   0.167
 5970SOL    HW218810   6.414   2.647   0.222
 5971SOL     OW18811   6.361   5.178   3.660
 5971SOL    HW118812   6.404   5.091   3.633
 5971SOL    HW218813   6.292   5.203   3.592
 5972SOL     OW18814   5.613   5.004   0.940
 5972SOL    HW118815   5.650   4.953   1.018
 5972SOL    HW218816   5.513   5.005   0.946
 5973SOL     OW18817   3.396   0.928   2.352
 5973SOL    HW118818   3.364   1.014   2.392
 5973SOL    HW218819   3.445   0.875   2.421
 5974SOL     OW18820   5.720   1.043   4.533
 5974SOL    HW118821   5.778   1.012   4.609
 5974SOL    HW218822   5.709   1.142   4.539
 5975SOL     OW18823   4.197   4.953   1.169
 5975SOL    HW118824   4.280   4.999   1.198
 5975SOL    HW218825   4.128   5.021   1.144
 5976SOL     OW18826   1.509   3.328   5.516
 5976SOL    HW118827   1.543   3.365   5.430
 5976SOL    HW218828   1.537   3.388   5.592
 5977SOL     OW18829   0.358   5.575   1.370
 5977SOL    HW118830   0.285   5.520   1.329
 5977SOL    HW218831   0.435   5.516   1.393
 5978SOL     OW18832   2.859   3.777   6.031
 5978SOL    HW118833   2.871   3.734   5.941
 5978SOL    HW218834   2.939   3.834   6.051
 5979SOL     OW18835   5.974   0.013   0.945
 5979SOL    HW118836   5.966   6.998   0.855
 5979SOL    HW218837   6.052   7.004   0.994
 5980SOL     OW18838   3.085   2.710   0.955
 5980SOL    HW118839   3.161   2.648   0.973
 5980SOL    HW218840   3.004   2.679   1.004
 5981SOL     OW18841   3.356   2.936   1.305
 5981SOL    HW118842   3.314   2.863   1.360
 5981SOL    HW218843   3.440   2.967   1.350
 5982SOL     OW18844   5.367   2.654   1.050
 5982SOL    HW118845   5.315   2.667   0.965
 5982SOL    HW218846   5.442   2.590   1.035
 5983SOL     OW18847   6.828   1.206   3.672
 5983SOL    HW118848   6.849   1.224   3.768
 5983SOL    HW218849   6.891   1.137   3.636
 5984SOL     OW18850   6.394   6.116   2.870
 5984SOL    HW118851   6.366   6.034   2.919
 5984SOL    HW218852   6.446   6.176   2.931
 5985SOL     OW18853   6.719   4.089   2.814
 5985SOL    HW118854   6.709   3.989   2.813
 5985SOL    HW218855   6.815   4.113   2.800
 5986SOL     OW18856   3.995   3.306   3.222
 5986SOL    HW118857   3.969   3.223   3.172
 5986SOL    HW218858   4.070   3.352   3.175
 5987SOL     OW18859   0.057   6.196   4.280
 5987SOL    HW118860   0.136   6.243   4.240
 5987SOL    HW218861   7.006   6.212   4.224
 5988SOL     OW18862   1.324   2.391   0.127
 5988SOL    HW118863   1.314   2.377   0.226
 5988SOL    HW218864   1.257   2.458   0.096
 5989SOL     OW18865   1.986   6.341   5.556
 5989SOL    HW118866   1.944   6.384   5.635
 5989SOL    HW218867   1.920   6.339   5.480
 5990SOL     OW18868   2.198   3.911   1.695
 5990SOL    HW118869   2.186   3.939   1.791
 5990SOL    HW218870   2.270   3.966   1.653
 5991SOL     OW18871   5.483   1.142   0.820
 5991SOL    HW118872   5.464   1.044   0.829
 5991SOL    HW218873   5.436   1.192   0.893
 5992SOL     OW18874   2.406   4.808   3.382
 5992SOL    HW118875   2.348   4.852   3.314
 5992SOL    HW218876   2.353   4.788   3.464
 5993SOL     OW18877   5.395   2.633   0.399
 5993SOL    HW118878   5.375   2.731   0.396
 5993SOL    HW218879   5.492   2.618   0.381
 5994SOL     OW18880   6.916   4.479   0.428
 5994SOL    HW118881   6.841   4.415   0.447
 5994SOL    HW218882   6.880   4.556   0.375
 5995SOL     OW18883   5.248   3.291   1.088
 5995SOL    HW118884   5.286   3.252   1.005
 5995SOL    HW218885   5.277   3.386   1.097
 5996SOL     OW18886   2.755   0.673   1.907
 5996SOL    HW118887   2.851   0.699   1.897
 5996SOL    HW218888   2.739   0.635   1.997
 5997SOL     OW18889   6.224   0.123   4.393
 5997SOL    HW118890   6.185   0.151   4.306
 5997SOL    HW218891   6.317   0.158   4.401
 5998SOL     OW18892   5.921   6.116   5.972
 5998SOL    HW118893   5.855   6.064   5.919
 5998SOL    HW218894   5.985   6.054   6.016
 5999SOL     OW18895   5.342   3.560   1.090
 5999SOL    HW118896   5.414   3.620   1.056
 5999SOL    HW218897   5.336   3.569   1.190
 6000SOL     OW18898   1.290   4.925   1.405
 6000SOL    HW118899   1.247   4.932   1.495
 6000SOL    HW218900   1.235   4.974   1.337
 6001SOL     OW18901   6.896   6.023   5.585
 6001SOL    HW118902   6.884   6.093   5.515
 6001SOL    HW218903   6.844   6.047   5.667
 6002SOL     OW18904   5.616   4.596   4.832
 6002SOL    HW118905   5.631   4.578   4.929
 6002SOL    HW218906   5.535   4.654   4.822
 6003SOL     OW18907   2.595   1.811   5.650
 6003SOL    HW118908   2.606   1.762   5.737
 6003SOL    HW218909   2.680   1.860   5.629
 6004SOL     OW18910   5.313   3.239   5.349
 6004SOL    HW118911   5.246   3.302   5.387
 6004SOL    HW218912   5.266   3.168   5.297
 6005SOL     OW18913   3.879   4.322   0.499
 6005SOL    HW118914   3.847   4.260   0.572
 6005SOL    HW218915   3.959   4.373   0.532
 6006SOL     OW18916   3.311   6.211   6.774
 6006SOL    HW118917   3.245   6.275   6.811
 6006SOL    HW218918   3.265   6.146   6.713
 6007SOL     OW18919   2.994   6.316   5.124
 6007SOL    HW118920   3.080   6.354   5.158
 6007SOL    HW218921   3.003   6.217   5.113
 6008SOL     OW18922   2.349   3.811   7.022
 6008SOL    HW118923   2.429   3.834   6.967
 6008SOL    HW218924   2.318   3.892   0.042
 6009SOL     OW18925   2.948   5.578   2.966
 6009SOL    HW118926   3.021   5.538   3.021
 6009SOL    HW218927   2.876   5.613   3.026
 6010SOL     OW18928   0.292   4.997   5.276
 6010SOL    HW118929   0.301   5.032   5.182
 6010SOL    HW218930   0.240   4.912   5.274
 6011SOL     OW18931   5.462   1.558   3.022
 6011SOL    HW118932   5.398   1.485   3.045
 6011SOL    HW218933   5.457   1.577   2.924
 6012SOL     OW18934   6.541   1.057   6.250
 6012SOL    HW118935   6.629   1.104   6.248
 6012SOL    HW218936   6.550   0.967   6.207
 6013SOL     OW18937   5.343   1.349   2.569
 6013SOL    HW118938   5.254   1.366   2.611
 6013SOL    HW218939   5.383   1.266   2.608
 6014SOL     OW18940   3.752   3.530   3.893
 6014SOL    HW118941   3.747   3.574   3.982
 6014SOL    HW218942   3.669   3.550   3.841
 6015SOL     OW18943   5.920   6.911   4.248
 6015SOL    HW118944   6.016   6.912   4.277
 6015SOL    HW218945   5.910   6.967   4.165
 6016SOL     OW18946   4.196   2.293   4.900
 6016SOL    HW118947   4.203   2.382   4.944
 6016SOL    HW218948   4.158   2.226   4.965
 6017SOL     OW18949   1.494   2.009   5.227
 6017SOL    HW118950   1.535   2.082   5.172
 6017SOL    HW218951   1.523   2.019   5.322
 6018SOL     OW18952   2.827   1.606   3.890
 6018SOL    HW118953   2.765   1.528   3.878
 6018SOL    HW218954   2.783   1.689   3.855
 6019SOL     OW18955   6.685   4.322   5.981
 6019SOL    HW118956   6.738   4.262   5.921
 6019SOL    HW218957   6.696   4.292   6.076
 6020SOL     OW18958   0.401   5.690   5.363
 6020SOL    HW118959   0.463   5.748   5.416
 6020SOL    HW218960   0.417   5.707   5.265
 6021SOL     OW18961   5.383   0.144   3.131
 6021SOL    HW118962   5.292   0.153   3.089
 6021SOL    HW218963   5.373   0.116   3.226
 6022SOL     OW18964   6.301   3.058   1.313
 6022SOL    HW118965   6.354   2.983   1.272
 6022SOL    HW218966   6.302   3.049   1.412
 6023SOL     OW18967   4.556   6.595   2.424
 6023SOL    HW118968   4.582   6.641   2.509
 6023SOL    HW218969   4.488   6.525   2.444
 6024SOL     OW18970   0.616   6.024   0.141
 6024SOL    HW118971   0.612   6.120   0.169
 6024SOL    HW218972   0.564   6.011   0.056
 6025SOL     OW18973   3.336   0.470   5.615
 6025SOL    HW118974   3.412   0.475   5.679
 6025SOL    HW218975   3.261   0.528   5.648
 6026SOL     OW18976   5.888   5.707   3.659
 6026SOL    HW118977   5.839   5.659   3.587
 6026SOL    HW218978   5.914   5.799   3.627
 6027SOL     OW18979   5.888   4.808   5.937
 6027SOL    HW118980   5.799   4.850   5.920
 6027SOL    HW218981   5.904   4.735   5.870
 6028SOL     OW18982   6.072   5.907   6.037
 6028SOL    HW118983   6.130   5.898   5.957
 6028SOL    HW218984   6.083   5.827   6.096
 6029SOL     OW18985   3.185   2.099   3.007
 6029SOL    HW118986   3.231   2.112   2.920
 6029SOL    HW218987   3.118   2.173   3.020
 6030SOL     OW18988   5.795   3.133   4.597
 6030SOL    HW118989   5.725   3.094   4.657
 6030SOL    HW218990   5.883   3.133   4.643
 6031SOL     OW18991   0.007   6.806   3.676
 6031SOL    HW118992   0.065   6.745   3.730
 6031SOL    HW218993   6.994   6.873   3.737
 6032SOL     OW18994   3.274   6.791   3.515
 6032SOL    HW118995   3.263   6.753   3.423
 6032SOL    HW218996   3.369   6.777   3.545
 6033SOL     OW18997   1.088   1.601   2.480
 6033SOL    HW118998   1.032   1.584   2.562
 6033SOL    HW218999   1.128   1.516   2.449
 6034SOL     OW19000   0.775   0.590   0.622
 6034SOL    HW119001   0.741   0.598   0.716
 6034SOL    HW219002   0.727   0.655   0.564
 6035SOL     OW19003   2.318   0.649   2.796
 6035SOL    HW119004   2.261   0.651   2.714
 6035SOL    HW219005   2.361   0.559   2.804
 6036SOL     OW19006   6.811   3.367   0.639
 6036SOL    HW119007   6.882   3.387   0.707
 6036SOL    HW219008   6.736   3.431   0.651
 6037SOL     OW19009   4.667   0.873   6.121
 6037SOL    HW119010   4.742   0.813   6.149
 6037SOL    HW219011   4.594   0.819   6.080
 6038SOL     OW19012   1.557   1.298   6.564
 6038SOL    HW119013   1.615   1.218   6.562
 6038SOL    HW219014   1.472   1.276   6.612
 6039SOL     OW19015   3.523   2.880   4.101
 6039SOL    HW119016   3.588   2.814   4.140
 6039SOL    HW219017   3.469   2.921   4.174
 6040SOL     OW19018   0.306   2.006   0.345
 6040SOL    HW119019   0.381   2.032   0.406
 6040SOL    HW219020   0.306   2.066   0.266
 6041SOL     OW19021   0.713   3.173   4.851
 6041SOL    HW119022   0.788   3.213   4.798
 6041SOL    HW219023   0.646   3.133   4.788
 6042SOL     OW19024   2.164   6.015   4.013
 6042SOL    HW119025   2.065   6.001   4.016
 6042SOL    HW219026   2.209   5.927   4.003
 6043SOL     OW19027   2.335   6.181   2.301
 6043SOL    HW119028   2.371   6.254   2.359
 6043SOL    HW219029   2.291   6.111   2.358
 6044SOL     OW19030   6.941   3.064   0.726
 6044SOL    HW119031   6.978   3.141   0.673
 6044SOL    HW219032   6.980   3.066   0.818
 6045SOL     OW19033   5.281   1.249   4.322
 6045SOL    HW119034   5.371   1.291   4.333
 6045SOL    HW219035   5.292   1.150   4.316
 6046SOL     OW19036   3.715   3.644   2.778
 6046SOL    HW119037   3.637   3.587   2.805
 6046SOL    HW219038   3.681   3.722   2.725
 6047SOL     OW19039   0.314   1.270   0.201
 6047SOL    HW119040   0.242   1.297   0.265
 6047SOL    HW219041   0.280   1.281   0.107
 6048SOL     OW19042   5.681   5.465   3.252
 6048SOL    HW119043   5.623   5.404   3.306
 6048SOL    HW219044   5.676   5.438   3.156
 6049SOL     OW19045   4.898   5.282   6.026
 6049SOL    HW119046   4.968   5.212   6.039
 6049SOL    HW219047   4.835   5.281   6.104
 6050SOL     OW19048   2.377   5.462   3.152
 6050SOL    HW119049   2.399   5.459   3.055
 6050SOL    HW219050   2.301   5.400   3.171
 6051SOL     OW19051   0.802   1.185   2.103
 6051SOL    HW119052   0.718   1.231   2.132
 6051SOL    HW219053   0.781   1.090   2.080
 6052SOL     OW19054   5.778   5.757   0.060
 6052SOL    HW119055   5.796   5.671   0.012
 6052SOL    HW219056   5.734   5.738   0.147
 6053SOL     OW19057   3.878   2.253   5.972
 6053SOL    HW119058   3.821   2.210   6.042
 6053SOL    HW219059   3.954   2.193   5.949
 6054SOL     OW19060   4.136   3.386   0.368
 6054SOL    HW119061   4.087   3.405   0.283
 6054SOL    HW219062   4.115   3.457   0.435
 6055SOL     OW19063   3.227   4.350   1.545
 6055SOL    HW119064   3.153   4.409   1.576
 6055SOL    HW219065   3.307   4.406   1.523
 6056SOL     OW19066   5.154   5.926   3.124
 6056SOL    HW119067   5.210   5.910   3.043
 6056SOL    HW219068   5.149   5.842   3.178
 6057SOL     OW19069   5.703   1.437   3.736
 6057SOL    HW119070   5.766   1.420   3.661
 6057SOL    HW219071   5.740   1.509   3.795
 6058SOL     OW19072   0.077   2.269   5.587
 6058SOL    HW119073   0.128   2.354   5.599
 6058SOL    HW219074   0.032   2.245   5.673
 6059SOL     OW19075   4.025   2.215   0.080
 6059SOL    HW119076   4.015   2.138   0.017
 6059SOL    HW219077   4.103   2.200   0.140
 6060SOL     OW19078   1.741   2.079   0.824
 6060SOL    HW119079   1.665   2.096   0.888
 6060SOL    HW219080   1.717   2.115   0.734
 6061SOL     OW19081   2.871   4.271   6.779
 6061SOL    HW119082   2.780   4.239   6.752
 6061SOL    HW219083   2.862   4.351   6.838
 6062SOL     OW19084   2.211   1.941   5.956
 6062SOL    HW119085   2.113   1.928   5.937
 6062SOL    HW219086   2.232   1.900   6.045
 6063SOL     OW19087   5.199   4.131   6.163
 6063SOL    HW119088   5.128   4.060   6.155
 6063SOL    HW219089   5.289   4.088   6.154
 6064SOL     OW19090   5.590   6.437   0.663
 6064SOL    HW119091   5.668   6.397   0.616
 6064SOL    HW219092   5.550   6.369   0.725
 6065SOL     OW19093   2.169   5.887   1.511
 6065SOL    HW119094   2.171   5.898   1.411
 6065SOL    HW219095   2.220   5.962   1.553
 6066SOL     OW19096   5.723   5.831   2.158
 6066SOL    HW119097   5.702   5.927   2.178
 6066SOL    HW219098   5.819   5.814   2.179
 6067SOL     OW19099   0.049   5.381   5.723
 6067SOL    HW119100   6.979   5.386   5.716
 6067SOL    HW219101   0.090   5.407   5.635
 6068SOL     OW19102   4.610   1.732   4.310
 6068SOL    HW119103   4.705   1.719   4.338
 6068SOL    HW219104   4.590   1.830   4.305
 6069SOL     OW19105   0.363   4.849   5.588
 6069SOL    HW119106   0.299   4.882   5.657
 6069SOL    HW219107   0.442   4.807   5.633
 6070SOL     OW19108   2.793   0.830   0.756
 6070SOL    HW119109   2.837   0.913   0.791
 6070SOL    HW219110   2.733   0.854   0.680
 6071SOL     OW19111   5.384   0.667   6.377
 6071SOL    HW119112   5.431   0.579   6.386
 6071SOL    HW219113   5.450   0.738   6.351
 6072SOL     OW19114   0.089   2.948   0.520
 6072SOL    HW119115   0.030   2.987   0.590
 6072SOL    HW219116   0.072   2.850   0.512
 6073SOL     OW19117   4.880   3.759   0.752
 6073SOL    HW119118   4.958   3.797   0.703
 6073SOL    HW219119   4.834   3.692   0.694
 6074SOL     OW19120   1.093   6.071   2.990
 6074SOL    HW119121   1.013   6.014   2.977
 6074SOL    HW219122   1.118   6.114   2.903
 6075SOL     OW19123   6.332   6.842   6.684
 6075SOL    HW119124   6.418   6.892   6.694
 6075SOL    HW219125   6.326   6.804   6.591
 6076SOL     OW19126   0.436   6.560   3.822
 6076SOL    HW119127   0.479   6.637   3.775
 6076SOL    HW219128   0.494   6.479   3.814
 6077SOL     OW19129   4.902   5.990   2.641
 6077SOL    HW119130   4.950   6.071   2.675
 6077SOL    HW219131   4.911   5.916   2.707
 6078SOL     OW19132   5.320   4.704   0.109
 6078SOL    HW119133   5.403   4.743   0.070
 6078SOL    HW219134   5.265   4.663   0.036
 6079SOL     OW19135   3.240   2.050   0.361
 6079SOL    HW119136   3.248   2.028   0.264
 6079SOL    HW219137   3.265   1.970   0.415
 6080SOL     OW19138   0.236   3.176   5.414
 6080SOL    HW119139   0.196   3.097   5.461
 6080SOL    HW219140   0.326   3.196   5.453
 6081SOL     OW19141   2.035   4.143   4.196
 6081SOL    HW119142   2.003   4.230   4.231
 6081SOL    HW219143   1.957   4.087   4.168
 6082SOL     OW19144   5.355   1.236   1.198
 6082SOL    HW119145   5.304   1.309   1.243
 6082SOL    HW219146   5.320   1.147   1.228
 6083SOL     OW19147   5.338   6.784   6.644
 6083SOL    HW119148   5.417   6.724   6.656
 6083SOL    HW219149   5.308   6.780   6.549
 6084SOL     OW19150   6.303   5.311   2.984
 6084SOL    HW119151   6.257   5.224   3.001
 6084SOL    HW219152   6.399   5.295   2.960
 6085SOL     OW19153   0.586   6.605   0.519
 6085SOL    HW119154   0.487   6.607   0.503
 6085SOL    HW219155   0.626   6.528   0.469
 6086SOL     OW19156   3.711   3.370   0.104
 6086SOL    HW119157   3.728   3.297   0.038
 6086SOL    HW219158   3.630   3.348   0.158
 6087SOL     OW19159   4.311   0.407   0.858
 6087SOL    HW119160   4.410   0.392   0.862
 6087SOL    HW219161   4.264   0.330   0.901
 6088SOL     OW19162   4.169   6.171   1.906
 6088SOL    HW119163   4.253   6.224   1.918
 6088SOL    HW219164   4.190   6.074   1.918
 6089SOL     OW19165   6.679   4.485   3.492
 6089SOL    HW119166   6.583   4.455   3.494
 6089SOL    HW219167   6.733   4.426   3.552
 6090SOL     OW19168   4.015   5.844   5.143
 6090SOL    HW119169   3.995   5.866   5.239
 6090SOL    HW219170   3.930   5.840   5.092
 6091SOL     OW19171   0.900   2.531   2.641
 6091SOL    HW119172   0.905   2.605   2.708
 6091SOL    HW219173   0.880   2.445   2.688
 6092SOL     OW19174   2.460   6.825   1.108
 6092SOL    HW119175   2.476   6.741   1.057
 6092SOL    HW219176   2.363   6.831   1.133
 6093SOL     OW19177   2.989   2.761   1.398
 6093SOL    HW119178   2.924   2.726   1.331
 6093SOL    HW219179   2.959   2.736   1.490
 6094SOL     OW19180   1.378   0.293   5.610
 6094SOL    HW119181   1.312   0.237   5.660
 6094SOL    HW219182   1.366   0.389   5.636
 6095SOL     OW19183   5.351   5.017   2.262
 6095SOL    HW119184   5.401   5.100   2.236
 6095SOL    HW219185   5.391   4.938   2.215
 6096SOL     OW19186   4.806   5.929   2.387
 6096SOL    HW119187   4.859   5.962   2.309
 6096SOL    HW219188   4.854   5.954   2.472
 6097SOL     OW19189   2.787   5.353   2.551
 6097SOL    HW119190   2.687   5.347   2.559
 6097SOL    HW219191   2.811   5.437   2.503
 6098SOL     OW19192   5.707   0.807   5.470
 6098SOL    HW119193   5.715   0.825   5.372
 6098SOL    HW219194   5.758   0.876   5.521
 6099SOL     OW19195   3.723   6.776   5.523
 6099SOL    HW119196   3.659   6.846   5.489
 6099SOL    HW219197   3.805   6.776   5.466
 6100SOL     OW19198   0.285   5.978   5.296
 6100SOL    HW119199   0.358   6.047   5.289
 6100SOL    HW219200   0.226   6.001   5.374
 6101SOL     OW19201   0.291   2.797   1.864
 6101SOL    HW119202   0.370   2.857   1.878
 6101SOL    HW219203   0.322   2.711   1.822
 6102SOL     OW19204   3.139   0.025   2.515
 6102SOL    HW119205   3.228   7.023   2.482
 6102SOL    HW219206   3.075   6.978   2.518
 6103SOL     OW19207   5.302   1.113   2.333
 6103SOL    HW119208   5.401   1.119   2.315
 6103SOL    HW219209   5.268   1.203   2.358
 6104SOL     OW19210   6.862   0.807   4.636
 6104SOL    HW119211   6.948   0.783   4.681
 6104SOL    HW219212   6.864   0.903   4.609
 6105SOL     OW19213   3.910   4.439   5.548
 6105SOL    HW119214   3.954   4.426   5.636
 6105SOL    HW219215   3.977   4.427   5.474
 6106SOL     OW19216   6.213   3.872   4.667
 6106SOL    HW119217   6.174   3.784   4.640
 6106SOL    HW219218   6.307   3.878   4.636
 6107SOL     OW19219   5.830   4.758   5.156
 6107SOL    HW119220   5.878   4.835   5.114
 6107SOL    HW219221   5.829   4.680   5.092
 6108SOL     OW19222   2.954   1.077   6.055
 6108SOL    HW119223   2.952   1.049   6.152
 6108SOL    HW219224   2.884   1.147   6.040
 6109SOL     OW19225   0.147   6.591   3.798
 6109SOL    HW119226   0.123   6.534   3.719
 6109SOL    HW219227   0.246   6.589   3.811
 6110SOL     OW19228   1.101   1.639   3.885
 6110SOL    HW119229   1.198   1.621   3.870
 6110SOL    HW219230   1.051   1.552   3.889
 6111SOL     OW19231   2.138   3.128   0.742
 6111SOL    HW119232   2.237   3.119   0.753
 6111SOL    HW219233   2.114   3.122   0.645
 6112SOL     OW19234   4.780   6.673   3.890
 6112SOL    HW119235   4.742   6.625   3.811
 6112SOL    HW219236   4.801   6.767   3.864
 6113SOL     OW19237   2.964   5.554   0.837
 6113SOL    HW119238   2.979   5.653   0.831
 6113SOL    HW219239   2.912   5.523   0.758
 6114SOL     OW19240   4.482   3.359   1.389
 6114SOL    HW119241   4.560   3.407   1.351
 6114SOL    HW219242   4.414   3.426   1.421
 6115SOL     OW19243   6.760   0.552   5.354
 6115SOL    HW119244   6.765   0.482   5.283
 6115SOL    HW219245   6.711   0.632   5.319
 6116SOL     OW19246   6.466   3.187   7.025
 6116SOL    HW119247   6.500   3.252   0.064
 6116SOL    HW219248   6.376   3.154   0.023
 6117SOL     OW19249   2.343   2.426   1.729
 6117SOL    HW119250   2.284   2.373   1.790
 6117SOL    HW219251   2.347   2.381   1.639
 6118SOL     OW19252   5.271   0.893   1.904
 6118SOL    HW119253   5.314   0.821   1.958
 6118SOL    HW219254   5.309   0.893   1.812
 6119SOL     OW19255   0.419   0.938   6.540
 6119SOL    HW119256   0.354   0.971   6.608
 6119SOL    HW219257   0.512   0.948   6.575
 6120SOL     OW19258   3.029   0.600   3.759
 6120SOL    HW119259   3.122   0.564   3.772
 6120SOL    HW219260   2.969   0.527   3.727
 6121SOL     OW19261   2.374   1.706   5.073
 6121SOL    HW119262   2.371   1.805   5.081
 6121SOL    HW219263   2.468   1.674   5.088
 6122SOL     OW19264   4.959   4.678   4.950
 6122SOL    HW119265   5.014   4.752   4.911
 6122SOL    HW219266   5.008   4.638   5.028
 6123SOL     OW19267   6.347   1.297   4.941
 6123SOL    HW119268   6.379   1.313   5.034
 6123SOL    HW219269   6.371   1.376   4.884
 6124SOL     OW19270   2.245   6.113   4.245
 6124SOL    HW119271   2.234   6.080   4.151
 6124SOL    HW219272   2.161   6.094   4.296
 6125SOL     OW19273   3.404   1.284   5.463
 6125SOL    HW119274   3.475   1.309   5.397
 6125SOL    HW219275   3.431   1.316   5.554
 6126SOL     OW19276   6.332   3.128   6.651
 6126SOL    HW119277   6.301   3.038   6.682
 6126SOL    HW219278   6.321   3.134   6.552
 6127SOL     OW19279   5.780   1.870   2.617
 6127SOL    HW119280   5.774   1.923   2.532
 6127SOL    HW219281   5.715   1.905   2.684
 6128SOL     OW19282   5.797   5.729   5.782
 6128SOL    HW119283   5.703   5.761   5.776
 6128SOL    HW219284   5.808   5.672   5.864
 6129SOL     OW19285   2.688   5.636   3.109
 6129SOL    HW119286   2.656   5.566   3.046
 6129SOL    HW219287   2.665   5.610   3.203
 6130SOL     OW19288   5.752   3.305   0.021
 6130SOL    HW119289   5.729   3.211   7.026
 6130SOL    HW219290   5.706   3.330   0.106
 6131SOL     OW19291   6.544   2.407   2.762
 6131SOL    HW119292   6.627   2.351   2.766
 6131SOL    HW219293   6.464   2.348   2.755
 6132SOL     OW19294   4.750   6.445   6.065
 6132SOL    HW119295   4.681   6.378   6.093
 6132SOL    HW219296   4.704   6.521   6.018
 6133SOL     OW19297   0.607   2.420   3.254
 6133SOL    HW119298   0.704   2.422   3.228
 6133SOL    HW219299   0.573   2.513   3.264
 6134SOL     OW19300   0.002   6.405   5.225
 6134SOL    HW119301   0.033   6.395   5.320
 6134SOL    HW219302   6.932   6.420   5.224
 6135SOL     OW19303   6.377   6.608   0.551
 6135SOL    HW119304   6.404   6.573   0.641
 6135SOL    HW219305   6.396   6.539   0.482
 6136SOL     OW19306   1.069   1.912   3.457
 6136SOL    HW119307   1.035   1.818   3.463
 6136SOL    HW219308   1.139   1.918   3.387
 6137SOL     OW19309   6.788   5.201   1.147
 6137SOL    HW119310   6.744   5.185   1.235
 6137SOL    HW219311   6.811   5.113   1.105
 6138SOL     OW19312   5.306   0.594   2.016
 6138SOL    HW119313   5.327   0.563   1.923
 6138SOL    HW219314   5.219   0.555   2.045
 6139SOL     OW19315   1.868   2.127   4.828
 6139SOL    HW119316   1.943   2.079   4.781
 6139SOL    HW219317   1.886   2.225   4.829
 6140SOL     OW19318   2.050   0.008   3.060
 6140SOL    HW119319   2.090   6.996   2.978
 6140SOL    HW219320   2.095   7.002   3.141
 6141SOL     OW19321   1.171   0.913   0.298
 6141SOL    HW119322   1.137   0.928   0.391
 6141SOL    HW219323   1.099   0.936   0.233
 6142SOL     OW19324   6.997   0.316   1.576
 6142SOL    HW119325   0.017   0.388   1.528
 6142SOL    HW219326   6.946   0.356   1.652
 6143SOL     OW19327   0.803   3.482   5.411
 6143SOL    HW119328   0.773   3.515   5.500
 6143SOL    HW219329   0.867   3.406   5.423
 6144SOL     OW19330   3.383   5.320   2.660
 6144SOL    HW119331   3.372   5.413   2.624
 6144SOL    HW219332   3.435   5.324   2.746
 6145SOL     OW19333   4.871   3.317   3.996
 6145SOL    HW119334   4.839   3.256   3.924
 6145SOL    HW219335   4.842   3.410   3.976
 6146SOL     OW19336   5.779   0.174   5.720
 6146SOL    HW119337   5.823   0.195   5.807
 6146SOL    HW219338   5.694   0.226   5.712
 6147SOL     OW19339   1.058   2.120   5.522
 6147SOL    HW119340   1.152   2.124   5.488
 6147SOL    HW219341   1.043   2.194   5.588
 6148SOL     OW19342   3.849   5.120   0.039
 6148SOL    HW119343   3.887   5.119   0.132
 6148SOL    HW219344   3.839   5.214   0.008
 6149SOL     OW19345   3.657   1.907   1.411
 6149SOL    HW119346   3.656   2.002   1.444
 6149SOL    HW219347   3.751   1.878   1.398
 6150SOL     OW19348   0.153   4.667   4.437
 6150SOL    HW119349   0.161   4.615   4.352
 6150SOL    HW219350   0.202   4.753   4.427
 6151SOL     OW19351   3.737   5.165   2.895
 6151SOL    HW119352   3.711   5.119   2.980
 6151SOL    HW219353   3.819   5.121   2.858
 6152SOL     OW19354   1.131   3.542   2.812
 6152SOL    HW119355   1.162   3.489   2.891
 6152SOL    HW219356   1.141   3.640   2.831
 6153SOL     OW19357   5.013   6.247   1.344
 6153SOL    HW119358   4.929   6.194   1.356
 6153SOL    HW219359   5.062   6.252   1.432
 6154SOL     OW19360   4.696   4.348   2.465
 6154SOL    HW119361   4.779   4.325   2.518
 6154SOL    HW219362   4.710   4.322   2.369
 6155SOL     OW19363   1.920   0.973   4.007
 6155SOL    HW119364   1.901   1.068   4.030
 6155SOL    HW219365   1.928   0.964   3.907
 6156SOL     OW19366   5.008   4.193   2.110
 6156SOL    HW119367   4.981   4.105   2.149
 6156SOL    HW219368   4.948   4.215   2.033
 6157SOL     OW19369   0.853   3.113   1.045
 6157SOL    HW119370   0.799   3.103   1.128
 6157SOL    HW219371   0.935   3.056   1.051
 6158SOL     OW19372   3.040   1.485   5.603
 6158SOL    HW119373   3.126   1.495   5.651
 6158SOL    HW219374   2.966   1.527   5.656
 6159SOL     OW19375   5.819   2.527   0.092
 6159SOL    HW119376   5.902   2.472   0.100
 6159SOL    HW219377   5.807   2.555   7.026
 6160SOL     OW19378   0.283   6.857   1.362
 6160SOL    HW119379   0.336   6.828   1.282
 6160SOL    HW219380   0.346   6.886   1.434
 6161SOL     OW19381   4.843   4.168   6.737
 6161SOL    HW119382   4.814   4.072   6.745
 6161SOL    HW219383   4.800   4.222   6.809
 6162SOL     OW19384   6.384   5.922   1.423
 6162SOL    HW119385   6.382   5.829   1.386
 6162SOL    HW219386   6.297   5.967   1.405
 6163SOL     OW19387   6.344   5.880   3.018
 6163SOL    HW119388   6.276   5.855   3.087
 6163SOL    HW219389   6.433   5.842   3.044
 6164SOL     OW19390   3.186   3.871   4.244
 6164SOL    HW119391   3.210   3.778   4.216
 6164SOL    HW219392   3.256   3.935   4.213
 6165SOL     OW19393   3.813   0.987   6.794
 6165SOL    HW119394   3.757   0.944   6.723
 6165SOL    HW219395   3.823   1.085   6.773
 6166SOL     OW19396   2.928   1.820   6.123
 6166SOL    HW119397   2.993   1.758   6.167
 6166SOL    HW219398   2.866   1.858   6.192
 6167SOL     OW19399   1.515   3.430   3.074
 6167SOL    HW119400   1.501   3.485   3.156
 6167SOL    HW219401   1.569   3.481   3.007
 6168SOL     OW19402   0.393   3.872   4.409
 6168SOL    HW119403   0.343   3.829   4.484
 6168SOL    HW219404   0.423   3.963   4.437
 6169SOL     OW19405   2.712   0.690   0.207
 6169SOL    HW119406   2.636   0.634   0.173
 6169SOL    HW219407   2.795   0.669   0.155
 6170SOL     OW19408   2.928   4.637   0.931
 6170SOL    HW119409   2.869   4.576   0.878
 6170SOL    HW219410   3.007   4.663   0.875
 6171SOL     OW19411   2.204   4.301   1.856
 6171SOL    HW119412   2.291   4.272   1.816
 6171SOL    HW219413   2.220   4.341   1.946
 6172SOL     OW19414   2.812   5.405   1.993
 6172SOL    HW119415   2.910   5.425   1.997
 6172SOL    HW219416   2.795   5.312   2.024
 6173SOL     OW19417   1.175   5.568   2.351
 6173SOL    HW119418   1.275   5.571   2.346
 6173SOL    HW219419   1.140   5.661   2.363
 6174SOL     OW19420   5.501   4.254   1.493
 6174SOL    HW119421   5.408   4.280   1.468
 6174SOL    HW219422   5.511   4.154   1.489
 6175SOL     OW19423   5.284   0.311   4.173
 6175SOL    HW119424   5.349   0.236   4.177
 6175SOL    HW219425   5.208   0.293   4.236
 6176SOL     OW19426   4.938   3.201   6.846
 6176SOL    HW119427   4.943   3.223   6.748
 6176SOL    HW219428   4.891   3.275   6.894
 6177SOL     OW19429   6.696   2.836   2.609
 6177SOL    HW119430   6.633   2.762   2.629
 6177SOL    HW219431   6.761   2.847   2.685
 6178SOL     OW19432   5.589   3.573   1.428
 6178SOL    HW119433   5.551   3.533   1.512
 6178SOL    HW219434   5.654   3.509   1.388
 6179SOL     OW19435   0.490   1.739   4.994
 6179SOL    HW119436   0.562   1.792   5.040
 6179SOL    HW219437   0.499   1.643   5.019
 6180SOL     OW19438   3.564   0.372   6.021
 6180SOL    HW119439   3.477   0.416   6.042
 6180SOL    HW219440   3.611   0.349   6.107
 6181SOL     OW19441   4.227   5.994   6.784
 6181SOL    HW119442   4.172   6.067   6.743
 6181SOL    HW219443   4.324   6.015   6.773
 6182SOL     OW19444   4.781   6.928   5.620
 6182SOL    HW119445   4.837   6.870   5.561
 6182SOL    HW219446   4.810   7.023   5.611
 6183SOL     OW19447   3.811   0.694   2.358
 6183SOL    HW119448   3.882   0.717   2.424
 6183SOL    HW219449   3.799   0.770   2.294
 6184SOL     OW19450   5.798   6.916   6.302
 6184SOL    HW119451   5.765   6.939   6.211
 6184SOL    HW219452   5.726   6.935   6.369
 6185SOL     OW19453   1.467   2.815   6.201
 6185SOL    HW119454   1.508   2.757   6.272
 6185SOL    HW219455   1.534   2.830   6.128
 6186SOL     OW19456   5.108   0.506   4.384
 6186SOL    HW119457   5.105   0.425   4.325
 6186SOL    HW219458   5.203   0.524   4.411
 6187SOL     OW19459   3.297   4.967   4.972
 6187SOL    HW119460   3.292   4.913   5.056
 6187SOL    HW219461   3.250   4.917   4.898
 6188SOL     OW19462   2.776   0.210   1.414
 6188SOL    HW119463   2.849   0.180   1.476
 6188SOL    HW219464   2.788   0.167   1.325
 6189SOL     OW19465   4.760   4.767   3.048
 6189SOL    HW119466   4.796   4.723   3.130
 6189SOL    HW219467   4.662   4.786   3.060
 6190SOL     OW19468   4.801   2.790   5.541
 6190SOL    HW119469   4.799   2.708   5.599
 6190SOL    HW219470   4.712   2.836   5.547
 6191SOL     OW19471   6.626   1.754   6.585
 6191SOL    HW119472   6.573   1.779   6.504
 6191SOL    HW219473   6.564   1.721   6.656
 6192SOL     OW19474   3.142   2.302   0.384
 6192SOL    HW119475   3.215   2.360   0.421
 6192SOL    HW219476   3.180   2.213   0.360
 6193SOL     OW19477   6.526   0.032   1.517
 6193SOL    HW119478   6.599   0.097   1.495
 6193SOL    HW219479   6.533   0.006   1.614
 6194SOL     OW19480   2.169   0.535   0.624
 6194SOL    HW119481   2.206   0.444   0.644
 6194SOL    HW219482   2.106   0.562   0.698
 6195SOL     OW19483   2.531   6.763   5.706
 6195SOL    HW119484   2.537   6.665   5.726
 6195SOL    HW219485   2.501   6.812   5.788
 6196SOL     OW19486   0.439   1.115   5.896
 6196SOL    HW119487   0.396   1.129   5.985
 6196SOL    HW219488   0.409   1.028   5.858
 6197SOL     OW19489   2.300   2.894   0.884
 6197SOL    HW119490   2.218   2.848   0.917
 6197SOL    HW219491   2.353   2.831   0.827
 6198SOL     OW19492   3.534   5.118   2.522
 6198SOL    HW119493   3.493   5.200   2.563
 6198SOL    HW219494   3.549   5.049   2.594
 6199SOL     OW19495   0.924   0.689   6.178
 6199SOL    HW119496   1.004   0.636   6.203
 6199SOL    HW219497   0.916   0.769   6.237
 6200SOL     OW19498   3.869   0.849   5.899
 6200SOL    HW119499   3.825   0.812   5.981
 6200SOL    HW219500   3.813   0.922   5.861
 6201SOL     OW19501   1.842   4.484   3.918
 6201SOL    HW119502   1.846   4.547   3.995
 6201SOL    HW219503   1.851   4.535   3.833
 6202SOL     OW19504   2.648   2.653   1.435
 6202SOL    HW119505   2.566   2.638   1.379
 6202SOL    HW219506   2.627   2.717   1.509
 6203SOL     OW19507   5.470   2.163   4.878
 6203SOL    HW119508   5.495   2.251   4.840
 6203SOL    HW219509   5.539   2.095   4.854
 6204SOL     OW19510   1.492   6.619   6.149
 6204SOL    HW119511   1.578   6.622   6.098
 6204SOL    HW219512   1.483   6.700   6.206
 6205SOL     OW19513   5.370   6.233   6.906
 6205SOL    HW119514   5.363   6.321   6.859
 6205SOL    HW219515   5.421   6.169   6.849
 6206SOL     OW19516   5.612   6.911   3.339
 6206SOL    HW119517   5.664   6.922   3.424
 6206SOL    HW219518   5.674   6.916   3.261
 6207SOL     OW19519   2.136   4.104   4.506
 6207SOL    HW119520   2.229   4.140   4.512
 6207SOL    HW219521   2.100   4.122   4.414
 6208SOL     OW19522   5.629   5.774   5.261
 6208SOL    HW119523   5.601   5.690   5.213
 6208SOL    HW219524   5.722   5.763   5.295
 6209SOL     OW19525   2.811   4.988   1.107
 6209SOL    HW119526   2.754   4.941   1.041
 6209SOL    HW219527   2.789   4.956   1.199
 6210SOL     OW19528   6.680   4.849   3.090
 6210SOL    HW119529   6.597   4.862   3.145
 6210SOL    HW219530   6.674   4.904   3.007
 6211SOL     OW19531   2.719   0.447   5.152
 6211SOL    HW119532   2.691   0.376   5.217
 6211SOL    HW219533   2.651   0.454   5.079
 6212SOL     OW19534   6.527   0.085   3.735
 6212SOL    HW119535   6.621   0.115   3.717
 6212SOL    HW219536   6.509   7.030   3.685
 6213SOL     OW19537   6.718   0.313   0.139
 6213SOL    HW119538   6.760   0.246   0.079
 6213SOL    HW219539   6.695   0.395   0.087
 6214SOL     OW19540   5.757   4.825   1.940
 6214SOL    HW119541   5.777   4.731   1.910
 6214SOL    HW219542   5.827   4.887   1.904
 6215SOL     OW19543   2.348   5.079   1.183
 6215SOL    HW119544   2.422   5.139   1.214
 6215SOL    HW219545   2.354   5.066   1.084
 6216SOL     OW19546   6.657   2.012   2.244
 6216SOL    HW119547   6.558   2.007   2.257
 6216SOL    HW219548   6.681   2.102   2.206
 6217SOL     OW19549   5.278   1.751   1.390
 6217SOL    HW119550   5.254   1.779   1.483
 6217SOL    HW219551   5.262   1.828   1.328
 6218SOL     OW19552   4.018   4.947   4.354
 6218SOL    HW119553   4.051   4.872   4.411
 6218SOL    HW219554   4.051   4.934   4.260
 6219SOL     OW19555   0.179   1.257   4.280
 6219SOL    HW119556   0.141   1.321   4.347
 6219SOL    HW219557   0.256   1.299   4.233
 6220SOL     OW19558   1.672   3.567   5.207
 6220SOL    HW119559   1.670   3.636   5.134
 6220SOL    HW219560   1.758   3.576   5.258
 6221SOL     OW19561   4.173   4.746   4.492
 6221SOL    HW119562   4.218   4.718   4.578
 6221SOL    HW219563   4.232   4.721   4.415
 6222SOL     OW19564   0.261   1.557   1.244
 6222SOL    HW119565   0.323   1.482   1.269
 6222SOL    HW219566   0.200   1.577   1.320
 6223SOL     OW19567   4.860   4.088   4.469
 6223SOL    HW119568   4.801   4.156   4.512
 6223SOL    HW219569   4.851   4.001   4.517
 6224SOL     OW19570   2.627   0.049   4.674
 6224SOL    HW119571   2.726   0.048   4.683
 6224SOL    HW219572   2.598   0.131   4.624
 6225SOL     OW19573   4.274   1.783   6.775
 6225SOL    HW119574   4.269   1.852   6.703
 6225SOL    HW219575   4.186   1.777   6.822
 6226SOL     OW19576   6.761   6.659   4.717
 6226SOL    HW119577   6.689   6.634   4.652
 6226SOL    HW219578   6.738   6.746   4.760
 6227SOL     OW19579   3.131   4.586   0.112
 6227SOL    HW119580   3.162   4.665   0.059
 6227SOL    HW219581   3.084   4.522   0.052
 6228SOL     OW19582   6.763   1.958   2.855
 6228SOL    HW119583   6.712   1.916   2.781
 6228SOL    HW219584   6.737   1.916   2.942
 6229SOL     OW19585   1.561   2.641   1.882
 6229SOL    HW119586   1.584   2.645   1.979
 6229SOL    HW219587   1.617   2.707   1.831
 6230SOL     OW19588   2.096   2.206   4.175
 6230SOL    HW119589   2.007   2.253   4.180
 6230SOL    HW219590   2.168   2.272   4.195
 6231SOL     OW19591   6.721   5.578   1.400
 6231SOL    HW119592   6.691   5.669   1.428
 6231SOL    HW219593   6.646   5.532   1.351
 6232SOL     OW19594   0.917   1.397   0.256
 6232SOL    HW119595   0.892   1.315   0.307
 6232SOL    HW219596   0.853   1.409   0.180
 6233SOL     OW19597   4.347   1.250   6.421
 6233SOL    HW119598   4.327   1.233   6.518
 6233SOL    HW219599   4.262   1.248   6.369
 6234SOL     OW19600   1.881   2.538   3.659
 6234SOL    HW119601   1.814   2.526   3.586
 6234SOL    HW219602   1.839   2.587   3.735
 6235SOL     OW19603   1.768   5.811   2.537
 6235SOL    HW119604   1.862   5.788   2.512
 6235SOL    HW219605   1.763   5.908   2.562
 6236SOL     OW19606   6.585   4.015   0.429
 6236SOL    HW119607   6.497   4.054   0.401
 6236SOL    HW219608   6.658   4.053   0.371
 6237SOL     OW19609   3.903   6.218   6.688
 6237SOL    HW119610   3.887   6.120   6.679
 6237SOL    HW219611   3.817   6.264   6.712
 6238SOL     OW19612   5.144   3.805   0.656
 6238SOL    HW119613   5.160   3.895   0.615
 6238SOL    HW219614   5.124   3.739   0.583
 6239SOL     OW19615   2.502   6.922   3.406
 6239SOL    HW119616   2.464   6.917   3.498
 6239SOL    HW219617   2.472   6.842   3.353
 6240SOL     OW19618   1.443   3.545   0.126
 6240SOL    HW119619   1.400   3.538   0.216
 6240SOL    HW219620   1.541   3.563   0.136
 6241SOL     OW19621   4.998   0.287   1.547
 6241SOL    HW119622   4.936   0.249   1.479
 6241SOL    HW219623   5.018   0.383   1.524
 6242SOL     OW19624   4.295   2.387   3.289
 6242SOL    HW119625   4.200   2.354   3.281
 6242SOL    HW219626   4.322   2.386   3.386
 6243SOL     OW19627   5.641   5.413   2.998
 6243SOL    HW119628   5.692   5.329   2.976
 6243SOL    HW219629   5.686   5.491   2.954
 6244SOL     OW19630   1.939   2.116   2.514
 6244SOL    HW119631   1.913   2.069   2.429
 6244SOL    HW219632   1.988   2.200   2.491
 6245SOL     OW19633   2.092   3.600   1.008
 6245SOL    HW119634   2.072   3.694   0.981
 6245SOL    HW219635   2.071   3.539   0.932
 6246SOL     OW19636   4.326   0.524   0.058
 6246SOL    HW119637   4.234   0.494   0.083
 6246SOL    HW219638   4.326   0.623   0.041
 6247SOL     OW19639   6.691   6.277   2.978
 6247SOL    HW119640   6.778   6.326   2.991
 6247SOL    HW219641   6.670   6.272   2.881
 6248SOL     OW19642   1.410   5.754   0.689
 6248SOL    HW119643   1.491   5.697   0.694
 6248SOL    HW219644   1.430   5.845   0.724
 6249SOL     OW19645   6.290   3.997   6.551
 6249SOL    HW119646   6.367   3.934   6.549
 6249SOL    HW219647   6.206   3.947   6.574
 6250SOL     OW19648   6.286   4.826   5.703
 6250SOL    HW119649   6.366   4.822   5.643
 6250SOL    HW219650   6.209   4.779   5.660
 6251SOL     OW19651   4.708   1.594   0.989
 6251SOL    HW119652   4.660   1.649   1.057
 6251SOL    HW219653   4.647   1.521   0.956
 6252SOL     OW19654   2.265   6.149   5.298
 6252SOL    HW119655   2.301   6.057   5.286
 6252SOL    HW219656   2.165   6.146   5.302
 6253SOL     OW19657   2.755   4.057   1.603
 6253SOL    HW119658   2.849   4.050   1.568
 6253SOL    HW219659   2.691   4.031   1.530
 6254SOL     OW19660   5.218   0.222   0.334
 6254SOL    HW119661   5.207   0.124   0.321
 6254SOL    HW219662   5.278   0.239   0.412
 6255SOL     OW19663   6.820   2.712   3.124
 6255SOL    HW119664   6.725   2.726   3.153
 6255SOL    HW219665   6.856   2.797   3.086
 6256SOL     OW19666   3.630   5.374   4.024
 6256SOL    HW119667   3.688   5.302   3.987
 6256SOL    HW219668   3.539   5.337   4.043
 6257SOL     OW19669   4.472   3.051   0.155
 6257SOL    HW119670   4.513   3.075   0.067
 6257SOL    HW219671   4.515   3.104   0.228
 6258SOL     OW19672   4.536   2.542   2.853
 6258SOL    HW119673   4.488   2.516   2.937
 6258SOL    HW219674   4.589   2.625   2.869
 6259SOL     OW19675   3.060   2.292   1.491
 6259SOL    HW119676   3.097   2.309   1.582
 6259SOL    HW219677   2.974   2.341   1.479
 6260SOL     OW19678   3.515   4.141   1.092
 6260SOL    HW119679   3.427   4.138   1.045
 6260SOL    HW219680   3.587   4.115   1.028
 6261SOL     OW19681   4.626   0.163   6.803
 6261SOL    HW119682   4.596   0.242   6.856
 6261SOL    HW219683   4.548   0.126   6.752
 6262SOL     OW19684   0.659   6.000   5.253
 6262SOL    HW119685   0.662   5.953   5.165
 6262SOL    HW219686   0.593   6.075   5.249
 6263SOL     OW19687   6.445   1.143   1.203
 6263SOL    HW119688   6.453   1.239   1.228
 6263SOL    HW219689   6.517   1.090   1.250
 6264SOL     OW19690   2.245   1.541   0.332
 6264SOL    HW119691   2.145   1.549   0.339
 6264SOL    HW219692   2.279   1.610   0.268
 6265SOL     OW19693   5.401   3.811   0.782
 6265SOL    HW119694   5.355   3.884   0.833
 6265SOL    HW219695   5.371   3.812   0.687
 6266SOL     OW19696   2.438   0.116   2.271
 6266SOL    HW119697   2.457   0.052   2.196
 6266SOL    HW219698   2.418   0.206   2.232
 6267SOL     OW19699   2.845   0.525   6.998
 6267SOL    HW119700   2.745   0.526   6.990
 6267SOL    HW219701   2.883   0.470   6.924
 6268SOL     OW19702   2.309   5.749   3.229
 6268SOL    HW119703   2.389   5.721   3.282
 6268SOL    HW219704   2.261   5.668   3.196
 6269SOL     OW19705   5.962   4.354   0.439
 6269SOL    HW119706   5.941   4.261   0.407
 6269SOL    HW219707   6.060   4.370   0.434
 6270SOL     OW19708   0.706   0.931   3.981
 6270SOL    HW119709   0.719   0.912   4.078
 6270SOL    HW219710   0.737   0.852   3.927
 6271SOL     OW19711   6.367   1.714   1.186
 6271SOL    HW119712   6.307   1.778   1.137
 6271SOL    HW219713   6.382   1.633   1.129
 6272SOL     OW19714   2.073   1.849   3.651
 6272SOL    HW119715   2.035   1.940   3.634
 6272SOL    HW219716   2.171   1.850   3.634
 6273SOL     OW19717   4.526   0.947   2.430
 6273SOL    HW119718   4.504   0.947   2.527
 6273SOL    HW219719   4.530   1.042   2.397
 6274SOL     OW19720   2.871   6.535   6.631
 6274SOL    HW119721   2.796   6.519   6.696
 6274SOL    HW219722   2.922   6.617   6.659
 6275SOL     OW19723   2.945   0.736   4.336
 6275SOL    HW119724   3.021   0.765   4.395
 6275SOL    HW219725   2.976   0.734   4.241
 6276SOL     OW19726   1.193   5.290   3.838
 6276SOL    HW119727   1.099   5.255   3.843
 6276SOL    HW219728   1.214   5.340   3.922
 6277SOL     OW19729   5.765   3.251   4.350
 6277SOL    HW119730   5.849   3.258   4.297
 6277SOL    HW219731   5.785   3.210   4.439
 6278SOL     OW19732   4.313   0.590   3.958
 6278SOL    HW119733   4.324   0.492   3.941
 6278SOL    HW219734   4.372   0.618   4.034
 6279SOL     OW19735   4.794   1.752   6.964
 6279SOL    HW119736   4.701   1.730   6.936
 6279SOL    HW219737   4.819   1.843   6.931
 6280SOL     OW19738   1.175   5.275   5.998
 6280SOL    HW119739   1.227   5.273   6.084
 6280SOL    HW219740   1.233   5.310   5.925
 6281SOL     OW19741   3.170   6.460   4.884
 6281SOL    HW119742   3.178   6.436   4.787
 6281SOL    HW219743   3.093   6.411   4.925
 6282SOL     OW19744   0.842   0.167   3.677
 6282SOL    HW119745   0.858   0.198   3.583
 6282SOL    HW219746   0.892   0.226   3.740
 6283SOL     OW19747   1.037   3.408   4.839
 6283SOL    HW119748   0.986   3.456   4.911
 6283SOL    HW219749   1.059   3.315   4.871
 6284SOL     OW19750   2.873   4.615   6.303
 6284SOL    HW119751   2.940   4.549   6.336
 6284SOL    HW219752   2.811   4.569   6.239
 6285SOL     OW19753   1.618   4.743   2.882
 6285SOL    HW119754   1.702   4.692   2.896
 6285SOL    HW219755   1.551   4.716   2.951
 6286SOL     OW19756   6.615   6.301   4.722
 6286SOL    HW119757   6.696   6.256   4.684
 6286SOL    HW219758   6.641   6.356   4.801
 6287SOL     OW19759   3.584   4.953   2.734
 6287SOL    HW119760   3.515   4.897   2.781
 6287SOL    HW219761   3.622   5.019   2.799
 6288SOL     OW19762   5.653   3.361   1.030
 6288SOL    HW119763   5.556   3.384   1.041
 6288SOL    HW219764   5.688   3.401   0.946
 6289SOL     OW19765   1.292   6.622   2.448
 6289SOL    HW119766   1.389   6.638   2.431
 6289SOL    HW219767   1.237   6.694   2.406
 6290SOL     OW19768   6.050   3.942   3.410
 6290SOL    HW119769   6.068   4.023   3.467
 6290SOL    HW219770   6.119   3.936   3.338
 6291SOL     OW19771   4.051   3.760   3.204
 6291SOL    HW119772   4.080   3.845   3.248
 6291SOL    HW219773   4.030   3.779   3.108
 6292SOL     OW19774   0.309   1.315   2.109
 6292SOL    HW119775   0.245   1.367   2.053
 6292SOL    HW219776   0.264   1.234   2.145
 6293SOL     OW19777   5.658   5.075   0.159
 6293SOL    HW119778   5.590   5.081   0.232
 6293SOL    HW219779   5.743   5.118   0.190
 6294SOL     OW19780   3.799   5.712   2.042
 6294SOL    HW119781   3.699   5.712   2.047
 6294SOL    HW219782   3.836   5.671   2.125
 6295SOL     OW19783   0.034   6.246   5.920
 6295SOL    HW119784   0.101   6.172   5.912
 6295SOL    HW219785   6.974   6.214   5.890
 6296SOL     OW19786   6.890   0.671   3.081
 6296SOL    HW119787   6.888   0.770   3.090
 6296SOL    HW219788   6.798   0.638   3.058
 6297SOL     OW19789   5.357   0.883   5.910
 6297SOL    HW119790   5.309   0.967   5.933
 6297SOL    HW219791   5.451   0.905   5.884
 6298SOL     OW19792   7.006   2.063   4.006
 6298SOL    HW119793   6.983   2.147   4.056
 6298SOL    HW219794   6.940   2.050   3.932
 6299SOL     OW19795   6.528   3.081   0.634
 6299SOL    HW119796   6.604   3.117   0.579
 6299SOL    HW219797   6.527   2.981   0.628
 6300SOL     OW19798   5.383   1.529   3.416
 6300SOL    HW119799   5.290   1.564   3.425
 6300SOL    HW219800   5.434   1.546   3.500
 6301SOL     OW19801   3.346   0.757   0.862
 6301SOL    HW119802   3.378   0.842   0.903
 6301SOL    HW219803   3.423   0.695   0.848
 6302SOL     OW19804   6.512   0.551   2.430
 6302SOL    HW119805   6.474   0.635   2.467
 6302SOL    HW219806   6.441   0.480   2.427
 6303SOL     OW19807   2.035   5.724   5.207
 6303SOL    HW119808   2.015   5.797   5.142
 6303SOL    HW219809   2.011   5.754   5.299
 6304SOL     OW19810   4.310   0.992   4.791
 6304SOL    HW119811   4.300   1.089   4.771
 6304SOL    HW219812   4.221   0.954   4.817
 6305SOL     OW19813   5.234   0.853   2.390
 6305SOL    HW119814   5.260   0.949   2.384
 6305SOL    HW219815   5.140   0.845   2.422
 6306SOL     OW19816   6.196   2.724   4.197
 6306SOL    HW119817   6.137   2.795   4.158
 6306SOL    HW219818   6.291   2.740   4.169
 6307SOL     OW19819   2.000   4.781   0.397
 6307SOL    HW119820   1.930   4.843   0.362
 6307SOL    HW219821   1.992   4.692   0.352
 6308SOL     OW19822   3.832   2.555   6.248
 6308SOL    HW119823   3.752   2.519   6.295
 6308SOL    HW219824   3.911   2.550   6.309
 6309SOL     OW19825   5.779   2.115   5.067
 6309SOL    HW119826   5.750   2.200   5.110
 6309SOL    HW219827   5.707   2.084   5.004
 6310SOL     OW19828   0.127   5.271   4.205
 6310SOL    HW119829   0.108   5.202   4.136
 6310SOL    HW219830   0.126   5.229   4.296
 6311SOL     OW19831   6.371   6.756   4.743
 6311SOL    HW119832   6.414   6.735   4.831
 6311SOL    HW219833   6.326   6.845   4.749
 6312SOL     OW19834   5.179   4.266   5.734
 6312SOL    HW119835   5.115   4.290   5.807
 6312SOL    HW219836   5.198   4.348   5.679
 6313SOL     OW19837   2.424   5.206   4.052
 6313SOL    HW119838   2.331   5.222   4.086
 6313SOL    HW219839   2.488   5.265   4.101
 6314SOL     OW19840   1.490   0.476   3.654
 6314SOL    HW119841   1.496   0.550   3.587
 6314SOL    HW219842   1.454   0.394   3.610
 6315SOL     OW19843   2.283   3.697   0.237
 6315SOL    HW119844   2.306   3.615   0.288
 6315SOL    HW219845   2.343   3.706   0.158
 6316SOL     OW19846   4.235   1.276   5.457
 6316SOL    HW119847   4.264   1.279   5.361
 6316SOL    HW219848   4.235   1.369   5.495
 6317SOL     OW19849   6.034   5.189   4.686
 6317SOL    HW119850   6.106   5.171   4.753
 6317SOL    HW219851   5.965   5.249   4.726
 6318SOL     OW19852   2.099   2.067   4.662
 6318SOL    HW119853   2.189   2.047   4.701
 6318SOL    HW219854   2.086   2.014   4.579
 6319SOL     OW19855   0.665   1.834   2.780
 6319SOL    HW119856   0.695   1.929   2.790
 6319SOL    HW219857   0.699   1.797   2.694
 6320SOL     OW19858   0.353   1.925   3.071
 6320SOL    HW119859   0.419   1.998   3.091
 6320SOL    HW219860   0.376   1.883   2.983
 6321SOL     OW19861   2.605   3.845   6.096
 6321SOL    HW119862   2.565   3.753   6.092
 6321SOL    HW219863   2.703   3.839   6.080
 6322SOL     OW19864   2.389   0.687   0.179
 6322SOL    HW119865   2.455   0.757   0.151
 6322SOL    HW219866   2.310   0.731   0.222
 6323SOL     OW19867   4.112   1.772   1.516
 6323SOL    HW119868   4.161   1.691   1.484
 6323SOL    HW219869   4.176   1.849   1.525
 6324SOL     OW19870   3.557   2.007   6.529
 6324SOL    HW119871   3.551   1.937   6.458
 6324SOL    HW219872   3.523   2.093   6.494
 6325SOL     OW19873   1.388   3.070   2.556
 6325SOL    HW119874   1.469   3.128   2.559
 6325SOL    HW219875   1.324   3.098   2.628
 6326SOL     OW19876   4.392   6.695   1.240
 6326SOL    HW119877   4.317   6.655   1.294
 6326SOL    HW219878   4.466   6.720   1.302
 6327SOL     OW19879   3.813   5.708   5.594
 6327SOL    HW119880   3.829   5.626   5.539
 6327SOL    HW219881   3.852   5.694   5.685
 6328SOL     OW19882   2.736   4.753   6.692
 6328SOL    HW119883   2.762   4.751   6.789
 6328SOL    HW219884   2.816   4.734   6.636
 6329SOL     OW19885   0.515   1.523   2.973
 6329SOL    HW119886   0.596   1.571   3.007
 6329SOL    HW219887   0.489   1.451   3.038
 6330SOL     OW19888   3.889   0.254   0.598
 6330SOL    HW119889   3.965   0.317   0.583
 6330SOL    HW219890   3.803   0.304   0.599
 6331SOL     OW19891   5.139   3.078   2.122
 6331SOL    HW119892   5.077   3.012   2.078
 6331SOL    HW219893   5.132   3.165   2.074
 6332SOL     OW19894   4.933   6.456   2.452
 6332SOL    HW119895   4.925   6.552   2.426
 6332SOL    HW219896   5.015   6.444   2.509
 6333SOL     OW19897   2.058   5.236   3.063
 6333SOL    HW119898   2.130   5.209   3.127
 6333SOL    HW219899   1.972   5.190   3.087
 6334SOL     OW19900   2.724   1.602   2.694
 6334SOL    HW119901   2.693   1.573   2.604
 6334SOL    HW219902   2.647   1.604   2.757
 6335SOL     OW19903   0.110   1.582   0.334
 6335SOL    HW119904   0.030   1.643   0.342
 6335SOL    HW219905   0.166   1.611   0.256
 6336SOL     OW19906   1.010   3.765   5.001
 6336SOL    HW119907   1.041   3.819   5.080
 6336SOL    HW219908   0.990   3.672   5.030
 6337SOL     OW19909   6.947   4.987   4.992
 6337SOL    HW119910   6.984   4.912   4.938
 6337SOL    HW219911   6.993   5.072   4.966
 6338SOL     OW19912   3.770   1.398   4.329
 6338SOL    HW119913   3.795   1.302   4.315
 6338SOL    HW219914   3.834   1.457   4.279
 6339SOL     OW19915   0.138   2.825   4.696
 6339SOL    HW119916   0.229   2.797   4.664
 6339SOL    HW219917   0.075   2.748   4.690
 6340SOL     OW19918   2.373   5.757   4.462
 6340SOL    HW119919   2.444   5.747   4.532
 6340SOL    HW219920   2.335   5.668   4.440
 6341SOL     OW19921   6.401   5.299   2.400
 6341SOL    HW119922   6.316   5.314   2.350
 6341SOL    HW219923   6.417   5.377   2.462
 6342SOL     OW19924   1.160   3.435   0.616
 6342SOL    HW119925   1.248   3.482   0.611
 6342SOL    HW219926   1.086   3.502   0.623
 6343SOL     OW19927   4.805   1.329   0.400
 6343SOL    HW119928   4.725   1.319   0.341
 6343SOL    HW219929   4.784   1.290   0.490
 6344SOL     OW19930   6.719   4.695   4.872
 6344SOL    HW119931   6.650   4.726   4.806
 6344SOL    HW219932   6.688   4.714   4.965
 6345SOL     OW19933   2.500   2.400   2.112
 6345SOL    HW119934   2.551   2.340   2.050
 6345SOL    HW219935   2.405   2.372   2.115
 6346SOL     OW19936   0.530   5.335   4.181
 6346SOL    HW119937   0.483   5.330   4.092
 6346SOL    HW219938   0.574   5.424   4.190
 6347SOL     OW19939   3.227   0.475   0.784
 6347SOL    HW119940   3.173   0.429   0.854
 6347SOL    HW219941   3.311   0.512   0.825
 6348SOL     OW19942   0.050   2.497   4.296
 6348SOL    HW119943   0.056   2.450   4.384
 6348SOL    HW219944   0.142   2.519   4.264
 6349SOL     OW19945   1.470   0.891   0.633
 6349SOL    HW119946   1.456   0.802   0.589
 6349SOL    HW219947   1.450   0.964   0.567
 6350SOL     OW19948   0.075   5.369   3.025
 6350SOL    HW119949   7.018   5.410   2.998
 6350SOL    HW219950   0.058   5.295   3.090
 6351SOL     OW19951   0.114   1.641   3.029
 6351SOL    HW119952   0.122   1.726   2.976
 6351SOL    HW219953   0.091   1.566   2.967
 6352SOL     OW19954   0.384   4.832   2.343
 6352SOL    HW119955   0.350   4.925   2.327
 6352SOL    HW219956   0.349   4.771   2.273
 6353SOL     OW19957   0.493   6.370   1.872
 6353SOL    HW119958   0.549   6.309   1.927
 6353SOL    HW219959   0.460   6.445   1.929
 6354SOL     OW19960   0.111   6.840   4.252
 6354SOL    HW119961   0.077   6.820   4.344
 6354SOL    HW219962   0.101   6.758   4.195
 6355SOL     OW19963   1.228   2.615   2.022
 6355SOL    HW119964   1.181   2.703   2.010
 6355SOL    HW219965   1.271   2.589   1.936
 6356SOL     OW19966   3.646   3.767   1.146
 6356SOL    HW119967   3.638   3.693   1.213
 6356SOL    HW219968   3.721   3.828   1.172
 6357SOL     OW19969   5.539   2.453   1.069
 6357SOL    HW119970   5.518   2.447   1.167
 6357SOL    HW219971   5.492   2.380   1.020
 6358SOL     OW19972   0.993   3.045   4.696
 6358SOL    HW119973   1.012   2.948   4.682
 6358SOL    HW219974   0.913   3.072   4.643
 6359SOL     OW19975   6.936   1.379   6.902
 6359SOL    HW119976   6.915   1.465   6.949
 6359SOL    HW219977   6.852   1.342   6.863
 6360SOL     OW19978   2.491   5.604   4.131
 6360SOL    HW119979   2.558   5.642   4.195
 6360SOL    HW219980   2.461   5.514   4.163
 6361SOL     OW19981   3.024   6.711   5.617
 6361SOL    HW119982   2.940   6.682   5.663
 6361SOL    HW219983   3.082   6.761   5.681
 6362SOL     OW19984   6.134   5.235   6.190
 6362SOL    HW119985   6.077   5.222   6.271
 6362SOL    HW219986   6.097   5.181   6.114
 6363SOL     OW19987   0.693   5.562   4.228
 6363SOL    HW119988   0.771   5.602   4.275
 6363SOL    HW219989   0.635   5.634   4.189
 6364SOL     OW19990   2.434   2.619   6.608
 6364SOL    HW119991   2.440   2.544   6.673
 6364SOL    HW219992   2.395   2.699   6.653
 6365SOL     OW19993   4.266   5.262   2.182
 6365SOL    HW119994   4.219   5.341   2.144
 6365SOL    HW219995   4.341   5.236   2.122
 6366SOL     OW19996   0.432   4.518   5.437
 6366SOL    HW119997   0.461   4.614   5.433
 6366SOL    HW219998   0.497   4.462   5.386
 6367SOL     OW19999   5.925   6.143   2.863
 6367SOL    HW120000   5.934   6.136   2.764
 6367SOL    HW220001   5.987   6.213   2.898
 6368SOL     OW20002   3.599   0.794   3.311
 6368SOL    HW120003   3.544   0.750   3.240
 6368SOL    HW220004   3.693   0.802   3.281
 6369SOL     OW20005   2.352   5.207   5.419
 6369SOL    HW120006   2.385   5.120   5.384
 6369SOL    HW220007   2.419   5.278   5.399
 6370SOL     OW20008   5.172   2.973   1.835
 6370SOL    HW120009   5.171   2.873   1.843
 6370SOL    HW220010   5.254   3.010   1.879
 6371SOL     OW20011   4.771   1.425   3.977
 6371SOL    HW120012   4.777   1.333   4.016
 6371SOL    HW220013   4.784   1.421   3.878
 6372SOL     OW20014   2.765   0.044   2.453
 6372SOL    HW120015   2.685   0.103   2.443
 6372SOL    HW220016   2.740   6.993   2.506
 6373SOL     OW20017   3.541   4.733   6.958
 6373SOL    HW120018   3.469   4.678   6.915
 6373SOL    HW220019   3.539   4.826   6.921
 6374SOL     OW20020   3.000   3.172   3.043
 6374SOL    HW120021   3.086   3.193   3.089
 6374SOL    HW220022   3.002   3.078   3.010
 6375SOL     OW20023   1.909   5.820   1.917
 6375SOL    HW120024   1.855   5.894   1.955
 6375SOL    HW220025   1.849   5.745   1.890
 6376SOL     OW20026   0.996   2.118   5.097
 6376SOL    HW120027   0.984   2.121   4.998
 6376SOL    HW220028   1.073   2.176   5.122
 6377SOL     OW20029   1.164   1.981   3.710
 6377SOL    HW120030   1.254   1.987   3.666
 6377SOL    HW220031   1.102   1.928   3.653
 6378SOL     OW20032   4.246   5.613   3.372
 6378SOL    HW120033   4.158   5.572   3.349
 6378SOL    HW220034   4.313   5.541   3.391
 6379SOL     OW20035   2.255   4.643   1.942
 6379SOL    HW120036   2.228   4.714   1.878
 6379SOL    HW220037   2.352   4.624   1.933
 6380SOL     OW20038   1.371   1.045   5.920
 6380SOL    HW120039   1.413   1.127   5.881
 6380SOL    HW220040   1.275   1.040   5.893
 6381SOL     OW20041   3.230   3.469   2.111
 6381SOL    HW120042   3.253   3.559   2.149
 6381SOL    HW220043   3.215   3.479   2.012
 6382SOL     OW20044   1.299   4.846   4.774
 6382SOL    HW120045   1.379   4.885   4.820
 6382SOL    HW220046   1.275   4.902   4.695
 6383SOL     OW20047   3.832   1.648   3.517
 6383SOL    HW120048   3.848   1.565   3.463
 6383SOL    HW220049   3.791   1.622   3.605
 6384SOL     OW20050   6.915   4.556   2.426
 6384SOL    HW120051   6.898   4.572   2.329
 6384SOL    HW220052   6.883   4.635   2.479
 6385SOL     OW20053   1.156   5.742   5.362
 6385SOL    HW120054   1.093   5.760   5.437
 6385SOL    HW220055   1.218   5.821   5.351
 6386SOL     OW20056   2.493   5.321   2.192
 6386SOL    HW120057   2.440   5.261   2.251
 6386SOL    HW220058   2.522   5.402   2.243
 6387SOL     OW20059   6.076   0.750   5.208
 6387SOL    HW120060   6.042   0.791   5.123
 6387SOL    HW220061   6.157   0.798   5.239
 6388SOL     OW20062   1.907   5.214   3.442
 6388SOL    HW120063   1.836   5.205   3.372
 6388SOL    HW220064   1.927   5.124   3.482
 6389SOL     OW20065   1.126   4.593   1.510
 6389SOL    HW120066   1.181   4.619   1.431
 6389SOL    HW220067   1.175   4.523   1.563
 6390SOL     OW20068   0.875   2.615   4.221
 6390SOL    HW120069   0.917   2.663   4.298
 6390SOL    HW220070   0.799   2.560   4.253
 6391SOL     OW20071   3.864   0.753   6.560
 6391SOL    HW120072   3.793   0.819   6.533
 6391SOL    HW220073   3.851   0.727   6.655
 6392SOL     OW20074   1.306   6.202   4.538
 6392SOL    HW120075   1.322   6.147   4.620
 6392SOL    HW220076   1.253   6.150   4.472
 6393SOL     OW20077   5.042   1.679   0.036
 6393SOL    HW120078   5.046   1.672   0.135
 6393SOL    HW220079   4.948   1.700   0.008
 6394SOL     OW20080   3.179   4.770   1.681
 6394SOL    HW120081   3.158   4.822   1.598
 6394SOL    HW220082   3.113   4.794   1.752
 6395SOL     OW20083   5.820   2.227   0.178
 6395SOL    HW120084   5.731   2.264   0.205
 6395SOL    HW220085   5.808   2.166   0.099
 6396SOL     OW20086   6.442   3.477   6.000
 6396SOL    HW120087   6.469   3.562   5.954
 6396SOL    HW220088   6.436   3.493   6.098
 6397SOL     OW20089   6.087   1.045   1.223
 6397SOL    HW120090   6.010   1.021   1.163
 6397SOL    HW220091   6.078   1.140   1.252
 6398SOL     OW20092   3.934   1.244   1.534
 6398SOL    HW120093   3.854   1.294   1.503
 6398SOL    HW220094   4.017   1.293   1.508
 6399SOL     OW20095   1.839   6.514   6.762
 6399SOL    HW120096   1.839   6.518   6.861
 6399SOL    HW220097   1.927   6.545   6.727
 6400SOL     OW20098   2.592   4.940   4.948
 6400SOL    HW120099   2.627   4.910   5.036
 6400SOL    HW220100   2.640   4.892   4.875
 6401SOL     OW20101   0.457   4.768   5.024
 6401SOL    HW120102   0.516   4.740   4.948
 6401SOL    HW220103   0.403   4.848   4.997
 6402SOL     OW20104   1.967   2.631   3.300
 6402SOL    HW120105   2.023   2.617   3.381
 6402SOL    HW220106   1.984   2.558   3.234
 6403SOL     OW20107   1.245   6.793   1.413
 6403SOL    HW120108   1.208   6.870   1.464
 6403SOL    HW220109   1.173   6.752   1.357
 6404SOL     OW20110   5.030   1.106   2.685
 6404SOL    HW120111   4.978   1.155   2.615
 6404SOL    HW220112   5.107   1.059   2.642
 6405SOL     OW20113   3.494   0.702   1.849
 6405SOL    HW120114   3.462   0.716   1.755
 6405SOL    HW220115   3.507   0.790   1.894
 6406SOL     OW20116   2.873   1.898   3.647
 6406SOL    HW120117   2.971   1.878   3.639
 6406SOL    HW220118   2.855   1.991   3.615
 6407SOL     OW20119   4.542   6.044   6.478
 6407SOL    HW120120   4.593   6.129   6.490
 6407SOL    HW220121   4.445   6.065   6.463
 6408SOL     OW20122   5.544   2.297   0.706
 6408SOL    HW120123   5.634   2.263   0.735
 6408SOL    HW220124   5.539   2.395   0.723
 6409SOL     OW20125   0.837   5.060   1.834
 6409SOL    HW120126   0.865   4.972   1.872
 6409SOL    HW220127   0.737   5.069   1.841
 6410SOL     OW20128   0.740   0.926   2.066
 6410SOL    HW120129   0.743   0.879   2.155
 6410SOL    HW220130   0.701   0.865   1.997
 6411SOL     OW20131   0.944   1.395   3.936
 6411SOL    HW120132   0.965   1.301   3.908
 6411SOL    HW220133   0.857   1.396   3.985
 6412SOL     OW20134   5.877   2.635   4.196
 6412SOL    HW120135   5.833   2.681   4.273
 6412SOL    HW220136   5.959   2.685   4.169
 6413SOL     OW20137   0.539   4.981   0.743
 6413SOL    HW120138   0.549   4.953   0.647
 6413SOL    HW220139   0.502   5.074   0.746
 6414SOL     OW20140   6.145   0.359   3.192
 6414SOL    HW120141   6.080   0.292   3.228
 6414SOL    HW220142   6.188   0.323   3.109
 6415SOL     OW20143   1.827   1.421   2.355
 6415SOL    HW120144   1.767   1.366   2.296
 6415SOL    HW220145   1.868   1.362   2.424
 6416SOL     OW20146   2.751   6.679   6.417
 6416SOL    HW120147   2.770   6.625   6.499
 6416SOL    HW220148   2.705   6.622   6.349
 6417SOL     OW20149   0.783   6.194   4.068
 6417SOL    HW120150   0.692   6.207   4.028
 6417SOL    HW220151   0.846   6.263   4.031
 6418SOL     OW20152   6.685   5.444   2.173
 6418SOL    HW120153   6.657   5.503   2.249
 6418SOL    HW220154   6.693   5.498   2.089
 6419SOL     OW20155   2.117   3.496   0.500
 6419SOL    HW120156   2.192   3.508   0.566
 6419SOL    HW220157   2.044   3.562   0.520
 6420SOL     OW20158   0.560   2.791   6.617
 6420SOL    HW120159   0.584   2.696   6.635
 6420SOL    HW220160   0.571   2.811   6.520
 6421SOL     OW20161   5.360   2.038   0.380
 6421SOL    HW120162   5.449   2.077   0.403
 6421SOL    HW220163   5.315   2.008   0.464
 6422SOL     OW20164   6.261   2.291   2.464
 6422SOL    HW120165   6.170   2.303   2.505
 6422SOL    HW220166   6.307   2.213   2.507
 6423SOL     OW20167   5.182   3.956   0.275
 6423SOL    HW120168   5.202   3.958   0.373
 6423SOL    HW220169   5.264   3.980   0.224
 6424SOL     OW20170   6.380   4.630   5.522
 6424SOL    HW120171   6.465   4.678   5.500
 6424SOL    HW220172   6.399   4.533   5.535
 6425SOL     OW20173   0.209   5.416   0.993
 6425SOL    HW120174   0.134   5.372   0.944
 6425SOL    HW220175   0.216   5.512   0.965
 6426SOL     OW20176   6.349   2.751   2.980
 6426SOL    HW120177   6.264   2.721   3.024
 6426SOL    HW220178   6.327   2.799   2.895
 6427SOL     OW20179   0.487   3.215   5.526
 6427SOL    HW120180   0.547   3.171   5.594
 6427SOL    HW220181   0.538   3.228   5.441
 6428SOL     OW20182   6.400   3.236   4.199
 6428SOL    HW120183   6.359   3.168   4.260
 6428SOL    HW220184   6.499   3.238   4.214
 6429SOL     OW20185   0.789   1.293   4.934
 6429SOL    HW120186   0.763   1.245   5.018
 6429SOL    HW220187   0.744   1.382   4.931
 6430SOL     OW20188   6.191   3.165   0.071
 6430SOL    HW120189   6.184   3.262   0.093
 6430SOL    HW220190   6.100   3.130   0.048
 6431SOL     OW20191   6.292   1.361   2.453
 6431SOL    HW120192   6.276   1.323   2.362
 6431SOL    HW220193   6.289   1.461   2.448
 6432SOL     OW20194   6.199   3.664   0.316
 6432SOL    HW120195   6.250   3.704   0.393
 6432SOL    HW220196   6.159   3.577   0.345
 6433SOL     OW20197   2.314   3.672   1.577
 6433SOL    HW120198   2.264   3.751   1.613
 6433SOL    HW220199   2.338   3.689   1.481
 6434SOL     OW20200   1.720   5.252   0.277
 6434SOL    HW120201   1.738   5.154   0.263
 6434SOL    HW220202   1.801   5.296   0.316
 6435SOL     OW20203   5.175   3.289   0.598
 6435SOL    HW120204   5.095   3.305   0.541
 6435SOL    HW220205   5.175   3.355   0.674
 6436SOL     OW20206   2.192   2.349   2.069
 6436SOL    HW120207   2.206   2.448   2.068
 6436SOL    HW220208   2.160   2.319   1.979
 6437SOL     OW20209   0.107   0.347   0.739
 6437SOL    HW120210   0.148   0.424   0.688
 6437SOL    HW220211   0.031   0.309   0.687
 6438SOL     OW20212   0.820   3.584   4.276
 6438SOL    HW120213   0.780   3.492   4.272
 6438SOL    HW220214   0.918   3.578   4.294
 6439SOL     OW20215   0.196   6.670   2.252
 6439SOL    HW120216   0.117   6.616   2.221
 6439SOL    HW220217   0.220   6.642   2.345
 6440SOL     OW20218   0.414   0.685   1.929
 6440SOL    HW120219   0.401   0.703   2.026
 6440SOL    HW220220   0.405   0.770   1.877
 6441SOL     OW20221   4.396   1.076   2.630
 6441SOL    HW120222   4.423   1.166   2.596
 6441SOL    HW220223   4.352   1.086   2.719
 6442SOL     OW20224   3.253   0.575   3.248
 6442SOL    HW120225   3.297   0.518   3.179
 6442SOL    HW220226   3.227   0.663   3.207
 6443SOL     OW20227   2.486   0.595   0.826
 6443SOL    HW120228   2.437   0.658   0.764
 6443SOL    HW220229   2.548   0.648   0.884
 6444SOL     OW20230   0.457   1.396   2.723
 6444SOL    HW120231   0.420   1.462   2.658
 6444SOL    HW220232   0.466   1.439   2.813
 6445SOL     OW20233   3.223   3.966   5.787
 6445SOL    HW120234   3.219   3.866   5.789
 6445SOL    HW220235   3.196   3.999   5.696
 6446SOL     OW20236   0.152   1.582   0.596
 6446SOL    HW120237   0.137   1.567   0.499
 6446SOL    HW220238   0.246   1.557   0.620
 6447SOL     OW20239   1.488   0.665   3.444
 6447SOL    HW120240   1.412   0.717   3.482
 6447SOL    HW220241   1.574   0.709   3.468
 6448SOL     OW20242   6.806   2.279   2.818
 6448SOL    HW120243   6.826   2.347   2.889
 6448SOL    HW220244   6.771   2.196   2.860
 6449SOL     OW20245   3.987   2.837   0.615
 6449SOL    HW120246   3.920   2.778   0.661
 6449SOL    HW220247   3.996   2.923   0.666
 6450SOL     OW20248   6.772   2.865   0.652
 6450SOL    HW120249   6.819   2.808   0.584
 6450SOL    HW220250   6.829   2.944   0.674
 6451SOL     OW20251   2.498   6.536   4.174
 6451SOL    HW120252   2.587   6.532   4.219
 6451SOL    HW220253   2.472   6.632   4.159
 6452SOL     OW20254   3.802   5.854   4.977
 6452SOL    HW120255   3.711   5.883   4.947
 6452SOL    HW220256   3.867   5.862   4.901
 6453SOL     OW20257   1.995   5.404   6.705
 6453SOL    HW120258   1.940   5.320   6.699
 6453SOL    HW220259   2.071   5.390   6.768
 6454SOL     OW20260   3.988   1.184   4.983
 6454SOL    HW120261   4.055   1.230   4.926
 6454SOL    HW220262   3.896   1.205   4.949
 6455SOL     OW20263   6.211   3.461   6.762
 6455SOL    HW120264   6.154   3.473   6.682
 6455SOL    HW220265   6.184   3.378   6.811
 6456SOL     OW20266   6.959   1.512   4.924
 6456SOL    HW120267   6.979   1.609   4.932
 6456SOL    HW220268   6.956   1.471   5.015
 6457SOL     OW20269   6.152   2.658   2.316
 6457SOL    HW120270   6.245   2.620   2.321
 6457SOL    HW220271   6.115   2.644   2.224
 6458SOL     OW20272   0.674   6.144   3.396
 6458SOL    HW120273   0.635   6.052   3.399
 6458SOL    HW220274   0.601   6.210   3.378
 6459SOL     OW20275   5.499   4.337   0.725
 6459SOL    HW120276   5.401   4.326   0.738
 6459SOL    HW220277   5.548   4.282   0.793
 6460SOL     OW20278   3.582   4.919   1.571
 6460SOL    HW120279   3.492   4.952   1.597
 6460SOL    HW220280   3.573   4.844   1.505
 6461SOL     OW20281   3.130   6.322   5.763
 6461SOL    HW120282   3.042   6.276   5.771
 6461SOL    HW220283   3.196   6.259   5.721
 6462SOL     OW20284   2.081   3.648   3.218
 6462SOL    HW120285   2.112   3.713   3.287
 6462SOL    HW220286   2.060   3.561   3.261
 6463SOL     OW20287   1.187   3.562   5.668
 6463SOL    HW120288   1.147   3.570   5.576
 6463SOL    HW220289   1.116   3.581   5.736
 6464SOL     OW20290   1.577   5.320   2.108
 6464SOL    HW120291   1.510   5.291   2.040
 6464SOL    HW220292   1.541   5.302   2.200
 6465SOL     OW20293   6.240   0.716   2.707
 6465SOL    HW120294   6.287   0.650   2.765
 6465SOL    HW220295   6.286   0.804   2.711
 6466SOL     OW20296   6.980   1.798   4.894
 6466SOL    HW120297   6.889   1.835   4.875
 6466SOL    HW220298   0.012   1.824   4.820
 6467SOL     OW20299   3.495   0.859   6.163
 6467SOL    HW120300   3.477   0.956   6.145
 6467SOL    HW220301   3.422   0.821   6.219
 6468SOL     OW20302   5.307   4.137   1.990
 6468SOL    HW120303   5.250   4.066   1.949
 6468SOL    HW220304   5.250   4.213   2.019
 6469SOL     OW20305   5.812   1.021   5.642
 6469SOL    HW120306   5.824   1.119   5.656
 6469SOL    HW220307   5.901   0.975   5.649
 6470SOL     OW20308   6.534   5.777   4.374
 6470SOL    HW120309   6.442   5.751   4.404
 6470SOL    HW220310   6.538   5.775   4.274
 6471SOL     OW20311   6.509   5.737   5.239
 6471SOL    HW120312   6.570   5.658   5.243
 6471SOL    HW220313   6.422   5.710   5.197
 6472SOL     OW20314   1.577   6.506   1.445
 6472SOL    HW120315   1.624   6.589   1.477
 6472SOL    HW220316   1.641   6.448   1.396
 6473SOL     OW20317   2.415   0.636   5.383
 6473SOL    HW120318   2.399   0.544   5.347
 6473SOL    HW220319   2.504   0.669   5.354
 6474SOL     OW20320   2.322   3.527   6.262
 6474SOL    HW120321   2.406   3.516   6.315
 6474SOL    HW220322   2.268   3.443   6.265
 6475SOL     OW20323   4.130   5.151   3.786
 6475SOL    HW120324   4.209   5.172   3.729
 6475SOL    HW220325   4.098   5.234   3.832
 6476SOL     OW20326   5.182   5.018   2.476
 6476SOL    HW120327   5.198   4.920   2.483
 6476SOL    HW220328   5.221   5.052   2.391
 6477SOL     OW20329   6.531   6.533   6.842
 6477SOL    HW120330   6.524   6.433   6.837
 6477SOL    HW220331   6.493   6.574   6.759
 6478SOL     OW20332   5.224   6.004   1.497
 6478SOL    HW120333   5.309   6.056   1.489
 6478SOL    HW220334   5.174   6.033   1.578
 6479SOL     OW20335   3.442   5.829   2.431
 6479SOL    HW120336   3.366   5.887   2.400
 6479SOL    HW220337   3.527   5.864   2.392
 6480SOL     OW20338   2.992   1.019   1.533
 6480SOL    HW120339   2.909   1.051   1.578
 6480SOL    HW220340   2.973   1.007   1.435
 6481SOL     OW20341   4.543   0.907   1.098
 6481SOL    HW120342   4.510   0.833   1.156
 6481SOL    HW220343   4.643   0.903   1.093
 6482SOL     OW20344   6.546   0.078   6.389
 6482SOL    HW120345   6.520   0.039   6.477
 6482SOL    HW220346   6.466   0.117   6.344
 6483SOL     OW20347   2.174   5.745   1.964
 6483SOL    HW120348   2.083   5.761   2.002
 6483SOL    HW220349   2.198   5.820   1.902
 6484SOL     OW20350   5.042   6.616   2.945
 6484SOL    HW120351   5.055   6.682   3.019
 6484SOL    HW220352   4.973   6.650   2.881
 6485SOL     OW20353   0.575   2.974   2.973
 6485SOL    HW120354   0.627   2.941   3.052
 6485SOL    HW220355   0.537   2.897   2.923
 6486SOL     OW20356   1.611   2.562   3.482
 6486SOL    HW120357   1.525   2.568   3.533
 6486SOL    HW220358   1.617   2.639   3.419
 6487SOL     OW20359   5.802   4.936   3.390
 6487SOL    HW120360   5.850   5.019   3.418
 6487SOL    HW220361   5.861   4.879   3.334
 6488SOL     OW20362   3.399   5.096   5.295
 6488SOL    HW120363   3.398   5.171   5.229
 6488SOL    HW220364   3.311   5.092   5.342
 6489SOL     OW20365   2.593   1.808   6.801
 6489SOL    HW120366   2.585   1.745   6.878
 6489SOL    HW220367   2.585   1.902   6.833
 6490SOL     OW20368   5.061   1.780   0.743
 6490SOL    HW120369   5.052   1.856   0.678
 6490SOL    HW220370   5.113   1.810   0.822
 6491SOL     OW20371   4.797   0.784   5.280
 6491SOL    HW120372   4.764   0.699   5.321
 6491SOL    HW220373   4.720   0.839   5.250
 6492SOL     OW20374   6.417   5.587   5.561
 6492SOL    HW120375   6.412   5.641   5.645
 6492SOL    HW220376   6.326   5.582   5.519
 6493SOL     OW20377   1.165   6.859   5.390
 6493SOL    HW120378   1.201   6.909   5.468
 6493SOL    HW220379   1.195   6.902   5.305
 6494SOL     OW20380   0.491   1.239   3.134
 6494SOL    HW120381   0.539   1.205   3.214
 6494SOL    HW220382   0.529   1.196   3.052
 6495SOL     OW20383   5.737   4.489   1.869
 6495SOL    HW120384   5.829   4.485   1.829
 6495SOL    HW220385   5.672   4.442   1.810
 6496SOL     OW20386   0.423   6.300   3.360
 6496SOL    HW120387   0.417   6.399   3.350
 6496SOL    HW220388   0.379   6.273   3.446
 6497SOL     OW20389   0.485   6.101   0.437
 6497SOL    HW120390   0.397   6.139   0.464
 6497SOL    HW220391   0.476   6.002   0.424
 6498SOL     OW20392   1.588   4.515   4.198
 6498SOL    HW120393   1.563   4.548   4.290
 6498SOL    HW220394   1.607   4.417   4.203
 6499SOL     OW20395   6.231   1.388   3.370
 6499SOL    HW120396   6.176   1.381   3.287
 6499SOL    HW220397   6.254   1.296   3.403
 6500SOL     OW20398   6.034   4.844   2.597
 6500SOL    HW120399   6.038   4.935   2.555
 6500SOL    HW220400   6.068   4.776   2.532
 6501SOL     OW20401   6.750   3.770   0.757
 6501SOL    HW120402   6.725   3.866   0.742
 6501SOL    HW220403   6.834   3.749   0.707
 6502SOL     OW20404   0.751   5.050   1.391
 6502SOL    HW120405   0.714   5.048   1.298
 6502SOL    HW220406   0.676   5.066   1.456
 6503SOL     OW20407   4.522   6.983   4.249
 6503SOL    HW120408   4.589   0.007   4.300
 6503SOL    HW220409   4.567   6.905   4.206
 6504SOL     OW20410   1.656   1.438   1.040
 6504SOL    HW120411   1.725   1.449   0.969
 6504SOL    HW220412   1.578   1.386   1.004
 6505SOL     OW20413   5.814   5.796   0.563
 6505SOL    HW120414   5.803   5.889   0.599
 6505SOL    HW220415   5.800   5.730   0.637
 6506SOL     OW20416   2.273   1.250   0.849
 6506SOL    HW120417   2.275   1.154   0.820
 6506SOL    HW220418   2.206   1.260   0.923
 6507SOL     OW20419   2.870   0.836   2.147
 6507SOL    HW120420   2.961   0.877   2.136
 6507SOL    HW220421   2.879   0.743   2.182
 6508SOL     OW20422   2.223   2.071   2.168
 6508SOL    HW120423   2.202   2.138   2.240
 6508SOL    HW220424   2.270   2.117   2.093
 6509SOL     OW20425   0.987   3.287   4.161
 6509SOL    HW120426   1.032   3.375   4.173
 6509SOL    HW220427   1.053   3.221   4.124
 6510SOL     OW20428   6.503   4.817   6.277
 6510SOL    HW120429   6.529   4.837   6.183
 6510SOL    HW220430   6.579   4.771   6.324
 6511SOL     OW20431   6.845   6.531   6.138
 6511SOL    HW120432   6.753   6.555   6.168
 6511SOL    HW220433   6.891   6.613   6.104
 6512SOL     OW20434   5.272   6.192   3.732
 6512SOL    HW120435   5.309   6.284   3.735
 6512SOL    HW220436   5.317   6.136   3.802
 6513SOL     OW20437   1.175   6.752   3.477
 6513SOL    HW120438   1.166   6.675   3.414
 6513SOL    HW220439   1.182   6.718   3.571
 6514SOL     OW20440   3.211   0.284   3.501
 6514SOL    HW120441   3.283   0.353   3.508
 6514SOL    HW220442   3.254   0.194   3.491
 6515SOL     OW20443   0.354   0.741   3.415
 6515SOL    HW120444   0.303   0.806   3.359
 6515SOL    HW220445   0.401   0.790   3.489
 6516SOL     OW20446   1.087   1.227   5.585
 6516SOL    HW120447   1.087   1.210   5.684
 6516SOL    HW220448   1.155   1.296   5.563
 6517SOL     OW20449   2.350   2.252   1.032
 6517SOL    HW120450   2.295   2.169   1.040
 6517SOL    HW220451   2.322   2.317   1.103
 6518SOL     OW20452   5.550   6.591   0.918
 6518SOL    HW120453   5.503   6.534   0.986
 6518SOL    HW220454   5.560   6.540   0.833
 6519SOL     OW20455   1.262   2.096   4.409
 6519SOL    HW120456   1.286   2.105   4.312
 6519SOL    HW220457   1.231   2.185   4.444
 6520SOL     OW20458   5.774   5.604   1.432
 6520SOL    HW120459   5.747   5.586   1.527
 6520SOL    HW220460   5.731   5.537   1.372
 6521SOL     OW20461   1.328   2.186   5.489
 6521SOL    HW120462   1.419   2.144   5.484
 6521SOL    HW220463   1.337   2.277   5.530
 6522SOL     OW20464   2.756   5.725   4.536
 6522SOL    HW120465   2.716   5.634   4.528
 6522SOL    HW220466   2.856   5.718   4.539
 6523SOL     OW20467   1.637   2.766   0.205
 6523SOL    HW120468   1.564   2.805   0.149
 6523SOL    HW220469   1.599   2.696   0.265
 6524SOL     OW20470   4.125   3.087   5.599
 6524SOL    HW120471   4.200   3.028   5.630
 6524SOL    HW220472   4.042   3.065   5.650
 6525SOL     OW20473   0.370   2.739   4.616
 6525SOL    HW120474   0.387   2.645   4.646
 6525SOL    HW220475   0.429   2.760   4.538
 6526SOL     OW20476   1.634   5.365   4.171
 6526SOL    HW120477   1.578   5.370   4.088
 6526SOL    HW220478   1.611   5.442   4.231
 6527SOL     OW20479   2.624   1.413   3.911
 6527SOL    HW120480   2.622   1.329   3.856
 6527SOL    HW220481   2.640   1.390   4.007
 6528SOL     OW20482   0.910   0.237   3.144
 6528SOL    HW120483   0.897   0.312   3.079
 6528SOL    HW220484   0.946   0.157   3.095
 6529SOL     OW20485   6.785   3.061   2.458
 6529SOL    HW120486   6.873   3.022   2.433
 6529SOL    HW220487   6.729   2.992   2.504
 6530SOL     OW20488   0.407   1.548   0.652
 6530SOL    HW120489   0.457   1.525   0.736
 6530SOL    HW220490   0.462   1.611   0.597
 6531SOL     OW20491   4.979   2.478   5.120
 6531SOL    HW120492   5.050   2.413   5.148
 6531SOL    HW220493   4.944   2.525   5.201
 6532SOL     OW20494   0.967   2.248   6.909
 6532SOL    HW120495   0.985   2.243   6.811
 6532SOL    HW220496   0.993   2.338   6.943
 6533SOL     OW20497   4.673   0.694   1.279
 6533SOL    HW120498   4.590   0.747   1.299
 6533SOL    HW220499   4.752   0.736   1.323
 6534SOL     OW20500   2.288   3.059   0.128
 6534SOL    HW120501   2.219   3.120   0.090
 6534SOL    HW220502   2.374   3.109   0.140
 6535SOL     OW20503   1.926   3.569   5.290
 6535SOL    HW120504   2.008   3.513   5.280
 6535SOL    HW220505   1.952   3.662   5.316
 6536SOL     OW20506   6.773   2.151   6.721
 6536SOL    HW120507   6.735   2.103   6.642
 6536SOL    HW220508   6.699   2.189   6.777
 6537SOL     OW20509   1.193   0.504   6.681
 6537SOL    HW120510   1.150   0.579   6.631
 6537SOL    HW220511   1.200   0.424   6.622
 6538SOL     OW20512   2.599   2.459   5.883
 6538SOL    HW120513   2.555   2.384   5.835
 6538SOL    HW220514   2.559   2.546   5.853
 6539SOL     OW20515   3.485   1.566   6.306
 6539SOL    HW120516   3.446   1.505   6.375
 6539SOL    HW220517   3.452   1.539   6.216
 6540SOL     OW20518   4.029   2.016   3.796
 6540SOL    HW120519   4.112   1.959   3.797
 6540SOL    HW220520   4.026   2.072   3.879
 6541SOL     OW20521   2.826   2.625   5.412
 6541SOL    HW120522   2.747   2.625   5.350
 6541SOL    HW220523   2.828   2.710   5.464
 6542SOL     OW20524   5.827   4.076   2.966
 6542SOL    HW120525   5.867   3.985   2.972
 6542SOL    HW220526   5.859   4.132   3.043
 6543SOL     OW20527   1.296   6.297   5.838
 6543SOL    HW120528   1.253   6.218   5.880
 6543SOL    HW220529   1.228   6.370   5.827
 6544SOL     OW20530   0.216   6.011   2.592
 6544SOL    HW120531   0.185   5.963   2.510
 6544SOL    HW220532   0.149   5.997   2.665
 6545SOL     OW20533   6.089   3.465   6.513
 6545SOL    HW120534   6.069   3.379   6.467
 6545SOL    HW220535   6.004   3.511   6.537
 6546SOL     OW20536   3.591   4.543   5.797
 6546SOL    HW120537   3.518   4.598   5.837
 6546SOL    HW220538   3.621   4.474   5.864
 6547SOL     OW20539   4.999   0.534   6.476
 6547SOL    HW120540   5.008   0.465   6.404
 6547SOL    HW220541   4.972   0.490   6.561
 6548SOL     OW20542   5.513   3.474   5.532
 6548SOL    HW120543   5.501   3.378   5.558
 6548SOL    HW220544   5.555   3.524   5.608
 6549SOL     OW20545   2.986   2.226   2.753
 6549SOL    HW120546   2.948   2.206   2.663
 6549SOL    HW220547   3.077   2.187   2.761
 6550SOL     OW20548   1.038   5.431   3.070
 6550SOL    HW120549   1.049   5.340   3.030
 6550SOL    HW220550   1.006   5.422   3.164
 6551SOL     OW20551   3.019   5.149   2.300
 6551SOL    HW120552   3.091   5.186   2.360
 6551SOL    HW220553   3.062   5.107   2.220
 6552SOL     OW20554   4.581   5.169   6.739
 6552SOL    HW120555   4.580   5.080   6.784
 6552SOL    HW220556   4.492   5.212   6.747
 6553SOL     OW20557   7.008   3.315   3.187
 6553SOL    HW120558   0.031   3.324   3.103
 6553SOL    HW220559   6.931   3.379   3.185
 6554SOL     OW20560   6.830   3.611   4.448
 6554SOL    HW120561   6.921   3.601   4.488
 6554SOL    HW220562   6.781   3.524   4.455
 6555SOL     OW20563   0.526   1.187   1.527
 6555SOL    HW120564   0.564   1.209   1.616
 6555SOL    HW220565   0.579   1.113   1.486
 6556SOL     OW20566   3.576   6.957   3.797
 6556SOL    HW120567   3.611   7.027   3.735
 6556SOL    HW220568   3.636   6.949   3.876
 6557SOL     OW20569   5.789   6.312   0.469
 6557SOL    HW120570   5.710   6.291   0.412
 6557SOL    HW220571   5.872   6.308   0.413
 6558SOL     OW20572   0.184   6.445   5.809
 6558SOL    HW120573   0.227   6.520   5.860
 6558SOL    HW220574   0.140   6.382   5.872
 6559SOL     OW20575   3.227   3.288   1.295
 6559SOL    HW120576   3.232   3.251   1.202
 6559SOL    HW220577   3.210   3.213   1.360
 6560SOL     OW20578   4.541   1.748   1.162
 6560SOL    HW120579   4.546   1.841   1.127
 6560SOL    HW220580   4.593   1.741   1.247
 6561SOL     OW20581   3.466   3.934   4.152
 6561SOL    HW120582   3.490   3.889   4.238
 6561SOL    HW220583   3.502   3.882   4.075
 6562SOL     OW20584   7.019   4.453   5.283
 6562SOL    HW120585   0.076   4.447   5.332
 6562SOL    HW220586   0.002   4.503   5.197
 6563SOL     OW20587   0.526   5.426   2.610
 6563SOL    HW120588   0.509   5.482   2.691
 6563SOL    HW220589   0.473   5.461   2.533
 6564SOL     OW20590   1.484   5.391   2.926
 6564SOL    HW120591   1.527   5.427   3.009
 6564SOL    HW220592   1.490   5.459   2.853
 6565SOL     OW20593   6.736   3.459   5.378
 6565SOL    HW120594   6.783   3.466   5.291
 6565SOL    HW220595   6.640   3.485   5.367
 6566SOL     OW20596   3.942   1.485   0.935
 6566SOL    HW120597   4.036   1.452   0.944
 6566SOL    HW220598   3.896   1.435   0.862
 6567SOL     OW20599   6.460   2.545   1.019
 6567SOL    HW120600   6.506   2.564   1.106
 6567SOL    HW220601   6.392   2.473   1.033
 6568SOL     OW20602   4.777   3.703   1.010
 6568SOL    HW120603   4.703   3.763   1.042
 6568SOL    HW220604   4.799   3.726   0.915
 6569SOL     OW20605   1.128   4.776   5.983
 6569SOL    HW120606   1.035   4.792   6.015
 6569SOL    HW220607   1.178   4.722   6.051
 6570SOL     OW20608   6.394   3.778   1.564
 6570SOL    HW120609   6.430   3.709   1.503
 6570SOL    HW220610   6.303   3.751   1.595
 6571SOL     OW20611   2.070   6.192   3.669
 6571SOL    HW120612   2.121   6.225   3.748
 6571SOL    HW220613   2.119   6.115   3.627
 6572SOL     OW20614   1.669   4.326   6.285
 6572SOL    HW120615   1.640   4.410   6.330
 6572SOL    HW220616   1.724   4.271   6.348
 6573SOL     OW20617   1.600   2.005   1.909
 6573SOL    HW120618   1.558   2.088   1.946
 6573SOL    HW220619   1.644   1.954   1.983
 6574SOL     OW20620   1.889   4.594   4.523
 6574SOL    HW120621   1.958   4.598   4.595
 6574SOL    HW220622   1.814   4.656   4.546
 6575SOL     OW20623   1.957   1.869   3.168
 6575SOL    HW120624   1.913   1.910   3.088
 6575SOL    HW220625   1.902   1.887   3.250
 6576SOL     OW20626   0.955   6.358   3.916
 6576SOL    HW120627   0.985   6.453   3.913
 6576SOL    HW220628   0.992   6.309   3.837
 6577SOL     OW20629   0.318   3.530   5.230
 6577SOL    HW120630   0.406   3.491   5.256
 6577SOL    HW220631   0.317   3.628   5.249
 6578SOL     OW20632   6.644   5.252   3.484
 6578SOL    HW120633   6.671   5.343   3.516
 6578SOL    HW220634   6.565   5.220   3.536
 6579SOL     OW20635   6.965   4.567   3.799
 6579SOL    HW120636   6.883   4.597   3.849
 6579SOL    HW220637   6.996   4.641   3.739
 6580SOL     OW20638   5.185   2.848   0.333
 6580SOL    HW120639   5.114   2.778   0.327
 6580SOL    HW220640   5.148   2.930   0.375
 6581SOL     OW20641   2.404   2.605   5.626
 6581SOL    HW120642   2.433   2.538   5.558
 6581SOL    HW220643   2.481   2.628   5.685
 6582SOL     OW20644   6.737   0.280   2.609
 6582SOL    HW120645   6.756   0.362   2.554
 6582SOL    HW220646   6.649   0.291   2.655
 6583SOL     OW20647   6.338   1.243   6.340
 6583SOL    HW120648   6.411   1.175   6.325
 6583SOL    HW220649   6.336   1.307   6.264
 6584SOL     OW20650   5.677   2.625   0.340
 6584SOL    HW120651   5.739   2.588   0.271
 6584SOL    HW220652   5.722   2.623   0.429
 6585SOL     OW20653   2.732   1.351   1.755
 6585SOL    HW120654   2.696   1.420   1.818
 6585SOL    HW220655   2.782   1.282   1.806
 6586SOL     OW20656   6.248   1.754   0.193
 6586SOL    HW120657   6.293   1.665   0.190
 6586SOL    HW220658   6.214   1.770   0.286
 6587SOL     OW20659   2.201   6.369   2.085
 6587SOL    HW120660   2.122   6.310   2.098
 6587SOL    HW220661   2.281   6.327   2.129
 6588SOL     OW20662   2.863   2.000   0.091
 6588SOL    HW120663   2.909   2.021   0.005
 6588SOL    HW220664   2.848   2.084   0.142
 6589SOL     OW20665   5.182   1.769   6.201
 6589SOL    HW120666   5.162   1.743   6.107
 6589SOL    HW220667   5.281   1.779   6.213
 6590SOL     OW20668   6.256   1.214   5.599
 6590SOL    HW120669   6.208   1.171   5.522
 6590SOL    HW220670   6.287   1.305   5.572
 6591SOL     OW20671   5.521   6.978   2.975
 6591SOL    HW120672   5.506   7.018   3.065
 6591SOL    HW220673   5.513   0.019   2.905
 6592SOL     OW20674   6.294   5.602   4.833
 6592SOL    HW120675   6.364   5.673   4.839
 6592SOL    HW220676   6.207   5.637   4.868
 6593SOL     OW20677   5.285   0.828   2.770
 6593SOL    HW120678   5.368   0.788   2.730
 6593SOL    HW220679   5.243   0.762   2.832
 6594SOL     OW20680   5.736   1.006   0.052
 6594SOL    HW120681   5.676   1.074   0.095
 6594SOL    HW220682   5.685   0.955   7.013
 6595SOL     OW20683   2.640   2.920   6.897
 6595SOL    HW120684   2.698   3.002   6.899
 6595SOL    HW220685   2.692   2.841   6.928
 6596SOL     OW20686   3.530   6.620   5.177
 6596SOL    HW120687   3.534   6.521   5.182
 6596SOL    HW220688   3.487   6.648   5.091
 6597SOL     OW20689   6.906   4.204   6.809
 6597SOL    HW120690   6.915   4.254   6.895
 6597SOL    HW220691   6.995   4.192   6.767
 6598SOL     OW20692   2.321   5.975   4.849
 6598SOL    HW120693   2.409   5.994   4.892
 6598SOL    HW220694   2.301   5.878   4.856
 6599SOL     OW20695   4.374   3.211   6.373
 6599SOL    HW120696   4.329   3.289   6.417
 6599SOL    HW220697   4.408   3.239   6.282
 6600SOL     OW20698   4.330   4.839   4.759
 6600SOL    HW120699   4.306   4.792   4.844
 6600SOL    HW220700   4.312   4.936   4.768
 6601SOL     OW20701   0.260   0.589   1.630
 6601SOL    HW120702   0.325   0.521   1.665
 6601SOL    HW220703   0.237   0.567   1.535
 6602SOL     OW20704   6.604   1.466   1.622
 6602SOL    HW120705   6.583   1.512   1.708
 6602SOL    HW220706   6.655   1.382   1.640
 6603SOL     OW20707   2.414   1.962   1.658
 6603SOL    HW120708   2.475   1.950   1.580
 6603SOL    HW220709   2.349   1.886   1.661
 6604SOL     OW20710   3.966   5.822   4.219
 6604SOL    HW120711   3.960   5.798   4.316
 6604SOL    HW220712   3.930   5.915   4.206
 6605SOL     OW20713   4.753   6.281   0.092
 6605SOL    HW120714   4.825   6.332   0.139
 6605SOL    HW220715   4.671   6.338   0.085
 6606SOL     OW20716   0.019   2.199   2.955
 6606SOL    HW120717   6.977   2.216   2.887
 6606SOL    HW220718   7.017   2.131   3.021
 6607SOL     OW20719   1.332   2.948   3.014
 6607SOL    HW120720   1.374   3.038   3.004
 6607SOL    HW220721   1.281   2.945   3.100
 6608SOL     OW20722   5.447   4.886   4.818
 6608SOL    HW120723   5.401   4.877   4.906
 6608SOL    HW220724   5.531   4.939   4.828
 6609SOL     OW20725   5.606   1.886   0.278
 6609SOL    HW120726   5.600   1.985   0.264
 6609SOL    HW220727   5.520   1.854   0.318
 6610SOL     OW20728   4.031   1.243   0.608
 6610SOL    HW120729   3.981   1.173   0.557
 6610SOL    HW220730   3.968   1.315   0.636
 6611SOL     OW20731   5.575   3.158   3.070
 6611SOL    HW120732   5.620   3.120   2.989
 6611SOL    HW220733   5.644   3.172   3.142
 6612SOL     OW20734   1.264   5.852   6.556
 6612SOL    HW120735   1.198   5.836   6.631
 6612SOL    HW220736   1.347   5.892   6.594
 6613SOL     OW20737   5.165   4.942   0.911
 6613SOL    HW120738   5.225   4.883   0.857
 6613SOL    HW220739   5.221   5.002   0.968
 6614SOL     OW20740   5.688   4.680   5.699
 6614SOL    HW120741   5.720   4.711   5.610
 6614SOL    HW220742   5.736   4.595   5.725
 6615SOL     OW20743   0.036   3.734   5.248
 6615SOL    HW120744   0.079   3.659   5.297
 6615SOL    HW220745   0.094   3.763   5.172
 6616SOL     OW20746   4.508   0.821   4.162
 6616SOL    HW120747   4.589   0.866   4.125
 6616SOL    HW220748   4.518   0.722   4.156
 6617SOL     OW20749   4.264   6.970   4.854
 6617SOL    HW120750   4.210   6.886   4.857
 6617SOL    HW220751   4.209   0.018   4.884
 6618SOL     OW20752   6.834   4.965   0.958
 6618SOL    HW120753   6.933   4.965   0.973
 6618SOL    HW220754   6.803   4.871   0.939
 6619SOL     OW20755   0.091   6.422   1.701
 6619SOL    HW120756   0.071   6.480   1.781
 6619SOL    HW220757   0.119   6.331   1.732
 6620SOL     OW20758   4.338   2.972   5.742
 6620SOL    HW120759   4.411   3.001   5.804
 6620SOL    HW220760   4.373   2.904   5.678
 6621SOL     OW20761   2.325   3.448   0.318
 6621SOL    HW120762   2.344   3.351   0.307
 6621SOL    HW220763   2.236   3.460   0.363
 6622SOL     OW20764   6.445   5.590   0.920
 6622SOL    HW120765   6.385   5.520   0.960
 6622SOL    HW220766   6.427   5.678   0.964
 6623SOL     OW20767   3.573   4.075   2.410
 6623SOL    HW120768   3.479   4.068   2.442
 6623SOL    HW220769   3.632   4.103   2.486
 6624SOL     OW20770   4.115   4.801   4.093
 6624SOL    HW120771   4.146   4.722   4.145
 6624SOL    HW220772   4.189   4.868   4.087
 6625SOL     OW20773   6.191   6.887   0.130
 6625SOL    HW120774   6.275   6.941   0.129
 6625SOL    HW220775   6.135   6.913   0.209
 6626SOL     OW20776   2.746   4.796   3.676
 6626SOL    HW120777   2.690   4.772   3.755
 6626SOL    HW220778   2.841   4.807   3.704
 6627SOL     OW20779   1.897   6.721   1.673
 6627SOL    HW120780   1.921   6.816   1.690
 6627SOL    HW220781   1.921   6.665   1.752
 6628SOL     OW20782   3.989   5.726   3.803
 6628SOL    HW120783   4.062   5.678   3.853
 6628SOL    HW220784   3.943   5.661   3.742
 6629SOL     OW20785   3.128   3.746   0.325
 6629SOL    HW120786   3.118   3.647   0.319
 6629SOL    HW220787   3.198   3.769   0.393
 6630SOL     OW20788   3.849   1.274   6.822
 6630SOL    HW120789   3.809   1.332   6.751
 6630SOL    HW220790   3.793   1.280   6.905
 6631SOL     OW20791   4.500   0.321   1.162
 6631SOL    HW120792   4.498   0.354   1.067
 6631SOL    HW220793   4.454   0.388   1.221
 6632SOL     OW20794   6.350   2.498   2.305
 6632SOL    HW120795   6.395   2.455   2.227
 6632SOL    HW220796   6.314   2.427   2.365
 6633SOL     OW20797   1.088   6.279   1.795
 6633SOL    HW120798   1.025   6.203   1.807
 6633SOL    HW220799   1.156   6.256   1.725
 6634SOL     OW20800   6.834   2.618   5.819
 6634SOL    HW120801   6.767   2.693   5.815
 6634SOL    HW220802   6.877   2.617   5.910
 6635SOL     OW20803   4.147   4.999   2.957
 6635SOL    HW120804   4.124   4.948   3.040
 6635SOL    HW220805   4.076   4.986   2.888
 6636SOL     OW20806   1.726   3.548   3.802
 6636SOL    HW120807   1.667   3.468   3.801
 6636SOL    HW220808   1.718   3.596   3.889
 6637SOL     OW20809   6.229   2.740   1.564
 6637SOL    HW120810   6.322   2.776   1.560
 6637SOL    HW220811   6.179   2.766   1.481
 6638SOL     OW20812   2.025   0.435   6.681
 6638SOL    HW120813   2.008   0.337   6.693
 6638SOL    HW220814   1.953   0.475   6.624
 6639SOL     OW20815   4.080   5.819   6.152
 6639SOL    HW120816   4.108   5.852   6.062
 6639SOL    HW220817   4.051   5.724   6.145
 6640SOL     OW20818   5.740   2.789   3.431
 6640SOL    HW120819   5.747   2.764   3.334
 6640SOL    HW220820   5.686   2.720   3.479
 6641SOL     OW20821   2.361   5.279   6.603
 6641SOL    HW120822   2.281   5.226   6.631
 6641SOL    HW220823   2.444   5.229   6.627
 6642SOL     OW20824   6.349   6.165   6.574
 6642SOL    HW120825   6.352   6.207   6.483
 6642SOL    HW220826   6.403   6.221   6.638
 6643SOL     OW20827   3.615   5.548   0.076
 6643SOL    HW120828   3.636   5.501   0.162
 6643SOL    HW220829   3.624   5.647   0.089
 6644SOL     OW20830   1.143   3.755   1.898
 6644SOL    HW120831   1.219   3.710   1.851
 6644SOL    HW220832   1.175   3.842   1.936
 6645SOL     OW20833   6.220   4.977   5.270
 6645SOL    HW120834   6.310   4.995   5.228
 6645SOL    HW220835   6.209   4.878   5.281
 6646SOL     OW20836   1.141   5.982   4.116
 6646SOL    HW120837   1.210   5.912   4.134
 6646SOL    HW220838   1.108   5.973   4.022
 6647SOL     OW20839   4.228   1.684   2.216
 6647SOL    HW120840   4.216   1.781   2.193
 6647SOL    HW220841   4.326   1.662   2.218
 6648SOL     OW20842   4.254   5.481   1.464
 6648SOL    HW120843   4.167   5.492   1.512
 6648SOL    HW220844   4.261   5.548   1.390
 6649SOL     OW20845   4.506   1.532   6.126
 6649SOL    HW120846   4.478   1.627   6.112
 6649SOL    HW220847   4.523   1.517   6.224
 6650SOL     OW20848   3.357   0.935   3.726
 6650SOL    HW120849   3.291   0.953   3.799
 6650SOL    HW220850   3.321   0.968   3.639
 6651SOL     OW20851   0.994   1.865   0.620
 6651SOL    HW120852   1.089   1.895   0.615
 6651SOL    HW220853   0.981   1.810   0.703
 6652SOL     OW20854   0.738   5.266   3.248
 6652SOL    HW120855   0.803   5.265   3.324
 6652SOL    HW220856   0.647   5.242   3.281
 6653SOL     OW20857   3.349   3.383   3.527
 6653SOL    HW120858   3.449   3.380   3.534
 6653SOL    HW220859   3.316   3.471   3.561
 6654SOL     OW20860   1.818   3.615   1.471
 6654SOL    HW120861   1.744   3.553   1.495
 6654SOL    HW220862   1.786   3.710   1.475
 6655SOL     OW20863   1.643   0.540   0.179
 6655SOL    HW120864   1.728   0.492   0.204
 6655SOL    HW220865   1.565   0.486   0.209
 6656SOL     OW20866   0.141   2.791   2.128
 6656SOL    HW120867   0.068   2.788   2.059
 6656SOL    HW220868   0.168   2.698   2.152
 6657SOL     OW20869   3.131   4.813   5.466
 6657SOL    HW120870   3.127   4.729   5.412
 6657SOL    HW220871   3.226   4.834   5.487
 6658SOL     OW20872   6.199   6.856   6.298
 6658SOL    HW120873   6.272   6.794   6.328
 6658SOL    HW220874   6.189   6.850   6.198
 6659SOL     OW20875   2.026   2.568   6.836
 6659SOL    HW120876   1.943   2.521   6.865
 6659SOL    HW220877   2.088   2.578   6.913
 6660SOL     OW20878   1.010   6.395   2.658
 6660SOL    HW120879   0.972   6.429   2.572
 6660SOL    HW220880   1.095   6.444   2.679
 6661SOL     OW20881   6.970   6.268   3.793
 6661SOL    HW120882   6.936   6.190   3.742
 6661SOL    HW220883   6.974   6.349   3.734
 6662SOL     OW20884   1.589   3.909   6.003
 6662SOL    HW120885   1.675   3.882   6.045
 6662SOL    HW220886   1.565   4.001   6.033
 6663SOL     OW20887   0.652   5.025   2.433
 6663SOL    HW120888   0.752   5.021   2.427
 6663SOL    HW220889   0.616   5.076   2.354
 6664SOL     OW20890   0.115   1.943   2.481
 6664SOL    HW120891   0.043   1.937   2.411
 6664SOL    HW220892   0.076   1.918   2.570
 6665SOL     OW20893   2.390   0.369   2.101
 6665SOL    HW120894   2.302   0.334   2.070
 6665SOL    HW220895   2.379   0.416   2.188
 6666SOL     OW20896   5.384   1.312   0.647
 6666SOL    HW120897   5.440   1.249   0.701
 6666SOL    HW220898   5.441   1.353   0.575
 6667SOL     OW20899   6.057   4.911   4.675
 6667SOL    HW120900   6.154   4.910   4.699
 6667SOL    HW220901   6.032   5.003   4.643
 6668SOL     OW20902   6.999   6.204   1.126
 6668SOL    HW120903   0.043   6.190   1.192
 6668SOL    HW220904   6.994   6.301   1.102
 6669SOL     OW20905   1.021   5.149   2.916
 6669SOL    HW120906   1.075   5.211   2.859
 6669SOL    HW220907   1.079   5.075   2.948
 6670SOL     OW20908   4.173   4.575   0.143
 6670SOL    HW120909   4.159   4.560   0.045
 6670SOL    HW220910   4.263   4.617   0.158
 6671SOL     OW20911   0.477   3.032   5.200
 6671SOL    HW120912   0.446   2.969   5.128
 6671SOL    HW220913   0.397   3.077   5.241
 6672SOL     OW20914   0.525   0.393   5.358
 6672SOL    HW120915   0.593   0.327   5.327
 6672SOL    HW220916   0.524   0.395   5.458
 6673SOL     OW20917   4.882   5.881   1.077
 6673SOL    HW120918   4.910   5.889   0.982
 6673SOL    HW220919   4.866   5.973   1.115
 6674SOL     OW20920   0.753   6.864   5.679
 6674SOL    HW120921   0.653   6.859   5.671
 6674SOL    HW220922   0.793   6.879   5.588
 6675SOL     OW20923   7.001   6.398   0.275
 6675SOL    HW120924   6.906   6.387   0.305
 6675SOL    HW220925   0.009   6.308   0.254
 6676SOL     OW20926   0.228   2.019   1.123
 6676SOL    HW120927   0.161   1.963   1.075
 6676SOL    HW220928   0.305   1.963   1.152
 6677SOL     OW20929   0.119   4.642   0.536
 6677SOL    HW120930   0.056   4.579   0.489
 6677SOL    HW220931   0.179   4.685   0.468
 6678SOL     OW20932   0.866   3.176   4.391
 6678SOL    HW120933   0.911   3.210   4.309
 6678SOL    HW220934   0.872   3.245   4.463
 6679SOL     OW20935   1.451   0.777   4.873
 6679SOL    HW120936   1.483   0.838   4.800
 6679SOL    HW220937   1.457   0.825   4.961
 6680SOL     OW20938   2.841   0.700   6.642
 6680SOL    HW120939   2.779   0.712   6.719
 6680SOL    HW220940   2.807   0.627   6.582
 6681SOL     OW20941   5.293   5.939   6.876
 6681SOL    HW120942   5.259   5.909   6.965
 6681SOL    HW220943   5.298   6.039   6.875
 6682SOL     OW20944   6.706   5.285   1.941
 6682SOL    HW120945   6.680   5.189   1.930
 6682SOL    HW220946   6.668   5.319   2.028
 6683SOL     OW20947   5.138   1.729   4.946
 6683SOL    HW120948   5.176   1.773   4.865
 6683SOL    HW220949   5.126   1.797   5.018
 6684SOL     OW20950   1.601   1.517   2.728
 6684SOL    HW120951   1.556   1.467   2.654
 6684SOL    HW220952   1.574   1.613   2.724
 6685SOL     OW20953   5.623   2.788   6.749
 6685SOL    HW120954   5.535   2.814   6.788
 6685SOL    HW220955   5.656   2.861   6.689
 6686SOL     OW20956   6.224   3.653   4.099
 6686SOL    HW120957   6.293   3.705   4.151
 6686SOL    HW220958   6.270   3.598   4.029
 6687SOL     OW20959   0.491   0.925   0.133
 6687SOL    HW120960   0.470   0.937   0.036
 6687SOL    HW220961   0.508   0.828   0.152
 6688SOL     OW20962   0.482   4.923   2.725
 6688SOL    HW120963   0.491   5.023   2.731
 6688SOL    HW220964   0.546   4.880   2.789
 6689SOL     OW20965   4.789   4.713   6.978
 6689SOL    HW120966   4.725   4.667   6.916
 6689SOL    HW220967   4.879   4.670   6.970
 6690SOL     OW20968   0.975   1.676   0.830
 6690SOL    HW120969   0.989   1.715   0.921
 6690SOL    HW220970   0.897   1.614   0.832
 6691SOL     OW20971   1.573   5.056   1.040
 6691SOL    HW120972   1.571   4.982   0.972
 6691SOL    HW220973   1.492   5.114   1.028
 6692SOL     OW20974   4.551   4.137   6.072
 6692SOL    HW120975   4.552   4.224   6.121
 6692SOL    HW220976   4.457   4.105   6.063
 6693SOL     OW20977   4.090   3.576   5.822
 6693SOL    HW120978   4.164   3.509   5.829
 6693SOL    HW220979   4.028   3.549   5.749
 6694SOL     OW20980   2.727   6.036   0.221
 6694SOL    HW120981   2.703   6.131   0.242
 6694SOL    HW220982   2.667   5.974   0.272
 6695SOL     OW20983   1.384   1.721   6.914
 6695SOL    HW120984   1.338   1.673   6.989
 6695SOL    HW220985   1.332   1.802   6.889
 6696SOL     OW20986   1.774   2.962   1.400
 6696SOL    HW120987   1.774   2.906   1.318
 6696SOL    HW220988   1.701   2.932   1.462
 6697SOL     OW20989   5.154   3.268   4.296
 6697SOL    HW120990   5.253   3.267   4.310
 6697SOL    HW220991   5.134   3.244   4.201
 6698SOL     OW20992   2.961   4.104   7.028
 6698SOL    HW120993   2.889   4.149   0.050
 6698SOL    HW220994   2.967   4.143   6.937
 6699SOL     OW20995   1.465   3.441   6.538
 6699SOL    HW120996   1.372   3.422   6.570
 6699SOL    HW220997   1.528   3.373   6.575
 6700SOL     OW20998   0.191   6.340   6.387
 6700SOL    HW120999   0.223   6.435   6.384
 6700SOL    HW221000   0.121   6.326   6.317
 6701SOL     OW21001   0.618   2.540   1.144
 6701SOL    HW121002   0.540   2.518   1.085
 6701SOL    HW221003   0.600   2.507   1.237
 6702SOL     OW21004   1.581   3.358   0.417
 6702SOL    HW121005   1.503   3.326   0.364
 6702SOL    HW221006   1.588   3.457   0.409
 6703SOL     OW21007   0.184   2.279   6.689
 6703SOL    HW121008   0.100   2.317   6.649
 6703SOL    HW221009   0.189   2.181   6.670
 6704SOL     OW21010   4.839   2.994   3.094
 6704SOL    HW121011   4.929   2.964   3.124
 6704SOL    HW221012   4.774   2.986   3.170
 6705SOL     OW21013   5.987   1.284   1.323
 6705SOL    HW121014   6.047   1.266   1.401
 6705SOL    HW221015   5.917   1.350   1.350
 6706SOL     OW21016   1.201   5.820   6.942
 6706SOL    HW121017   1.276   5.835   7.006
 6706SOL    HW221018   1.193   5.722   6.923
 6707SOL     OW21019   0.942   5.224   2.506
 6707SOL    HW121020   0.908   5.151   2.564
 6707SOL    HW221021   0.865   5.277   2.470
 6708SOL     OW21022   1.732   6.128   1.190
 6708SOL    HW121023   1.650   6.075   1.212
 6708SOL    HW221024   1.786   6.142   1.273
 6709SOL     OW21025   5.465   1.734   3.231
 6709SOL    HW121026   5.442   1.679   3.311
 6709SOL    HW221027   5.437   1.686   3.148
 6710SOL     OW21028   1.681   1.681   0.582
 6710SOL    HW121029   1.715   1.723   0.498
 6710SOL    HW221030   1.632   1.597   0.559
 6711SOL     OW21031   5.572   3.695   6.846
 6711SOL    HW121032   5.590   3.658   6.755
 6711SOL    HW221033   5.474   3.696   6.863
 6712SOL     OW21034   3.702   6.478   1.211
 6712SOL    HW121035   3.672   6.452   1.119
 6712SOL    HW221036   3.667   6.569   1.233
 6713SOL     OW21037   1.498   1.676   3.332
 6713SOL    HW121038   1.495   1.604   3.262
 6713SOL    HW221039   1.433   1.654   3.405
 6714SOL     OW21040   6.660   0.618   4.689
 6714SOL    HW121041   6.658   0.632   4.787
 6714SOL    HW221042   6.743   0.661   4.651
 6715SOL     OW21043   6.181   2.385   0.641
 6715SOL    HW121044   6.176   2.322   0.564
 6715SOL    HW221045   6.139   2.472   0.615
 6716SOL     OW21046   3.222   6.154   0.982
 6716SOL    HW121047   3.312   6.135   1.020
 6716SOL    HW221048   3.165   6.198   1.051
 6717SOL     OW21049   4.038   0.908   6.871
 6717SOL    HW121050   4.073   0.928   6.779
 6717SOL    HW221051   3.950   0.954   6.883
 6718SOL     OW21052   3.726   0.222   0.118
 6718SOL    HW121053   3.798   0.254   0.179
 6718SOL    HW221054   3.756   0.229   0.023
 6719SOL     OW21055   0.707   1.896   5.148
 6719SOL    HW121056   0.771   1.904   5.224
 6719SOL    HW221057   0.756   1.902   5.061
 6720SOL     OW21058   1.588   4.727   1.243
 6720SOL    HW121059   1.590   4.787   1.323
 6720SOL    HW221060   1.493   4.701   1.224
 6721SOL     OW21061   0.223   5.982   3.141
 6721SOL    HW121062   0.218   5.970   3.042
 6721SOL    HW221063   0.317   5.968   3.172
 6722SOL     OW21064   4.686   4.879   6.680
 6722SOL    HW121065   4.769   4.932   6.696
 6722SOL    HW221066   4.677   4.810   6.753
 6723SOL     OW21067   4.502   0.819   2.788
 6723SOL    HW121068   4.522   0.913   2.816
 6723SOL    HW221069   4.586   0.766   2.787
 6724SOL     OW21070   3.358   4.360   5.405
 6724SOL    HW121071   3.292   4.288   5.427
 6724SOL    HW221072   3.432   4.359   5.472
 6725SOL     OW21073   0.164   5.418   1.269
 6725SOL    HW121074   0.079   5.449   1.311
 6725SOL    HW221075   0.147   5.388   1.175
 6726SOL     OW21076   2.245   2.840   1.877
 6726SOL    HW121077   2.253   2.781   1.797
 6726SOL    HW221078   2.298   2.924   1.862
 6727SOL     OW21079   3.407   3.903   0.767
 6727SOL    HW121080   3.374   3.983   0.818
 6727SOL    HW221081   3.343   3.881   0.693
 6728SOL     OW21082   4.556   1.744   4.718
 6728SOL    HW121083   4.623   1.705   4.781
 6728SOL    HW221084   4.546   1.683   4.639
 6729SOL     OW21085   4.614   6.263   3.386
 6729SOL    HW121086   4.646   6.168   3.387
 6729SOL    HW221087   4.549   6.275   3.312
 6730SOL     OW21088   1.160   0.339   2.221
 6730SOL    HW121089   1.140   0.310   2.314
 6730SOL    HW221090   1.197   0.432   2.223
 6731SOL     OW21091   1.808   4.173   2.146
 6731SOL    HW121092   1.781   4.082   2.116
 6731SOL    HW221093   1.754   4.242   2.098
 6732SOL     OW21094   2.852   5.404   0.636
 6732SOL    HW121095   2.785   5.347   0.589
 6732SOL    HW221096   2.920   5.436   0.570
 6733SOL     OW21097   5.966   5.867   4.682
 6733SOL    HW121098   5.963   5.934   4.608
 6733SOL    HW221099   5.880   5.867   4.732
 6734SOL     OW21100   2.482   3.596   6.011
 6734SOL    HW121101   2.437   3.578   6.099
 6734SOL    HW221102   2.420   3.575   5.936
 6735SOL     OW21103   0.854   6.496   6.569
 6735SOL    HW121104   0.844   6.399   6.593
 6735SOL    HW221105   0.880   6.504   6.473
 6736SOL     OW21106   2.339   4.352   2.098
 6736SOL    HW121107   2.325   4.283   2.169
 6736SOL    HW221108   2.437   4.368   2.086
 6737SOL     OW21109   1.832   7.004   0.853
 6737SOL    HW121110   1.823   6.905   0.855
 6737SOL    HW221111   1.878   0.003   0.769
 6738SOL     OW21112   4.952   1.463   1.158
 6738SOL    HW121113   5.009   1.389   1.123
 6738SOL    HW221114   4.859   1.453   1.124
 6739SOL     OW21115   4.100   6.739   5.652
 6739SOL    HW121116   4.020   6.797   5.638
 6739SOL    HW221117   4.092   6.657   5.595
 6740SOL     OW21118   5.881   2.623   5.855
 6740SOL    HW121119   5.800   2.589   5.904
 6740SOL    HW221120   5.937   2.678   5.916
 6741SOL     OW21121   0.302   0.233   6.209
 6741SOL    HW121122   0.303   0.220   6.110
 6741SOL    HW221123   0.213   0.270   6.236
 6742SOL     OW21124   6.416   5.847   4.867
 6742SOL    HW121125   6.349   5.908   4.825
 6742SOL    HW221126   6.444   5.884   4.956
 6743SOL     OW21127   5.763   2.243   1.639
 6743SOL    HW121128   5.840   2.193   1.600
 6743SOL    HW221129   5.680   2.187   1.635
 6744SOL     OW21130   4.657   6.785   4.107
 6744SOL    HW121131   4.706   6.743   4.030
 6744SOL    HW221132   4.619   6.714   4.165
 6745SOL     OW21133   0.944   3.236   2.994
 6745SOL    HW121134   0.889   3.312   3.026
 6745SOL    HW221135   1.024   3.225   3.053
 6746SOL     OW21136   6.109   0.952   0.765
 6746SOL    HW121137   6.129   0.932   0.860
 6746SOL    HW221138   6.107   1.051   0.752
 6747SOL     OW21139   4.517   5.629   0.017
 6747SOL    HW121140   4.542   5.534   0.036
 6747SOL    HW221141   4.575   5.665   6.973
 6748SOL     OW21142   6.990   6.552   2.184
 6748SOL    HW121143   6.900   6.581   2.217
 6748SOL    HW221144   6.995   6.564   2.085
 6749SOL     OW21145   2.924   5.789   1.434
 6749SOL    HW121146   2.999   5.772   1.372
 6749SOL    HW221147   2.858   5.852   1.392
 6750SOL     OW21148   2.190   2.937   5.192
 6750SOL    HW121149   2.194   3.021   5.246
 6750SOL    HW221150   2.277   2.923   5.145
 6751SOL     OW21151   4.059   1.985   6.020
 6751SOL    HW121152   4.121   1.996   6.097
 6751SOL    HW221153   3.975   1.941   6.050
 6752SOL     OW21154   6.953   1.802   0.370
 6752SOL    HW121155   6.872   1.751   0.397
 6752SOL    HW221156   6.935   1.852   0.285
 6753SOL     OW21157   6.284   1.164   0.061
 6753SOL    HW121158   6.265   1.070   0.032
 6753SOL    HW221159   6.263   1.227   7.015
 6754SOL     OW21160   4.622   0.899   6.437
 6754SOL    HW121161   4.639   0.805   6.409
 6754SOL    HW221162   4.604   0.956   6.357
 6755SOL     OW21163   5.469   1.925   3.671
 6755SOL    HW121164   5.490   1.835   3.633
 6755SOL    HW221165   5.371   1.944   3.658
 6756SOL     OW21166   4.609   4.431   3.535
 6756SOL    HW121167   4.671   4.353   3.544
 6756SOL    HW221168   4.573   4.456   3.625
 6757SOL     OW21169   6.182   4.724   1.277
 6757SOL    HW121170   6.233   4.720   1.191
 6757SOL    HW221171   6.161   4.819   1.300
 6758SOL     OW21172   6.402   1.681   3.004
 6758SOL    HW121173   6.460   1.641   3.075
 6758SOL    HW221174   6.314   1.708   3.044
 6759SOL     OW21175   1.289   5.233   3.216
 6759SOL    HW121176   1.368   5.194   3.169
 6759SOL    HW221177   1.248   5.164   3.275
 6760SOL     OW21178   6.630   3.891   5.103
 6760SOL    HW121179   6.668   3.982   5.084
 6760SOL    HW221180   6.674   3.853   5.184
 6761SOL     OW21181   6.035   2.600   6.258
 6761SOL    HW121182   5.958   2.622   6.318
 6761SOL    HW221183   6.026   2.505   6.227
 6762SOL     OW21184   0.301   3.977   3.813
 6762SOL    HW121185   0.209   4.000   3.782
 6762SOL    HW221186   0.296   3.901   3.878
 6763SOL     OW21187   6.030   6.828   4.900
 6763SOL    HW121188   6.112   6.872   4.863
 6763SOL    HW221189   5.992   6.885   4.973
 6764SOL     OW21190   1.967   3.512   6.938
 6764SOL    HW121191   1.973   3.548   0.001
 6764SOL    HW221192   1.874   3.524   6.903
 6765SOL     OW21193   4.650   5.097   2.527
 6765SOL    HW121194   4.629   5.001   2.510
 6765SOL    HW221195   4.713   5.104   2.604
 6766SOL     OW21196   2.215   2.175   6.098
 6766SOL    HW121197   2.208   2.245   6.027
 6766SOL    HW221198   2.219   2.084   6.056
 6767SOL     OW21199   0.387   2.795   5.790
 6767SOL    HW121200   0.291   2.766   5.792
 6767SOL    HW221201   0.417   2.803   5.695
 6768SOL     OW21202   6.826   0.748   6.010
 6768SOL    HW121203   6.863   0.803   5.935
 6768SOL    HW221204   6.861   0.782   6.097
 6769SOL     OW21205   0.864   2.322   5.884
 6769SOL    HW121206   0.801   2.267   5.828
 6769SOL    HW221207   0.948   2.339   5.833
 6770SOL     OW21208   0.106   1.586   3.874
 6770SOL    HW121209   0.119   1.570   3.972
 6770SOL    HW221210   0.014   1.557   3.848
 6771SOL     OW21211   6.224   1.842   2.567
 6771SOL    HW121212   6.136   1.888   2.556
 6771SOL    HW221213   6.259   1.856   2.659
 6772SOL     OW21214   0.808   0.628   2.175
 6772SOL    HW121215   0.883   0.566   2.152
 6772SOL    HW221216   0.750   0.641   2.095
 6773SOL     OW21217   1.524   1.021   2.877
 6773SOL    HW121218   1.532   1.050   2.782
 6773SOL    HW221219   1.564   1.090   2.937
 6774SOL     OW21220   4.287   1.305   5.195
 6774SOL    HW121221   4.372   1.298   5.142
 6774SOL    HW221222   4.227   1.229   5.171
 6775SOL     OW21223   1.513   2.035   4.519
 6775SOL    HW121224   1.426   2.056   4.476
 6775SOL    HW221225   1.584   2.026   4.450
 6776SOL     OW21226   3.477   3.755   3.437
 6776SOL    HW121227   3.565   3.746   3.484
 6776SOL    HW221228   3.489   3.811   3.355
 6777SOL     OW21229   0.352   6.927   6.262
 6777SOL    HW121230   0.284   6.886   6.322
 6777SOL    HW221231   0.393   7.006   6.307
 6778SOL     OW21232   6.647   5.992   2.235
 6778SOL    HW121233   6.596   5.966   2.153
 6778SOL    HW221234   6.584   6.004   2.312
 6779SOL     OW21235   4.972   4.821   6.454
 6779SOL    HW121236   5.041   4.867   6.509
 6779SOL    HW221237   4.947   4.734   6.497
 6780SOL     OW21238   4.783   1.083   2.260
 6780SOL    HW121239   4.720   1.112   2.188
 6780SOL    HW221240   4.854   1.153   2.272
 6781SOL     OW21241   5.962   3.097   2.757
 6781SOL    HW121242   5.922   3.006   2.770
 6781SOL    HW221243   5.929   3.158   2.829
 6782SOL     OW21244   0.042   1.482   2.792
 6782SOL    HW121245   0.111   1.416   2.765
 6782SOL    HW221246   7.006   1.439   2.854
 6783SOL     OW21247   0.398   6.530   6.569
 6783SOL    HW121248   0.352   6.446   6.600
 6783SOL    HW221249   0.351   6.566   6.489
 6784SOL     OW21250   1.060   5.043   0.155
 6784SOL    HW121251   0.996   4.990   0.099
 6784SOL    HW221252   1.141   5.065   0.101
 6785SOL     OW21253   5.448   4.528   1.984
 6785SOL    HW121254   5.543   4.497   1.981
 6785SOL    HW221255   5.421   4.563   1.894
 6786SOL     OW21256   6.671   1.795   5.591
 6786SOL    HW121257   6.655   1.843   5.677
 6786SOL    HW221258   6.646   1.855   5.515
 6787SOL     OW21259   4.127   2.246   1.283
 6787SOL    HW121260   4.109   2.327   1.339
 6787SOL    HW221261   4.046   2.187   1.281
 6788SOL     OW21262   1.217   4.087   1.012
 6788SOL    HW121263   1.198   4.023   1.087
 6788SOL    HW221264   1.211   4.180   1.046
 6789SOL     OW21265   5.907   3.517   2.175
 6789SOL    HW121266   5.885   3.614   2.166
 6789SOL    HW221267   5.832   3.470   2.222
 6790SOL     OW21268   0.141   5.493   0.577
 6790SOL    HW121269   0.099   5.546   0.502
 6790SOL    HW221270   0.115   5.397   0.568
 6791SOL     OW21271   2.128   6.509   3.570
 6791SOL    HW121272   2.207   6.571   3.577
 6791SOL    HW221273   2.157   6.416   3.593
 6792SOL     OW21274   3.306   5.977   6.928
 6792SOL    HW121275   3.290   6.069   6.892
 6792SOL    HW221276   3.391   5.940   6.890
 6793SOL     OW21277   2.321   4.163   6.885
 6793SOL    HW121278   2.347   4.154   6.981
 6793SOL    HW221279   2.222   4.158   6.876
 6794SOL     OW21280   4.780   2.382   4.150
 6794SOL    HW121281   4.691   2.420   4.175
 6794SOL    HW221282   4.807   2.415   4.060
 6795SOL     OW21283   0.376   0.991   1.983
 6795SOL    HW121284   0.297   1.046   1.958
 6795SOL    HW221285   0.450   1.007   1.918
 6796SOL     OW21286   6.756   3.170   2.021
 6796SOL    HW121287   6.830   3.104   2.007
 6796SOL    HW221288   6.733   3.213   1.934
 6797SOL     OW21289   1.556   3.803   0.963
 6797SOL    HW121290   1.545   3.740   1.039
 6797SOL    HW221291   1.640   3.782   0.913
 6798SOL     OW21292   4.874   1.686   1.717
 6798SOL    HW121293   4.775   1.678   1.728
 6798SOL    HW221294   4.908   1.611   1.660
 6799SOL     OW21295   5.363   6.705   3.070
 6799SOL    HW121296   5.426   6.774   3.033
 6799SOL    HW221297   5.320   6.655   2.995
 6800SOL     OW21298   6.749   2.824   1.891
 6800SOL    HW121299   6.721   2.905   1.839
 6800SOL    HW221300   6.758   2.849   1.988
 6801SOL     OW21301   1.934   5.196   5.230
 6801SOL    HW121302   1.899   5.198   5.137
 6801SOL    HW221303   2.026   5.234   5.232
 6802SOL     OW21304   2.686   4.310   1.716
 6802SOL    HW121305   2.715   4.218   1.688
 6802SOL    HW221306   2.766   4.361   1.748
 6803SOL     OW21307   5.948   5.229   6.376
 6803SOL    HW121308   5.912   5.302   6.433
 6803SOL    HW221309   5.909   5.141   6.405
 6804SOL     OW21310   3.358   4.846   1.902
 6804SOL    HW121311   3.450   4.834   1.940
 6804SOL    HW221312   3.304   4.763   1.916
 6805SOL     OW21313   0.590   4.050   3.668
 6805SOL    HW121314   0.624   4.135   3.627
 6805SOL    HW221315   0.493   4.039   3.647
 6806SOL     OW21316   6.146   3.948   1.759
 6806SOL    HW121317   6.057   3.989   1.741
 6806SOL    HW221318   6.155   3.863   1.707
 6807SOL     OW21319   3.848   3.137   2.403
 6807SOL    HW121320   3.809   3.052   2.368
 6807SOL    HW221321   3.817   3.214   2.347
 6808SOL     OW21322   3.662   6.140   3.373
 6808SOL    HW121323   3.581   6.177   3.418
 6808SOL    HW221324   3.687   6.200   3.297
 6809SOL     OW21325   5.778   2.641   0.591
 6809SOL    HW121326   5.707   2.587   0.636
 6809SOL    HW221327   5.760   2.739   0.604
 6810SOL     OW21328   3.047   0.101   4.376
 6810SOL    HW121329   2.961   0.116   4.326
 6810SOL    HW221330   3.119   0.159   4.336
 6811SOL     OW21331   6.324   1.492   1.519
 6811SOL    HW121332   6.254   1.423   1.539
 6811SOL    HW221333   6.410   1.464   1.561
 6812SOL     OW21334   3.211   4.131   5.462
 6812SOL    HW121335   3.153   4.154   5.541
 6812SOL    HW221336   3.163   4.154   5.378
 6813SOL     OW21337   0.103   3.493   2.055
 6813SOL    HW121338   0.033   3.470   1.988
 6813SOL    HW221339   0.155   3.410   2.079
 6814SOL     OW21340   4.186   2.369   1.809
 6814SOL    HW121341   4.099   2.341   1.768
 6814SOL    HW221342   4.204   2.465   1.787
 6815SOL     OW21343   0.991   5.715   0.085
 6815SOL    HW121344   0.904   5.766   0.085
 6815SOL    HW221345   1.061   5.771   0.041
 6816SOL     OW21346   5.583   6.385   4.223
 6816SOL    HW121347   5.638   6.468   4.211
 6816SOL    HW221348   5.498   6.394   4.172
 6817SOL     OW21349   5.770   0.646   1.741
 6817SOL    HW121350   5.731   0.555   1.726
 6817SOL    HW221351   5.837   0.667   1.670
 6818SOL     OW21352   6.822   0.122   5.384
 6818SOL    HW121353   6.863   0.057   5.449
 6818SOL    HW221354   6.824   0.213   5.424
 6819SOL     OW21355   5.600   3.875   0.283
 6819SOL    HW121356   5.614   3.819   0.202
 6819SOL    HW221357   5.683   3.873   0.339
 6820SOL     OW21358   2.379   3.931   1.304
 6820SOL    HW121359   2.299   3.967   1.351
 6820SOL    HW221360   2.375   3.831   1.302
 6821SOL     OW21361   2.910   3.063   6.019
 6821SOL    HW121362   2.938   2.968   6.027
 6821SOL    HW221363   2.980   3.122   6.059
 6822SOL     OW21364   6.591   4.385   4.939
 6822SOL    HW121365   6.504   4.401   4.987
 6822SOL    HW221366   6.662   4.444   4.978
 6823SOL     OW21367   6.701   3.051   5.773
 6823SOL    HW121368   6.719   3.107   5.692
 6823SOL    HW221369   6.636   3.099   5.832
 6824SOL     OW21370   0.536   0.173   3.782
 6824SOL    HW121371   0.494   0.250   3.734
 6824SOL    HW221372   0.635   0.174   3.767
 6825SOL     OW21373   4.465   4.575   1.600
 6825SOL    HW121374   4.534   4.504   1.601
 6825SOL    HW221375   4.404   4.561   1.521
 6826SOL     OW21376   5.836   0.953   3.833
 6826SOL    HW121377   5.888   0.870   3.813
 6826SOL    HW221378   5.886   1.033   3.798
 6827SOL     OW21379   5.360   5.224   5.301
 6827SOL    HW121380   5.268   5.184   5.297
 6827SOL    HW221381   5.366   5.283   5.382
 6828SOL     OW21382   2.727   2.266   2.846
 6828SOL    HW121383   2.824   2.265   2.820
 6828SOL    HW221384   2.682   2.345   2.803
 6829SOL     OW21385   5.405   6.648   3.703
 6829SOL    HW121386   5.355   6.702   3.771
 6829SOL    HW221387   5.340   6.601   3.643
 6830SOL     OW21388   3.748   6.620   2.322
 6830SOL    HW121389   3.721   6.547   2.259
 6830SOL    HW221390   3.765   6.704   2.270
 6831SOL     OW21391   2.472   0.992   0.191
 6831SOL    HW121392   2.406   1.062   0.165
 6831SOL    HW221393   2.565   1.024   0.171
 6832SOL     OW21394   3.390   3.554   0.468
 6832SOL    HW121395   3.369   3.526   0.374
 6832SOL    HW221396   3.488   3.549   0.483
 6833SOL     OW21397   4.619   5.228   0.039
 6833SOL    HW121398   4.686   5.158   0.064
 6833SOL    HW221399   4.625   5.247   6.971
 6834SOL     OW21400   6.341   5.394   5.252
 6834SOL    HW121401   6.421   5.385   5.310
 6834SOL    HW221402   6.288   5.474   5.279
 6835SOL     OW21403   3.773   0.177   2.722
 6835SOL    HW121404   3.719   0.245   2.770
 6835SOL    HW221405   3.713   0.109   2.681
 6836SOL     OW21406   0.772   4.503   6.895
 6836SOL    HW121407   0.679   4.502   6.858
 6836SOL    HW221408   0.794   4.413   6.934
 6837SOL     OW21409   6.681   2.444   1.459
 6837SOL    HW121410   6.712   2.508   1.529
 6837SOL    HW221411   6.635   2.367   1.501
 6838SOL     OW21412   2.005   4.542   6.949
 6838SOL    HW121413   1.953   4.625   6.926
 6838SOL    HW221414   2.026   4.492   6.865
 6839SOL     OW21415   5.743   2.249   5.634
 6839SOL    HW121416   5.694   2.293   5.559
 6839SOL    HW221417   5.678   2.201   5.692
 6840SOL     OW21418   3.530   6.992   4.666
 6840SOL    HW121419   3.489   6.905   4.693
 6840SOL    HW221420   3.509   7.010   4.570
 6841SOL     OW21421   4.497   6.313   0.521
 6841SOL    HW121422   4.522   6.352   0.609
 6841SOL    HW221423   4.571   6.327   0.456
 6842SOL     OW21424   0.945   3.319   3.589
 6842SOL    HW121425   0.962   3.417   3.585
 6842SOL    HW221426   0.861   3.302   3.642
 6843SOL     OW21427   4.848   2.926   1.778
 6843SOL    HW121428   4.765   2.928   1.834
 6843SOL    HW221429   4.902   3.009   1.795
 6844SOL     OW21430   3.388   6.759   4.627
 6844SOL    HW121431   3.388   6.787   4.531
 6844SOL    HW221432   3.447   6.679   4.638
 6845SOL     OW21433   3.733   3.649   6.962
 6845SOL    HW121434   3.725   3.553   6.990
 6845SOL    HW221435   3.642   3.688   6.951
 6846SOL     OW21436   3.796   3.174   4.029
 6846SOL    HW121437   3.790   3.098   4.093
 6846SOL    HW221438   3.772   3.142   3.937
 6847SOL     OW21439   5.330   3.128   2.294
 6847SOL    HW121440   5.247   3.125   2.238
 6847SOL    HW221441   5.336   3.218   2.338
 6848SOL     OW21442   0.670   6.176   4.686
 6848SOL    HW121443   0.624   6.248   4.738
 6848SOL    HW221444   0.732   6.125   4.746
 6849SOL     OW21445   3.198   0.124   4.773
 6849SOL    HW121446   3.167   0.191   4.840
 6849SOL    HW221447   3.232   0.171   4.692
 6850SOL     OW21448   6.533   4.001   1.605
 6850SOL    HW121449   6.475   4.061   1.661
 6850SOL    HW221450   6.478   3.925   1.570
 6851SOL     OW21451   1.739   5.965   6.973
 6851SOL    HW121452   1.795   5.927   0.017
 6851SOL    HW221453   1.771   5.930   6.885
 6852SOL     OW21454   5.971   4.861   2.242
 6852SOL    HW121455   5.937   4.769   2.263
 6852SOL    HW221456   6.048   4.854   2.178
 6853SOL     OW21457   6.476   4.129   4.494
 6853SOL    HW121458   6.568   4.170   4.491
 6853SOL    HW221459   6.414   4.192   4.539
 6854SOL     OW21460   6.159   0.979   6.894
 6854SOL    HW121461   6.117   0.925   6.821
 6854SOL    HW221462   6.095   1.049   6.925
 6855SOL     OW21463   3.078   6.915   1.787
 6855SOL    HW121464   3.146   6.931   1.858
 6855SOL    HW221465   3.077   6.991   1.722
 6856SOL     OW21466   0.386   5.886   5.678
 6856SOL    HW121467   0.462   5.872   5.613
 6856SOL    HW221468   0.341   5.799   5.696
 6857SOL     OW21469   5.043   0.399   6.990
 6857SOL    HW121470   5.141   0.415   6.998
 6857SOL    HW221471   5.020   0.310   7.029
 6858SOL     OW21472   3.465   2.922   6.801
 6858SOL    HW121473   3.423   2.988   6.862
 6858SOL    HW221474   3.414   2.836   6.805
 6859SOL     OW21475   4.420   0.886   0.111
 6859SOL    HW121476   4.486   0.938   0.058
 6859SOL    HW221477   4.424   0.915   0.207
 6860SOL     OW21478   5.017   3.459   0.184
 6860SOL    HW121479   4.993   3.461   0.087
 6860SOL    HW221480   5.057   3.546   0.211
 6861SOL     OW21481   5.934   3.565   0.612
 6861SOL    HW121482   5.991   3.615   0.678
 6861SOL    HW221483   5.918   3.473   0.646
 6862SOL     OW21484   2.567   4.621   4.694
 6862SOL    HW121485   2.522   4.551   4.749
 6862SOL    HW221486   2.526   4.710   4.714
 6863SOL     OW21487   1.251   3.238   3.838
 6863SOL    HW121488   1.153   3.220   3.851
 6863SOL    HW221489   1.277   3.209   3.746
 6864SOL     OW21490   3.854   5.349   6.241
 6864SOL    HW121491   3.822   5.389   6.327
 6864SOL    HW221492   3.821   5.404   6.164
 6865SOL     OW21493   0.759   2.950   4.504
 6865SOL    HW121494   0.770   3.042   4.468
 6865SOL    HW221495   0.817   2.887   4.452
 6866SOL     OW21496   0.841   3.923   2.528
 6866SOL    HW121497   0.821   4.021   2.532
 6866SOL    HW221498   0.763   3.874   2.491
 6867SOL     OW21499   2.167   5.611   3.467
 6867SOL    HW121500   2.101   5.680   3.438
 6867SOL    HW221501   2.246   5.657   3.508
 6868SOL     OW21502   2.164   5.686   4.821
 6868SOL    HW121503   2.114   5.605   4.850
 6868SOL    HW221504   2.184   5.680   4.723
 6869SOL     OW21505   0.237   3.096   5.035
 6869SOL    HW121506   0.206   3.099   5.130
 6869SOL    HW221507   0.310   3.164   5.022
 6870SOL     OW21508   5.319   3.429   3.223
 6870SOL    HW121509   5.359   3.502   3.168
 6870SOL    HW221510   5.335   3.341   3.178
 6871SOL     OW21511   5.001   5.806   1.592
 6871SOL    HW121512   5.038   5.715   1.576
 6871SOL    HW221513   4.980   5.850   1.504
 6872SOL     OW21514   3.590   4.447   1.058
 6872SOL    HW121515   3.625   4.540   1.047
 6872SOL    HW221516   3.640   4.384   0.999
 6873SOL     OW21517   5.801   4.640   4.630
 6873SOL    HW121518   5.894   4.625   4.664
 6873SOL    HW221519   5.736   4.623   4.704
 6874SOL     OW21520   0.669   1.862   5.934
 6874SOL    HW121521   0.649   1.843   6.030
 6874SOL    HW221522   0.594   1.828   5.877
 6875SOL     OW21523   4.116   0.628   4.597
 6875SOL    HW121524   4.215   0.617   4.613
 6875SOL    HW221525   4.079   0.691   4.665
 6876SOL     OW21526   3.504   5.920   4.892
 6876SOL    HW121527   3.447   6.002   4.899
 6876SOL    HW221528   3.545   5.916   4.800
 6877SOL     OW21529   1.818   3.463   6.406
 6877SOL    HW121530   1.768   3.386   6.445
 6877SOL    HW221531   1.904   3.476   6.456
 6878SOL     OW21532   1.320   1.345   4.828
 6878SOL    HW121533   1.341   1.248   4.814
 6878SOL    HW221534   1.240   1.353   4.888
 6879SOL     OW21535   6.722   0.833   5.199
 6879SOL    HW121536   6.625   0.859   5.199
 6879SOL    HW221537   6.766   0.867   5.116
 6880SOL     OW21538   1.123   4.180   4.962
 6880SOL    HW121539   1.036   4.180   5.012
 6880SOL    HW221540   1.125   4.103   4.898
 6881SOL     OW21541   5.411   5.785   1.474
 6881SOL    HW121542   5.354   5.854   1.518
 6881SOL    HW221543   5.464   5.827   1.400
 6882SOL     OW21544   2.341   6.026   5.547
 6882SOL    HW121545   2.385   5.951   5.499
 6882SOL    HW221546   2.399   6.108   5.542
 6883SOL     OW21547   3.447   6.233   2.285
 6883SOL    HW121548   3.383   6.158   2.269
 6883SOL    HW221549   3.507   6.210   2.362
 6884SOL     OW21550   1.801   4.901   2.307
 6884SOL    HW121551   1.860   4.981   2.304
 6884SOL    HW221552   1.724   4.918   2.369
 6885SOL     OW21553   4.175   4.815   5.018
 6885SOL    HW121554   4.133   4.813   5.108
 6885SOL    HW221555   4.246   4.746   5.012
 6886SOL     OW21556   5.499   1.068   1.594
 6886SOL    HW121557   5.446   1.000   1.544
 6886SOL    HW221558   5.596   1.044   1.591
 6887SOL     OW21559   6.001   0.856   4.972
 6887SOL    HW121560   5.941   0.910   4.913
 6887SOL    HW221561   6.035   0.776   4.922
 6888SOL     OW21562   5.833   0.078   4.090
 6888SOL    HW121563   5.804   0.121   4.176
 6888SOL    HW221564   5.752   0.052   4.038
 6889SOL     OW21565   2.089   4.059   6.532
 6889SOL    HW121566   2.131   3.982   6.484
 6889SOL    HW221567   2.117   4.058   6.628
 6890SOL     OW21568   2.072   0.237   1.434
 6890SOL    HW121569   2.084   0.165   1.367
 6890SOL    HW221570   2.127   0.317   1.407
 6891SOL     OW21571   4.334   5.516   6.167
 6891SOL    HW121572   4.376   5.586   6.225
 6891SOL    HW221573   4.376   5.428   6.187
 6892SOL     OW21574   3.637   1.926   4.566
 6892SOL    HW121575   3.557   1.896   4.513
 6892SOL    HW221576   3.678   1.848   4.612
 6893SOL     OW21577   4.808   0.174   1.335
 6893SOL    HW121578   4.816   0.163   1.236
 6893SOL    HW221579   4.842   0.092   1.380
 6894SOL     OW21580   5.727   4.519   6.270
 6894SOL    HW121581   5.778   4.582   6.329
 6894SOL    HW221582   5.688   4.446   6.327
 6895SOL     OW21583   4.234   5.467   5.727
 6895SOL    HW121584   4.320   5.450   5.775
 6895SOL    HW221585   4.236   5.558   5.686
 6896SOL     OW21586   4.707   1.483   2.507
 6896SOL    HW121587   4.699   1.526   2.597
 6896SOL    HW221588   4.749   1.547   2.443
 6897SOL     OW21589   3.773   0.537   1.171
 6897SOL    HW121590   3.764   0.609   1.102
 6897SOL    HW221591   3.755   0.448   1.129
 6898SOL     OW21592   4.115   1.669   2.514
 6898SOL    HW121593   4.202   1.717   2.518
 6898SOL    HW221594   4.094   1.647   2.418
 6899SOL     OW21595   5.555   5.911   6.057
 6899SOL    HW121596   5.640   5.927   6.106
 6899SOL    HW221597   5.494   5.990   6.069
 6900SOL     OW21598   4.581   0.183   6.326
 6900SOL    HW121599   4.645   0.174   6.402
 6900SOL    HW221600   4.519   0.259   6.343
 6901SOL     OW21601   2.213   0.826   0.316
 6901SOL    HW121602   2.114   0.833   0.328
 6901SOL    HW221603   2.254   0.917   0.326
 6902SOL     OW21604   6.906   5.493   2.541
 6902SOL    HW121605   6.984   5.433   2.558
 6902SOL    HW221606   6.828   5.465   2.596
 6903SOL     OW21607   4.967   4.308   0.272
 6903SOL    HW121608   4.966   4.408   0.278
 6903SOL    HW221609   5.046   4.279   0.218
 6904SOL     OW21610   0.580   0.430   2.840
 6904SOL    HW121611   0.590   0.338   2.802
 6904SOL    HW221612   0.483   0.454   2.844
 6905SOL     OW21613   3.370   5.463   1.096
 6905SOL    HW121614   3.363   5.364   1.085
 6905SOL    HW221615   3.321   5.508   1.022
 6906SOL     OW21616   6.050   5.774   3.252
 6906SOL    HW121617   6.142   5.793   3.286
 6906SOL    HW221618   6.017   5.853   3.199
 6907SOL     OW21619   3.577   0.377   1.312
 6907SOL    HW121620   3.653   0.441   1.317
 6907SOL    HW221621   3.499   0.414   1.364
 6908SOL     OW21622   5.264   6.833   6.985
 6908SOL    HW121623   5.345   6.780   6.961
 6908SOL    HW221624   5.263   6.918   6.933
 6909SOL     OW21625   1.966   2.181   0.298
 6909SOL    HW121626   1.965   2.154   0.202
 6909SOL    HW221627   2.060   2.203   0.325
 6910SOL     OW21628   5.440   1.384   0.982
 6910SOL    HW121629   5.367   1.427   0.928
 6910SOL    HW221630   5.401   1.340   1.062
 6911SOL     OW21631   4.483   0.263   4.768
 6911SOL    HW121632   4.492   0.244   4.866
 6911SOL    HW221633   4.547   0.336   4.742
 6912SOL     OW21634   4.113   4.800   1.974
 6912SOL    HW121635   4.170   4.836   2.047
 6912SOL    HW221636   4.159   4.722   1.931
 6913SOL     OW21637   4.836   5.958   5.302
 6913SOL    HW121638   4.916   5.905   5.276
 6913SOL    HW221639   4.862   6.054   5.315
 6914SOL     OW21640   6.435   4.812   6.986
 6914SOL    HW121641   6.424   4.714   7.006
 6914SOL    HW221642   6.370   4.838   6.914
 6915SOL     OW21643   0.244   6.581   0.833
 6915SOL    HW121644   0.288   6.670   0.846
 6915SOL    HW221645   0.146   6.589   0.850
 6916SOL     OW21646   6.036   0.629   5.744
 6916SOL    HW121647   5.979   0.609   5.664
 6916SOL    HW221648   6.107   0.560   5.753
 6917SOL     OW21649   4.315   6.936   5.569
 6917SOL    HW121650   4.255   7.004   5.527
 6917SOL    HW221651   4.260   6.873   5.624
 6918SOL     OW21652   2.168   2.423   3.409
 6918SOL    HW121653   2.145   2.486   3.482
 6918SOL    HW221654   2.264   2.397   3.417
 6919SOL     OW21655   1.228   5.617   3.851
 6919SOL    HW121656   1.223   5.616   3.951
 6919SOL    HW221657   1.197   5.529   3.815
 6920SOL     OW21658   5.390   5.969   3.923
 6920SOL    HW121659   5.324   5.918   3.978
 6920SOL    HW221660   5.468   5.910   3.902
 6921SOL     OW21661   1.346   5.356   3.612
 6921SOL    HW121662   1.300   5.335   3.698
 6921SOL    HW221663   1.279   5.381   3.543
 6922SOL     OW21664   2.145   6.688   0.990
 6922SOL    HW121665   2.121   6.782   0.968
 6922SOL    HW221666   2.194   6.647   0.913
 6923SOL     OW21667   4.694   5.555   3.596
 6923SOL    HW121668   4.656   5.581   3.685
 6923SOL    HW221669   4.736   5.464   3.603
 6924SOL     OW21670   6.210   5.842   2.011
 6924SOL    HW121671   6.290   5.816   1.958
 6924SOL    HW221672   6.137   5.871   1.949
 6925SOL     OW21673   5.059   5.260   2.519
 6925SOL    HW121674   5.093   5.170   2.494
 6925SOL    HW221675   4.976   5.280   2.467
 6926SOL     OW21676   2.679   3.788   5.558
 6926SOL    HW121677   2.661   3.832   5.470
 6926SOL    HW221678   2.699   3.857   5.627
 6927SOL     OW21679   3.946   3.854   0.662
 6927SOL    HW121680   4.003   3.845   0.744
 6927SOL    HW221681   3.881   3.779   0.659
 6928SOL     OW21682   0.013   0.554   6.656
 6928SOL    HW121683   7.019   0.588   6.747
 6928SOL    HW221684   6.973   0.582   6.591
 6929SOL     OW21685   3.106   5.398   2.028
 6929SOL    HW121686   3.122   5.437   2.118
 6929SOL    HW221687   3.136   5.302   2.028
 6930SOL     OW21688   0.161   0.472   3.225
 6930SOL    HW121689   0.158   0.540   3.151
 6930SOL    HW221690   0.165   0.380   3.186
 6931SOL     OW21691   2.376   0.173   0.266
 6931SOL    HW121692   2.374   0.273   0.260
 6931SOL    HW221693   2.299   0.135   0.215
 6932SOL     OW21694   2.273   2.601   0.647
 6932SOL    HW121695   2.230   2.547   0.720
 6932SOL    HW221696   2.209   2.671   0.615
 6933SOL     OW21697   2.345   6.278   4.937
 6933SOL    HW121698   2.424   6.224   4.908
 6933SOL    HW221699   2.262   6.242   4.894
 6934SOL     OW21700   5.344   5.077   6.444
 6934SOL    HW121701   5.434   5.114   6.469
 6934SOL    HW221702   5.275   5.149   6.451
 6935SOL     OW21703   4.420   5.702   3.181
 6935SOL    HW121704   4.334   5.686   3.228
 6935SOL    HW221705   4.458   5.790   3.209
 6936SOL     OW21706   0.551   4.626   0.829
 6936SOL    HW121707   0.562   4.709   0.883
 6936SOL    HW221708   0.479   4.569   0.870
 6937SOL     OW21709   4.550   6.217   5.911
 6937SOL    HW121710   4.496   6.279   5.855
 6937SOL    HW221711   4.491   6.169   5.976
 6938SOL     OW21712   5.924   2.906   5.183
 6938SOL    HW121713   5.873   2.983   5.223
 6938SOL    HW221714   5.934   2.921   5.084
 6939SOL     OW21715   6.780   4.972   1.343
 6939SOL    HW121716   6.812   4.880   1.367
 6939SOL    HW221717   6.805   5.036   1.415
 6940SOL     OW21718   4.408   0.647   4.642
 6940SOL    HW121719   4.488   0.597   4.676
 6940SOL    HW221720   4.436   0.738   4.613
 6941SOL     OW21721   3.667   2.899   4.652
 6941SOL    HW121722   3.761   2.903   4.684
 6941SOL    HW221723   3.604   2.907   4.729
 6942SOL     OW21724   6.102   1.472   0.098
 6942SOL    HW121725   6.071   1.567   0.104
 6942SOL    HW221726   6.036   1.413   0.145
 6943SOL     OW21727   6.126   5.576   6.467
 6943SOL    HW121728   6.220   5.609   6.474
 6943SOL    HW221729   6.101   5.527   6.550
 6944SOL     OW21730   1.238   6.642   0.421
 6944SOL    HW121731   1.284   6.592   0.348
 6944SOL    HW221732   1.230   6.584   0.501
 6945SOL     OW21733   4.465   1.856   6.086
 6945SOL    HW121734   4.513   1.944   6.093
 6945SOL    HW221735   4.439   1.825   6.177
 6946SOL     OW21736   6.369   4.221   3.361
 6946SOL    HW121737   6.346   4.130   3.326
 6946SOL    HW221738   6.384   4.283   3.285
 6947SOL     OW21739   3.773   6.833   1.020
 6947SOL    HW121740   3.682   6.867   1.043
 6947SOL    HW221741   3.812   6.784   1.098
 6948SOL     OW21742   3.443   2.446   5.647
 6948SOL    HW121743   3.447   2.365   5.589
 6948SOL    HW221744   3.367   2.505   5.617
 6949SOL     OW21745   5.196   0.583   2.405
 6949SOL    HW121746   5.100   0.590   2.378
 6949SOL    HW221747   5.231   0.673   2.429
 6950SOL     OW21748   3.403   1.368   2.950
 6950SOL    HW121749   3.476   1.428   2.917
 6950SOL    HW221750   3.354   1.413   3.024
 6951SOL     OW21751   4.859   4.799   5.617
 6951SOL    HW121752   4.864   4.872   5.549
 6951SOL    HW221753   4.774   4.747   5.604
 6952SOL     OW21754   6.996   3.852   5.908
 6952SOL    HW121755   0.050   3.891   5.947
 6952SOL    HW221756   7.008   3.841   5.809
 6953SOL     OW21757   4.936   2.352   4.625
 6953SOL    HW121758   4.900   2.401   4.545
 6953SOL    HW221759   4.896   2.261   4.629
 6954SOL     OW21760   0.024   4.597   1.919
 6954SOL    HW121761   0.031   4.537   1.998
 6954SOL    HW221762   6.958   4.613   1.897
 6955SOL     OW21763   6.632   0.415   3.290
 6955SOL    HW121764   6.650   0.444   3.384
 6955SOL    HW221765   6.701   0.348   3.262
 6956SOL     OW21766   2.707   4.051   0.992
 6956SOL    HW121767   2.645   4.011   0.924
 6956SOL    HW221768   2.760   3.977   1.035
 6957SOL     OW21769   0.634   4.551   0.326
 6957SOL    HW121770   0.685   4.465   0.321
 6957SOL    HW221771   0.596   4.573   0.236
 6958SOL     OW21772   2.503   4.075   6.046
 6958SOL    HW121773   2.426   4.080   6.109
 6958SOL    HW221774   2.541   3.982   6.047
 6959SOL     OW21775   3.712   1.282   4.877
 6959SOL    HW121776   3.633   1.341   4.890
 6959SOL    HW221777   3.766   1.315   4.800
 6960SOL     OW21778   0.710   5.589   0.036
 6960SOL    HW121779   0.718   5.661   0.105
 6960SOL    HW221780   0.613   5.569   0.020
 6961SOL     OW21781   6.461   1.446   3.505
 6961SOL    HW121782   6.377   1.456   3.559
 6961SOL    HW221783   6.539   1.439   3.568
 6962SOL     OW21784   3.854   3.994   1.025
 6962SOL    HW121785   3.891   4.087   1.024
 6962SOL    HW221786   3.762   3.993   0.987
 6963SOL     OW21787   6.214   6.019   2.248
 6963SOL    HW121788   6.296   5.978   2.290
 6963SOL    HW221789   6.188   5.966   2.168
 6964SOL     OW21790   3.158   6.051   5.908
 6964SOL    HW121791   3.078   6.065   5.966
 6964SOL    HW221792   3.222   6.127   5.922
 6965SOL     OW21793   6.214   1.750   5.530
 6965SOL    HW121794   6.115   1.742   5.541
 6965SOL    HW221795   6.251   1.809   5.601
 6966SOL     OW21796   5.035   2.231   3.984
 6966SOL    HW121797   5.112   2.168   3.975
 6966SOL    HW221798   5.067   2.314   4.030
 6967SOL     OW21799   2.787   2.490   6.088
 6967SOL    HW121800   2.756   2.496   5.994
 6967SOL    HW221801   2.710   2.502   6.150
 6968SOL     OW21802   4.202   0.088   3.937
 6968SOL    HW121803   4.285   0.043   3.905
 6968SOL    HW221804   4.122   0.039   3.902
 6969SOL     OW21805   3.133   3.586   1.055
 6969SOL    HW121806   3.207   3.575   1.122
 6969SOL    HW221807   3.123   3.501   1.003
 6970SOL     OW21808   5.023   4.214   0.602
 6970SOL    HW121809   5.015   4.305   0.562
 6970SOL    HW221810   4.967   4.149   0.550
 6971SOL     OW21811   6.272   1.630   2.429
 6971SOL    HW121812   6.366   1.660   2.417
 6971SOL    HW221813   6.227   1.688   2.496
 6972SOL     OW21814   5.582   4.734   4.295
 6972SOL    HW121815   5.575   4.825   4.335
 6972SOL    HW221816   5.644   4.737   4.216
 6973SOL     OW21817   1.286   4.566   4.343
 6973SOL    HW121818   1.251   4.535   4.431
 6973SOL    HW221819   1.373   4.614   4.356
 6974SOL     OW21820   3.607   4.176   5.204
 6974SOL    HW121821   3.593   4.152   5.300
 6974SOL    HW221822   3.552   4.257   5.182
 6975SOL     OW21823   3.184   0.005   5.967
 6975SOL    HW121824   3.163   6.978   6.047
 6975SOL    HW221825   3.170   0.102   5.990
 6976SOL     OW21826   1.358   6.034   0.284
 6976SOL    HW121827   1.381   5.992   0.196
 6976SOL    HW221828   1.288   6.105   0.270
 6977SOL     OW21829   4.943   2.876   2.112
 6977SOL    HW121830   4.885   2.942   2.064
 6977SOL    HW221831   4.886   2.815   2.167
 6978SOL     OW21832   4.495   2.295   3.863
 6978SOL    HW121833   4.577   2.270   3.811
 6978SOL    HW221834   4.417   2.303   3.800
 6979SOL     OW21835   0.329   3.780   3.977
 6979SOL    HW121836   0.323   3.694   4.028
 6979SOL    HW221837   0.418   3.785   3.932
 6980SOL     OW21838   4.698   1.251   4.445
 6980SOL    HW121839   4.651   1.271   4.531
 6980SOL    HW221840   4.786   1.208   4.465
 6981SOL     OW21841   2.916   3.511   6.778
 6981SOL    HW121842   2.957   3.427   6.743
 6981SOL    HW221843   2.848   3.487   6.848
 6982SOL     OW21844   0.528   0.140   5.152
 6982SOL    HW121845   0.453   0.172   5.093
 6982SOL    HW221846   0.498   0.061   5.205
 6983SOL     OW21847   6.209   1.229   2.985
 6983SOL    HW121848   6.159   1.156   2.938
 6983SOL    HW221849   6.207   1.312   2.929
 6984SOL     OW21850   1.886   1.302   6.091
 6984SOL    HW121851   1.872   1.209   6.127
 6984SOL    HW221852   1.959   1.347   6.142
 6985SOL     OW21853   4.912   0.143   3.963
 6985SOL    HW121854   4.871   0.204   4.031
 6985SOL    HW221855   4.893   0.179   3.872
 6986SOL     OW21856   1.812   6.665   5.534
 6986SOL    HW121857   1.757   6.748   5.527
 6986SOL    HW221858   1.779   6.596   5.471
 6987SOL     OW21859   6.855   3.006   6.567
 6987SOL    HW121860   6.833   3.029   6.472
 6987SOL    HW221861   6.951   3.025   6.585
 6988SOL     OW21862   5.621   1.674   6.001
 6988SOL    HW121863   5.534   1.627   6.011
 6988SOL    HW221864   5.696   1.610   6.019
 6989SOL     OW21865   2.202   3.111   3.646
 6989SOL    HW121866   2.162   3.197   3.678
 6989SOL    HW221867   2.192   3.105   3.546
 6990SOL     OW21868   3.935   3.589   0.925
 6990SOL    HW121869   3.984   3.511   0.886
 6990SOL    HW221870   3.974   3.612   1.014
 6991SOL     OW21871   4.157   4.690   5.295
 6991SOL    HW121872   4.068   4.728   5.271
 6991SOL    HW221873   4.145   4.616   5.362
 6992SOL     OW21874   6.547   6.631   4.557
 6992SOL    HW121875   6.476   6.660   4.622
 6992SOL    HW221876   6.504   6.597   4.474
 6993SOL     OW21877   0.507   6.918   3.088
 6993SOL    HW121878   0.450   6.935   3.169
 6993SOL    HW221879   0.461   6.955   3.007
 6994SOL     OW21880   1.156   2.571   6.930
 6994SOL    HW121881   1.142   2.644   6.997
 6994SOL    HW221882   1.252   2.570   6.902
 6995SOL     OW21883   0.917   5.362   4.273
 6995SOL    HW121884   0.991   5.368   4.207
 6995SOL    HW221885   0.834   5.400   4.233
 6996SOL     OW21886   1.911   0.074   6.263
 6996SOL    HW121887   1.823   0.113   6.232
 6996SOL    HW221888   1.941   0.005   6.198
 6997SOL     OW21889   4.708   5.081   4.608
 6997SOL    HW121890   4.781   5.076   4.540
 6997SOL    HW221891   4.658   4.994   4.610
 6998SOL     OW21892   2.887   1.821   2.733
 6998SOL    HW121893   2.816   1.888   2.711
 6998SOL    HW221894   2.847   1.730   2.734
 6999SOL     OW21895   5.506   2.320   0.162
 6999SOL    HW121896   5.455   2.249   0.114
 6999SOL    HW221897   5.443   2.384   0.205
 7000SOL     OW21898   6.808   0.322   1.769
 7000SOL    HW121899   6.805   0.287   1.863
 7000SOL    HW221900   6.719   0.360   1.745
 7001SOL     OW21901   3.416   1.443   6.549
 7001SOL    HW121902   3.427   1.421   6.646
 7001SOL    HW221903   3.335   1.501   6.536
 7002SOL     OW21904   2.157   5.051   2.301
 7002SOL    HW121905   2.072   5.102   2.298
 7002SOL    HW221906   2.144   4.963   2.256
 7003SOL     OW21907   1.860   6.417   5.830
 7003SOL    HW121908   1.785   6.479   5.807
 7003SOL    HW221909   1.838   6.325   5.800
 7004SOL     OW21910   1.453   3.945   7.013
 7004SOL    HW121911   1.489   3.904   6.929
 7004SOL    HW221912   1.515   3.927   0.059
 7005SOL     OW21913   6.867   6.949   5.808
 7005SOL    HW121914   6.918   6.987   5.730
 7005SOL    HW221915   6.909   6.863   5.836
 7006SOL     OW21916   4.523   4.836   3.909
 7006SOL    HW121917   4.519   4.894   3.990
 7006SOL    HW221918   4.602   4.776   3.914
 7007SOL     OW21919   4.801   5.320   2.418
 7007SOL    HW121920   4.722   5.261   2.435
 7007SOL    HW221921   4.787   5.408   2.463
 7008SOL     OW21922   1.172   5.404   4.071
 7008SOL    HW121923   1.177   5.308   4.101
 7008SOL    HW221924   1.207   5.463   4.144
 7009SOL     OW21925   6.757   3.973   1.792
 7009SOL    HW121926   6.677   3.964   1.733
 7009SOL    HW221927   6.822   3.900   1.770
 7010SOL     OW21928   5.517   4.659   6.189
 7010SOL    HW121929   5.591   4.599   6.217
 7010SOL    HW221930   5.453   4.609   6.131
 7011SOL     OW21931   0.845   0.863   5.193
 7011SOL    HW121932   0.753   0.869   5.233
 7011SOL    HW221933   0.847   0.915   5.107
 7012SOL     OW21934   1.318   0.819   1.770
 7012SOL    HW121935   1.242   0.852   1.826
 7012SOL    HW221936   1.314   0.719   1.764
 7013SOL     OW21937   6.711   1.995   1.923
 7013SOL    HW121938   6.789   2.047   1.958
 7013SOL    HW221939   6.740   1.900   1.906
 7014SOL     OW21940   2.401   5.194   0.695
 7014SOL    HW121941   2.314   5.203   0.648
 7014SOL    HW221942   2.468   5.153   0.633
 7015SOL     OW21943   4.837   2.060   2.906
 7015SOL    HW121944   4.877   2.110   2.829
 7015SOL    HW221945   4.794   2.125   2.968
 7016SOL     OW21946   4.264   4.325   1.639
 7016SOL    HW121947   4.294   4.279   1.723
 7016SOL    HW221948   4.330   4.305   1.566
 7017SOL     OW21949   4.996   1.501   5.320
 7017SOL    HW121950   5.010   1.592   5.359
 7017SOL    HW221951   4.899   1.480   5.317
 7018SOL     OW21952   0.553   3.203   3.194
 7018SOL    HW121953   0.587   3.152   3.115
 7018SOL    HW221954   0.486   3.147   3.243
 7019SOL     OW21955   1.273   6.062   1.109
 7019SOL    HW121956   1.194   6.001   1.110
 7019SOL    HW221957   1.261   6.133   1.180
 7020SOL     OW21958   0.375   5.657   7.005
 7020SOL    HW121959   0.358   5.752   0.001
 7020SOL    HW221960   0.293   5.602   7.022
 7021SOL     OW21961   3.496   6.935   6.053
 7021SOL    HW121962   3.459   7.014   6.004
 7021SOL    HW221963   3.489   6.854   5.996
 7022SOL     OW21964   4.453   5.463   5.870
 7022SOL    HW121965   4.425   5.497   5.960
 7022SOL    HW221966   4.532   5.403   5.880
 7023SOL     OW21967   4.929   4.273   2.624
 7023SOL    HW121968   4.945   4.349   2.687
 7023SOL    HW221969   4.865   4.208   2.666
 7024SOL     OW21970   6.049   6.877   1.334
 7024SOL    HW121971   6.132   6.920   1.369
 7024SOL    HW221972   6.008   6.820   1.406
 7025SOL     OW21973   2.541   0.409   0.515
 7025SOL    HW121974   2.469   0.430   0.449
 7025SOL    HW221975   2.526   0.318   0.553
 7026SOL     OW21976   3.924   2.069   1.236
 7026SOL    HW121977   3.831   2.093   1.206
 7026SOL    HW221978   3.925   1.975   1.268
 7027SOL     OW21979   5.907   5.952   4.052
 7027SOL    HW121980   5.959   5.974   3.969
 7027SOL    HW221981   5.856   6.033   4.082
 7028SOL     OW21982   2.882   0.473   4.602
 7028SOL    HW121983   2.909   0.569   4.603
 7028SOL    HW221984   2.919   0.429   4.521
 7029SOL     OW21985   4.191   1.408   4.383
 7029SOL    HW121986   4.225   1.453   4.300
 7029SOL    HW221987   4.254   1.337   4.411
 7030SOL     OW21988   1.952   3.061   3.959
 7030SOL    HW121989   2.013   3.139   3.947
 7030SOL    HW221990   1.942   3.013   3.872
 7031SOL     OW21991   1.390   0.955   4.517
 7031SOL    HW121992   1.342   0.868   4.529
 7031SOL    HW221993   1.480   0.950   4.560
 7032SOL     OW21994   6.143   2.569   3.741
 7032SOL    HW121995   6.068   2.536   3.798
 7032SOL    HW221996   6.203   2.493   3.718
 7033SOL     OW21997   0.825   0.065   5.773
 7033SOL    HW121998   0.815   0.117   5.688
 7033SOL    HW221999   0.796   7.000   5.757
 7034SOL     OW22000   0.467   5.219   3.325
 7034SOL    HW122001   0.393   5.273   3.366
 7034SOL    HW222002   0.429   5.153   3.261
 7035SOL     OW22003   6.708   5.001   1.930
 7035SOL    HW122004   6.792   4.983   1.878
 7035SOL    HW222005   6.635   4.943   1.895
 7036SOL     OW22006   5.824   4.836   0.794
 7036SOL    HW122007   5.741   4.884   0.823
 7036SOL    HW222008   5.817   4.813   0.697
 7037SOL     OW22009   1.612   0.382   6.446
 7037SOL    HW122010   1.680   0.450   6.472
 7037SOL    HW222011   1.580   0.333   6.527
 7038SOL     OW22012   2.189   3.031   4.273
 7038SOL    HW122013   2.153   2.972   4.345
 7038SOL    HW222014   2.178   3.127   4.299
 7039SOL     OW22015   3.175   2.170   6.639
 7039SOL    HW122016   3.262   2.160   6.686
 7039SOL    HW222017   3.110   2.102   6.674
 7040SOL     OW22018   5.351   2.817   6.564
 7040SOL    HW122019   5.365   2.910   6.532
 7040SOL    HW222020   5.292   2.818   6.645
 7041SOL     OW22021   2.413   1.636   3.857
 7041SOL    HW122022   2.455   1.719   3.893
 7041SOL    HW222023   2.476   1.559   3.868
 7042SOL     OW22024   1.608   0.852   6.657
 7042SOL    HW122025   1.639   0.814   6.570
 7042SOL    HW222026   1.532   0.797   6.692
 7043SOL     OW22027   1.703   2.329   2.233
 7043SOL    HW122028   1.683   2.292   2.142
 7043SOL    HW222029   1.619   2.361   2.275
 7044SOL     OW22030   6.745   6.457   1.867
 7044SOL    HW122031   6.742   6.514   1.948
 7044SOL    HW222032   6.829   6.403   1.867
 7045SOL     OW22033   6.732   4.860   0.005
 7045SOL    HW122034   6.648   4.816   7.003
 7045SOL    HW222035   6.714   4.904   0.093
 7046SOL     OW22036   3.506   1.583   3.560
 7046SOL    HW122037   3.566   1.508   3.590
 7046SOL    HW222038   3.512   1.592   3.461
 7047SOL     OW22039   1.733   0.130   3.004
 7047SOL    HW122040   1.761   0.044   3.046
 7047SOL    HW222041   1.806   0.163   2.944
 7048SOL     OW22042   6.743   5.762   0.254
 7048SOL    HW122043   6.823   5.766   0.313
 7048SOL    HW222044   6.737   5.671   0.212
 7049SOL     OW22045   2.305   1.142   6.548
 7049SOL    HW122046   2.297   1.060   6.491
 7049SOL    HW222047   2.259   1.126   6.636
 7050SOL     OW22048   4.062   3.997   5.387
 7050SOL    HW122049   4.109   3.908   5.391
 7050SOL    HW222050   4.019   4.016   5.475
 7051SOL     OW22051   6.504   6.837   3.090
 7051SOL    HW122052   6.563   6.759   3.070
 7051SOL    HW222053   6.438   6.850   3.016
 7052SOL     OW22054   6.862   0.351   5.532
 7052SOL    HW122055   6.958   0.333   5.554
 7052SOL    HW222056   6.852   0.446   5.504
 7053SOL     OW22057   6.653   3.943   5.687
 7053SOL    HW122058   6.689   4.010   5.752
 7053SOL    HW222059   6.632   3.987   5.600
 7054SOL     OW22060   6.275   1.646   1.764
 7054SOL    HW122061   6.287   1.744   1.745
 7054SOL    HW222062   6.238   1.601   1.683
 7055SOL     OW22063   4.392   1.483   4.239
 7055SOL    HW122064   4.390   1.565   4.181
 7055SOL    HW222065   4.468   1.424   4.211
 7056SOL     OW22066   4.513   5.303   4.039
 7056SOL    HW122067   4.493   5.376   3.973
 7056SOL    HW222068   4.437   5.296   4.104
 7057SOL     OW22069   6.204   5.557   3.044
 7057SOL    HW122070   6.115   5.548   3.089
 7057SOL    HW222071   6.238   5.467   3.019
 7058SOL     OW22072   6.933   4.431   4.573
 7058SOL    HW122073   6.893   4.441   4.482
 7058SOL    HW222074   7.022   4.386   4.566
 7059SOL     OW22075   1.854   1.399   2.716
 7059SOL    HW122076   1.915   1.453   2.775
 7059SOL    HW222077   1.766   1.445   2.709
 7060SOL     OW22078   2.939   6.638   0.980
 7060SOL    HW122079   2.898   6.624   1.070
 7060SOL    HW222080   2.949   6.551   0.933
 7061SOL     OW22081   0.134   0.680   3.057
 7061SOL    HW122082   0.167   0.746   3.125
 7061SOL    HW222083   0.034   0.686   3.050
 7062SOL     OW22084   6.226   1.371   5.279
 7062SOL    HW122085   6.164   1.298   5.307
 7062SOL    HW222086   6.262   1.417   5.360
 7063SOL     OW22087   1.865   6.692   2.555
 7063SOL    HW122088   1.894   6.785   2.531
 7063SOL    HW222089   1.878   6.632   2.477
 7064SOL     OW22090   3.957   2.626   0.199
 7064SOL    HW122091   4.045   2.646   0.242
 7064SOL    HW222092   3.893   2.592   0.267
 7065SOL     OW22093   3.283   3.696   2.239
 7065SOL    HW122094   3.204   3.700   2.300
 7065SOL    HW222095   3.367   3.715   2.290
 7066SOL     OW22096   2.517   5.252   1.257
 7066SOL    HW122097   2.473   5.339   1.237
 7066SOL    HW222098   2.563   5.259   1.346
 7067SOL     OW22099   0.384   4.376   4.313
 7067SOL    HW122100   0.441   4.378   4.231
 7067SOL    HW222101   0.291   4.404   4.291
 7068SOL     OW22102   0.263   0.314   2.669
 7068SOL    HW122103   0.164   0.302   2.669
 7068SOL    HW222104   0.289   0.379   2.741
 7069SOL     OW22105   1.607   4.993   5.320
 7069SOL    HW122106   1.525   5.050   5.311
 7069SOL    HW222107   1.621   4.971   5.416
 7070SOL     OW22108   5.602   5.291   3.535
 7070SOL    HW122109   5.686   5.312   3.585
 7070SOL    HW222110   5.552   5.219   3.582
 7071SOL     OW22111   1.959   6.918   5.292
 7071SOL    HW122112   1.996   6.825   5.295
 7071SOL    HW222113   1.869   6.919   5.334
 7072SOL     OW22114   0.631   0.338   6.788
 7072SOL    HW122115   0.711   0.308   6.736
 7072SOL    HW222116   0.652   0.422   6.837
 7073SOL     OW22117   1.873   1.845   6.256
 7073SOL    HW122118   1.876   1.940   6.287
 7073SOL    HW222119   1.961   1.820   6.216
 7074SOL     OW22120   3.590   1.346   0.053
 7074SOL    HW122121   3.511   1.285   0.060
 7074SOL    HW222122   3.674   1.292   0.054
 7075SOL     OW22123   0.738   5.880   2.378
 7075SOL    HW122124   0.709   5.899   2.472
 7075SOL    HW222125   0.811   5.943   2.353
 7076SOL     OW22126   3.713   1.552   5.960
 7076SOL    HW122127   3.796   1.508   5.925
 7076SOL    HW222128   3.683   1.506   6.043
 7077SOL     OW22129   1.600   4.840   6.522
 7077SOL    HW122130   1.662   4.836   6.601
 7077SOL    HW222131   1.652   4.827   6.438
 7078SOL     OW22132   6.666   0.837   2.220
 7078SOL    HW122133   6.630   0.878   2.304
 7078SOL    HW222134   6.748   0.887   2.191
 7079SOL     OW22135   5.397   5.965   5.252
 7079SOL    HW122136   5.327   5.902   5.216
 7079SOL    HW222137   5.485   5.918   5.254
 7080SOL     OW22138   5.829   0.437   4.089
 7080SOL    HW122139   5.809   0.353   4.139
 7080SOL    HW222140   5.844   0.512   4.154
 7081SOL     OW22141   4.906   0.616   4.896
 7081SOL    HW122142   4.847   0.695   4.912
 7081SOL    HW222143   4.958   0.597   4.979
 7082SOL     OW22144   5.740   1.270   0.482
 7082SOL    HW122145   5.839   1.267   0.490
 7082SOL    HW222146   5.713   1.346   0.423
 7083SOL     OW22147   3.572   0.406   5.749
 7083SOL    HW122148   3.592   0.504   5.744
 7083SOL    HW222149   3.572   0.377   5.845
 7084SOL     OW22150   6.119   5.843   0.386
 7084SOL    HW122151   6.060   5.898   0.327
 7084SOL    HW222152   6.094   5.857   0.481
 7085SOL     OW22153   3.950   1.644   1.185
 7085SOL    HW122154   3.949   1.577   1.111
 7085SOL    HW222155   4.034   1.698   1.180
 7086SOL     OW22156   1.374   1.078   6.189
 7086SOL    HW122157   1.380   1.052   6.093
 7086SOL    HW222158   1.350   1.175   6.196
 7087SOL     OW22159   2.380   2.680   5.062
 7087SOL    HW122160   2.404   2.777   5.057
 7087SOL    HW222161   2.367   2.643   4.970
 7088SOL     OW22162   0.353   2.272   5.306
 7088SOL    HW122163   0.382   2.259   5.211
 7088SOL    HW222164   0.430   2.303   5.361
 7089SOL     OW22165   2.987   2.025   1.360
 7089SOL    HW122166   3.005   2.123   1.364
 7089SOL    HW222167   2.987   1.988   1.453
 7090SOL     OW22168   2.165   2.265   5.548
 7090SOL    HW122169   2.104   2.245   5.472
 7090SOL    HW222170   2.187   2.363   5.548
 7091SOL     OW22171   6.786   6.355   0.734
 7091SOL    HW122172   6.839   6.270   0.729
 7091SOL    HW222173   6.842   6.430   0.700
 7092SOL     OW22174   2.716   2.236   0.726
 7092SOL    HW122175   2.711   2.334   0.708
 7092SOL    HW222176   2.695   2.218   0.821
 7093SOL     OW22177   4.101   2.897   6.118
 7093SOL    HW122178   4.059   2.981   6.085
 7093SOL    HW222179   4.173   2.868   6.055
 7094SOL     OW22180   6.334   0.900   5.716
 7094SOL    HW122181   6.362   0.817   5.667
 7094SOL    HW222182   6.377   0.979   5.673
 7095SOL     OW22183   0.435   4.075   0.704
 7095SOL    HW122184   0.435   4.175   0.695
 7095SOL    HW222185   0.341   4.042   0.716
 7096SOL     OW22186   4.693   0.031   2.520
 7096SOL    HW122187   4.742   0.118   2.533
 7096SOL    HW222188   4.757   6.990   2.491
 7097SOL     OW22189   1.759   1.506   1.793
 7097SOL    HW122190   1.783   1.494   1.696
 7097SOL    HW222191   1.784   1.598   1.822
 7098SOL     OW22192   1.183   0.658   6.277
 7098SOL    HW122193   1.193   0.703   6.188
 7098SOL    HW222194   1.269   0.611   6.299
 7099SOL     OW22195   6.916   0.900   5.357
 7099SOL    HW122196   6.959   0.820   5.399
 7099SOL    HW222197   6.841   0.870   5.298
 7100SOL     OW22198   5.548   1.751   1.364
 7100SOL    HW122199   5.450   1.750   1.387
 7100SOL    HW222200   5.601   1.763   1.448
 7101SOL     OW22201   1.631   0.530   3.885
 7101SOL    HW122202   1.572   0.493   3.814
 7101SOL    HW222203   1.623   0.474   3.968
 7102SOL     OW22204   4.775   3.098   0.285
 7102SOL    HW122205   4.742   3.008   0.258
 7102SOL    HW222206   4.845   3.128   0.221
 7103SOL     OW22207   2.892   0.048   5.947
 7103SOL    HW122208   2.871   0.042   6.044
 7103SOL    HW222209   2.990   0.031   5.933
 7104SOL     OW22210   0.613   2.730   1.851
 7104SOL    HW122211   0.531   2.674   1.842
 7104SOL    HW222212   0.693   2.672   1.860
 7105SOL     OW22213   1.968   3.755   5.573
 7105SOL    HW122214   1.992   3.827   5.638
 7105SOL    HW222215   2.044   3.690   5.566
 7106SOL     OW22216   3.046   2.800   5.296
 7106SOL    HW122217   2.974   2.753   5.348
 7106SOL    HW222218   3.125   2.740   5.288
 7107SOL     OW22219   1.801   1.453   0.797
 7107SOL    HW122220   1.709   1.486   0.777
 7107SOL    HW222221   1.865   1.489   0.728
 7108SOL     OW22222   4.369   6.617   1.766
 7108SOL    HW122223   4.310   6.696   1.750
 7108SOL    HW222224   4.315   6.533   1.758
 7109SOL     OW22225   3.894   5.943   6.647
 7109SOL    HW122226   3.811   5.896   6.616
 7109SOL    HW222227   3.953   5.879   6.694
 7110SOL     OW22228   3.200   4.962   4.282
 7110SOL    HW122229   3.300   4.952   4.287
 7110SOL    HW222230   3.178   5.054   4.249
 7111SOL     OW22231   1.363   2.631   3.567
 7111SOL    HW122232   1.356   2.587   3.657
 7111SOL    HW222233   1.270   2.649   3.533
 7112SOL     OW22234   1.586   6.560   3.103
 7112SOL    HW122235   1.557   6.639   3.049
 7112SOL    HW222236   1.592   6.586   3.199
 7113SOL     OW22237   3.641   3.371   5.273
 7113SOL    HW122238   3.611   3.406   5.184
 7113SOL    HW222239   3.739   3.384   5.283
 7114SOL     OW22240   3.573   6.716   0.553
 7114SOL    HW122241   3.605   6.701   0.647
 7114SOL    HW222242   3.503   6.649   0.530
 7115SOL     OW22243   3.858   2.048   1.607
 7115SOL    HW122244   3.823   2.138   1.579
 7115SOL    HW222245   3.907   2.007   1.530
 7116SOL     OW22246   6.142   3.953   2.836
 7116SOL    HW122247   6.183   3.879   2.889
 7116SOL    HW222248   6.088   3.914   2.761
 7117SOL     OW22249   6.094   6.714   2.710
 7117SOL    HW122250   6.134   6.801   2.738
 7117SOL    HW222251   6.084   6.712   2.611
 7118SOL     OW22252   6.956   3.162   2.785
 7118SOL    HW122253   6.909   3.076   2.805
 7118SOL    HW222254   0.025   3.150   2.797
 7119SOL     OW22255   1.118   2.132   2.887
 7119SOL    HW122256   1.118   2.208   2.953
 7119SOL    HW222257   1.207   2.127   2.842
 7120SOL     OW22258   4.651   5.949   2.716
 7120SOL    HW122259   4.730   5.964   2.658
 7120SOL    HW222260   4.571   5.993   2.677
 7121SOL     OW22261   2.551   6.543   1.078
 7121SOL    HW122262   2.506   6.520   1.164
 7121SOL    HW222263   2.644   6.577   1.097
 7122SOL     OW22264   6.700   6.612   0.138
 7122SOL    HW122265   6.738   6.641   0.050
 7122SOL    HW222266   6.726   6.517   0.156
 7123SOL     OW22267   2.600   5.583   0.691
 7123SOL    HW122268   2.654   5.547   0.615
 7123SOL    HW222269   2.624   5.679   0.706
 7124SOL     OW22270   0.076   6.188   6.731
 7124SOL    HW122271   0.171   6.216   6.744
 7124SOL    HW222272   0.065   6.147   6.640
 7125SOL     OW22273   0.154   6.653   3.309
 7125SOL    HW122274   0.184   6.716   3.380
 7125SOL    HW222275   0.200   6.565   3.321
 7126SOL     OW22276   1.673   4.262   1.161
 7126SOL    HW122277   1.670   4.277   1.259
 7126SOL    HW222278   1.758   4.213   1.137
 7127SOL     OW22279   2.476   0.250   4.525
 7127SOL    HW122280   2.380   0.232   4.501
 7127SOL    HW222281   2.482   0.339   4.571
 7128SOL     OW22282   3.137   3.779   1.947
 7128SOL    HW122283   3.191   3.853   1.987
 7128SOL    HW222284   3.076   3.817   1.877
 7129SOL     OW22285   2.481   1.916   1.069
 7129SOL    HW122286   2.418   1.978   1.116
 7129SOL    HW222287   2.446   1.897   0.977
 7130SOL     OW22288   2.429   0.384   2.889
 7130SOL    HW122289   2.365   0.349   2.821
 7130SOL    HW222290   2.408   0.345   2.978
 7131SOL     OW22291   3.296   1.430   3.683
 7131SOL    HW122292   3.207   1.472   3.701
 7131SOL    HW222293   3.356   1.496   3.639
 7132SOL     OW22294   3.188   4.048   1.975
 7132SOL    HW122295   3.238   4.044   1.889
 7132SOL    HW222296   3.091   4.065   1.956
 7133SOL     OW22297   5.906   4.234   2.259
 7133SOL    HW122298   5.838   4.164   2.239
 7133SOL    HW222299   5.971   4.200   2.327
 7134SOL     OW22300   5.494   4.871   2.509
 7134SOL    HW122301   5.419   4.921   2.552
 7134SOL    HW222302   5.561   4.935   2.473
 7135SOL     OW22303   0.249   2.111   6.001
 7135SOL    HW122304   0.250   2.210   5.987
 7135SOL    HW222305   0.279   2.089   6.094
 7136SOL     OW22306   1.813   2.061   6.822
 7136SOL    HW122307   1.859   2.130   6.767
 7136SOL    HW222308   1.715   2.062   6.802
 7137SOL     OW22309   4.963   1.981   5.229
 7137SOL    HW122310   5.037   1.988   5.162
 7137SOL    HW222311   4.980   2.045   5.304
 7138SOL     OW22312   2.189   2.569   0.060
 7138SOL    HW122313   2.286   2.567   0.035
 7138SOL    HW222314   2.179   2.541   0.155
 7139SOL     OW22315   2.834   1.544   0.600
 7139SOL    HW122316   2.776   1.611   0.554
 7139SOL    HW222317   2.909   1.518   0.539
 7140SOL     OW22318   6.880   3.998   4.785
 7140SOL    HW122319   6.856   4.023   4.879
 7140SOL    HW222320   6.833   3.913   4.760
 7141SOL     OW22321   1.107   6.849   1.759
 7141SOL    HW122322   1.139   6.901   1.680
 7141SOL    HW222323   1.086   6.755   1.730
 7142SOL     OW22324   3.680   6.504   3.700
 7142SOL    HW122325   3.596   6.458   3.727
 7142SOL    HW222326   3.737   6.441   3.646
 7143SOL     OW22327   2.361   2.090   3.931
 7143SOL    HW122328   2.333   2.008   3.980
 7143SOL    HW222329   2.450   2.075   3.888
 7144SOL     OW22330   1.331   3.109   3.583
 7144SOL    HW122331   1.400   3.124   3.511
 7144SOL    HW222332   1.241   3.100   3.541
 7145SOL     OW22333   4.092   5.956   5.893
 7145SOL    HW122334   4.036   5.882   5.856
 7145SOL    HW222335   4.142   6.000   5.818
 7146SOL     OW22336   3.225   5.120   1.946
 7146SOL    HW122337   3.314   5.163   1.932
 7146SOL    HW222338   3.238   5.029   1.986
 7147SOL     OW22339   7.012   1.035   3.565
 7147SOL    HW122340   0.039   1.077   3.494
 7147SOL    HW222341   0.017   1.062   3.655
 7148SOL     OW22342   0.104   1.669   0.881
 7148SOL    HW122343   0.092   1.653   0.783
 7148SOL    HW222344   0.168   1.602   0.919
 7149SOL     OW22345   0.511   0.770   4.741
 7149SOL    HW122346   0.539   0.811   4.827
 7149SOL    HW222347   0.589   0.721   4.700
 7150SOL     OW22348   6.149   3.644   6.302
 7150SOL    HW122349   6.160   3.590   6.385
 7150SOL    HW222350   6.094   3.593   6.236
 7151SOL     OW22351   2.395   6.988   0.459
 7151SOL    HW122352   2.404   0.042   0.406
 7151SOL    HW222353   2.441   6.998   0.547
 7152SOL     OW22354   1.213   2.412   4.335
 7152SOL    HW122355   1.310   2.426   4.354
 7152SOL    HW222356   1.159   2.434   4.417
 7153SOL     OW22357   4.265   1.880   2.888
 7153SOL    HW122358   4.183   1.871   2.945
 7153SOL    HW222359   4.239   1.879   2.791
 7154SOL     OW22360   3.727   6.531   4.933
 7154SOL    HW122361   3.773   6.563   5.016
 7154SOL    HW222362   3.629   6.523   4.951
 7155SOL     OW22363   2.659   1.617   3.245
 7155SOL    HW122364   2.593   1.567   3.189
 7155SOL    HW222365   2.637   1.605   3.342
 7156SOL     OW22366   1.922   5.704   5.622
 7156SOL    HW122367   1.906   5.606   5.621
 7156SOL    HW222368   2.000   5.725   5.681
 7157SOL     OW22369   5.214   4.031   0.551
 7157SOL    HW122370   5.297   4.071   0.512
 7157SOL    HW222371   5.149   4.104   0.570
 7158SOL     OW22372   4.598   7.004   3.620
 7158SOL    HW122373   4.642   7.025   3.533
 7158SOL    HW222374   4.667   6.984   3.690
 7159SOL     OW22375   0.763   5.377   0.223
 7159SOL    HW122376   0.742   5.292   0.174
 7159SOL    HW222377   0.725   5.455   0.172
 7160SOL     OW22378   6.343   0.633   1.674
 7160SOL    HW122379   6.367   0.538   1.698
 7160SOL    HW222380   6.270   0.633   1.606
 7161SOL     OW22381   3.844   4.064   4.568
 7161SOL    HW122382   3.938   4.028   4.575
 7161SOL    HW222383   3.803   4.068   4.659
 7162SOL     OW22384   3.456   4.930   4.311
 7162SOL    HW122385   3.466   4.860   4.381
 7162SOL    HW222386   3.467   5.020   4.352
 7163SOL     OW22387   1.212   6.303   3.401
 7163SOL    HW122388   1.181   6.320   3.307
 7163SOL    HW222389   1.310   6.320   3.407
 7164SOL     OW22390   2.494   2.129   4.573
 7164SOL    HW122391   2.587   2.110   4.543
 7164SOL    HW222392   2.484   2.109   4.670
 7165SOL     OW22393   4.934   6.117   1.919
 7165SOL    HW122394   4.859   6.119   1.852
 7165SOL    HW222395   4.998   6.044   1.895
 7166SOL     OW22396   3.911   5.976   2.055
 7166SOL    HW122397   3.879   5.881   2.053
 7166SOL    HW222398   3.833   6.037   2.058
 7167SOL     OW22399   5.180   3.494   6.717
 7167SOL    HW122400   5.146   3.535   6.633
 7167SOL    HW222401   5.232   3.412   6.696
 7168SOL     OW22402   1.001   1.792   4.107
 7168SOL    HW122403   1.053   1.761   4.027
 7168SOL    HW222404   1.064   1.831   4.174
 7169SOL     OW22405   2.110   2.797   6.652
 7169SOL    HW122406   2.038   2.736   6.685
 7169SOL    HW222407   2.184   2.802   6.720
 7170SOL     OW22408   5.556   4.376   3.523
 7170SOL    HW122409   5.471   4.351   3.569
 7170SOL    HW222410   5.566   4.476   3.524
 7171SOL     OW22411   4.017   3.506   5.322
 7171SOL    HW122412   3.993   3.417   5.282
 7171SOL    HW222413   4.002   3.502   5.421
 7172SOL     OW22414   0.290   6.475   1.521
 7172SOL    HW122415   0.375   6.497   1.568
 7172SOL    HW222416   0.218   6.457   1.588
 7173SOL     OW22417   6.334   6.376   4.528
 7173SOL    HW122418   6.372   6.355   4.618
 7173SOL    HW222419   6.274   6.455   4.534
 7174SOL     OW22420   0.975   6.145   6.074
 7174SOL    HW122421   0.960   6.085   6.153
 7174SOL    HW222422   0.972   6.091   5.990
 7175SOL     OW22423   6.165   3.787   5.970
 7175SOL    HW122424   6.179   3.702   5.920
 7175SOL    HW222425   6.215   3.784   6.056
 7176SOL     OW22426   0.319   3.225   1.659
 7176SOL    HW122427   0.353   3.235   1.752
 7176SOL    HW222428   0.340   3.133   1.625
 7177SOL     OW22429   0.966   5.315   1.820
 7177SOL    HW122430   0.912   5.232   1.832
 7177SOL    HW222431   1.027   5.327   1.898
 7178SOL     OW22432   6.362   1.076   6.727
 7178SOL    HW122433   6.282   1.033   6.769
 7178SOL    HW222434   6.407   1.010   6.666
 7179SOL     OW22435   1.819   4.546   6.141
 7179SOL    HW122436   1.748   4.605   6.104
 7179SOL    HW222437   1.778   4.461   6.175
 7180SOL     OW22438   0.021   6.724   2.787
 7180SOL    HW122439   0.074   6.788   2.731
 7180SOL    HW222440   0.047   6.734   2.883
 7181SOL     OW22441   5.713   5.935   2.558
 7181SOL    HW122442   5.750   5.852   2.516
 7181SOL    HW222443   5.745   5.942   2.653
 7182SOL     OW22444   4.289   3.346   5.810
 7182SOL    HW122445   4.234   3.267   5.782
 7182SOL    HW222446   4.367   3.356   5.748
 7183SOL     OW22447   1.803   3.560   3.396
 7183SOL    HW122448   1.789   3.636   3.458
 7183SOL    HW222449   1.725   3.498   3.400
 7184SOL     OW22450   2.383   5.766   3.575
 7184SOL    HW122451   2.409   5.765   3.671
 7184SOL    HW222452   2.460   5.738   3.518
 7185SOL     OW22453   4.266   2.754   6.949
 7185SOL    HW122454   4.248   2.657   6.963
 7185SOL    HW222455   4.312   2.791   0.000
 7186SOL     OW22456   0.647   6.786   4.877
 7186SOL    HW122457   0.734   6.819   4.913
 7186SOL    HW222458   0.593   6.748   4.953
 7187SOL     OW22459   1.427   5.526   1.053
 7187SOL    HW122460   1.362   5.567   1.118
 7187SOL    HW222461   1.520   5.546   1.083
 7188SOL     OW22462   5.168   0.031   1.978
 7188SOL    HW122463   5.176   6.983   2.040
 7188SOL    HW222464   5.229   0.104   2.008
 7189SOL     OW22465   6.265   0.863   5.389
 7189SOL    HW122466   6.273   0.764   5.396
 7189SOL    HW222467   6.350   0.901   5.351
 7190SOL     OW22468   4.360   5.058   2.774
 7190SOL    HW122469   4.307   5.008   2.842
 7190SOL    HW222470   4.298   5.117   2.721
 7191SOL     OW22471   0.974   3.095   1.871
 7191SOL    HW122472   1.006   3.000   1.864
 7191SOL    HW222473   0.975   3.122   1.968
 7192SOL     OW22474   3.695   4.375   6.607
 7192SOL    HW122475   3.704   4.300   6.673
 7192SOL    HW222476   3.698   4.338   6.514
 7193SOL     OW22477   5.447   1.460   4.483
 7193SOL    HW122478   5.439   1.546   4.433
 7193SOL    HW222479   5.370   1.450   4.545
 7194SOL     OW22480   3.119   1.653   1.486
 7194SOL    HW122481   3.119   1.615   1.393
 7194SOL    HW222482   3.186   1.727   1.491
 7195SOL     OW22483   0.289   6.400   2.152
 7195SOL    HW122484   0.269   6.472   2.218
 7195SOL    HW222485   0.382   6.367   2.166
 7196SOL     OW22486   3.628   3.539   1.322
 7196SOL    HW122487   3.665   3.491   1.243
 7196SOL    HW222488   3.614   3.474   1.398
 7197SOL     OW22489   1.242   0.984   4.283
 7197SOL    HW122490   1.321   1.006   4.227
 7197SOL    HW222491   1.268   0.983   4.379
 7198SOL     OW22492   6.979   6.798   6.201
 7198SOL    HW122493   7.025   6.814   6.288
 7198SOL    HW222494   6.900   6.858   6.193
 7199SOL     OW22495   5.874   5.691   2.518
 7199SOL    HW122496   5.861   5.617   2.584
 7199SOL    HW222497   5.889   5.652   2.427
 7200SOL     OW22498   1.907   2.095   2.150
 7200SOL    HW122499   1.877   2.187   2.176
 7200SOL    HW222500   2.007   2.093   2.141
 7201SOL     OW22501   2.252   4.743   3.585
 7201SOL    HW122502   2.178   4.697   3.535
 7201SOL    HW222503   2.228   4.750   3.682
 7202SOL     OW22504   3.182   0.372   5.861
 7202SOL    HW122505   3.254   0.435   5.888
 7202SOL    HW222506   3.199   0.338   5.768
 7203SOL     OW22507   5.838   0.302   0.113
 7203SOL    HW122508   5.881   0.341   0.031
 7203SOL    HW222509   5.845   0.203   0.110
 7204SOL     OW22510   6.296   2.193   3.260
 7204SOL    HW122511   6.303   2.224   3.165
 7204SOL    HW222512   6.350   2.110   3.272
 7205SOL     OW22513   1.671   4.619   1.545
 7205SOL    HW122514   1.721   4.611   1.459
 7205SOL    HW222515   1.603   4.692   1.538
 7206SOL     OW22516   6.159   1.340   1.703
 7206SOL    HW122517   6.078   1.392   1.678
 7206SOL    HW222518   6.150   1.307   1.797
 7207SOL     OW22519   4.280   6.896   1.751
 7207SOL    HW122520   4.222   6.932   1.824
 7207SOL    HW222521   4.239   6.916   1.663
 7208SOL     OW22522   3.013   0.431   5.244
 7208SOL    HW122523   2.938   0.418   5.309
 7208SOL    HW222524   3.100   0.415   5.290
 7209SOL     OW22525   2.889   3.571   4.549
 7209SOL    HW122526   2.863   3.632   4.624
 7209SOL    HW222527   2.872   3.616   4.461
 7210SOL     OW22528   4.359   6.934   3.779
 7210SOL    HW122529   4.424   6.986   3.724
 7210SOL    HW222530   4.402   6.852   3.815
 7211SOL     OW22531   0.843   4.827   1.998
 7211SOL    HW122532   0.840   4.910   2.054
 7211SOL    HW222533   0.784   4.757   2.038
 7212SOL     OW22534   5.054   6.365   3.039
 7212SOL    HW122535   5.122   6.375   3.112
 7212SOL    HW222536   5.040   6.454   2.995
 7213SOL     OW22537   5.077   6.367   4.998
 7213SOL    HW122538   5.002   6.340   5.057
 7213SOL    HW222539   5.094   6.296   4.930
 7214SOL     OW22540   0.960   4.709   5.538
 7214SOL    HW122541   0.880   4.701   5.598
 7214SOL    HW222542   1.021   4.780   5.572
 7215SOL     OW22543   1.226   3.204   1.823
 7215SOL    HW122544   1.136   3.215   1.781
 7215SOL    HW222545   1.235   3.112   1.859
 7216SOL     OW22546   3.102   2.144   2.344
 7216SOL    HW122547   3.057   2.211   2.404
 7216SOL    HW222548   3.045   2.128   2.264
 7217SOL     OW22549   0.681   3.465   2.102
 7217SOL    HW122550   0.753   3.534   2.100
 7217SOL    HW222551   0.605   3.497   2.159
 7218SOL     OW22552   6.201   2.604   4.908
 7218SOL    HW122553   6.183   2.617   4.811
 7218SOL    HW222554   6.208   2.693   4.953
 7219SOL     OW22555   3.231   1.033   1.294
 7219SOL    HW122556   3.176   1.096   1.349
 7219SOL    HW222557   3.302   0.992   1.350
 7220SOL     OW22558   6.681   1.843   3.102
 7220SOL    HW122559   6.651   1.932   3.137
 7220SOL    HW222560   6.603   1.780   3.103
 7221SOL     OW22561   6.369   4.127   5.537
 7221SOL    HW122562   6.319   4.099   5.619
 7221SOL    HW222563   6.303   4.151   5.466
 7222SOL     OW22564   6.858   6.929   3.462
 7222SOL    HW122565   6.939   6.890   3.506
 7222SOL    HW222566   6.884   7.010   3.410
 7223SOL     OW22567   4.881   0.574   4.634
 7223SOL    HW122568   4.888   0.574   4.733
 7223SOL    HW222569   4.822   0.650   4.604
 7224SOL     OW22570   5.992   1.555   3.287
 7224SOL    HW122571   6.091   1.572   3.292
 7224SOL    HW222572   5.975   1.470   3.238
 7225SOL     OW22573   2.684   0.425   1.735
 7225SOL    HW122574   2.704   0.502   1.796
 7225SOL    HW222575   2.658   0.460   1.645
 7226SOL     OW22576   6.200   6.691   5.049
 7226SOL    HW122577   6.206   6.749   5.130
 7226SOL    HW222578   6.121   6.717   4.994
 7227SOL     OW22579   6.973   2.373   5.814
 7227SOL    HW122580   6.953   2.471   5.809
 7227SOL    HW222581   6.902   2.327   5.868
 7228SOL     OW22582   2.224   0.926   3.452
 7228SOL    HW122583   2.216   1.023   3.432
 7228SOL    HW222584   2.214   0.873   3.367
 7229SOL     OW22585   0.395   0.130   3.421
 7229SOL    HW122586   0.458   0.082   3.482
 7229SOL    HW222587   0.443   0.159   3.338
 7230SOL     OW22588   6.379   5.683   1.293
 7230SOL    HW122589   6.284   5.664   1.268
 7230SOL    HW222590   6.434   5.600   1.282
 7231SOL     OW22591   5.708   0.980   0.496
 7231SOL    HW122592   5.789   0.921   0.491
 7231SOL    HW222593   5.729   1.069   0.455
 7232SOL     OW22594   4.084   3.894   0.890
 7232SOL    HW122595   4.016   3.919   0.959
 7232SOL    HW222596   4.166   3.950   0.902
 7233SOL     OW22597   0.914   2.023   5.328
 7233SOL    HW122598   0.967   2.056   5.406
 7233SOL    HW222599   0.965   2.040   5.244
 7234SOL     OW22600   4.821   1.945   3.638
 7234SOL    HW122601   4.726   1.958   3.609
 7234SOL    HW222602   4.839   2.002   3.718
 7235SOL     OW22603   5.997   3.000   4.394
 7235SOL    HW122604   6.055   2.943   4.335
 7235SOL    HW222605   5.901   2.979   4.376
 7236SOL     OW22606   1.533   1.724   2.974
 7236SOL    HW122607   1.486   1.813   2.979
 7236SOL    HW222608   1.621   1.736   2.928
 7237SOL     OW22609   5.512   4.971   4.421
 7237SOL    HW122610   5.601   4.971   4.467
 7237SOL    HW222611   5.440   4.973   4.490
 7238SOL     OW22612   1.585   0.196   1.505
 7238SOL    HW122613   1.533   0.151   1.577
 7238SOL    HW222614   1.679   0.211   1.536
 7239SOL     OW22615   4.250   1.486   1.785
 7239SOL    HW122616   4.203   1.574   1.798
 7239SOL    HW222617   4.215   1.419   1.850
 7240SOL     OW22618   2.979   3.348   2.118
 7240SOL    HW122619   2.934   3.361   2.206
 7240SOL    HW222620   3.068   3.393   2.119
 7241SOL     OW22621   4.429   6.794   4.580
 7241SOL    HW122622   4.404   6.880   4.625
 7241SOL    HW222623   4.468   6.731   4.646
 7242SOL     OW22624   6.457   5.993   0.827
 7242SOL    HW122625   6.422   5.944   0.906
 7242SOL    HW222626   6.551   6.023   0.845
 7243SOL     OW22627   0.373   5.564   0.701
 7243SOL    HW122628   0.286   5.543   0.656
 7243SOL    HW222629   0.403   5.655   0.672
 7244SOL     OW22630   5.312   2.312   0.994
 7244SOL    HW122631   5.224   2.360   0.988
 7244SOL    HW222632   5.304   2.224   0.947
 7245SOL     OW22633   5.989   2.033   4.363
 7245SOL    HW122634   6.038   2.047   4.278
 7245SOL    HW222635   5.890   2.035   4.346
 7246SOL     OW22636   0.895   6.194   5.619
 7246SOL    HW122637   0.845   6.280   5.618
 7246SOL    HW222638   0.905   6.160   5.525
 7247SOL     OW22639   3.758   5.532   4.232
 7247SOL    HW122640   3.712   5.472   4.167
 7247SOL    HW222641   3.854   5.505   4.239
 7248SOL     OW22642   3.192   0.897   4.461
 7248SOL    HW122643   3.202   0.974   4.398
 7248SOL    HW222644   3.152   0.929   4.547
 7249SOL     OW22645   4.707   3.604   5.771
 7249SOL    HW122646   4.698   3.655   5.856
 7249SOL    HW222647   4.617   3.576   5.740
 7250SOL     OW22648   2.649   3.494   6.875
 7250SOL    HW122649   2.641   3.543   6.962
 7250SOL    HW222650   2.608   3.549   6.802
 7251SOL     OW22651   5.895   1.061   5.173
 7251SOL    HW122652   5.842   1.137   5.137
 7251SOL    HW222653   5.945   1.016   5.099
 7252SOL     OW22654   4.475   3.544   5.365
 7252SOL    HW122655   4.554   3.568   5.310
 7252SOL    HW222656   4.391   3.563   5.313
 7253SOL     OW22657   5.262   4.950   0.258
 7253SOL    HW122658   5.294   4.859   0.231
 7253SOL    HW222659   5.169   4.943   0.293
 7254SOL     OW22660   5.232   6.736   4.850
 7254SOL    HW122661   5.261   6.675   4.776
 7254SOL    HW222662   5.277   6.825   4.840
 7255SOL     OW22663   3.957   3.091   3.063
 7255SOL    HW122664   3.983   2.996   3.050
 7255SOL    HW222665   3.990   3.146   2.986
 7256SOL     OW22666   3.210   5.723   3.907
 7256SOL    HW122667   3.310   5.725   3.914
 7256SOL    HW222668   3.174   5.816   3.910
 7257SOL     OW22669   6.395   4.640   2.216
 7257SOL    HW122670   6.405   4.586   2.300
 7257SOL    HW222671   6.312   4.611   2.167
 7258SOL     OW22672   2.640   0.367   5.669
 7258SOL    HW122673   2.552   0.393   5.708
 7258SOL    HW222674   2.675   0.285   5.716
 7259SOL     OW22675   3.612   4.346   5.989
 7259SOL    HW122676   3.667   4.375   6.068
 7259SOL    HW222677   3.519   4.324   6.020
 7260SOL     OW22678   4.900   2.389   2.978
 7260SOL    HW122679   4.812   2.361   3.016
 7260SOL    HW222680   4.887   2.466   2.916
 7261SOL     OW22681   2.424   5.082   0.933
 7261SOL    HW122682   2.423   5.136   0.848
 7261SOL    HW222683   2.519   5.059   0.956
 7262SOL     OW22684   6.546   0.902   4.774
 7262SOL    HW122685   6.527   0.988   4.728
 7262SOL    HW222686   6.600   0.842   4.714
 7263SOL     OW22687   5.468   5.345   1.554
 7263SOL    HW122688   5.547   5.393   1.593
 7263SOL    HW222689   5.416   5.408   1.496
 7264SOL     OW22690   0.554   6.471   4.276
 7264SOL    HW122691   0.632   6.519   4.316
 7264SOL    HW222692   0.517   6.524   4.200
 7265SOL     OW22693   4.624   3.478   6.835
 7265SOL    HW122694   4.709   3.495   6.784
 7265SOL    HW222695   4.596   3.383   6.821
 7266SOL     OW22696   4.182   1.417   2.191
 7266SOL    HW122697   4.206   1.513   2.205
 7266SOL    HW222698   4.176   1.398   2.093
 7267SOL     OW22699   5.446   2.471   4.366
 7267SOL    HW122700   5.499   2.411   4.424
 7267SOL    HW222701   5.388   2.417   4.305
 7268SOL     OW22702   3.936   0.363   0.227
 7268SOL    HW122703   4.005   0.310   0.276
 7268SOL    HW222704   3.976   0.402   0.144
 7269SOL     OW22705   1.248   0.548   1.702
 7269SOL    HW122706   1.250   0.448   1.704
 7269SOL    HW222707   1.155   0.580   1.718
 7270SOL     OW22708   3.243   2.067   1.870
 7270SOL    HW122709   3.302   2.048   1.949
 7270SOL    HW222710   3.235   1.984   1.814
 7271SOL     OW22711   6.030   5.553   3.822
 7271SOL    HW122712   5.965   5.601   3.763
 7271SOL    HW222713   6.010   5.573   3.918
 7272SOL     OW22714   5.974   1.900   1.434
 7272SOL    HW122715   5.936   1.924   1.345
 7272SOL    HW222716   6.022   1.813   1.426
 7273SOL     OW22717   5.511   5.585   5.086
 7273SOL    HW122718   5.454   5.540   5.017
 7273SOL    HW222719   5.586   5.634   5.040
 7274SOL     OW22720   5.435   4.790   3.695
 7274SOL    HW122721   5.341   4.765   3.719
 7274SOL    HW222722   5.472   4.851   3.766
 7275SOL     OW22723   6.042   6.818   2.006
 7275SOL    HW122724   5.955   6.825   2.054
 7275SOL    HW222725   6.089   6.907   2.009
 7276SOL     OW22726   4.108   1.840   3.122
 7276SOL    HW122727   4.022   1.843   3.173
 7276SOL    HW222728   4.174   1.781   3.170
 7277SOL     OW22729   6.119   2.054   4.133
 7277SOL    HW122730   6.200   2.000   4.156
 7277SOL    HW222731   6.108   2.058   4.034
 7278SOL     OW22732   4.110   1.837   3.490
 7278SOL    HW122733   4.093   1.771   3.563
 7278SOL    HW222734   4.030   1.842   3.430
 7279SOL     OW22735   3.457   3.551   1.876
 7279SOL    HW122736   3.361   3.539   1.853
 7279SOL    HW222737   3.469   3.635   1.930
 7280SOL     OW22738   6.570   1.543   5.501
 7280SOL    HW122739   6.592   1.555   5.404
 7280SOL    HW222740   6.605   1.622   5.552
 7281SOL     OW22741   3.597   6.284   3.142
 7281SOL    HW122742   3.654   6.245   3.069
 7281SOL    HW222743   3.504   6.247   3.135
 7282SOL     OW22744   0.417   3.513   1.094
 7282SOL    HW122745   0.424   3.448   1.169
 7282SOL    HW222746   0.321   3.523   1.067
 7283SOL     OW22747   3.306   6.121   2.612
 7283SOL    HW122748   3.284   6.095   2.518
 7283SOL    HW222749   3.295   6.220   2.623
 7284SOL     OW22750   0.583   0.226   3.231
 7284SOL    HW122751   0.614   0.285   3.306
 7284SOL    HW222752   0.660   0.171   3.198
 7285SOL     OW22753   5.222   2.575   2.145
 7285SOL    HW122754   5.251   2.573   2.241
 7285SOL    HW222755   5.154   2.503   2.129
 7286SOL     OW22756   6.690   0.969   3.960
 7286SOL    HW122757   6.762   0.936   4.021
 7286SOL    HW222758   6.699   0.927   3.871
 7287SOL     OW22759   3.424   1.811   4.428
 7287SOL    HW122760   3.410   1.712   4.440
 7287SOL    HW222761   3.346   1.860   4.466
 7288SOL     OW22762   2.975   1.960   1.650
 7288SOL    HW122763   3.002   1.891   1.718
 7288SOL    HW222764   2.894   2.008   1.682
 7289SOL     OW22765   6.957   2.249   1.459
 7289SOL    HW122766   6.982   2.229   1.364
 7289SOL    HW222767   6.877   2.310   1.460
 7290SOL     OW22768   3.570   2.166   4.561
 7290SOL    HW122769   3.521   2.181   4.647
 7290SOL    HW222770   3.606   2.073   4.559
 7291SOL     OW22771   0.967   0.884   0.540
 7291SOL    HW122772   0.959   0.931   0.628
 7291SOL    HW222773   1.008   0.794   0.554
 7292SOL     OW22774   3.970   1.269   2.285
 7292SOL    HW122775   3.931   1.192   2.234
 7292SOL    HW222776   4.045   1.310   2.233
 7293SOL     OW22777   6.346   0.831   4.200
 7293SOL    HW122778   6.371   0.889   4.278
 7293SOL    HW222779   6.289   0.755   4.232
 7294SOL     OW22780   3.557   0.090   2.978
 7294SOL    HW122781   3.537   7.022   2.979
 7294SOL    HW222782   3.533   0.129   3.067
 7295SOL     OW22783   5.007   3.728   1.663
 7295SOL    HW122784   5.058   3.700   1.582
 7295SOL    HW222785   4.963   3.649   1.705
 7296SOL     OW22786   3.343   6.599   2.556
 7296SOL    HW122787   3.280   6.618   2.632
 7296SOL    HW222788   3.415   6.537   2.587
 7297SOL     OW22789   3.767   0.181   0.831
 7297SOL    HW122790   3.685   0.133   0.799
 7297SOL    HW222791   3.825   0.204   0.753
 7298SOL     OW22792   4.250   5.001   1.542
 7298SOL    HW122793   4.318   4.981   1.612
 7298SOL    HW222794   4.226   4.917   1.493
 7299SOL     OW22795   0.226   3.313   0.246
 7299SOL    HW122796   0.271   3.350   0.327
 7299SOL    HW222797   0.165   3.238   0.273
 7300SOL     OW22798   0.650   3.889   1.806
 7300SOL    HW122799   0.693   3.955   1.744
 7300SOL    HW222800   0.713   3.867   1.880
 7301SOL     OW22801   4.337   1.569   0.453
 7301SOL    HW122802   4.277   1.647   0.469
 7301SOL    HW222803   4.409   1.595   0.388
 7302SOL     OW22804   5.861   2.025   6.217
 7302SOL    HW122805   5.875   1.987   6.126
 7302SOL    HW222806   5.945   2.016   6.270
 7303SOL     OW22807   3.513   2.161   1.355
 7303SOL    HW122808   3.456   2.215   1.293
 7303SOL    HW222809   3.498   2.193   1.449
 7304SOL     OW22810   2.127   6.986   0.424
 7304SOL    HW122811   2.100   6.967   0.329
 7304SOL    HW222812   2.224   6.964   0.435
 7305SOL     OW22813   6.685   6.796   6.396
 7305SOL    HW122814   6.747   6.874   6.407
 7305SOL    HW222815   6.723   6.716   6.441
 7306SOL     OW22816   1.632   3.703   0.584
 7306SOL    HW122817   1.667   3.656   0.665
 7306SOL    HW222818   1.544   3.665   0.558
 7307SOL     OW22819   3.528   6.250   1.874
 7307SOL    HW122820   3.571   6.323   1.821
 7307SOL    HW222821   3.433   6.272   1.891
 7308SOL     OW22822   3.916   1.457   2.953
 7308SOL    HW122823   3.951   1.363   2.955
 7308SOL    HW222824   3.951   1.503   2.871
 7309SOL     OW22825   2.095   4.593   4.097
 7309SOL    HW122826   2.029   4.652   4.051
 7309SOL    HW222827   2.179   4.643   4.114
 7310SOL     OW22828   3.055   2.917   6.865
 7310SOL    HW122829   3.144   2.962   6.855
 7310SOL    HW222830   3.042   2.851   6.792
 7311SOL     OW22831   1.233   6.586   6.068
 7311SOL    HW122832   1.193   6.660   6.014
 7311SOL    HW222833   1.319   6.616   6.109
 7312SOL     OW22834   6.357   1.890   4.646
 7312SOL    HW122835   6.266   1.906   4.607
 7312SOL    HW222836   6.396   1.977   4.676
 7313SOL     OW22837   3.675   1.025   2.777
 7313SOL    HW122838   3.706   0.931   2.789
 7313SOL    HW222839   3.695   1.055   2.683
 7314SOL     OW22840   2.452   5.761   5.061
 7314SOL    HW122841   2.443   5.702   4.981
 7314SOL    HW222842   2.504   5.843   5.037
 7315SOL     OW22843   2.371   5.677   2.611
 7315SOL    HW122844   2.315   5.665   2.693
 7315SOL    HW222845   2.465   5.697   2.637
 7316SOL     OW22846   3.949   1.129   1.850
 7316SOL    HW122847   3.924   1.160   1.758
 7316SOL    HW222848   3.866   1.108   1.902
 7317SOL     OW22849   6.544   1.852   1.312
 7317SOL    HW122850   6.494   1.776   1.270
 7317SOL    HW222851   6.559   1.923   1.244
 7318SOL     OW22852   5.345   6.287   1.181
 7318SOL    HW122853   5.276   6.214   1.185
 7318SOL    HW222854   5.300   6.373   1.157
 7319SOL     OW22855   4.454   6.055   6.114
 7319SOL    HW122856   4.365   6.029   6.151
 7319SOL    HW222857   4.510   5.973   6.102
 7320SOL     OW22858   0.944   3.127   0.106
 7320SOL    HW122859   0.951   3.136   0.007
 7320SOL    HW222860   0.876   3.057   0.129
 7321SOL     OW22861   2.096   2.628   5.586
 7321SOL    HW122862   2.178   2.618   5.642
 7321SOL    HW222863   2.122   2.649   5.492
 7322SOL     OW22864   2.018   1.887   4.469
 7322SOL    HW122865   2.034   1.806   4.412
 7322SOL    HW222866   1.923   1.887   4.502
 7323SOL     OW22867   2.248   2.029   1.177
 7323SOL    HW122868   2.212   1.938   1.156
 7323SOL    HW222869   2.209   2.061   1.264
 7324SOL     OW22870   4.864   3.808   4.526
 7324SOL    HW122871   4.908   3.761   4.450
 7324SOL    HW222872   4.846   3.744   4.600
 7325SOL     OW22873   3.603   1.160   6.171
 7325SOL    HW122874   3.673   1.096   6.202
 7325SOL    HW222875   3.644   1.249   6.153
 7326SOL     OW22876   3.486   6.348   0.688
 7326SOL    HW122877   3.563   6.285   0.674
 7326SOL    HW222878   3.469   6.398   0.603
 7327SOL     OW22879   1.481   4.199   3.092
 7327SOL    HW122880   1.456   4.284   3.046
 7327SOL    HW222881   1.577   4.178   3.076
 7328SOL     OW22882   4.636   5.187   6.473
 7328SOL    HW122883   4.642   5.194   6.573
 7328SOL    HW222884   4.728   5.197   6.434
 7329SOL     OW22885   2.756   3.865   0.063
 7329SOL    HW122886   2.729   3.936   0.128
 7329SOL    HW222887   2.851   3.879   0.035
 7330SOL     OW22888   2.581   3.245   0.800
 7330SOL    HW122889   2.524   3.327   0.800
 7330SOL    HW222890   2.546   3.181   0.868
 7331SOL     OW22891   5.001   1.305   2.247
 7331SOL    HW122892   5.100   1.310   2.254
 7331SOL    HW222893   4.972   1.323   2.153
 7332SOL     OW22894   2.695   6.998   5.251
 7332SOL    HW122895   2.712   6.960   5.160
 7332SOL    HW222896   2.725   6.934   5.321
 7333SOL     OW22897   6.397   0.910   1.586
 7333SOL    HW122898   6.394   0.827   1.642
 7333SOL    HW222899   6.364   0.988   1.639
 7334SOL     OW22900   1.237   4.601   4.640
 7334SOL    HW122901   1.143   4.572   4.626
 7334SOL    HW222902   1.239   4.681   4.700
 7335SOL     OW22903   0.358   3.024   2.593
 7335SOL    HW122904   0.369   2.929   2.622
 7335SOL    HW222905   0.445   3.072   2.600
 7336SOL     OW22906   2.344   0.445   1.013
 7336SOL    HW122907   2.395   0.500   0.946
 7336SOL    HW222908   2.375   0.467   1.105
 7337SOL     OW22909   3.621   1.536   2.901
 7337SOL    HW122910   3.699   1.535   2.964
 7337SOL    HW222911   3.621   1.622   2.850
 7338SOL     OW22912   5.414   3.710   0.369
 7338SOL    HW122913   5.492   3.756   0.326
 7338SOL    HW222914   5.329   3.739   0.326
 7339SOL     OW22915   6.702   0.014   3.982
 7339SOL    HW122916   6.675   0.086   4.045
 7339SOL    HW222917   6.621   6.998   3.945
 7340SOL     OW22918   2.845   6.490   0.283
 7340SOL    HW122919   2.815   6.547   0.360
 7340SOL    HW222920   2.941   6.511   0.262
 7341SOL     OW22921   6.413   5.560   3.612
 7341SOL    HW122922   6.433   5.487   3.677
 7341SOL    HW222923   6.358   5.631   3.656
 7342SOL     OW22924   0.613   5.458   0.704
 7342SOL    HW122925   0.541   5.526   0.718
 7342SOL    HW222926   0.683   5.469   0.775
 7343SOL     OW22927   6.947   2.692   2.777
 7343SOL    HW122928   6.998   2.703   2.692
 7343SOL    HW222929   6.972   2.605   2.820
 7344SOL     OW22930   2.126   1.164   6.219
 7344SOL    HW122931   2.203   1.110   6.252
 7344SOL    HW222932   2.044   1.106   6.216
 7345SOL     OW22933   1.748   0.158   6.729
 7345SOL    HW122934   1.845   0.174   6.712
 7345SOL    HW222935   1.738   0.090   6.802
 7346SOL     OW22936   3.366   5.246   4.047
 7346SOL    HW122937   3.318   5.321   4.001
 7346SOL    HW222938   3.309   5.209   4.120
 7347SOL     OW22939   6.043   3.154   3.559
 7347SOL    HW122940   5.995   3.070   3.536
 7347SOL    HW222941   5.980   3.231   3.552
 7348SOL     OW22942   5.735   0.692   6.222
 7348SOL    HW122943   5.653   0.747   6.208
 7348SOL    HW222944   5.805   0.717   6.155
 7349SOL     OW22945   3.890   1.829   1.367
 7349SOL    HW122946   3.901   1.771   1.287
 7349SOL    HW222947   3.946   1.793   1.442
 7350SOL     OW22948   1.889   1.161   3.293
 7350SOL    HW122949   1.829   1.237   3.269
 7350SOL    HW222950   1.947   1.138   3.215
 7351SOL     OW22951   4.951   4.582   0.255
 7351SOL    HW122952   5.008   4.664   0.250
 7351SOL    HW222953   4.858   4.604   0.226
 7352SOL     OW22954   6.873   1.236   3.243
 7352SOL    HW122955   6.900   1.302   3.173
 7352SOL    HW222956   6.782   1.259   3.277
 7353SOL     OW22957   5.303   1.854   5.521
 7353SOL    HW122958   5.373   1.825   5.455
 7353SOL    HW222959   5.345   1.868   5.610
 7354SOL     OW22960   5.443   4.285   5.225
 7354SOL    HW122961   5.465   4.382   5.209
 7354SOL    HW222962   5.426   4.240   5.137
 7355SOL     OW22963   6.706   5.942   0.526
 7355SOL    HW122964   6.804   5.951   0.546
 7355SOL    HW222965   6.667   5.871   0.584
 7356SOL     OW22966   0.014   1.520   5.643
 7356SOL    HW122967   7.014   1.601   5.592
 7356SOL    HW222968   0.112   1.526   5.661
 7357SOL     OW22969   0.664   1.643   0.830
 7357SOL    HW122970   0.626   1.681   0.746
 7357SOL    HW222971   0.616   1.682   0.909
 7358SOL     OW22972   3.608   1.065   3.658
 7358SOL    HW122973   3.568   1.041   3.569
 7358SOL    HW222974   3.535   1.094   3.720
 7359SOL     OW22975   2.960   3.708   4.315
 7359SOL    HW122976   2.989   3.623   4.269
 7359SOL    HW222977   3.036   3.773   4.316
 7360SOL     OW22978   0.870   4.335   6.307
 7360SOL    HW122979   0.915   4.282   6.235
 7360SOL    HW222980   0.885   4.433   6.290
 7361SOL     OW22981   4.596   6.792   1.388
 7361SOL    HW122982   4.586   6.891   1.400
 7361SOL    HW222983   4.663   6.757   1.453
 7362SOL     OW22984   1.429   5.357   6.655
 7362SOL    HW122985   1.330   5.365   6.645
 7362SOL    HW222986   1.459   5.267   6.621
 7363SOL     OW22987   4.410   2.216   6.200
 7363SOL    HW122988   4.425   2.293   6.262
 7363SOL    HW222989   4.358   2.247   6.121
 7364SOL     OW22990   4.885   6.830   0.893
 7364SOL    HW122991   4.935   6.761   0.839
 7364SOL    HW222992   4.837   6.785   0.968
 7365SOL     OW22993   4.203   6.933   1.186
 7365SOL    HW122994   4.285   6.982   1.213
 7365SOL    HW222995   4.186   6.946   1.088
 7366SOL     OW22996   1.948   0.353   0.346
 7366SOL    HW122997   2.000   0.306   0.418
 7366SOL    HW222998   1.945   0.451   0.366
 7367SOL     OW22999   4.446   2.959   6.875
 7367SOL    HW123000   4.509   2.885   6.850
 7367SOL    HW223001   4.379   2.972   6.803
 7368SOL     OW23002   3.178   2.991   4.618
 7368SOL    HW123003   3.200   3.070   4.561
 7368SOL    HW223004   3.226   2.911   4.583
 7369SOL     OW23005   6.331   0.761   6.685
 7369SOL    HW123006   6.330   0.762   6.785
 7369SOL    HW223007   6.424   0.744   6.652
 7370SOL     OW23008   0.576   6.124   0.715
 7370SOL    HW123009   0.550   6.158   0.624
 7370SOL    HW223010   0.494   6.107   0.769
 7371SOL     OW23011   1.672   5.091   4.089
 7371SOL    HW123012   1.762   5.082   4.046
 7371SOL    HW223013   1.665   5.182   4.132
 7372SOL     OW23014   3.168   0.256   5.040
 7372SOL    HW123015   3.172   0.188   5.113
 7372SOL    HW223016   3.204   0.343   5.074
 7373SOL     OW23017   3.573   0.786   1.139
 7373SOL    HW123018   3.513   0.855   1.098
 7373SOL    HW223019   3.517   0.715   1.183
 7374SOL     OW23020   2.167   3.533   6.735
 7374SOL    HW123021   2.251   3.515   6.784
 7374SOL    HW223022   2.091   3.544   6.800
 7375SOL     OW23023   2.833   6.189   3.765
 7375SOL    HW123024   2.753   6.229   3.720
 7375SOL    HW223025   2.845   6.232   3.855
 7376SOL     OW23026   3.185   3.924   6.719
 7376SOL    HW123027   3.233   4.011   6.728
 7376SOL    HW223028   3.153   3.913   6.625
 7377SOL     OW23029   6.564   5.996   1.976
 7377SOL    HW123030   6.505   5.926   1.936
 7377SOL    HW223031   6.659   5.977   1.951
 7378SOL     OW23032   0.675   2.128   5.453
 7378SOL    HW123033   0.616   2.047   5.445
 7378SOL    HW223034   0.764   2.109   5.410
 7379SOL     OW23035   4.150   0.272   0.373
 7379SOL    HW123036   4.237   0.308   0.340
 7379SOL    HW223037   4.151   0.265   0.472
 7380SOL     OW23038   6.636   2.622   6.490
 7380SOL    HW123039   6.723   2.650   6.451
 7380SOL    HW223040   6.577   2.702   6.502
 7381SOL     OW23041   5.313   2.093   0.109
 7381SOL    HW123042   5.299   2.005   0.064
 7381SOL    HW223043   5.333   2.078   0.206
 7382SOL     OW23044   1.070   5.156   4.084
 7382SOL    HW123045   1.098   5.064   4.057
 7382SOL    HW223046   0.989   5.183   4.032
 7383SOL     OW23047   1.649   4.100   2.666
 7383SOL    HW123048   1.654   4.055   2.755
 7383SOL    HW223049   1.614   4.193   2.679
 7384SOL     OW23050   6.182   1.854   1.070
 7384SOL    HW123051   6.213   1.884   0.980
 7384SOL    HW223052   6.087   1.825   1.065
 7385SOL     OW23053   5.544   0.390   1.909
 7385SOL    HW123054   5.476   0.415   1.840
 7385SOL    HW223055   5.620   0.341   1.865
 7386SOL     OW23056   6.694   1.497   5.931
 7386SOL    HW123057   6.668   1.401   5.938
 7386SOL    HW223058   6.793   1.505   5.916
 7387SOL     OW23059   4.971   6.097   3.248
 7387SOL    HW123060   5.037   6.045   3.195
 7387SOL    HW223061   5.008   6.188   3.267
 7388SOL     OW23062   5.252   3.870   5.036
 7388SOL    HW123063   5.155   3.862   5.056
 7388SOL    HW223064   5.283   3.789   4.986
 7389SOL     OW23065   1.083   3.133   4.941
 7389SOL    HW123066   1.064   3.090   4.852
 7389SOL    HW223067   1.143   3.072   4.994
 7390SOL     OW23068   4.454   0.079   0.121
 7390SOL    HW123069   4.379   0.032   0.167
 7390SOL    HW223070   4.419   0.162   0.077
 7391SOL     OW23071   0.351   5.213   7.021
 7391SOL    HW123072   0.346   5.113   7.023
 7391SOL    HW223073   0.446   5.242   0.004
 7392SOL     OW23074   2.118   4.829   2.133
 7392SOL    HW123075   2.031   4.793   2.099
 7392SOL    HW223076   2.185   4.829   2.059
 7393SOL     OW23077   1.142   3.776   0.266
 7393SOL    HW123078   1.050   3.774   0.304
 7393SOL    HW223079   1.181   3.684   0.266
 7394SOL     OW23080   2.365   3.237   6.538
 7394SOL    HW123081   2.396   3.154   6.492
 7394SOL    HW223082   2.266   3.234   6.549
 7395SOL     OW23083   2.684   1.028   7.026
 7395SOL    HW123084   2.695   1.079   6.941
 7395SOL    HW223085   2.635   0.943   7.009
 7396SOL     OW23086   6.912   0.113   2.714
 7396SOL    HW123087   6.866   0.047   2.774
 7396SOL    HW223088   6.847   0.184   2.687
 7397SOL     OW23089   6.088   3.962   4.442
 7397SOL    HW123090   6.118   4.053   4.413
 7397SOL    HW223091   6.123   3.943   4.533
 7398SOL     OW23092   4.623   6.300   2.973
 7398SOL    HW123093   4.548   6.307   3.038
 7398SOL    HW223094   4.711   6.311   3.020
 7399SOL     OW23095   5.081   5.259   3.874
 7399SOL    HW123096   5.117   5.309   3.952
 7399SOL    HW223097   5.125   5.170   3.868
 7400SOL     OW23098   2.619   4.135   6.729
 7400SOL    HW123099   2.667   4.047   6.727
 7400SOL    HW223100   2.527   4.121   6.766
 7401SOL     OW23101   6.091   3.219   4.201
 7401SOL    HW123102   6.087   3.153   4.276
 7401SOL    HW223103   6.177   3.209   4.151
 7402SOL     OW23104   1.970   6.097   4.629
 7402SOL    HW123105   2.001   6.189   4.655
 7402SOL    HW223106   2.045   6.032   4.641
 7403SOL     OW23107   2.343   3.120   1.719
 7403SOL    HW123108   2.308   3.193   1.778
 7403SOL    HW223109   2.298   3.125   1.629
 7404SOL     OW23110   1.289   2.518   2.911
 7404SOL    HW123111   1.217   2.530   2.979
 7404SOL    HW223112   1.372   2.484   2.956
 7405SOL     OW23113   3.453   4.982   5.996
 7405SOL    HW123114   3.517   4.956   5.925
 7405SOL    HW223115   3.503   5.005   6.080
 7406SOL     OW23116   0.404   6.130   2.733
 7406SOL    HW123117   0.323   6.108   2.678
 7406SOL    HW223118   0.408   6.070   2.812
 7407SOL     OW23119   3.244   1.529   5.763
 7407SOL    HW123120   3.321   1.477   5.728
 7407SOL    HW223121   3.276   1.615   5.803
 7408SOL     OW23122   1.168   3.446   5.213
 7408SOL    HW123123   1.092   3.381   5.210
 7408SOL    HW223124   1.222   3.438   5.129
 7409SOL     OW23125   2.542   6.681   4.580
 7409SOL    HW123126   2.504   6.686   4.673
 7409SOL    HW223127   2.470   6.651   4.517
 7410SOL     OW23128   5.011   5.767   5.837
 7410SOL    HW123129   4.918   5.771   5.803
 7410SOL    HW223130   5.017   5.699   5.910
 7411SOL     OW23131   5.607   3.799   5.688
 7411SOL    HW123132   5.605   3.805   5.588
 7411SOL    HW223133   5.568   3.882   5.727
 7412SOL     OW23134   1.425   1.227   0.127
 7412SOL    HW123135   1.337   1.272   0.136
 7412SOL    HW223136   1.497   1.286   0.163
 7413SOL     OW23137   6.997   3.552   4.063
 7413SOL    HW123138   7.008   3.554   3.963
 7413SOL    HW223139   6.955   3.637   4.094
 7414SOL     OW23140   0.513   5.401   1.714
 7414SOL    HW123141   0.607   5.372   1.694
 7414SOL    HW223142   0.451   5.361   1.646
 7415SOL     OW23143   2.974   1.542   2.768
 7415SOL    HW123144   3.033   1.621   2.782
 7415SOL    HW223145   2.885   1.572   2.735
 7416SOL     OW23146   6.595   7.008   3.424
 7416SOL    HW123147   6.531   6.953   3.478
 7416SOL    HW223148   6.688   6.977   3.440
 7417SOL     OW23149   0.084   5.027   1.041
 7417SOL    HW123150   0.066   5.125   1.042
 7417SOL    HW223151   0.168   5.009   0.990
 7418SOL     OW23152   1.237   3.527   0.311
 7418SOL    HW123153   1.141   3.497   0.304
 7418SOL    HW223154   1.264   3.525   0.407
 7419SOL     OW23155   6.205   2.484   5.748
 7419SOL    HW123156   6.120   2.518   5.708
 7419SOL    HW223157   6.253   2.560   5.791
 7420SOL     OW23158   6.718   5.683   2.014
 7420SOL    HW123159   6.755   5.775   2.025
 7420SOL    HW223160   6.727   5.654   1.919
 7421SOL     OW23161   4.097   1.740   1.871
 7421SOL    HW123162   4.135   1.818   1.920
 7421SOL    HW223163   4.032   1.772   1.803
 7422SOL     OW23164   0.883   1.675   1.285
 7422SOL    HW123165   0.916   1.766   1.311
 7422SOL    HW223166   0.935   1.643   1.206
 7423SOL     OW23167   2.631   4.013   0.596
 7423SOL    HW123168   2.594   4.098   0.634
 7423SOL    HW223169   2.620   3.939   0.663
 7424SOL     OW23170   4.865   0.555   3.617
 7424SOL    HW123171   4.922   0.633   3.643
 7424SOL    HW223172   4.796   0.539   3.687
 7425SOL     OW23173   3.238   0.251   4.198
 7425SOL    HW123174   3.334   0.253   4.169
 7425SOL    HW223175   3.182   0.300   4.132
 7426SOL     OW23176   0.298   0.614   6.627
 7426SOL    HW123177   0.346   0.678   6.687
 7426SOL    HW223178   0.208   0.594   6.665
 7427SOL     OW23179   5.715   5.005   4.844
 7427SOL    HW123180   5.788   4.981   4.908
 7427SOL    HW223181   5.727   4.956   4.758
 7428SOL     OW23182   4.854   1.056   5.336
 7428SOL    HW123183   4.847   0.957   5.323
 7428SOL    HW223184   4.936   1.076   5.390
 7429SOL     OW23185   6.355   6.215   3.574
 7429SOL    HW123186   6.399   6.222   3.663
 7429SOL    HW223187   6.268   6.265   3.576
 7430SOL     OW23188   0.581   4.127   4.257
 7430SOL    HW123189   0.622   4.218   4.259
 7430SOL    HW223190   0.567   4.099   4.162
 7431SOL     OW23191   0.116   3.844   2.464
 7431SOL    HW123192   0.191   3.870   2.524
 7431SOL    HW223193   0.034   3.898   2.486
 7432SOL     OW23194   1.683   6.367   5.476
 7432SOL    HW123195   1.607   6.408   5.425
 7432SOL    HW223196   1.652   6.343   5.569
 7433SOL     OW23197   0.220   0.050   0.983
 7433SOL    HW123198   0.151   0.116   0.955
 7433SOL    HW223199   0.194   0.008   1.070
 7434SOL     OW23200   4.643   6.562   0.028
 7434SOL    HW123201   4.544   6.549   0.031
 7434SOL    HW223202   4.667   6.648   0.073
 7435SOL     OW23203   1.437   5.160   0.398
 7435SOL    HW123204   1.358   5.110   0.434
 7435SOL    HW223205   1.518   5.102   0.405
 7436SOL     OW23206   4.791   3.712   6.822
 7436SOL    HW123207   4.741   3.799   6.821
 7436SOL    HW223208   4.811   3.684   6.728
 7437SOL     OW23209   0.228   6.283   5.120
 7437SOL    HW123210   0.155   6.320   5.177
 7437SOL    HW223211   0.189   6.234   5.043
 7438SOL     OW23212   5.689   3.875   0.774
 7438SOL    HW123213   5.592   3.882   0.797
 7438SOL    HW223214   5.703   3.800   0.709
 7439SOL     OW23215   1.467   6.903   3.205
 7439SOL    HW123216   1.505   6.839   3.138
 7439SOL    HW223217   1.432   6.984   3.157
 7440SOL     OW23218   0.759   1.227   4.085
 7440SOL    HW123219   0.675   1.264   4.046
 7440SOL    HW223220   0.737   1.162   4.158
 7441SOL     OW23221   6.247   7.002   3.996
 7441SOL    HW123222   6.233   0.013   3.906
 7441SOL    HW223223   6.330   6.945   3.995
 7442SOL     OW23224   1.715   0.729   6.423
 7442SOL    HW123225   1.797   0.783   6.410
 7442SOL    HW223226   1.655   0.740   6.344
 7443SOL     OW23227   6.964   2.121   1.955
 7443SOL    HW123228   6.983   2.197   2.017
 7443SOL    HW223229   6.962   2.154   1.861
 7444SOL     OW23230   0.476   2.822   4.947
 7444SOL    HW123231   0.563   2.857   4.982
 7444SOL    HW223232   0.480   2.723   4.940
 7445SOL     OW23233   6.029   2.957   1.777
 7445SOL    HW123234   6.004   2.869   1.736
 7445SOL    HW223235   6.118   2.986   1.742
 7446SOL     OW23236   5.530   3.842   3.025
 7446SOL    HW123237   5.554   3.751   2.992
 7446SOL    HW223238   5.561   3.910   2.959
 7447SOL     OW23239   0.674   3.761   6.539
 7447SOL    HW123240   0.691   3.815   6.457
 7447SOL    HW223241   0.605   3.807   6.595
 7448SOL     OW23242   0.740   0.782   5.944
 7448SOL    HW123243   0.790   0.701   5.975
 7448SOL    HW223244   0.645   0.775   5.971
 7449SOL     OW23245   4.018   0.321   1.775
 7449SOL    HW123246   4.094   0.284   1.827
 7449SOL    HW223247   4.050   0.398   1.719
 7450SOL     OW23248   3.405   1.819   1.416
 7450SOL    HW123249   3.492   1.868   1.420
 7450SOL    HW223250   3.344   1.853   1.487
 7451SOL     OW23251   0.905   0.486   2.608
 7451SOL    HW123252   0.951   0.567   2.570
 7451SOL    HW223253   0.808   0.506   2.622
 7452SOL     OW23254   1.435   5.738   3.447
 7452SOL    HW123255   1.388   5.794   3.516
 7452SOL    HW223256   1.466   5.653   3.488
 7453SOL     OW23257   6.631   4.728   5.119
 7453SOL    HW123258   6.619   4.656   5.187
 7453SOL    HW223259   6.548   4.784   5.115
 7454SOL     OW23260   1.393   2.923   0.118
 7454SOL    HW123261   1.306   2.902   0.163
 7454SOL    HW223262   1.397   3.021   0.097
 7455SOL     OW23263   4.615   0.362   0.632
 7455SOL    HW123264   4.620   0.357   0.732
 7455SOL    HW223265   4.705   0.339   0.594
 7456SOL     OW23266   1.140   4.209   6.423
 7456SOL    HW123267   1.192   4.165   6.496
 7456SOL    HW223268   1.085   4.141   6.375
 7457SOL     OW23269   0.015   6.337   6.173
 7457SOL    HW123270   0.008   6.306   6.078
 7457SOL    HW223271   6.989   6.418   6.186
 7458SOL     OW23272   2.859   0.517   1.109
 7458SOL    HW123273   2.852   0.582   1.034
 7458SOL    HW223274   2.825   0.560   1.193
 7459SOL     OW23275   3.593   6.017   4.204
 7459SOL    HW123276   3.533   6.055   4.134
 7459SOL    HW223277   3.574   6.062   4.292
 7460SOL     OW23278   0.601   5.272   6.868
 7460SOL    HW123279   0.593   5.366   6.837
 7460SOL    HW223280   0.538   5.214   6.817
 7461SOL     OW23281   4.135   0.741   4.130
 7461SOL    HW123282   4.175   0.664   4.081
 7461SOL    HW223283   4.035   0.736   4.122
 7462SOL     OW23284   2.337   1.865   4.089
 7462SOL    HW123285   2.400   1.879   4.165
 7462SOL    HW223286   2.287   1.779   4.103
 7463SOL     OW23287   3.821   4.039   2.194
 7463SOL    HW123288   3.747   4.071   2.253
 7463SOL    HW223289   3.867   4.117   2.152
 7464SOL     OW23290   4.735   5.972   6.933
 7464SOL    HW123291   4.742   5.982   0.002
 7464SOL    HW223292   4.825   5.977   6.892
 7465SOL     OW23293   3.991   0.725   2.953
 7465SOL    HW123294   4.033   0.813   2.971
 7465SOL    HW223295   4.049   0.652   2.990
 7466SOL     OW23296   6.239   0.111   0.456
 7466SOL    HW123297   6.196   0.200   0.467
 7466SOL    HW223298   6.334   0.123   0.426
 7467SOL     OW23299   4.806   2.513   0.869
 7467SOL    HW123300   4.827   2.551   0.959
 7467SOL    HW223301   4.888   2.470   0.831
 7468SOL     OW23302   5.431   4.161   4.388
 7468SOL    HW123303   5.403   4.103   4.311
 7468SOL    HW223304   5.482   4.239   4.353
 7469SOL     OW23305   5.141   1.592   1.989
 7469SOL    HW123306   5.075   1.517   1.990
 7469SOL    HW223307   5.169   1.610   1.895
 7470SOL     OW23308   0.408   2.978   3.288
 7470SOL    HW123309   0.409   3.042   3.364
 7470SOL    HW223310   0.314   2.953   3.266
 7471SOL     OW23311   6.472   4.953   5.163
 7471SOL    HW123312   6.496   4.984   5.071
 7471SOL    HW223313   6.549   4.970   5.225
 7472SOL     OW23314   4.123   5.290   2.931
 7472SOL    HW123315   4.120   5.191   2.944
 7472SOL    HW223316   4.112   5.311   2.834
 7473SOL     OW23317   1.226   2.713   5.779
 7473SOL    HW123318   1.178   2.706   5.692
 7473SOL    HW223319   1.240   2.809   5.802
 7474SOL     OW23320   2.774   1.331   2.534
 7474SOL    HW123321   2.809   1.394   2.464
 7474SOL    HW223322   2.822   1.347   2.620
 7475SOL     OW23323   4.705   0.538   6.265
 7475SOL    HW123324   4.694   0.505   6.358
 7475SOL    HW223325   4.768   0.616   6.264
 7476SOL     OW23326   2.341   6.794   4.995
 7476SOL    HW123327   2.356   6.749   5.083
 7476SOL    HW223328   2.420   6.849   4.971
 7477SOL     OW23329   5.144   4.013   4.449
 7477SOL    HW123330   5.046   4.032   4.457
 7477SOL    HW223331   5.190   4.093   4.410
 7478SOL     OW23332   0.717   4.509   1.751
 7478SOL    HW123333   0.678   4.597   1.779
 7478SOL    HW223334   0.785   4.524   1.679
 7479SOL     OW23335   3.741   0.830   4.788
 7479SOL    HW123336   3.780   0.758   4.845
 7479SOL    HW223337   3.729   0.913   4.843
 7480SOL     OW23338   6.244   5.287   0.487
 7480SOL    HW123339   6.254   5.377   0.444
 7480SOL    HW223340   6.147   5.264   0.495
 7481SOL     OW23341   6.143   6.424   0.354
 7481SOL    HW123342   6.130   6.478   0.437
 7481SOL    HW223343   6.230   6.449   0.312
 7482SOL     OW23344   4.912   6.966   4.659
 7482SOL    HW123345   5.010   6.963   4.641
 7482SOL    HW223346   4.878   0.030   4.646
 7483SOL     OW23347   3.514   0.574   6.804
 7483SOL    HW123348   3.492   0.477   6.808
 7483SOL    HW223349   3.612   0.587   6.817
 7484SOL     OW23350   3.390   6.979   1.370
 7484SOL    HW123351   3.467   6.986   1.306
 7484SOL    HW223352   3.368   0.040   1.407
 7485SOL     OW23353   0.898   6.552   5.085
 7485SOL    HW123354   0.916   6.646   5.054
 7485SOL    HW223355   0.805   6.547   5.123
 7486SOL     OW23356   1.225   2.249   5.236
 7486SOL    HW123357   1.262   2.222   5.325
 7486SOL    HW223358   1.291   2.309   5.190
 7487SOL     OW23359   3.345   4.866   3.088
 7487SOL    HW123360   3.266   4.871   3.149
 7487SOL    HW223361   3.316   4.837   2.997
 7488SOL     OW23362   4.439   0.973   5.134
 7488SOL    HW123363   4.477   0.947   5.046
 7488SOL    HW223364   4.358   0.919   5.154
 7489SOL     OW23365   6.960   3.500   3.797
 7489SOL    HW123366   7.007   3.575   3.752
 7489SOL    HW223367   6.961   3.419   3.737
 7490SOL     OW23368   5.752   6.882   3.082
 7490SOL    HW123369   5.671   6.921   3.037
 7490SOL    HW223370   5.800   6.822   3.018
 7491SOL     OW23371   0.306   0.167   0.653
 7491SOL    HW123372   0.242   0.225   0.704
 7491SOL    HW223373   0.274   0.072   0.657
 7492SOL     OW23374   2.945   1.967   3.307
 7492SOL    HW123375   2.913   1.955   3.213
 7492SOL    HW223376   2.900   1.900   3.366
 7493SOL     OW23377   5.045   4.855   6.192
 7493SOL    HW123378   5.140   4.831   6.209
 7493SOL    HW223379   4.990   4.835   6.273
 7494SOL     OW23380   5.102   1.849   1.629
 7494SOL    HW123381   5.060   1.760   1.646
 7494SOL    HW223382   5.032   1.920   1.630
 7495SOL     OW23383   1.030   1.861   2.858
 7495SOL    HW123384   1.074   1.830   2.942
 7495SOL    HW223385   1.039   1.961   2.851
 7496SOL     OW23386   0.243   5.675   5.731
 7496SOL    HW123387   0.260   5.633   5.821
 7496SOL    HW223388   0.262   5.607   5.660
 7497SOL     OW23389   1.777   5.225   2.580
 7497SOL    HW123390   1.738   5.175   2.657
 7497SOL    HW223391   1.871   5.193   2.563
 7498SOL     OW23392   5.580   2.028   4.527
 7498SOL    HW123393   5.589   2.006   4.624
 7498SOL    HW223394   5.557   2.125   4.517
 7499SOL     OW23395   3.564   5.252   3.670
 7499SOL    HW123396   3.643   5.229   3.727
 7499SOL    HW223397   3.520   5.333   3.707
 7500SOL     OW23398   4.674   3.901   1.808
 7500SOL    HW123399   4.583   3.902   1.767
 7500SOL    HW223400   4.707   3.995   1.817
 7501SOL     OW23401   0.712   4.612   4.216
 7501SOL    HW123402   0.776   4.554   4.267
 7501SOL    HW223403   0.623   4.567   4.212
 7502SOL     OW23404   1.666   2.344   3.916
 7502SOL    HW123405   1.724   2.262   3.909
 7502SOL    HW223406   1.722   2.422   3.944
 7503SOL     OW23407   2.598   2.476   0.015
 7503SOL    HW123408   2.650   2.551   7.004
 7503SOL    HW223409   2.552   2.508   0.098
 7504SOL     OW23410   4.424   5.772   4.282
 7504SOL    HW123411   4.389   5.863   4.302
 7504SOL    HW223412   4.351   5.717   4.239
 7505SOL     OW23413   1.997   1.238   4.235
 7505SOL    HW123414   2.011   1.297   4.314
 7505SOL    HW223415   2.068   1.255   4.167
 7506SOL     OW23416   4.408   0.943   3.245
 7506SOL    HW123417   4.497   0.962   3.287
 7506SOL    HW223418   4.417   0.869   3.178
 7507SOL     OW23419   2.069   0.258   5.486
 7507SOL    HW123420   2.116   0.249   5.574
 7507SOL    HW223421   2.114   0.201   5.417
 7508SOL     OW23422   5.189   5.656   3.181
 7508SOL    HW123423   5.197   5.610   3.093
 7508SOL    HW223424   5.167   5.589   3.252
 7509SOL     OW23425   4.053   4.243   6.184
 7509SOL    HW123426   4.115   4.237   6.263
 7509SOL    HW223427   3.987   4.168   6.187
 7510SOL     OW23428   3.693   3.576   4.661
 7510SOL    HW123429   3.768   3.533   4.610
 7510SOL    HW223430   3.717   3.671   4.681
 7511SOL     OW23431   1.281   1.782   2.656
 7511SOL    HW123432   1.212   1.737   2.600
 7511SOL    HW223433   1.306   1.724   2.733
 7512SOL     OW23434   2.150   3.240   2.425
 7512SOL    HW123435   2.249   3.251   2.424
 7512SOL    HW223436   2.107   3.318   2.381
 7513SOL     OW23437   1.690   3.224   6.541
 7513SOL    HW123438   1.612   3.193   6.487
 7513SOL    HW223439   1.770   3.168   6.520
 7514SOL     OW23440   3.246   5.679   3.384
 7514SOL    HW123441   3.225   5.629   3.468
 7514SOL    HW223442   3.335   5.650   3.349
 7515SOL     OW23443   0.292   4.711   2.854
 7515SOL    HW123444   0.263   4.643   2.786
 7515SOL    HW223445   0.336   4.788   2.808
 7516SOL     OW23446   2.022   2.989   1.511
 7516SOL    HW123447   2.040   2.891   1.501
 7516SOL    HW223448   1.928   3.008   1.485
 7517SOL     OW23449   0.561   5.058   1.938
 7517SOL    HW123450   0.467   5.027   1.948
 7517SOL    HW223451   0.565   5.157   1.954
 7518SOL     OW23452   5.200   4.279   3.012
 7518SOL    HW123453   5.123   4.232   3.054
 7518SOL    HW223454   5.167   4.362   2.967
 7519SOL     OW23455   2.021   6.968   4.596
 7519SOL    HW123456   1.983   6.906   4.665
 7519SOL    HW223457   1.946   7.007   4.542
 7520SOL     OW23458   2.644   6.839   4.000
 7520SOL    HW123459   2.555   6.814   4.036
 7520SOL    HW223460   2.635   6.918   3.938
 7521SOL     OW23461   4.466   3.252   5.469
 7521SOL    HW123462   4.466   3.350   5.451
 7521SOL    HW223463   4.404   3.232   5.545
 7522SOL     OW23464   1.912   6.960   2.406
 7522SOL    HW123465   1.848   0.006   2.418
 7522SOL    HW223466   2.005   6.996   2.398
 7523SOL     OW23467   6.599   6.331   6.177
 7523SOL    HW123468   6.557   6.259   6.123
 7523SOL    HW223469   6.530   6.401   6.198
 7524SOL     OW23470   6.522   1.143   4.619
 7524SOL    HW123471   6.463   1.222   4.604
 7524SOL    HW223472   6.618   1.172   4.615
 7525SOL     OW23473   0.643   0.563   0.886
 7525SOL    HW123474   0.686   0.607   0.964
 7525SOL    HW223475   0.621   0.468   0.909
 7526SOL     OW23476   3.745   3.332   5.686
 7526SOL    HW123477   3.678   3.259   5.698
 7526SOL    HW223478   3.717   3.412   5.740
 7527SOL     OW23479   3.614   6.458   2.167
 7527SOL    HW123480   3.642   6.416   2.081
 7527SOL    HW223481   3.514   6.468   2.169
 7528SOL     OW23482   6.091   3.188   6.799
 7528SOL    HW123483   6.081   3.107   6.857
 7528SOL    HW223484   6.184   3.193   6.763
 7529SOL     OW23485   2.276   0.003   4.725
 7529SOL    HW123486   2.337   6.991   4.658
 7529SOL    HW223487   2.181   7.014   4.700
 7530SOL     OW23488   6.846   2.922   2.837
 7530SOL    HW123489   6.866   2.950   2.931
 7530SOL    HW223490   6.883   2.830   2.821
 7531SOL     OW23491   2.306   1.710   4.367
 7531SOL    HW123492   2.304   1.797   4.416
 7531SOL    HW223493   2.214   1.673   4.360
 7532SOL     OW23494   4.852   4.725   2.069
 7532SOL    HW123495   4.871   4.657   2.140
 7532SOL    HW223496   4.820   4.680   1.986
 7533SOL     OW23497   3.504   0.793   4.681
 7533SOL    HW123498   3.594   0.789   4.724
 7533SOL    HW223499   3.454   0.872   4.716
 7534SOL     OW23500   4.823   6.968   3.820
 7534SOL    HW123501   4.859   7.014   3.901
 7534SOL    HW223502   4.855   7.015   3.738
 7535SOL     OW23503   3.114   4.815   0.445
 7535SOL    HW123504   3.059   4.824   0.361
 7535SOL    HW223505   3.186   4.748   0.430
 7536SOL     OW23506   4.633   5.862   6.044
 7536SOL    HW123507   4.698   5.920   5.994
 7536SOL    HW223508   4.606   5.785   5.986
 7537SOL     OW23509   1.922   4.699   5.323
 7537SOL    HW123510   1.833   4.721   5.282
 7537SOL    HW223511   1.937   4.601   5.320
 7538SOL     OW23512   3.497   4.123   4.964
 7538SOL    HW123513   3.408   4.162   4.987
 7538SOL    HW223514   3.547   4.102   5.048
 7539SOL     OW23515   0.751   2.275   4.794
 7539SOL    HW123516   0.673   2.214   4.809
 7539SOL    HW223517   0.788   2.260   4.703
 7540SOL     OW23518   2.287   1.113   0.475
 7540SOL    HW123519   2.337   1.197   0.452
 7540SOL    HW223520   2.200   1.136   0.517
 7541SOL     OW23521   6.737   2.610   5.333
 7541SOL    HW123522   6.823   2.636   5.289
 7541SOL    HW223523   6.693   2.538   5.280
 7542SOL     OW23524   1.745   0.410   5.383
 7542SOL    HW123525   1.841   0.435   5.374
 7542SOL    HW223526   1.725   0.330   5.326
 7543SOL     OW23527   2.679   2.511   0.745
 7543SOL    HW123528   2.609   2.558   0.799
 7543SOL    HW223529   2.770   2.534   0.781
 7544SOL     OW23530   1.446   2.014   2.553
 7544SOL    HW123531   1.429   2.078   2.478
 7544SOL    HW223532   1.375   1.944   2.555
 7545SOL     OW23533   4.051   0.469   3.546
 7545SOL    HW123534   4.052   0.504   3.452
 7545SOL    HW223535   3.978   0.515   3.597
 7546SOL     OW23536   5.270   0.137   5.519
 7546SOL    HW123537   5.190   0.128   5.460
 7546SOL    HW223538   5.340   0.072   5.490
 7547SOL     OW23539   2.954   0.434   0.219
 7547SOL    HW123540   2.872   0.425   0.276
 7547SOL    HW223541   2.928   0.464   0.127
 7548SOL     OW23542   1.877   3.218   1.397
 7548SOL    HW123543   1.835   3.129   1.381
 7548SOL    HW223544   1.839   3.259   1.480
 7549SOL     OW23545   5.608   0.294   2.407
 7549SOL    HW123546   5.589   0.374   2.351
 7549SOL    HW223547   5.593   0.211   2.354
 7550SOL     OW23548   1.251   5.626   0.530
 7550SOL    HW123549   1.289   5.535   0.547
 7550SOL    HW223550   1.288   5.691   0.596
 7551SOL     OW23551   5.655   3.619   6.579
 7551SOL    HW123552   5.753   3.632   6.596
 7551SOL    HW223553   5.642   3.549   6.508
 7552SOL     OW23554   3.784   5.782   3.996
 7552SOL    HW123555   3.827   5.783   3.906
 7552SOL    HW223556   3.844   5.735   4.062
 7553SOL     OW23557   4.074   3.917   5.832
 7553SOL    HW123558   4.131   3.845   5.793
 7553SOL    HW223559   3.997   3.876   5.881
 7554SOL     OW23560   6.983   1.388   1.193
 7554SOL    HW123561   6.945   1.468   1.145
 7554SOL    HW223562   6.941   1.381   1.283
 7555SOL     OW23563   1.643   5.938   5.795
 7555SOL    HW123564   1.553   5.908   5.826
 7555SOL    HW223565   1.714   5.898   5.853
 7556SOL     OW23566   6.752   4.082   3.749
 7556SOL    HW123567   6.768   4.028   3.831
 7556SOL    HW223568   6.694   4.031   3.686
 7557SOL     OW23569   4.101   3.876   0.429
 7557SOL    HW123570   4.069   3.819   0.353
 7557SOL    HW223571   4.032   3.878   0.501
 7558SOL     OW23572   1.756   2.805   3.371
 7558SOL    HW123573   1.827   2.740   3.344
 7558SOL    HW223574   1.797   2.880   3.423
 7559SOL     OW23575   0.474   4.723   0.138
 7559SOL    HW123576   0.573   4.716   0.129
 7559SOL    HW223577   0.440   4.798   0.082
 7560SOL     OW23578   4.583   0.550   5.291
 7560SOL    HW123579   4.517   0.478   5.313
 7560SOL    HW223580   4.676   0.518   5.309
 7561SOL     OW23581   0.535   4.105   0.297
 7561SOL    HW123582   0.536   4.063   0.388
 7561SOL    HW223583   0.449   4.083   0.251
 7562SOL     OW23584   4.717   6.262   4.526
 7562SOL    HW123585   4.754   6.180   4.569
 7562SOL    HW223586   4.625   6.280   4.562
 7563SOL     OW23587   2.408   1.211   4.122
 7563SOL    HW123588   2.500   1.236   4.152
 7563SOL    HW223589   2.413   1.142   4.050
 7564SOL     OW23590   6.204   5.544   4.171
 7564SOL    HW123591   6.198   5.457   4.221
 7564SOL    HW223592   6.113   5.571   4.139
 7565SOL     OW23593   4.753   5.693   6.884
 7565SOL    HW123594   4.809   5.764   6.926
 7565SOL    HW223595   4.788   5.673   6.792
 7566SOL     OW23596   1.539   5.801   4.435
 7566SOL    HW123597   1.546   5.811   4.534
 7566SOL    HW223598   1.599   5.867   4.390
 7567SOL     OW23599   2.096   3.065   0.474
 7567SOL    HW123600   2.009   3.084   0.430
 7567SOL    HW223601   2.167   3.053   0.404
 7568SOL     OW23602   3.940   5.005   2.793
 7568SOL    HW123603   3.946   4.907   2.773
 7568SOL    HW223604   3.979   5.057   2.717
 7569SOL     OW23605   3.800   0.073   2.366
 7569SOL    HW123606   3.831   0.157   2.411
 7569SOL    HW223607   3.878   0.027   2.324
 7570SOL     OW23608   5.748   4.896   4.553
 7570SOL    HW123609   5.821   4.949   4.511
 7570SOL    HW223610   5.780   4.803   4.570
 7571SOL     OW23611   6.010   3.872   0.529
 7571SOL    HW123612   6.079   3.804   0.555
 7571SOL    HW223613   5.974   3.848   0.439
 7572SOL     OW23614   6.603   1.575   3.150
 7572SOL    HW123615   6.648   1.633   3.217
 7572SOL    HW223616   6.592   1.483   3.187
 7573SOL     OW23617   3.728   5.111   4.805
 7573SOL    HW123618   3.682   5.127   4.718
 7573SOL    HW223619   3.674   5.048   4.860
 7574SOL     OW23620   4.689   6.283   1.946
 7574SOL    HW123621   4.647   6.306   2.034
 7574SOL    HW223622   4.779   6.325   1.940
 7575SOL     OW23623   4.912   2.942   5.014
 7575SOL    HW123624   4.953   3.016   4.961
 7575SOL    HW223625   4.867   2.980   5.095
 7576SOL     OW23626   6.944   3.496   1.851
 7576SOL    HW123627   6.965   3.403   1.820
 7576SOL    HW223628   6.845   3.510   1.849
 7577SOL     OW23629   4.455   1.580   4.494
 7577SOL    HW123630   4.507   1.632   4.426
 7577SOL    HW223631   4.423   1.495   4.453
 7578SOL     OW23632   2.479   5.553   4.858
 7578SOL    HW123633   2.568   5.514   4.880
 7578SOL    HW223634   2.412   5.479   4.848
 7579SOL     OW23635   4.459   2.504   4.006
 7579SOL    HW123636   4.494   2.468   4.093
 7579SOL    HW223637   4.456   2.429   3.939
 7580SOL     OW23638   1.990   3.517   2.078
 7580SOL    HW123639   2.081   3.526   2.038
 7580SOL    HW223640   1.930   3.587   2.041
 7581SOL     OW23641   5.251   0.578   0.857
 7581SOL    HW123642   5.345   0.589   0.889
 7581SOL    HW223643   5.251   0.533   0.767
 7582SOL     OW23644   3.640   2.372   1.057
 7582SOL    HW123645   3.738   2.377   1.080
 7582SOL    HW223646   3.617   2.445   0.993
 7583SOL     OW23647   6.856   4.299   3.326
 7583SOL    HW123648   6.776   4.279   3.269
 7583SOL    HW223649   6.826   4.331   3.416
 7584SOL     OW23650   2.283   1.802   2.023
 7584SOL    HW123651   2.290   1.817   2.122
 7584SOL    HW223652   2.333   1.873   1.975
 7585SOL     OW23653   2.103   4.405   6.723
 7585SOL    HW123654   2.066   4.367   6.639
 7585SOL    HW223655   2.189   4.453   6.703
 7586SOL     OW23656   1.635   2.143   3.103
 7586SOL    HW123657   1.708   2.177   3.162
 7586SOL    HW223658   1.592   2.219   3.055
 7587SOL     OW23659   2.443   1.290   5.666
 7587SOL    HW123660   2.542   1.277   5.656
 7587SOL    HW223661   2.423   1.388   5.672
 7588SOL     OW23662   0.573   4.277   1.773
 7588SOL    HW123663   0.631   4.358   1.786
 7588SOL    HW223664   0.617   4.197   1.813
 7589SOL     OW23665   4.933   6.183   6.294
 7589SOL    HW123666   4.951   6.095   6.337
 7589SOL    HW223667   4.933   6.172   6.194
 7590SOL     OW23668   1.514   0.839   5.809
 7590SOL    HW123669   1.478   0.923   5.849
 7590SOL    HW223670   1.440   0.789   5.764
 7591SOL     OW23671   6.343   5.829   6.879
 7591SOL    HW123672   6.326   5.853   6.784
 7591SOL    HW223673   6.288   5.887   6.939
 7592SOL     OW23674   4.437   5.220   6.200
 7592SOL    HW123675   4.357   5.198   6.145
 7592SOL    HW223676   4.478   5.136   6.235
 7593SOL     OW23677   5.853   4.106   0.422
 7593SOL    HW123678   5.773   4.154   0.456
 7593SOL    HW223679   5.858   4.016   0.465
 7594SOL     OW23680   0.998   6.923   3.905
 7594SOL    HW123681   1.029   6.836   3.943
 7594SOL    HW223682   1.066   6.994   3.925
 7595SOL     OW23683   6.466   2.844   6.527
 7595SOL    HW123684   6.424   2.847   6.618
 7595SOL    HW223685   6.532   2.917   6.517
 7596SOL     OW23686   4.867   5.520   2.210
 7596SOL    HW123687   4.783   5.557   2.172
 7596SOL    HW223688   4.848   5.435   2.259
 7597SOL     OW23689   2.135   5.662   1.658
 7597SOL    HW123690   2.143   5.678   1.756
 7597SOL    HW223691   2.156   5.746   1.608
 7598SOL     OW23692   6.494   1.122   2.601
 7598SOL    HW123693   6.437   1.079   2.532
 7598SOL    HW223694   6.482   1.222   2.598
 7599SOL     OW23695   5.872   2.897   2.020
 7599SOL    HW123696   5.784   2.878   1.978
 7599SOL    HW223697   5.938   2.920   1.948
 7600SOL     OW23698   2.534   2.586   3.286
 7600SOL    HW123699   2.517   2.488   3.275
 7600SOL    HW223700   2.624   2.609   3.247
 7601SOL     OW23701   2.310   0.678   5.639
 7601SOL    HW123702   2.326   0.594   5.689
 7601SOL    HW223703   2.334   0.664   5.543
 7602SOL     OW23704   2.167   3.431   5.312
 7602SOL    HW123705   2.258   3.391   5.306
 7602SOL    HW223706   2.098   3.359   5.307
 7603SOL     OW23707   6.627   1.160   2.201
 7603SOL    HW123708   6.681   1.183   2.121
 7603SOL    HW223709   6.672   1.194   2.283
 7604SOL     OW23710   5.074   5.507   6.803
 7604SOL    HW123711   5.118   5.488   6.715
 7604SOL    HW223712   4.983   5.467   6.804
 7605SOL     OW23713   5.843   3.707   6.300
 7605SOL    HW123714   5.797   3.789   6.335
 7605SOL    HW223715   5.784   3.628   6.312
 7606SOL     OW23716   5.705   1.966   3.823
 7606SOL    HW123717   5.690   1.908   3.903
 7606SOL    HW223718   5.621   1.970   3.768
 7607SOL     OW23719   5.019   0.029   6.012
 7607SOL    HW123720   4.993   0.105   5.953
 7607SOL    HW223721   4.947   0.013   6.079
 7608SOL     OW23722   3.357   3.412   4.731
 7608SOL    HW123723   3.305   3.365   4.802
 7608SOL    HW223724   3.297   3.473   4.680
 7609SOL     OW23725   1.625   2.952   3.186
 7609SOL    HW123726   1.616   2.888   3.110
 7609SOL    HW223727   1.690   2.916   3.252
 7610SOL     OW23728   5.609   0.458   2.163
 7610SOL    HW123729   5.577   0.449   2.069
 7610SOL    HW223730   5.534   0.489   2.222
 7611SOL     OW23731   2.006   1.993   1.794
 7611SOL    HW123732   2.073   1.931   1.753
 7611SOL    HW223733   1.939   1.939   1.846
 7612SOL     OW23734   4.402   2.114   2.941
 7612SOL    HW123735   4.356   2.030   2.913
 7612SOL    HW223736   4.468   2.140   2.870
 7613SOL     OW23737   5.767   0.443   2.627
 7613SOL    HW123738   5.765   0.368   2.561
 7613SOL    HW223739   5.703   0.514   2.598
 7614SOL     OW23740   4.487   1.034   0.317
 7614SOL    HW123741   4.434   1.114   0.344
 7614SOL    HW223742   4.509   0.979   0.398
 7615SOL     OW23743   3.765   4.744   5.768
 7615SOL    HW123744   3.718   4.819   5.722
 7615SOL    HW223745   3.715   4.659   5.751
 7616SOL     OW23746   0.329   5.261   2.941
 7616SOL    HW123747   0.349   5.323   2.865
 7616SOL    HW223748   0.236   5.277   2.974
 7617SOL     OW23749   3.210   5.924   3.247
 7617SOL    HW123750   3.203   5.842   3.304
 7617SOL    HW223751   3.150   5.915   3.168
 7618SOL     OW23752   2.297   1.861   0.473
 7618SOL    HW123753   2.250   1.813   0.399
 7618SOL    HW223754   2.338   1.945   0.437
 7619SOL     OW23755   5.980   3.269   6.296
 7619SOL    HW123756   5.975   3.268   6.196
 7619SOL    HW223757   6.003   3.178   6.330
 7620SOL     OW23758   3.107   6.107   1.405
 7620SOL    HW123759   3.049   6.059   1.470
 7620SOL    HW223760   3.203   6.093   1.428
 7621SOL     OW23761   1.966   2.455   0.577
 7621SOL    HW123762   1.987   2.552   0.584
 7621SOL    HW223763   1.967   2.414   0.669
 7622SOL     OW23764   4.536   2.138   1.522
 7622SOL    HW123765   4.458   2.196   1.545
 7622SOL    HW223766   4.538   2.123   1.423
 7623SOL     OW23767   6.434   6.188   5.182
 7623SOL    HW123768   6.341   6.156   5.201
 7623SOL    HW223769   6.479   6.125   5.118
 7624SOL     OW23770   0.299   0.570   4.762
 7624SOL    HW123771   0.374   0.635   4.756
 7624SOL    HW223772   0.275   0.536   4.671
 7625SOL     OW23773   3.269   5.649   0.910
 7625SOL    HW123774   3.366   5.666   0.893
 7625SOL    HW223775   3.216   5.673   0.828
 7626SOL     OW23776   2.668   4.236   5.453
 7626SOL    HW123777   2.684   4.316   5.396
 7626SOL    HW223778   2.693   4.256   5.547
 7627SOL     OW23779   7.021   1.006   0.817
 7627SOL    HW123780   0.073   1.061   0.802
 7627SOL    HW223781   0.017   0.919   0.860
 7628SOL     OW23782   4.907   1.589   1.385
 7628SOL    HW123783   4.977   1.547   1.443
 7628SOL    HW223784   4.916   1.555   1.291
 7629SOL     OW23785   6.252   5.906   3.363
 7629SOL    HW123786   6.231   5.975   3.293
 7629SOL    HW223787   6.311   5.947   3.433
 7630SOL     OW23788   6.536   1.553   2.132
 7630SOL    HW123789   6.480   1.636   2.125
 7630SOL    HW223790   6.612   1.570   2.194
 7631SOL     OW23791   1.213   0.767   3.598
 7631SOL    HW123792   1.211   0.686   3.657
 7631SOL    HW223793   1.271   0.837   3.639
 7632SOL     OW23794   4.187   0.544   5.094
 7632SOL    HW123795   4.134   0.509   5.017
 7632SOL    HW223796   4.142   0.517   5.180
 7633SOL     OW23797   6.103   3.962   6.831
 7633SOL    HW123798   6.134   3.899   6.760
 7633SOL    HW223799   6.007   3.944   6.852
 7634SOL     OW23800   0.986   2.357   2.359
 7634SOL    HW123801   0.933   2.387   2.279
 7634SOL    HW223802   0.937   2.382   2.442
 7635SOL     OW23803   2.771   5.054   6.099
 7635SOL    HW123804   2.819   4.995   6.165
 7635SOL    HW223805   2.756   5.144   6.139
 7636SOL     OW23806   1.332   0.300   3.513
 7636SOL    HW123807   1.321   0.234   3.439
 7636SOL    HW223808   1.245   0.347   3.529
 7637SOL     OW23809   2.871   6.351   4.000
 7637SOL    HW123810   2.877   6.451   3.998
 7637SOL    HW223811   2.838   6.322   4.089
 7638SOL     OW23812   4.197   4.612   1.804
 7638SOL    HW123813   4.172   4.557   1.724
 7638SOL    HW223814   4.281   4.577   1.844
 7639SOL     OW23815   0.368   1.876   4.340
 7639SOL    HW123816   0.395   1.845   4.431
 7639SOL    HW223817   0.429   1.835   4.272
 7640SOL     OW23818   2.503   3.062   5.792
 7640SOL    HW123819   2.455   3.034   5.709
 7640SOL    HW223820   2.479   3.156   5.815
 7641SOL     OW23821   6.208   3.174   3.074
 7641SOL    HW123822   6.164   3.264   3.073
 7641SOL    HW223823   6.142   3.104   3.101
 7642SOL     OW23824   1.627   1.842   2.683
 7642SOL    HW123825   1.693   1.810   2.616
 7642SOL    HW223826   1.550   1.886   2.636
 7643SOL     OW23827   5.635   3.607   3.460
 7643SOL    HW123828   5.573   3.668   3.411
 7643SOL    HW223829   5.716   3.658   3.488
 7644SOL     OW23830   6.609   3.353   3.753
 7644SOL    HW123831   6.534   3.403   3.711
 7644SOL    HW223832   6.578   3.262   3.781
 7645SOL     OW23833   3.275   2.703   0.386
 7645SOL    HW123834   3.181   2.673   0.400
 7645SOL    HW223835   3.298   2.773   0.453
 7646SOL     OW23836   0.780   6.960   2.018
 7646SOL    HW123837   0.681   6.974   2.014
 7646SOL    HW223838   0.813   6.926   1.930
 7647SOL     OW23839   2.088   5.009   0.142
 7647SOL    HW123840   2.170   5.001   0.200
 7647SOL    HW223841   2.074   5.105   0.119
 7648SOL     OW23842   3.102   1.153   3.733
 7648SOL    HW123843   3.189   1.170   3.779
 7648SOL    HW223844   3.119   1.110   3.645
 7649SOL     OW23845   3.017   1.748   0.981
 7649SOL    HW123846   2.964   1.811   1.037
 7649SOL    HW223847   3.071   1.799   0.914
 7650SOL     OW23848   6.379   4.876   0.457
 7650SOL    HW123849   6.450   4.881   0.527
 7650SOL    HW223850   6.399   4.801   0.394
 7651SOL     OW23851   5.444   2.043   6.181
 7651SOL    HW123852   5.381   2.026   6.106
 7651SOL    HW223853   5.399   2.100   6.250
 7652SOL     OW23854   1.209   3.397   3.048
 7652SOL    HW123855   1.306   3.403   3.071
 7652SOL    HW223856   1.155   3.385   3.131
 7653SOL     OW23857   4.822   2.580   2.138
 7653SOL    HW123858   4.765   2.604   2.059
 7653SOL    HW223859   4.785   2.622   2.220
 7654SOL     OW23860   5.260   3.901   4.649
 7654SOL    HW123861   5.206   3.922   4.567
 7654SOL    HW223862   5.316   3.979   4.673
 7655SOL     OW23863   5.048   5.031   5.513
 7655SOL    HW123864   5.048   4.995   5.420
 7655SOL    HW223865   4.964   5.082   5.530
 7656SOL     OW23866   0.931   0.489   4.932
 7656SOL    HW123867   0.891   0.398   4.947
 7656SOL    HW223868   1.026   0.479   4.903
 7657SOL     OW23869   4.278   2.059   3.522
 7657SOL    HW123870   4.277   2.073   3.423
 7657SOL    HW223871   4.206   1.995   3.548
 7658SOL     OW23872   4.274   0.428   5.838
 7658SOL    HW123873   4.223   0.508   5.872
 7658SOL    HW223874   4.209   0.356   5.812
 7659SOL     OW23875   5.303   6.209   6.529
 7659SOL    HW123876   5.378   6.143   6.529
 7659SOL    HW223877   5.340   6.302   6.538
 7660SOL     OW23878   5.432   5.130   3.700
 7660SOL    HW123879   5.380   5.139   3.785
 7660SOL    HW223880   5.372   5.092   3.629
 7661SOL     OW23881   6.321   3.509   4.397
 7661SOL    HW123882   6.274   3.508   4.309
 7661SOL    HW223883   6.258   3.535   4.469
 7662SOL     OW23884   6.239   5.292   3.428
 7662SOL    HW123885   6.277   5.267   3.339
 7662SOL    HW223886   6.277   5.380   3.457
 7663SOL     OW23887   0.251   6.208   0.508
 7663SOL    HW123888   0.280   6.300   0.533
 7663SOL    HW223889   0.207   6.164   0.587
 7664SOL     OW23890   3.542   5.550   5.171
 7664SOL    HW123891   3.479   5.616   5.130
 7664SOL    HW223892   3.630   5.554   5.124
 7665SOL     OW23893   2.449   5.798   3.842
 7665SOL    HW123894   2.378   5.795   3.912
 7665SOL    HW223895   2.495   5.709   3.837
 7666SOL     OW23896   1.993   0.621   2.057
 7666SOL    HW123897   2.021   0.538   2.106
 7666SOL    HW223898   2.074   0.666   2.020
 7667SOL     OW23899   5.832   6.757   5.358
 7667SOL    HW123900   5.743   6.744   5.402
 7667SOL    HW223901   5.867   6.848   5.379
 7668SOL     OW23902   2.909   3.856   1.816
 7668SOL    HW123903   2.875   3.779   1.761
 7668SOL    HW223904   2.904   3.940   1.763
 7669SOL     OW23905   4.468   6.588   5.082
 7669SOL    HW123906   4.530   6.522   5.038
 7669SOL    HW223907   4.374   6.570   5.053
 7670SOL     OW23908   1.563   5.517   0.397
 7670SOL    HW123909   1.586   5.541   0.491
 7670SOL    HW223910   1.563   5.417   0.387
 7671SOL     OW23911   5.296   1.999   4.702
 7671SOL    HW123912   5.202   2.032   4.717
 7671SOL    HW223913   5.324   1.941   4.779
 7672SOL     OW23914   6.547   0.367   2.064
 7672SOL    HW123915   6.546   0.459   2.103
 7672SOL    HW223916   6.636   0.325   2.079
 7673SOL     OW23917   0.410   3.765   0.385
 7673SOL    HW123918   0.459   3.722   0.310
 7673SOL    HW223919   0.449   3.856   0.403
 7674SOL     OW23920   5.912   0.612   5.491
 7674SOL    HW123921   5.880   0.526   5.451
 7674SOL    HW223922   5.836   0.678   5.492
 7675SOL     OW23923   5.022   0.024   3.198
 7675SOL    HW123924   5.069   0.094   3.142
 7675SOL    HW223925   5.023   0.052   3.294
 7676SOL     OW23926   1.359   0.550   1.217
 7676SOL    HW123927   1.368   0.504   1.128
 7676SOL    HW223928   1.437   0.611   1.230
 7677SOL     OW23929   1.572   2.826   2.949
 7677SOL    HW123930   1.481   2.844   2.985
 7677SOL    HW223931   1.569   2.825   2.849
 7678SOL     OW23932   5.354   6.521   5.971
 7678SOL    HW123933   5.451   6.525   5.993
 7678SOL    HW223934   5.301   6.509   6.054
 7679SOL     OW23935   1.385   5.291   4.503
 7679SOL    HW123936   1.449   5.340   4.562
 7679SOL    HW223937   1.336   5.357   4.446
 7680SOL     OW23938   5.104   0.723   0.017
 7680SOL    HW123939   5.047   0.661   0.070
 7680SOL    HW223940   5.097   0.815   0.056
 7681SOL     OW23941   2.861   2.225   6.524
 7681SOL    HW123942   2.769   2.258   6.505
 7681SOL    HW223943   2.914   2.223   6.439
 7682SOL     OW23944   2.904   0.099   0.525
 7682SOL    HW123945   2.902   0.002   0.550
 7682SOL    HW223946   2.990   0.140   0.557
 7683SOL     OW23947   6.713   2.950   3.359
 7683SOL    HW123948   6.740   2.909   3.447
 7683SOL    HW223949   6.684   2.877   3.297
 7684SOL     OW23950   4.030   2.153   5.556
 7684SOL    HW123951   4.045   2.229   5.492
 7684SOL    HW223952   3.933   2.131   5.560
 7685SOL     OW23953   4.132   3.919   1.187
 7685SOL    HW123954   4.038   3.928   1.154
 7685SOL    HW223955   4.172   4.009   1.201
 7686SOL     OW23956   3.297   1.106   3.044
 7686SOL    HW123957   3.211   1.123   3.091
 7686SOL    HW223958   3.347   1.192   3.033
 7687SOL     OW23959   4.705   4.083   5.836
 7687SOL    HW123960   4.662   4.103   5.924
 7687SOL    HW223961   4.637   4.043   5.774
 7688SOL     OW23962   6.377   0.532   3.225
 7688SOL    HW123963   6.455   0.495   3.277
 7688SOL    HW223964   6.305   0.462   3.220
 7689SOL     OW23965   3.579   6.003   4.641
 7689SOL    HW123966   3.516   5.999   4.563
 7689SOL    HW223967   3.626   6.091   4.641
 7690SOL     OW23968   0.746   5.387   2.435
 7690SOL    HW123969   0.684   5.397   2.512
 7690SOL    HW223970   0.794   5.473   2.418
 7691SOL     OW23971   6.168   4.081   5.850
 7691SOL    HW123972   6.204   4.155   5.794
 7691SOL    HW223973   6.165   4.110   5.946
 7692SOL     OW23974   1.810   6.625   1.204
 7692SOL    HW123975   1.838   6.720   1.193
 7692SOL    HW223976   1.825   6.596   1.299
 7693SOL     OW23977   5.459   1.772   0.688
 7693SOL    HW123978   5.497   1.734   0.773
 7693SOL    HW223979   5.376   1.823   0.709
 7694SOL     OW23980   5.545   5.076   3.326
 7694SOL    HW123981   5.574   5.167   3.356
 7694SOL    HW223982   5.622   5.013   3.331
 7695SOL     OW23983   4.879   0.419   6.705
 7695SOL    HW123984   4.796   0.449   6.752
 7695SOL    HW223985   4.943   0.380   6.772
 7696SOL     OW23986   1.260   4.153   5.666
 7696SOL    HW123987   1.331   4.207   5.621
 7696SOL    HW223988   1.253   4.064   5.621
 7697SOL     OW23989   4.644   1.130   2.044
 7697SOL    HW123990   4.667   1.048   1.991
 7697SOL    HW223991   4.601   1.198   1.984
 7698SOL     OW23992   6.982   2.686   5.578
 7698SOL    HW123993   6.919   2.703   5.503
 7698SOL    HW223994   6.931   2.650   5.657
 7699SOL     OW23995   3.203   3.956   0.587
 7699SOL    HW123996   3.252   4.043   0.583
 7699SOL    HW223997   3.107   3.973   0.610
 7700SOL     OW23998   5.476   6.619   4.008
 7700SOL    HW123999   5.552   6.683   3.996
 7700SOL    HW224000   5.472   6.558   3.929
 7701SOL     OW24001   6.673   2.305   5.287
 7701SOL    HW124002   6.598   2.256   5.244
 7701SOL    HW224003   6.753   2.246   5.292
 7702SOL     OW24004   1.706   6.307   6.617
 7702SOL    HW124005   1.757   6.373   6.672
 7702SOL    HW224006   1.750   6.217   6.623
 7703SOL     OW24007   0.450   2.419   5.726
 7703SOL    HW124008   0.480   2.391   5.634
 7703SOL    HW224009   0.525   2.465   5.773
 7704SOL     OW24010   2.631   3.996   1.337
 7704SOL    HW124011   2.701   3.965   1.272
 7704SOL    HW224012   2.542   3.962   1.309
 7705SOL     OW24013   3.917   3.976   4.859
 7705SOL    HW124014   3.873   4.064   4.874
 7705SOL    HW224015   3.973   3.952   4.938
 7706SOL     OW24016   6.400   0.634   5.655
 7706SOL    HW124017   6.491   0.600   5.634
 7706SOL    HW224018   6.336   0.603   5.585
 7707SOL     OW24019   6.880   5.919   6.780
 7707SOL    HW124020   6.788   5.880   6.787
 7707SOL    HW224021   6.936   5.884   6.854
 7708SOL     OW24022   4.846   1.235   5.126
 7708SOL    HW124023   4.836   1.325   5.167
 7708SOL    HW224024   4.850   1.166   5.198
 7709SOL     OW24025   3.940   2.335   1.685
 7709SOL    HW124026   3.861   2.330   1.746
 7709SOL    HW224027   3.946   2.427   1.647
 7710SOL     OW24028   2.612   2.071   6.922
 7710SOL    HW124029   2.680   2.116   6.865
 7710SOL    HW224030   2.631   2.091   7.018
 7711SOL     OW24031   4.337   5.593   4.501
 7711SOL    HW124032   4.380   5.661   4.442
 7711SOL    HW224033   4.404   5.561   4.568
 7712SOL     OW24034   5.058   4.624   6.619
 7712SOL    HW124035   5.046   4.623   6.718
 7712SOL    HW224036   5.117   4.548   6.592
 7713SOL     OW24037   0.331   5.769   6.253
 7713SOL    HW124038   0.265   5.844   6.249
 7713SOL    HW224039   0.353   5.749   6.348
 7714SOL     OW24040   5.057   4.114   4.828
 7714SOL    HW124041   4.978   4.120   4.889
 7714SOL    HW224042   5.076   4.019   4.805
 7715SOL     OW24043   3.895   2.081   1.910
 7715SOL    HW124044   3.892   2.104   1.812
 7715SOL    HW224045   3.823   2.132   1.958
 7716SOL     OW24046   4.222   2.322   4.426
 7716SOL    HW124047   4.189   2.416   4.436
 7716SOL    HW224048   4.246   2.285   4.516
 7717SOL     OW24049   3.099   0.241   6.598
 7717SOL    HW124050   3.154   0.298   6.659
 7717SOL    HW224051   3.018   0.291   6.569
 7718SOL     OW24052   2.571   6.370   3.936
 7718SOL    HW124053   2.506   6.374   4.012
 7718SOL    HW224054   2.662   6.347   3.970
 7719SOL     OW24055   5.886   2.690   5.397
 7719SOL    HW124056   5.862   2.653   5.307
 7719SOL    HW224057   5.830   2.645   5.467
 7720SOL     OW24058   5.917   6.162   1.791
 7720SOL    HW124059   5.983   6.223   1.745
 7720SOL    HW224060   5.962   6.077   1.815
 7721SOL     OW24061   0.938   4.293   2.843
 7721SOL    HW124062   1.013   4.350   2.811
 7721SOL    HW224063   0.857   4.308   2.785
 7722SOL     OW24064   0.888   6.175   4.324
 7722SOL    HW124065   0.827   6.226   4.384
 7722SOL    HW224066   0.844   6.159   4.236
 7723SOL     OW24067   6.700   1.607   0.404
 7723SOL    HW124068   6.722   1.597   0.501
 7723SOL    HW224069   6.648   1.528   0.372
 7724SOL     OW24070   2.500   6.329   6.831
 7724SOL    HW124071   2.529   6.265   6.902
 7724SOL    HW224072   2.405   6.357   6.849
 7725SOL     OW24073   4.977   3.605   4.358
 7725SOL    HW124074   5.051   3.607   4.426
 7725SOL    HW224075   4.944   3.511   4.348
 7726SOL     OW24076   5.199   4.749   3.200
 7726SOL    HW124077   5.112   4.703   3.216
 7726SOL    HW224078   5.183   4.847   3.190
 7727SOL     OW24079   5.677   3.473   2.356
 7727SOL    HW124080   5.648   3.387   2.398
 7727SOL    HW224081   5.604   3.509   2.299
 7728SOL     OW24082   2.079   2.732   2.967
 7728SOL    HW124083   2.167   2.752   3.011
 7728SOL    HW224084   2.013   2.804   2.990
 7729SOL     OW24085   4.972   2.271   6.739
 7729SOL    HW124086   5.069   2.290   6.755
 7729SOL    HW224087   4.925   2.357   6.716
 7730SOL     OW24088   4.637   0.132   2.187
 7730SOL    HW124089   4.608   0.087   2.271
 7730SOL    HW224090   4.678   0.065   2.126
 7731SOL     OW24091   0.042   1.572   4.148
 7731SOL    HW124092   0.037   1.664   4.188
 7731SOL    HW224093   6.996   1.517   4.184
 7732SOL     OW24094   4.034   4.935   0.784
 7732SOL    HW124095   3.954   4.956   0.728
 7732SOL    HW224096   4.114   4.928   0.725
 7733SOL     OW24097   2.868   6.036   0.460
 7733SOL    HW124098   2.844   6.037   0.363
 7733SOL    HW224099   2.891   5.943   0.488
 7734SOL     OW24100   1.707   3.032   2.173
 7734SOL    HW124101   1.634   2.964   2.169
 7734SOL    HW224102   1.787   2.992   2.216
 7735SOL     OW24103   5.367   4.730   0.800
 7735SOL    HW124104   5.353   4.684   0.888
 7735SOL    HW224105   5.457   4.707   0.764
 7736SOL     OW24106   6.036   4.377   6.421
 7736SOL    HW124107   6.017   4.389   6.324
 7736SOL    HW224108   5.995   4.452   6.473
 7737SOL     OW24109   4.472   2.532   0.277
 7737SOL    HW124110   4.459   2.534   0.376
 7737SOL    HW224111   4.430   2.613   0.236
 7738SOL     OW24112   2.196   5.085   6.727
 7738SOL    HW124113   2.138   5.113   6.803
 7738SOL    HW224114   2.141   5.040   6.657
 7739SOL     OW24115   5.184   3.925   2.672
 7739SOL    HW124116   5.272   3.878   2.660
 7739SOL    HW224117   5.166   3.983   2.592
 7740SOL     OW24118   0.299   6.302   3.619
 7740SOL    HW124119   0.378   6.338   3.668
 7740SOL    HW224120   0.259   6.227   3.670
 7741SOL     OW24121   3.173   5.549   4.368
 7741SOL    HW124122   3.110   5.476   4.396
 7741SOL    HW224123   3.184   5.547   4.268
 7742SOL     OW24124   0.045   0.617   4.263
 7742SOL    HW124125   0.026   0.521   4.284
 7742SOL    HW224126   0.110   0.622   4.186
 7743SOL     OW24127   4.854   3.210   2.305
 7743SOL    HW124128   4.778   3.231   2.366
 7743SOL    HW224129   4.820   3.163   2.224
 7744SOL     OW24130   0.248   6.324   4.822
 7744SOL    HW124131   0.275   6.406   4.771
 7744SOL    HW224132   0.149   6.312   4.816
 7745SOL     OW24133   5.160   3.419   5.464
 7745SOL    HW124134   5.164   3.515   5.438
 7745SOL    HW224135   5.188   3.409   5.559
 7746SOL     OW24136   2.072   0.707   6.744
 7746SOL    HW124137   2.040   0.716   6.838
 7746SOL    HW224138   2.050   0.616   6.709
 7747SOL     OW24139   4.745   5.138   0.414
 7747SOL    HW124140   4.802   5.075   0.361
 7747SOL    HW224141   4.757   5.119   0.512
 7748SOL     OW24142   2.306   3.754   6.644
 7748SOL    HW124143   2.273   3.797   6.560
 7748SOL    HW224144   2.239   3.686   6.674
 7749SOL     OW24145   5.997   2.997   6.350
 7749SOL    HW124146   5.968   3.023   6.442
 7749SOL    HW224147   6.089   2.957   6.355
 7750SOL     OW24148   4.723   5.499   2.614
 7750SOL    HW124149   4.808   5.515   2.664
 7750SOL    HW224150   4.661   5.576   2.629
 7751SOL     OW24151   0.774   2.716   1.000
 7751SOL    HW124152   0.696   2.665   1.036
 7751SOL    HW224153   0.835   2.742   1.075
 7752SOL     OW24154   4.062   1.202   3.027
 7752SOL    HW124155   4.157   1.172   3.031
 7752SOL    HW224156   4.022   1.175   2.940
 7753SOL     OW24157   4.003   0.819   5.292
 7753SOL    HW124158   3.933   0.786   5.229
 7753SOL    HW224159   3.975   0.801   5.386
 7754SOL     OW24160   5.051   5.536   1.528
 7754SOL    HW124161   4.979   5.562   1.463
 7754SOL    HW224162   5.138   5.525   1.478
 7755SOL     OW24163   0.090   4.726   5.695
 7755SOL    HW124164   0.138   4.813   5.706
 7755SOL    HW224165   0.038   4.727   5.610
 7756SOL     OW24166   2.281   4.086   2.245
 7756SOL    HW124167   2.272   4.027   2.325
 7756SOL    HW224168   2.344   4.045   2.180
 7757SOL     OW24169   0.019   4.253   0.280
 7757SOL    HW124170   7.015   4.337   0.323
 7757SOL    HW224171   6.977   4.183   0.284
 7758SOL     OW24172   0.838   1.029   5.694
 7758SOL    HW124173   0.913   0.973   5.660
 7758SOL    HW224174   0.831   1.112   5.638
 7759SOL     OW24175   3.748   1.447   2.197
 7759SOL    HW124176   3.816   1.405   2.257
 7759SOL    HW224177   3.789   1.470   2.109
 7760SOL     OW24178   4.744   2.757   0.019
 7760SOL    HW124179   4.747   2.672   6.996
 7760SOL    HW224180   4.752   2.835   6.986
 7761SOL     OW24181   5.377   5.345   3.018
 7761SOL    HW124182   5.387   5.246   3.013
 7761SOL    HW224183   5.467   5.388   3.003
 7762SOL     OW24184   4.876   2.031   1.598
 7762SOL    HW124185   4.863   2.128   1.619
 7762SOL    HW224186   4.791   1.981   1.614
 7763SOL     OW24187   2.041   0.660   3.153
 7763SOL    HW124188   2.067   0.573   3.194
 7763SOL    HW224189   1.965   0.700   3.205
 7764SOL     OW24190   3.959   5.190   5.502
 7764SOL    HW124191   3.993   5.172   5.409
 7764SOL    HW224192   3.943   5.288   5.512
 7765SOL     OW24193   5.440   4.102   4.706
 7765SOL    HW124194   5.470   4.129   4.614
 7765SOL    HW224195   5.483   4.161   4.774
 7766SOL     OW24196   6.599   2.058   6.461
 7766SOL    HW124197   6.689   2.020   6.438
 7766SOL    HW224198   6.606   2.158   6.463
 7767SOL     OW24199   4.329   0.323   3.925
 7767SOL    HW124200   4.315   0.350   3.830
 7767SOL    HW224201   4.268   0.247   3.948
 7768SOL     OW24202   3.037   5.752   4.156
 7768SOL    HW124203   2.969   5.681   4.173
 7768SOL    HW224204   3.100   5.723   4.084
 7769SOL     OW24205   3.573   2.601   6.938
 7769SOL    HW124206   3.585   2.599   6.839
 7769SOL    HW224207   3.550   2.510   6.971
 7770SOL     OW24208   0.991   3.775   3.612
 7770SOL    HW124209   1.036   3.862   3.630
 7770SOL    HW224210   0.959   3.773   3.517
 7771SOL     OW24211   1.062   3.973   5.201
 7771SOL    HW124212   1.157   3.949   5.220
 7771SOL    HW224213   1.032   4.044   5.265
 7772SOL     OW24214   5.535   5.907   1.704
 7772SOL    HW124215   5.518   5.841   1.631
 7772SOL    HW224216   5.600   5.976   1.672
 7773SOL     OW24217   2.762   0.105   6.752
 7773SOL    HW124218   2.672   0.127   6.789
 7773SOL    HW224219   2.792   0.016   6.786
 7774SOL     OW24220   5.232   1.410   3.029
 7774SOL    HW124221   5.280   1.322   3.028
 7774SOL    HW224222   5.144   1.400   2.983
 7775SOL     OW24223   3.401   1.467   0.689
 7775SOL    HW124224   3.384   1.456   0.591
 7775SOL    HW224225   3.330   1.419   0.741
 7776SOL     OW24226   3.353   1.194   3.875
 7776SOL    HW124227   3.378   1.289   3.855
 7776SOL    HW224228   3.386   1.169   3.966
 7777SOL     OW24229   5.118   5.070   3.212
 7777SOL    HW124230   5.114   5.042   3.308
 7777SOL    HW224231   5.025   5.080   3.176
 7778SOL     OW24232   1.549   4.036   2.276
 7778SOL    HW124233   1.497   4.022   2.361
 7778SOL    HW224234   1.646   4.044   2.298
 7779SOL     OW24235   3.378   6.934   2.154
 7779SOL    HW124236   3.460   6.976   2.193
 7779SOL    HW224237   3.366   6.843   2.193
 7780SOL     OW24238   6.641   5.646   3.842
 7780SOL    HW124239   6.580   5.581   3.797
 7780SOL    HW224240   6.630   5.637   3.941
 7781SOL     OW24241   2.162   2.424   0.826
 7781SOL    HW124242   2.073   2.411   0.869
 7781SOL    HW224243   2.204   2.335   0.808
 7782SOL     OW24244   5.799   3.836   4.010
 7782SOL    HW124245   5.894   3.845   3.980
 7782SOL    HW224246   5.763   3.927   4.032
 7783SOL     OW24247   1.184   6.258   4.112
 7783SOL    HW124248   1.148   6.341   4.154
 7783SOL    HW224249   1.135   6.179   4.148
 7784SOL     OW24250   1.623   2.647   3.148
 7784SOL    HW124251   1.602   2.705   3.069
 7784SOL    HW224252   1.693   2.692   3.204
 7785SOL     OW24253   6.622   6.405   2.718
 7785SOL    HW124254   6.707   6.456   2.708
 7785SOL    HW224255   6.547   6.455   2.674
 7786SOL     OW24256   5.373   1.128   6.506
 7786SOL    HW124257   5.473   1.123   6.510
 7786SOL    HW224258   5.345   1.212   6.460
 7787SOL     OW24259   1.377   2.967   0.977
 7787SOL    HW124260   1.403   2.887   0.923
 7787SOL    HW224261   1.446   2.984   1.048
 7788SOL     OW24262   0.907   3.908   2.154
 7788SOL    HW124263   0.960   3.989   2.177
 7788SOL    HW224264   0.809   3.931   2.156
 7789SOL     OW24265   3.076   0.713   6.010
 7789SOL    HW124266   3.125   0.765   6.080
 7789SOL    HW224267   3.025   0.777   5.951
 7790SOL     OW24268   4.019   5.194   4.223
 7790SOL    HW124269   4.028   5.115   4.284
 7790SOL    HW224270   4.025   5.278   4.276
 7791SOL     OW24271   2.556   6.385   1.811
 7791SOL    HW124272   2.605   6.361   1.895
 7791SOL    HW224273   2.470   6.430   1.834
 7792SOL     OW24274   1.443   0.789   2.269
 7792SOL    HW124275   1.502   0.828   2.199
 7792SOL    HW224276   1.397   0.708   2.232
 7793SOL     OW24277   4.728   1.859   0.861
 7793SOL    HW124278   4.744   1.764   0.889
 7793SOL    HW224279   4.776   1.877   0.775
 7794SOL     OW24280   1.325   0.823   2.777
 7794SOL    HW124281   1.247   0.842   2.717
 7794SOL    HW224282   1.369   0.910   2.802
 7795SOL     OW24283   4.052   3.642   1.166
 7795SOL    HW124284   4.063   3.560   1.223
 7795SOL    HW224285   4.081   3.722   1.217
 7796SOL     OW24286   4.220   1.421   0.668
 7796SOL    HW124287   4.152   1.348   0.657
 7796SOL    HW224288   4.236   1.465   0.580
 7797SOL     OW24289   1.317   6.238   2.884
 7797SOL    HW124290   1.416   6.254   2.887
 7797SOL    HW224291   1.269   6.325   2.891
 7798SOL     OW24292   1.559   3.425   1.174
 7798SOL    HW124293   1.552   3.346   1.235
 7798SOL    HW224294   1.655   3.442   1.153
 7799SOL     OW24295   2.203   6.335   3.884
 7799SOL    HW124296   2.261   6.278   3.943
 7799SOL    HW224297   2.219   6.431   3.903
 7800SOL     OW24298   1.305   0.999   2.387
 7800SOL    HW124299   1.369   0.925   2.363
 7800SOL    HW224300   1.241   0.967   2.457
 7801SOL     OW24301   1.999   2.169   0.926
 7801SOL    HW124302   2.007   2.208   1.018
 7801SOL    HW224303   1.909   2.127   0.916
 7802SOL     OW24304   6.120   4.876   4.058
 7802SOL    HW124305   6.037   4.821   4.071
 7802SOL    HW224306   6.123   4.949   4.126
 7803SOL     OW24307   3.137   2.274   6.243
 7803SOL    HW124308   3.076   2.349   6.267
 7803SOL    HW224309   3.092   2.215   6.175
 7804SOL     OW24310   2.955   1.746   5.430
 7804SOL    HW124311   3.000   1.835   5.428
 7804SOL    HW224312   3.005   1.684   5.490
 7805SOL     OW24313   5.464   3.041   6.907
 7805SOL    HW124314   5.443   3.084   6.819
 7805SOL    HW224315   5.380   3.013   6.952
 7806SOL     OW24316   6.219   2.079   5.301
 7806SOL    HW124317   6.225   1.984   5.272
 7806SOL    HW224318   6.124   2.102   5.323
 7807SOL     OW24319   1.844   5.468   5.890
 7807SOL    HW124320   1.835   5.415   5.805
 7807SOL    HW224321   1.888   5.555   5.869
 7808SOL     OW24322   0.301   3.197   4.373
 7808SOL    HW124323   0.325   3.281   4.324
 7808SOL    HW224324   0.257   3.133   4.310
 7809SOL     OW24325   4.410   6.817   2.652
 7809SOL    HW124326   4.363   6.888   2.601
 7809SOL    HW224327   4.344   6.760   2.700
 7810SOL     OW24328   1.966   6.708   5.912
 7810SOL    HW124329   1.952   6.735   5.816
 7810SOL    HW224330   2.022   6.626   5.915
 7811SOL     OW24331   1.226   5.699   3.256
 7811SOL    HW124332   1.248   5.673   3.162
 7811SOL    HW224333   1.310   5.702   3.310
 7812SOL     OW24334   3.109   1.173   5.640
 7812SOL    HW124335   3.101   1.097   5.576
 7812SOL    HW224336   3.045   1.246   5.616
 7813SOL     OW24337   5.698   1.445   0.950
 7813SOL    HW124338   5.602   1.428   0.971
 7813SOL    HW224339   5.727   1.387   0.874
 7814SOL     OW24340   6.477   2.822   1.638
 7814SOL    HW124341   6.503   2.734   1.676
 7814SOL    HW224342   6.542   2.892   1.669
 7815SOL     OW24343   4.351   5.190   3.584
 7815SOL    HW124344   4.435   5.140   3.607
 7815SOL    HW224345   4.335   5.183   3.485
 7816SOL     OW24346   1.140   1.334   5.232
 7816SOL    HW124347   1.134   1.412   5.170
 7816SOL    HW224348   1.083   1.351   5.312
 7817SOL     OW24349   4.212   1.491   6.360
 7817SOL    HW124350   4.216   1.418   6.292
 7817SOL    HW224351   4.281   1.475   6.430
 7818SOL     OW24352   5.504   1.259   3.059
 7818SOL    HW124353   5.519   1.281   3.155
 7818SOL    HW224354   5.538   1.334   3.002
 7819SOL     OW24355   2.356   2.763   4.519
 7819SOL    HW124356   2.370   2.861   4.537
 7819SOL    HW224357   2.366   2.746   4.421
 7820SOL     OW24358   1.741   1.218   5.872
 7820SOL    HW124359   1.777   1.264   5.953
 7820SOL    HW224360   1.643   1.238   5.863
 7821SOL     OW24361   3.649   5.825   0.210
 7821SOL    HW124362   3.626   5.783   0.298
 7821SOL    HW224363   3.675   5.921   0.225
 7822SOL     OW24364   0.891   1.295   4.684
 7822SOL    HW124365   0.920   1.385   4.652
 7822SOL    HW224366   0.867   1.300   4.781
 7823SOL     OW24367   2.809   3.026   5.740
 7823SOL    HW124368   2.713   3.054   5.736
 7823SOL    HW224369   2.839   3.023   5.836
 7824SOL     OW24370   5.873   3.940   2.541
 7824SOL    HW124371   5.940   4.014   2.546
 7824SOL    HW224372   5.917   3.853   2.561
 7825SOL     OW24373   3.619   2.916   3.059
 7825SOL    HW124374   3.629   2.822   3.029
 7825SOL    HW224375   3.568   2.918   3.146
 7826SOL     OW24376   6.588   6.960   1.035
 7826SOL    HW124377   6.590   6.864   1.062
 7826SOL    HW224378   6.549   6.968   0.944
 7827SOL     OW24379   4.707   3.504   0.370
 7827SOL    HW124380   4.609   3.487   0.360
 7827SOL    HW224381   4.745   3.534   0.283
 7828SOL     OW24382   1.190   6.451   0.619
 7828SOL    HW124383   1.090   6.443   0.621
 7828SOL    HW224384   1.230   6.363   0.593
 7829SOL     OW24385   3.518   3.954   2.783
 7829SOL    HW124386   3.490   4.010   2.861
 7829SOL    HW224387   3.586   4.004   2.729
 7830SOL     OW24388   6.680   4.012   0.703
 7830SOL    HW124389   6.771   4.051   0.688
 7830SOL    HW224390   6.641   3.983   0.616
 7831SOL     OW24391   1.928   2.024   0.497
 7831SOL    HW124392   1.975   2.082   0.430
 7831SOL    HW224393   1.992   2.000   0.570
 7832SOL     OW24394   3.449   2.692   6.127
 7832SOL    HW124395   3.376   2.719   6.064
 7832SOL    HW224396   3.438   2.595   6.151
 7833SOL     OW24397   6.613   6.898   2.116
 7833SOL    HW124398   6.652   6.927   2.028
 7833SOL    HW224399   6.637   6.964   2.187
 7834SOL     OW24400   5.615   1.156   1.177
 7834SOL    HW124401   5.529   1.200   1.202
 7834SOL    HW224402   5.686   1.226   1.165
 7835SOL     OW24403   2.323   2.000   4.420
 7835SOL    HW124404   2.363   2.063   4.486
 7835SOL    HW224405   2.235   2.036   4.388
 7836SOL     OW24406   2.296   0.833   6.631
 7836SOL    HW124407   2.202   0.828   6.665
 7836SOL    HW224408   2.341   0.912   6.673
 7837SOL     OW24409   5.991   6.191   2.338
 7837SOL    HW124410   6.079   6.147   2.323
 7837SOL    HW224411   5.944   6.204   2.251
 7838SOL     OW24412   3.534   5.686   4.060
 7838SOL    HW124413   3.632   5.697   4.071
 7838SOL    HW224414   3.496   5.767   4.015
 7839SOL     OW24415   6.730   4.997   3.402
 7839SOL    HW124416   6.680   5.072   3.446
 7839SOL    HW224417   6.744   5.018   3.305
 7840SOL     OW24418   4.537   3.076   5.947
 7840SOL    HW124419   4.549   2.977   5.943
 7840SOL    HW224420   4.626   3.120   5.935
 7841SOL     OW24421   1.086   2.334   5.721
 7841SOL    HW124422   1.054   2.407   5.661
 7841SOL    HW224423   1.148   2.373   5.789
 7842SOL     OW24424   2.363   0.897   2.902
 7842SOL    HW124425   2.337   0.810   2.860
 7842SOL    HW224426   2.295   0.923   2.971
 7843SOL     OW24427   7.010   2.345   2.130
 7843SOL    HW124428   6.992   2.356   2.228
 7843SOL    HW224429   0.077   2.324   2.116
 7844SOL     OW24430   4.298   2.366   3.553
 7844SOL    HW124431   4.301   2.290   3.618
 7844SOL    HW224432   4.216   2.421   3.569
 7845SOL     OW24433   0.261   0.769   4.357
 7845SOL    HW124434   0.295   0.694   4.412
 7845SOL    HW224435   0.165   0.753   4.335
 7846SOL     OW24436   4.580   0.660   2.330
 7846SOL    HW124437   4.564   0.758   2.342
 7846SOL    HW224438   4.645   0.628   2.398
 7847SOL     OW24439   0.230   6.940   6.872
 7847SOL    HW124440   0.257   6.968   6.779
 7847SOL    HW224441   0.290   6.867   6.903
 7848SOL     OW24442   3.870   3.801   1.574
 7848SOL    HW124443   3.932   3.878   1.592
 7848SOL    HW224444   3.921   3.727   1.530
 7849SOL     OW24445   5.127   4.326   5.051
 7849SOL    HW124446   5.154   4.272   5.130
 7849SOL    HW224447   5.120   4.267   4.970
 7850SOL     OW24448   0.533   3.021   4.680
 7850SOL    HW124449   0.598   2.994   4.609
 7850SOL    HW224450   0.510   2.941   4.736
 7851SOL     OW24451   3.738   6.643   0.817
 7851SOL    HW124452   3.757   6.723   0.874
 7851SOL    HW224453   3.688   6.575   0.871
 7852SOL     OW24454   2.865   7.007   0.274
 7852SOL    HW124455   2.864   0.011   0.368
 7852SOL    HW224456   2.848   0.053   0.211
 7853SOL     OW24457   1.767   1.846   0.365
 7853SOL    HW124458   1.829   1.898   0.423
 7853SOL    HW224459   1.744   1.899   0.284
 7854SOL     OW24460   4.082   3.728   4.283
 7854SOL    HW124461   4.159   3.788   4.307
 7854SOL    HW224462   4.011   3.782   4.239
 7855SOL     OW24463   2.939   0.194   4.655
 7855SOL    HW124464   2.993   0.166   4.576
 7855SOL    HW224465   2.909   0.289   4.643
 7856SOL     OW24466   2.946   3.058   0.045
 7856SOL    HW124467   2.864   3.088   7.026
 7856SOL    HW224468   2.988   2.982   7.026
 7857SOL     OW24469   0.428   3.255   4.948
 7857SOL    HW124470   0.522   3.239   4.979
 7857SOL    HW224471   0.419   3.225   4.853
 7858SOL     OW24472   5.204   3.138   2.826
 7858SOL    HW124473   5.196   3.039   2.837
 7858SOL    HW224474   5.120   3.174   2.786
 7859SOL     OW24475   0.323   6.855   0.826
 7859SOL    HW124476   0.265   6.820   0.753
 7859SOL    HW224477   0.273   6.924   0.879
 7860SOL     OW24478   4.933   6.512   1.322
 7860SOL    HW124479   4.977   6.422   1.319
 7860SOL    HW224480   4.837   6.503   1.296
 7861SOL     OW24481   5.860   3.779   0.318
 7861SOL    HW124482   5.905   3.810   0.234
 7861SOL    HW224483   5.869   3.680   0.327
 7862SOL     OW24484   3.056   4.534   1.640
 7862SOL    HW124485   2.996   4.494   1.710
 7862SOL    HW224486   3.131   4.583   1.685
 7863SOL     OW24487   4.332   6.161   2.564
 7863SOL    HW124488   4.367   6.083   2.512
 7863SOL    HW224489   4.315   6.133   2.658
 7864SOL     OW24490   1.300   5.504   5.434
 7864SOL    HW124491   1.240   5.426   5.454
 7864SOL    HW224492   1.246   5.588   5.430
 7865SOL     OW24493   4.548   0.610   3.352
 7865SOL    HW124494   4.620   0.677   3.368
 7865SOL    HW224495   4.471   0.628   3.413
 7866SOL     OW24496   2.566   1.953   5.936
 7866SOL    HW124497   2.654   1.994   5.963
 7866SOL    HW224498   2.525   2.006   5.862
 7867SOL     OW24499   5.950   3.604   1.330
 7867SOL    HW124500   5.931   3.578   1.236
 7867SOL    HW224501   5.872   3.656   1.366
 7868SOL     OW24502   4.413   0.137   0.707
 7868SOL    HW124503   4.459   0.114   0.792
 7868SOL    HW224504   4.457   0.215   0.664
 7869SOL     OW24505   6.339   1.539   4.094
 7869SOL    HW124506   6.242   1.521   4.106
 7869SOL    HW224507   6.351   1.605   4.020
 7870SOL     OW24508   6.664   0.529   2.995
 7870SOL    HW124509   6.628   0.533   3.088
 7870SOL    HW224510   6.683   0.434   2.970
 7871SOL     OW24511   5.429   3.239   4.308
 7871SOL    HW124512   5.461   3.168   4.245
 7871SOL    HW224513   5.502   3.306   4.322
 7872SOL     OW24514   0.003   4.309   4.312
 7872SOL    HW124515   0.055   4.226   4.330
 7872SOL    HW224516   6.956   4.287   4.252
 7873SOL     OW24517   0.063   5.500   4.406
 7873SOL    HW124518   0.145   5.557   4.412
 7873SOL    HW224519   0.004   5.518   4.485
 7874SOL     OW24520   5.857   0.011   0.103
 7874SOL    HW124521   5.921   0.005   0.179
 7874SOL    HW224522   5.797   6.961   0.103
 7875SOL     OW24523   4.968   3.345   0.435
 7875SOL    HW124524   4.999   3.348   0.340
 7875SOL    HW224525   4.868   3.344   0.438
 7876SOL     OW24526   0.748   1.607   4.890
 7876SOL    HW124527   0.772   1.700   4.861
 7876SOL    HW224528   0.682   1.568   4.826
 7877SOL     OW24529   6.141   3.684   2.364
 7877SOL    HW124530   6.228   3.680   2.316
 7877SOL    HW224531   6.067   3.657   2.302
 7878SOL     OW24532   3.614   4.102   1.470
 7878SOL    HW124533   3.620   4.038   1.547
 7878SOL    HW224534   3.518   4.121   1.449
 7879SOL     OW24535   6.910   1.174   4.890
 7879SOL    HW124536   6.876   1.267   4.881
 7879SOL    HW224537   7.000   1.175   4.934
 7880SOL     OW24538   1.763   6.024   6.445
 7880SOL    HW124539   1.751   5.947   6.508
 7880SOL    HW224540   1.781   5.990   6.353
 7881SOL     OW24541   0.894   5.347   4.980
 7881SOL    HW124542   0.975   5.351   5.039
 7881SOL    HW224543   0.869   5.251   4.965
 7882SOL     OW24544   1.548   4.887   1.465
 7882SOL    HW124545   1.459   4.915   1.430
 7882SOL    HW224546   1.581   4.954   1.531
 7883SOL     OW24547   3.267   1.772   2.212
 7883SOL    HW124548   3.256   1.871   2.222
 7883SOL    HW224549   3.338   1.752   2.145
 7884SOL     OW24550   1.069   2.784   4.751
 7884SOL    HW124551   0.978   2.742   4.739
 7884SOL    HW224552   1.133   2.715   4.786
 7885SOL     OW24553   6.234   5.598   2.359
 7885SOL    HW124554   6.152   5.613   2.415
 7885SOL    HW224555   6.309   5.654   2.395
 7886SOL     OW24556   4.059   4.765   2.728
 7886SOL    HW124557   4.095   4.732   2.641
 7886SOL    HW224558   4.126   4.749   2.800
 7887SOL     OW24559   0.676   3.351   0.756
 7887SOL    HW124560   0.698   3.287   0.682
 7887SOL    HW224561   0.742   3.342   0.830
 7888SOL     OW24562   6.613   1.563   5.239
 7888SOL    HW124563   6.599   1.469   5.209
 7888SOL    HW224564   6.635   1.621   5.160
 7889SOL     OW24565   5.155   5.382   0.356
 7889SOL    HW124566   5.118   5.342   0.272
 7889SOL    HW224567   5.152   5.315   0.430
 7890SOL     OW24568   2.245   3.041   2.947
 7890SOL    HW124569   2.169   3.053   2.883
 7890SOL    HW224570   2.318   3.106   2.924
 7891SOL     OW24571   6.415   1.401   4.520
 7891SOL    HW124572   6.323   1.440   4.522
 7891SOL    HW224573   6.443   1.387   4.425
 7892SOL     OW24574   1.298   2.105   4.723
 7892SOL    HW124575   1.246   2.038   4.775
 7892SOL    HW224576   1.394   2.076   4.718
 7893SOL     OW24577   5.847   6.502   1.198
 7893SOL    HW124578   5.919   6.563   1.165
 7893SOL    HW224579   5.880   6.450   1.277
 7894SOL     OW24580   3.255   0.786   6.260
 7894SOL    HW124581   3.260   0.873   6.308
 7894SOL    HW224582   3.211   0.718   6.319
 7895SOL     OW24583   5.914   6.342   3.233
 7895SOL    HW124584   5.863   6.428   3.225
 7895SOL    HW224585   5.926   6.319   3.330
 7896SOL     OW24586   2.482   1.710   0.609
 7896SOL    HW124587   2.423   1.764   0.549
 7896SOL    HW224588   2.435   1.626   0.635
 7897SOL     OW24589   4.715   1.197   1.290
 7897SOL    HW124590   4.782   1.170   1.221
 7897SOL    HW224591   4.658   1.271   1.254
 7898SOL     OW24592   4.822   6.292   3.140
 7898SOL    HW124593   4.856   6.208   3.181
 7898SOL    HW224594   4.890   6.328   3.077
 7899SOL     OW24595   6.111   4.467   2.909
 7899SOL    HW124596   6.103   4.368   2.914
 7899SOL    HW224597   6.071   4.499   2.823
 7900SOL     OW24598   0.265   3.510   0.495
 7900SOL    HW124599   0.169   3.531   0.481
 7900SOL    HW224600   0.321   3.588   0.467
 7901SOL     OW24601   0.322   2.439   0.087
 7901SOL    HW124602   0.245   2.468   0.143
 7901SOL    HW224603   0.404   2.431   0.144
 7902SOL     OW24604   1.647   0.278   1.100
 7902SOL    HW124605   1.612   0.273   1.007
 7902SOL    HW224606   1.575   0.252   1.164
 7903SOL     OW24607   3.084   2.000   5.429
 7903SOL    HW124608   3.126   2.083   5.394
 7903SOL    HW224609   3.156   1.940   5.467
 7904SOL     OW24610   4.953   3.195   2.669
 7904SOL    HW124611   4.954   3.287   2.708
 7904SOL    HW224612   5.010   3.192   2.588
 7905SOL     OW24613   6.354   2.001   1.414
 7905SOL    HW124614   6.403   1.926   1.370
 7905SOL    HW224615   6.288   1.963   1.479
 7906SOL     OW24616   0.365   5.756   6.524
 7906SOL    HW124617   0.276   5.752   6.568
 7906SOL    HW224618   0.430   5.804   6.584
 7907SOL     OW24619   5.847   6.290   3.518
 7907SOL    HW124620   5.780   6.217   3.531
 7907SOL    HW224621   5.802   6.379   3.522
 7908SOL     OW24622   1.970   0.364   6.325
 7908SOL    HW124623   1.923   0.285   6.287
 7908SOL    HW224624   1.971   0.438   6.258
 7909SOL     OW24625   6.720   3.327   1.504
 7909SOL    HW124626   6.812   3.325   1.464
 7909SOL    HW224627   6.669   3.246   1.473
 7910SOL     OW24628   1.741   4.852   5.084
 7910SOL    HW124629   1.713   4.883   5.175
 7910SOL    HW224630   1.750   4.753   5.084
 7911SOL     OW24631   5.976   4.556   5.817
 7911SOL    HW124632   5.907   4.504   5.766
 7911SOL    HW224633   6.029   4.493   5.874
 7912SOL     OW24634   5.857   5.914   0.951
 7912SOL    HW124635   5.951   5.882   0.936
 7912SOL    HW224636   5.849   6.009   0.920
 7913SOL     OW24637   1.317   4.827   6.517
 7913SOL    HW124638   1.296   4.731   6.502
 7913SOL    HW224639   1.416   4.841   6.513
 7914SOL     OW24640   0.961   0.072   4.681
 7914SOL    HW124641   0.900   0.146   4.652
 7914SOL    HW224642   0.993   0.089   4.774
 7915SOL     OW24643   2.680   5.111   2.388
 7915SOL    HW124644   2.741   5.160   2.450
 7915SOL    HW224645   2.591   5.098   2.433
 7916SOL     OW24646   1.003   0.291   3.876
 7916SOL    HW124647   1.065   0.356   3.833
 7916SOL    HW224648   1.056   0.223   3.927
 7917SOL     OW24649   5.016   2.175   2.720
 7917SOL    HW124650   5.051   2.254   2.771
 7917SOL    HW224651   5.010   2.198   2.623
 7918SOL     OW24652   1.683   3.135   2.841
 7918SOL    HW124653   1.696   3.154   2.938
 7918SOL    HW224654   1.735   3.053   2.815
 7919SOL     OW24655   0.926   6.806   5.021
 7919SOL    HW124656   1.005   6.824   4.962
 7919SOL    HW224657   0.916   6.880   5.087
 7920SOL     OW24658   5.142   0.115   1.112
 7920SOL    HW124659   5.096   0.035   1.149
 7920SOL    HW224660   5.075   0.174   1.067
 7921SOL     OW24661   5.272   3.051   0.539
 7921SOL    HW124662   5.242   3.146   0.545
 7921SOL    HW224663   5.193   2.991   0.549
 7922SOL     OW24664   2.201   0.030   2.604
 7922SOL    HW124665   2.156   6.993   2.664
 7922SOL    HW224666   2.233   0.107   2.659
 7923SOL     OW24667   4.641   0.949   0.565
 7923SOL    HW124668   4.621   1.047   0.571
 7923SOL    HW224669   4.678   0.918   0.653
 7924SOL     OW24670   5.862   6.178   0.226
 7924SOL    HW124671   5.919   6.108   0.185
 7924SOL    HW224672   5.884   6.267   0.188
 7925SOL     OW24673   1.340   4.623   6.124
 7925SOL    HW124674   1.375   4.585   6.039
 7925SOL    HW224675   1.310   4.548   6.184
 7926SOL     OW24676   5.129   5.789   5.361
 7926SOL    HW124677   5.218   5.784   5.408
 7926SOL    HW224678   5.104   5.699   5.328
 7927SOL     OW24679   4.623   0.081   3.293
 7927SOL    HW124680   4.549   0.018   3.312
 7927SOL    HW224681   4.684   0.042   3.224
 7928SOL     OW24682   5.815   2.243   4.051
 7928SOL    HW124683   5.722   2.267   4.023
 7928SOL    HW224684   5.813   2.208   4.144
 7929SOL     OW24685   4.932   4.075   5.665
 7929SOL    HW124686   4.853   4.098   5.722
 7929SOL    HW224687   4.997   4.150   5.666
 7930SOL     OW24688   4.145   5.861   0.110
 7930SOL    HW124689   4.128   5.821   0.201
 7930SOL    HW224690   4.232   5.909   0.110
 7931SOL     OW24691   5.142   1.162   0.589
 7931SOL    HW124692   5.211   1.231   0.613
 7931SOL    HW224693   5.148   1.142   0.492
 7932SOL     OW24694   1.043   3.720   1.285
 7932SOL    HW124695   1.046   3.621   1.273
 7932SOL    HW224696   0.977   3.743   1.356
 7933SOL     OW24697   1.092   1.835   0.129
 7933SOL    HW124698   1.050   1.872   0.212
 7933SOL    HW224699   1.167   1.894   0.100
 7934SOL     OW24700   6.785   5.368   0.950
 7934SOL    HW124701   6.698   5.381   0.904
 7934SOL    HW224702   6.776   5.297   1.020
 7935SOL     OW24703   6.645   3.098   2.984
 7935SOL    HW124704   6.588   3.056   3.055
 7935SOL    HW224705   6.682   3.027   2.925
 7936SOL     OW24706   2.431   6.412   3.187
 7936SOL    HW124707   2.396   6.389   3.278
 7936SOL    HW224708   2.527   6.385   3.181
 7937SOL     OW24709   4.157   1.348   1.088
 7937SOL    HW124710   4.130   1.367   1.182
 7937SOL    HW224711   4.252   1.317   1.086
 7938SOL     OW24712   2.215   6.880   3.266
 7938SOL    HW124713   2.143   6.816   3.239
 7938SOL    HW224714   2.303   6.833   3.265
 7939SOL     OW24715   1.871   0.522   2.495
 7939SOL    HW124716   1.828   0.568   2.572
 7939SOL    HW224717   1.800   0.491   2.431
 7940SOL     OW24718   6.186   1.790   5.233
 7940SOL    HW124719   6.217   1.764   5.325
 7940SOL    HW224720   6.177   1.708   5.177
 7941SOL     OW24721   3.355   6.995   0.769
 7941SOL    HW124722   3.343   6.896   0.766
 7941SOL    HW224723   3.341   7.027   0.863
 7942SOL     OW24724   1.188   4.339   1.048
 7942SOL    HW124725   1.261   4.400   1.018
 7942SOL    HW224726   1.108   4.352   0.990
 7943SOL     OW24727   1.694   5.811   6.590
 7943SOL    HW124728   1.668   5.733   6.533
 7943SOL    HW224729   1.613   5.851   6.633
 7944SOL     OW24730   1.569   1.874   1.468
 7944SOL    HW124731   1.493   1.809   1.476
 7944SOL    HW224732   1.655   1.828   1.488
 7945SOL     OW24733   6.416   2.953   2.740
 7945SOL    HW124734   6.477   2.884   2.702
 7945SOL    HW224735   6.469   3.030   2.776
 7946SOL     OW24736   4.180   1.327   6.127
 7946SOL    HW124737   4.253   1.324   6.058
 7946SOL    HW224738   4.093   1.350   6.082
 7947SOL     OW24739   0.147   3.384   6.170
 7947SOL    HW124740   0.179   3.294   6.200
 7947SOL    HW224741   0.202   3.415   6.092
 7948SOL     OW24742   1.570   5.852   0.371
 7948SOL    HW124743   1.587   5.754   0.383
 7948SOL    HW224744   1.471   5.868   0.366
 7949SOL     OW24745   2.906   5.788   5.741
 7949SOL    HW124746   3.003   5.805   5.730
 7949SOL    HW224747   2.856   5.824   5.662
 7950SOL     OW24748   6.598   4.027   5.444
 7950SOL    HW124749   6.615   3.942   5.395
 7950SOL    HW224750   6.500   4.046   5.445
 7951SOL     OW24751   4.034   0.179   2.730
 7951SOL    HW124752   3.934   0.170   2.728
 7951SOL    HW224753   4.066   0.164   2.823
 7952SOL     OW24754   6.792   3.173   5.098
 7952SOL    HW124755   6.743   3.133   5.020
 7952SOL    HW224756   6.882   3.205   5.069
 7953SOL     OW24757   1.801   0.015   0.493
 7953SOL    HW124758   1.901   0.019   0.500
 7953SOL    HW224759   1.763   0.102   0.525
 7954SOL     OW24760   3.333   2.949   0.215
 7954SOL    HW124761   3.432   2.963   0.218
 7954SOL    HW224762   3.308   2.872   0.274
 7955SOL     OW24763   0.283   1.173   6.855
 7955SOL    HW124764   0.206   1.132   6.805
 7955SOL    HW224765   0.348   1.101   6.880
 7956SOL     OW24766   0.333   0.311   0.411
 7956SOL    HW124767   0.364   0.405   0.425
 7956SOL    HW224768   0.311   0.270   0.499
 7957SOL     OW24769   5.365   1.345   5.819
 7957SOL    HW124770   5.327   1.324   5.729
 7957SOL    HW224771   5.323   1.285   5.887
 7958SOL     OW24772   4.737   2.011   7.016
 7958SOL    HW124773   4.803   2.029   6.942
 7958SOL    HW224774   4.651   2.058   6.995
 7959SOL     OW24775   4.776   2.954   6.859
 7959SOL    HW124776   4.832   3.034   6.880
 7959SOL    HW224777   4.774   2.940   6.760
 7960SOL     OW24778   1.063   1.819   5.029
 7960SOL    HW124779   1.046   1.788   4.935
 7960SOL    HW224780   1.105   1.910   5.027
 7961SOL     OW24781   6.096   0.413   0.322
 7961SOL    HW124782   6.022   0.353   0.352
 7961SOL    HW224783   6.182   0.383   0.365
 7962SOL     OW24784   5.927   6.483   4.453
 7962SOL    HW124785   5.872   6.451   4.530
 7962SOL    HW224786   5.881   6.560   4.409
 7963SOL     OW24787   5.890   5.994   3.090
 7963SOL    HW124788   5.915   6.031   3.001
 7963SOL    HW224789   5.864   6.068   3.151
 7964SOL     OW24790   6.738   3.591   1.600
 7964SOL    HW124791   6.750   3.499   1.564
 7964SOL    HW224792   6.695   3.587   1.690
 7965SOL     OW24793   5.009   1.861   6.401
 7965SOL    HW124794   5.088   1.843   6.341
 7965SOL    HW224795   4.941   1.789   6.387
 7966SOL     OW24796   5.906   3.341   5.232
 7966SOL    HW124797   5.974   3.397   5.280
 7966SOL    HW224798   5.820   3.390   5.226
 7967SOL     OW24799   1.624   4.493   1.060
 7967SOL    HW124800   1.659   4.403   1.085
 7967SOL    HW224801   1.609   4.547   1.143
 7968SOL     OW24802   2.110   2.633   3.555
 7968SOL    HW124803   2.146   2.712   3.605
 7968SOL    HW224804   2.025   2.603   3.597
 7969SOL     OW24805   3.202   4.603   6.135
 7969SOL    HW124806   3.134   4.609   6.208
 7969SOL    HW224807   3.204   4.509   6.100
 7970SOL     OW24808   6.185   3.021   3.794
 7970SOL    HW124809   6.211   3.085   3.866
 7970SOL    HW224810   6.145   3.072   3.717
 7971SOL     OW24811   3.407   0.755   6.608
 7971SOL    HW124812   3.436   0.709   6.524
 7971SOL    HW224813   3.446   0.709   6.687
 7972SOL     OW24814   4.113   3.611   4.555
 7972SOL    HW124815   4.073   3.701   4.577
 7972SOL    HW224816   4.148   3.612   4.462
 7973SOL     OW24817   6.970   5.157   1.931
 7973SOL    HW124818   6.885   5.207   1.919
 7973SOL    HW224819   6.957   5.087   2.002
 7974SOL     OW24820   0.636   3.632   5.051
 7974SOL    HW124821   0.727   3.626   5.009
 7974SOL    HW224822   0.568   3.593   4.990
 7975SOL     OW24823   4.252   0.027   6.937
 7975SOL    HW124824   4.301   0.112   6.960
 7975SOL    HW224825   4.318   6.981   6.933
 7976SOL     OW24826   0.942   0.393   0.337
 7976SOL    HW124827   0.963   0.330   0.262
 7976SOL    HW224828   0.943   0.343   0.424
 7977SOL     OW24829   5.136   5.508   2.556
 7977SOL    HW124830   5.105   5.413   2.564
 7977SOL    HW224831   5.084   5.555   2.485
 7978SOL     OW24832   0.041   4.154   1.809
 7978SOL    HW124833   0.004   4.065   1.836
 7978SOL    HW224834   0.129   4.140   1.763
 7979SOL     OW24835   2.901   2.353   5.424
 7979SOL    HW124836   2.879   2.447   5.399
 7979SOL    HW224837   2.847   2.325   5.503
 7980SOL     OW24838   3.486   5.184   1.847
 7980SOL    HW124839   3.570   5.137   1.875
 7980SOL    HW224840   3.437   5.127   1.782
 7981SOL     OW24841   1.502   3.394   4.578
 7981SOL    HW124842   1.409   3.400   4.612
 7981SOL    HW224843   1.550   3.320   4.625
 7982SOL     OW24844   6.799   0.751   0.074
 7982SOL    HW124845   6.837   0.733   0.165
 7982SOL    HW224846   6.701   0.766   0.081
 7983SOL     OW24847   3.583   1.115   1.739
 7983SOL    HW124848   3.596   1.118   1.640
 7983SOL    HW224849   3.487   1.096   1.759
 7984SOL     OW24850   6.522   2.550   2.991
 7984SOL    HW124851   6.560   2.501   2.912
 7984SOL    HW224852   6.456   2.618   2.959
 7985SOL     OW24853   2.991   3.289   5.586
 7985SOL    HW124854   3.079   3.249   5.614
 7985SOL    HW224855   2.957   3.241   5.506
 7986SOL     OW24856   3.713   1.013   3.936
 7986SOL    HW124857   3.789   1.072   3.964
 7986SOL    HW224858   3.702   1.017   3.837
 7987SOL     OW24859   1.188   3.098   6.462
 7987SOL    HW124860   1.177   3.011   6.510
 7987SOL    HW224861   1.114   3.109   6.395
 7988SOL     OW24862   6.229   0.631   1.386
 7988SOL    HW124863   6.192   0.553   1.334
 7988SOL    HW224864   6.280   0.690   1.324
 7989SOL     OW24865   0.580   4.727   1.796
 7989SOL    HW124866   0.588   4.792   1.872
 7989SOL    HW224867   0.516   4.762   1.728
 7990SOL     OW24868   4.386   5.015   5.106
 7990SOL    HW124869   4.355   5.027   5.200
 7990SOL    HW224870   4.307   4.992   5.048
 7991SOL     OW24871   5.362   0.534   4.483
 7991SOL    HW124872   5.382   0.578   4.571
 7991SOL    HW224873   5.441   0.544   4.422
 7992SOL     OW24874   2.195   0.811   6.989
 7992SOL    HW124875   2.136   0.764   0.025
 7992SOL    HW224876   2.281   0.761   6.978
 7993SOL     OW24877   6.466   6.459   0.775
 7993SOL    HW124878   6.402   6.451   0.851
 7993SOL    HW224879   6.558   6.474   0.810
 7994SOL     OW24880   0.427   1.007   4.637
 7994SOL    HW124881   0.377   1.004   4.550
 7994SOL    HW224882   0.456   0.915   4.662
 7995SOL     OW24883   0.655   6.013   1.420
 7995SOL    HW124884   0.733   5.974   1.372
 7995SOL    HW224885   0.614   5.944   1.480
 7996SOL     OW24886   2.092   6.624   3.837
 7996SOL    HW124887   2.100   6.685   3.758
 7996SOL    HW224888   2.002   6.580   3.836
 7997SOL     OW24889   2.239   1.644   5.884
 7997SOL    HW124890   2.173   1.570   5.897
 7997SOL    HW224891   2.194   1.732   5.899
 7998SOL     OW24892   1.803   0.857   1.220
 7998SOL    HW124893   1.834   0.911   1.298
 7998SOL    HW224894   1.734   0.909   1.169
 7999SOL     OW24895   0.308   0.553   2.834
 7999SOL    HW124896   0.264   0.593   2.753
 7999SOL    HW224897   0.291   0.611   2.913
 8000SOL     OW24898   4.091   5.892   0.780
 8000SOL    HW124899   4.148   5.854   0.707
 8000SOL    HW224900   4.071   5.821   0.847
 8001SOL     OW24901   4.997   4.226   1.646
 8001SOL    HW124902   5.066   4.274   1.700
 8001SOL    HW224903   4.955   4.290   1.582
 8002SOL     OW24904   1.176   0.485   4.729
 8002SOL    HW124905   1.266   0.442   4.736
 8002SOL    HW224906   1.175   0.570   4.782
 8003SOL     OW24907   2.531   5.563   3.386
 8003SOL    HW124908   2.474   5.492   3.345
 8003SOL    HW224909   2.608   5.522   3.435
 8004SOL     OW24910   2.138   3.259   3.935
 8004SOL    HW124911   2.174   3.302   3.852
 8004SOL    HW224912   2.113   3.330   4.001
 8005SOL     OW24913   2.853   7.026   3.996
 8005SOL    HW124914   2.909   6.990   4.071
 8005SOL    HW224915   2.769   6.972   3.988
 8006SOL     OW24916   4.677   5.345   6.190
 8006SOL    HW124917   4.676   5.397   6.275
 8006SOL    HW224918   4.590   5.297   6.179
 8007SOL     OW24919   6.735   0.587   0.909
 8007SOL    HW124920   6.710   0.495   0.878
 8007SOL    HW224921   6.703   0.655   0.842
 8008SOL     OW24922   4.738   4.606   0.858
 8008SOL    HW124923   4.661   4.544   0.840
 8008SOL    HW224924   4.815   4.553   0.896
 8009SOL     OW24925   6.749   1.270   1.725
 8009SOL    HW124926   6.830   1.254   1.669
 8009SOL    HW224927   6.759   1.226   1.814
 8010SOL     OW24928   3.320   0.529   6.081
 8010SOL    HW124929   3.337   0.628   6.085
 8010SOL    HW224930   3.297   0.496   6.172
 8011SOL     OW24931   3.782   2.078   2.717
 8011SOL    HW124932   3.709   2.076   2.649
 8011SOL    HW224933   3.871   2.074   2.670
 8012SOL     OW24934   6.414   0.841   5.038
 8012SOL    HW124935   6.357   0.760   5.047
 8012SOL    HW224936   6.434   0.857   4.941
 8013SOL     OW24937   3.848   0.217   3.308
 8013SOL    HW124938   3.814   0.132   3.268
 8013SOL    HW224939   3.883   0.200   3.400
 8014SOL     OW24940   2.414   2.658   3.515
 8014SOL    HW124941   2.452   2.655   3.422
 8014SOL    HW224942   2.319   2.687   3.510
 8015SOL     OW24943   3.326   6.136   4.571
 8015SOL    HW124944   3.265   6.058   4.584
 8015SOL    HW224945   3.335   6.155   4.473
 8016SOL     OW24946   3.308   2.825   5.610
 8016SOL    HW124947   3.252   2.743   5.620
 8016SOL    HW224948   3.250   2.906   5.618
 8017SOL     OW24949   6.021   6.340   1.383
 8017SOL    HW124950   6.040   6.371   1.476
 8017SOL    HW224951   6.070   6.397   1.318
 8018SOL     OW24952   2.815   3.611   0.951
 8018SOL    HW124953   2.828   3.567   0.863
 8018SOL    HW224954   2.900   3.656   0.979
 8019SOL     OW24955   2.423   3.501   0.804
 8019SOL    HW124956   2.363   3.537   0.876
 8019SOL    HW224957   2.425   3.565   0.727
 8020SOL     OW24958   0.198   0.238   6.900
 8020SOL    HW124959   0.246   0.174   6.961
 8020SOL    HW224960   0.265   0.283   6.841
 8021SOL     OW24961   1.054   3.009   0.634
 8021SOL    HW124962   1.094   2.918   0.640
 8021SOL    HW224963   0.975   3.015   0.695
 8022SOL     OW24964   4.221   0.327   2.345
 8022SOL    HW124965   4.162   0.382   2.403
 8022SOL    HW224966   4.317   0.352   2.360
 8023SOL     OW24967   3.939   5.018   2.275
 8023SOL    HW124968   3.863   4.956   2.294
 8023SOL    HW224969   4.013   5.000   2.340
 8024SOL     OW24970   2.544   0.905   6.186
 8024SOL    HW124971   2.549   0.986   6.127
 8024SOL    HW224972   2.612   0.912   6.258
 8025SOL     OW24973   1.003   6.674   1.329
 8025SOL    HW124974   0.957   6.609   1.269
 8025SOL    HW224975   1.007   6.638   1.422
 8026SOL     OW24976   0.782   6.863   6.361
 8026SOL    HW124977   0.876   6.884   6.385
 8026SOL    HW224978   0.736   6.822   6.440
 8027SOL     OW24979   4.490   0.030   6.608
 8027SOL    HW124980   4.479   0.053   6.511
 8027SOL    HW224981   4.443   6.974   6.627
 8028SOL     OW24982   3.647   6.028   6.317
 8028SOL    HW124983   3.690   6.111   6.353
 8028SOL    HW224984   3.701   5.948   6.343
 8029SOL     OW24985   0.707   6.836   1.745
 8029SOL    HW124986   0.693   6.764   1.813
 8029SOL    HW224987   0.646   6.913   1.765
 8030SOL     OW24988   0.633   4.052   1.216
 8030SOL    HW124989   0.714   4.084   1.265
 8030SOL    HW224990   0.662   4.009   1.130
 8031SOL     OW24991   6.733   0.270   2.929
 8031SOL    HW124992   6.829   0.299   2.932
 8031SOL    HW224993   6.727   0.178   2.890
 8032SOL     OW24994   0.269   3.131   0.816
 8032SOL    HW124995   0.325   3.174   0.887
 8032SOL    HW224996   0.232   3.201   0.756
 8033SOL     OW24997   3.455   4.458   1.435
 8033SOL    HW124998   3.487   4.534   1.379
 8033SOL    HW224999   3.468   4.481   1.532
 8034SOL     OW25000   0.843   0.533   5.582
 8034SOL    HW125001   0.882   0.611   5.532
 8034SOL    HW225002   0.743   0.544   5.586
 8035SOL     OW25003   5.893   0.038   4.712
 8035SOL    HW125004   5.875   7.001   4.639
 8035SOL    HW225005   5.990   0.037   4.735
 8036SOL     OW25006   4.721   4.194   3.707
 8036SOL    HW125007   4.730   4.169   3.610
 8036SOL    HW225008   4.759   4.122   3.764
 8037SOL     OW25009   2.582   1.727   6.309
 8037SOL    HW125010   2.579   1.636   6.268
 8037SOL    HW225011   2.657   1.730   6.376
 8038SOL     OW25012   6.431   5.716   1.901
 8038SOL    HW125013   6.523   5.696   1.934
 8038SOL    HW225014   6.414   5.668   1.815
 8039SOL     OW25015   1.999   2.587   5.020
 8039SOL    HW125016   2.063   2.519   5.056
 8039SOL    HW225017   2.019   2.676   5.060
 8040SOL     OW25018   1.047   6.399   5.987
 8040SOL    HW125019   1.019   6.337   6.060
 8040SOL    HW225020   1.130   6.447   6.015
 8041SOL     OW25021   2.878   1.297   2.804
 8041SOL    HW125022   2.928   1.383   2.794
 8041SOL    HW225023   2.932   1.233   2.858
 8042SOL     OW25024   3.828   3.877   5.939
 8042SOL    HW125025   3.833   3.974   5.917
 8042SOL    HW225026   3.755   3.862   6.007
 8043SOL     OW25027   5.126   4.839   6.831
 8043SOL    HW125028   5.162   4.858   6.740
 8043SOL    HW225029   5.163   4.905   6.896
 8044SOL     OW25030   0.958   2.869   1.445
 8044SOL    HW125031   1.025   2.940   1.422
 8044SOL    HW225032   0.884   2.909   1.498
 8045SOL     OW25033   6.070   3.552   5.402
 8045SOL    HW125034   6.005   3.610   5.452
 8045SOL    HW225035   6.118   3.608   5.334
 8046SOL     OW25036   0.225   4.128   0.921
 8046SOL    HW125037   0.312   4.082   0.939
 8046SOL    HW225038   0.192   4.172   1.004
 8047SOL     OW25039   3.245   6.631   6.723
 8047SOL    HW125040   3.229   6.536   6.695
 8047SOL    HW225041   3.158   6.674   6.745
 8048SOL     OW25042   4.392   1.567   6.599
 8048SOL    HW125043   4.436   1.497   6.656
 8048SOL    HW225044   4.340   1.629   6.657
 8049SOL     OW25045   2.010   1.148   1.061
 8049SOL    HW125046   2.006   1.241   1.025
 8049SOL    HW225047   1.933   1.095   1.026
 8050SOL     OW25048   0.054   5.797   6.017
 8050SOL    HW125049   0.005   5.813   5.931
 8050SOL    HW225050   0.131   5.736   5.999
 8051SOL     OW25051   4.527   6.403   2.749
 8051SOL    HW125052   4.564   6.350   2.825
 8051SOL    HW225053   4.574   6.377   2.665
 8052SOL     OW25054   3.224   1.440   3.154
 8052SOL    HW125055   3.182   1.527   3.128
 8052SOL    HW225056   3.177   1.403   3.234
 8053SOL     OW25057   0.951   2.319   6.198
 8053SOL    HW125058   0.944   2.311   6.098
 8053SOL    HW225059   0.865   2.354   6.235
 8054SOL     OW25060   5.046   3.692   5.336
 8054SOL    HW125061   5.129   3.732   5.375
 8054SOL    HW225062   5.068   3.646   5.250
 8055SOL     OW25063   6.560   0.113   6.857
 8055SOL    HW125064   6.654   0.123   6.890
 8055SOL    HW225065   6.498   0.162   6.917
 8056SOL     OW25066   2.582   1.997   3.771
 8056SOL    HW125067   2.649   1.977   3.700
 8056SOL    HW225068   2.607   1.948   3.855
 8057SOL     OW25069   3.034   2.003   2.057
 8057SOL    HW125070   3.127   1.968   2.046
 8057SOL    HW225071   3.023   2.088   2.006
 8058SOL     OW25072   3.905   6.370   1.656
 8058SOL    HW125073   3.847   6.395   1.579
 8058SOL    HW225074   3.912   6.270   1.662
 8059SOL     OW25075   3.854   3.064   5.714
 8059SOL    HW125076   3.798   3.027   5.789
 8059SOL    HW225077   3.823   3.156   5.692
 8060SOL     OW25078   0.683   0.797   5.634
 8060SOL    HW125079   0.751   0.774   5.564
 8060SOL    HW225080   0.727   0.846   5.709
 8061SOL     OW25081   6.990   0.887   1.767
 8061SOL    HW125082   7.009   0.906   1.670
 8061SOL    HW225083   7.023   0.795   1.790
 8062SOL     OW25084   4.481   5.028   5.909
 8062SOL    HW125085   4.514   5.117   5.875
 8062SOL    HW225086   4.538   5.000   5.986
 8063SOL     OW25087   2.294   4.695   3.014
 8063SOL    HW125088   2.344   4.637   3.078
 8063SOL    HW225089   2.289   4.788   3.050
 8064SOL     OW25090   0.082   2.985   0.989
 8064SOL    HW125091   0.153   3.013   0.924
 8064SOL    HW225092   0.055   2.891   0.969
 8065SOL     OW25093   4.750   0.193   6.555
 8065SOL    HW125094   4.765   0.291   6.570
 8065SOL    HW225095   4.729   0.149   6.642
 8066SOL     OW25096   0.308   0.576   5.906
 8066SOL    HW125097   0.221   0.538   5.937
 8066SOL    HW225098   0.309   0.578   5.806
 8067SOL     OW25099   5.089   0.739   4.243
 8067SOL    HW125100   5.188   0.737   4.228
 8067SOL    HW225101   5.062   0.662   4.302
 8068SOL     OW25102   6.718   4.209   1.653
 8068SOL    HW125103   6.759   4.151   1.723
 8068SOL    HW225104   6.664   4.153   1.590
 8069SOL     OW25105   1.409   2.655   2.245
 8069SOL    HW125106   1.328   2.632   2.191
 8069SOL    HW225107   1.428   2.581   2.310
 8070SOL     OW25108   4.875   3.495   1.171
 8070SOL    HW125109   4.918   3.404   1.168
 8070SOL    HW225110   4.845   3.520   1.079
 8071SOL     OW25111   2.892   0.429   5.929
 8071SOL    HW125112   2.855   0.515   5.895
 8071SOL    HW225113   2.976   0.407   5.880
 8072SOL     OW25114   2.236   2.196   5.808
 8072SOL    HW125115   2.214   2.101   5.832
 8072SOL    HW225116   2.204   2.215   5.715
 8073SOL     OW25117   5.456   0.418   6.476
 8073SOL    HW125118   5.551   0.386   6.477
 8073SOL    HW225119   5.406   0.374   6.551
 8074SOL     OW25120   6.468   0.646   0.646
 8074SOL    HW125121   6.466   0.587   0.727
 8074SOL    HW225122   6.555   0.694   0.643
 8075SOL     OW25123   0.183   0.436   1.384
 8075SOL    HW125124   0.253   0.466   1.320
 8075SOL    HW225125   0.133   0.358   1.345
 8076SOL     OW25126   6.649   6.222   0.533
 8076SOL    HW125127   6.681   6.271   0.614
 8076SOL    HW225128   6.657   6.123   0.548
 8077SOL     OW25129   5.730   4.237   1.189
 8077SOL    HW125130   5.747   4.143   1.219
 8077SOL    HW225131   5.715   4.295   1.269
 8078SOL     OW25132   6.493   1.274   1.896
 8078SOL    HW125133   6.436   1.292   1.976
 8078SOL    HW225134   6.587   1.301   1.916
 8079SOL     OW25135   0.479   0.978   6.893
 8079SOL    HW125136   0.496   0.896   6.838
 8079SOL    HW225137   0.563   1.031   6.900
 8080SOL     OW25138   1.545   4.076   3.700
 8080SOL    HW125139   1.539   4.061   3.602
 8080SOL    HW225140   1.478   4.145   3.727
 8081SOL     OW25141   6.083   0.255   5.657
 8081SOL    HW125142   6.053   0.214   5.571
 8081SOL    HW225143   6.005   0.294   5.704
 8082SOL     OW25144   4.283   2.204   4.675
 8082SOL    HW125145   4.300   2.105   4.678
 8082SOL    HW225146   4.235   2.232   4.758
 8083SOL     OW25147   6.626   2.967   4.415
 8083SOL    HW125148   6.691   2.961   4.339
 8083SOL    HW225149   6.641   3.053   4.465
 8084SOL     OW25150   5.298   1.738   6.588
 8084SOL    HW125151   5.351   1.707   6.668
 8084SOL    HW225152   5.261   1.830   6.606
 8085SOL     OW25153   1.658   6.042   4.332
 8085SOL    HW125154   1.578   6.085   4.375
 8085SOL    HW225155   1.679   6.090   4.247
 8086SOL     OW25156   6.959   2.409   2.392
 8086SOL    HW125157   6.948   2.330   2.452
 8086SOL    HW225158   6.883   2.472   2.406
 8087SOL     OW25159   6.807   0.879   6.694
 8087SOL    HW125160   6.855   0.967   6.697
 8087SOL    HW225161   6.776   0.855   6.786
 8088SOL     OW25162   0.210   6.947   5.475
 8088SOL    HW125163   0.271   6.945   5.395
 8088SOL    HW225164   0.249   7.008   5.545
 8089SOL     OW25165   6.492   1.656   6.961
 8089SOL    HW125166   6.479   1.638   0.029
 8089SOL    HW225167   6.569   1.719   6.949
 8090SOL     OW25168   4.504   2.346   5.024
 8090SOL    HW125169   4.423   2.331   4.968
 8090SOL    HW225170   4.507   2.441   5.055
 8091SOL     OW25171   0.294   3.817   4.751
 8091SOL    HW125172   0.393   3.829   4.752
 8091SOL    HW225173   0.272   3.725   4.716
 8092SOL     OW25174   4.868   0.305   5.724
 8092SOL    HW125175   4.802   0.254   5.780
 8092SOL    HW225176   4.915   0.371   5.781
 8093SOL     OW25177   2.990   6.461   3.565
 8093SOL    HW125178   2.916   6.509   3.610
 8093SOL    HW225179   3.024   6.516   3.488
 8094SOL     OW25180   2.104   3.844   4.304
 8094SOL    HW125181   2.132   3.936   4.276
 8094SOL    HW225182   2.118   3.834   4.403
 8095SOL     OW25183   1.138   5.326   5.157
 8095SOL    HW125184   1.194   5.408   5.147
 8095SOL    HW225185   1.136   5.299   5.254
 8096SOL     OW25186   0.573   5.065   1.172
 8096SOL    HW125187   0.617   5.131   1.112
 8096SOL    HW225188   0.495   5.108   1.218
 8097SOL     OW25189   4.947   6.306   6.846
 8097SOL    HW125190   4.868   6.266   6.892
 8097SOL    HW225191   4.962   6.399   6.880
 8098SOL     OW25192   2.731   5.997   4.742
 8098SOL    HW125193   2.649   5.939   4.744
 8098SOL    HW225194   2.802   5.955   4.799
 8099SOL     OW25195   2.307   4.318   2.663
 8099SOL    HW125196   2.367   4.295   2.740
 8099SOL    HW225197   2.330   4.409   2.629
 8100SOL     OW25198   0.024   0.175   0.381
 8100SOL    HW125199   0.028   0.275   0.375
 8100SOL    HW225200   0.086   0.135   0.315
 8101SOL     OW25201   2.036   5.585   0.510
 8101SOL    HW125202   1.994   5.668   0.548
 8101SOL    HW225203   2.098   5.611   0.436
 8102SOL     OW25204   0.936   4.504   4.337
 8102SOL    HW125205   0.999   4.431   4.311
 8102SOL    HW225206   0.945   4.523   4.435
 8103SOL     OW25207   4.393   0.822   1.570
 8103SOL    HW125208   4.462   0.867   1.626
 8103SOL    HW225209   4.318   0.791   1.627
 8104SOL     OW25210   1.158   5.360   6.626
 8104SOL    HW125211   1.121   5.351   6.534
 8104SOL    HW225212   1.129   5.281   6.681
 8105SOL     OW25213   6.916   6.887   3.052
 8105SOL    HW125214   6.866   6.875   3.138
 8105SOL    HW225215   6.979   6.810   3.039
 8106SOL     OW25216   2.832   6.879   6.253
 8106SOL    HW125217   2.772   6.873   6.173
 8106SOL    HW225218   2.807   6.808   6.319
 8107SOL     OW25219   0.840   6.718   0.234
 8107SOL    HW125220   0.837   6.783   0.158
 8107SOL    HW225221   0.891   6.758   0.310
 8108SOL     OW25222   1.574   1.307   0.606
 8108SOL    HW125223   1.611   1.365   0.534
 8108SOL    HW225224   1.503   1.247   0.568
 8109SOL     OW25225   6.933   3.390   2.329
 8109SOL    HW125226   6.838   3.361   2.315
 8109SOL    HW225227   6.992   3.341   2.265
 8110SOL     OW25228   4.386   4.358   0.479
 8110SOL    HW125229   4.340   4.361   0.568
 8110SOL    HW225230   4.321   4.326   0.410
 8111SOL     OW25231   6.039   1.595   2.236
 8111SOL    HW125232   6.094   1.598   2.153
 8111SOL    HW225233   6.098   1.589   2.316
 8112SOL     OW25234   2.011   5.283   6.324
 8112SOL    HW125235   2.015   5.189   6.289
 8112SOL    HW225236   1.973   5.343   6.254
 8113SOL     OW25237   5.138   5.210   6.716
 8113SOL    HW125238   5.208   5.216   6.788
 8113SOL    HW225239   5.136   5.296   6.665
 8114SOL     OW25240   2.116   3.609   2.780
 8114SOL    HW125241   2.048   3.681   2.793
 8114SOL    HW225242   2.136   3.599   2.683
 8115SOL     OW25243   2.144   1.753   6.212
 8115SOL    HW125244   2.187   1.690   6.147
 8115SOL    HW225245   2.212   1.818   6.245
 8116SOL     OW25246   4.189   3.271   2.145
 8116SOL    HW125247   4.160   3.286   2.051
 8116SOL    HW225248   4.283   3.238   2.147
 8117SOL     OW25249   1.515   6.983   4.012
 8117SOL    HW125250   1.507   6.898   3.960
 8117SOL    HW225251   1.497   6.964   4.109
 8118SOL     OW25252   6.499   2.624   6.774
 8118SOL    HW125253   6.571   2.644   6.707
 8118SOL    HW225254   6.473   2.528   6.767
 8119SOL     OW25255   5.087   5.654   6.236
 8119SOL    HW125256   5.056   5.612   6.151
 8119SOL    HW225257   5.187   5.653   6.239
 8120SOL     OW25258   2.329   6.279   2.748
 8120SOL    HW125259   2.351   6.185   2.773
 8120SOL    HW225260   2.245   6.280   2.692
 8121SOL     OW25261   2.140   2.542   2.761
 8121SOL    HW125262   2.101   2.457   2.798
 8121SOL    HW225263   2.094   2.621   2.803
 8122SOL     OW25264   0.704   4.730   1.361
 8122SOL    HW125265   0.739   4.815   1.322
 8122SOL    HW225266   0.741   4.719   1.453
 8123SOL     OW25267   6.867   1.628   6.564
 8123SOL    HW125268   6.881   1.612   6.466
 8123SOL    HW225269   6.781   1.678   6.578
 8124SOL     OW25270   6.573   6.332   5.564
 8124SOL    HW125271   6.558   6.429   5.587
 8124SOL    HW225272   6.561   6.276   5.645
 8125SOL     OW25273   0.921   5.819   1.742
 8125SOL    HW125274   0.913   5.729   1.785
 8125SOL    HW225275   0.830   5.856   1.725
 8126SOL     OW25276   3.377   5.561   4.751
 8126SOL    HW125277   3.400   5.464   4.741
 8126SOL    HW225278   3.391   5.608   4.664
 8127SOL     OW25279   3.851   1.731   6.379
 8127SOL    HW125280   3.766   1.783   6.367
 8127SOL    HW225281   3.902   1.731   6.293
 8128SOL     OW25282   3.320   3.564   1.268
 8128SOL    HW125283   3.411   3.604   1.258
 8128SOL    HW225284   3.326   3.484   1.327
 8129SOL     OW25285   0.454   2.349   3.515
 8129SOL    HW125286   0.495   2.297   3.589
 8129SOL    HW225287   0.517   2.355   3.438
 8130SOL     OW25288   6.780   6.190   6.851
 8130SOL    HW125289   6.801   6.094   6.829
 8130SOL    HW225290   6.863   6.245   6.846
 8131SOL     OW25291   1.497   2.100   1.234
 8131SOL    HW125292   1.458   2.166   1.298
 8131SOL    HW225293   1.502   2.011   1.277
 8132SOL     OW25294   6.165   1.530   4.498
 8132SOL    HW125295   6.119   1.549   4.585
 8132SOL    HW225296   6.140   1.601   4.431
 8133SOL     OW25297   3.668   5.414   1.429
 8133SOL    HW125298   3.678   5.338   1.493
 8133SOL    HW225299   3.570   5.433   1.416
 8134SOL     OW25300   5.947   2.325   6.206
 8134SOL    HW125301   6.013   2.261   6.166
 8134SOL    HW225302   5.872   2.274   6.247
 8135SOL     OW25303   2.317   6.501   1.852
 8135SOL    HW125304   2.350   6.593   1.872
 8135SOL    HW225305   2.284   6.459   1.937
 8136SOL     OW25306   4.599   4.606   2.392
 8136SOL    HW125307   4.589   4.612   2.293
 8136SOL    HW225308   4.623   4.512   2.418
 8137SOL     OW25309   4.678   1.340   6.004
 8137SOL    HW125310   4.628   1.406   6.060
 8137SOL    HW225311   4.710   1.384   5.920
 8138SOL     OW25312   5.398   0.829   2.153
 8138SOL    HW125313   5.315   0.864   2.199
 8138SOL    HW225314   5.387   0.732   2.134
 8139SOL     OW25315   0.914   1.135   3.832
 8139SOL    HW125316   0.884   1.060   3.774
 8139SOL    HW225317   0.843   1.155   3.900
 8140SOL     OW25318   5.262   2.776   3.367
 8140SOL    HW125319   5.283   2.695   3.422
 8140SOL    HW225320   5.347   2.827   3.350
 8141SOL     OW25321   6.122   3.653   3.770
 8141SOL    HW125322   6.060   3.595   3.822
 8141SOL    HW225323   6.213   3.612   3.769
 8142SOL     OW25324   0.141   6.592   0.175
 8142SOL    HW125325   0.061   6.550   0.219
 8142SOL    HW225326   0.119   6.615   0.080
 8143SOL     OW25327   6.374   2.838   5.439
 8143SOL    HW125328   6.326   2.827   5.352
 8143SOL    HW225329   6.418   2.928   5.442
 8144SOL     OW25330   5.158   6.283   0.032
 8144SOL    HW125331   5.087   6.268   6.993
 8144SOL    HW225332   5.248   6.279   7.019
 8145SOL     OW25333   4.490   6.484   3.486
 8145SOL    HW125334   4.460   6.537   3.406
 8145SOL    HW225335   4.544   6.406   3.455
 8146SOL     OW25336   3.568   1.661   4.210
 8146SOL    HW125337   3.562   1.648   4.309
 8146SOL    HW225338   3.484   1.704   4.177
 8147SOL     OW25339   5.138   1.202   3.297
 8147SOL    HW125340   5.128   1.301   3.291
 8147SOL    HW225341   5.050   1.160   3.320
 8148SOL     OW25342   0.192   4.416   2.805
 8148SOL    HW125343   0.104   4.393   2.846
 8148SOL    HW225344   0.266   4.383   2.864
 8149SOL     OW25345   3.476   5.484   3.806
 8149SOL    HW125346   3.522   5.531   3.730
 8149SOL    HW225347   3.534   5.490   3.888
 8150SOL     OW25348   1.092   6.550   0.911
 8150SOL    HW125349   1.073   6.486   0.837
 8150SOL    HW225350   1.091   6.644   0.876
 8151SOL     OW25351   0.466   1.341   4.545
 8151SOL    HW125352   0.479   1.243   4.526
 8151SOL    HW225353   0.380   1.371   4.504
 8152SOL     OW25354   0.973   0.688   3.468
 8152SOL    HW125355   0.961   0.707   3.371
 8152SOL    HW225356   1.061   0.723   3.499
 8153SOL     OW25357   1.919   6.667   0.222
 8153SOL    HW125358   1.984   6.619   0.281
 8153SOL    HW225359   1.835   6.686   0.273
 8154SOL     OW25360   2.028   6.538   2.929
 8154SOL    HW125361   2.126   6.538   2.949
 8154SOL    HW225362   1.982   6.469   2.984
 8155SOL     OW25363   2.858   3.729   4.789
 8155SOL    HW125364   2.919   3.802   4.819
 8155SOL    HW225365   2.768   3.741   4.831
 8156SOL     OW25366   0.122   0.326   5.578
 8156SOL    HW125367   0.167   0.413   5.597
 8156SOL    HW225368   0.149   0.259   5.647
 8157SOL     OW25369   5.696   1.885   6.802
 8157SOL    HW125370   5.689   1.925   6.710
 8157SOL    HW225371   5.781   1.834   6.809
 8158SOL     OW25372   1.067   5.463   2.567
 8158SOL    HW125373   1.036   5.371   2.542
 8158SOL    HW225374   1.093   5.513   2.485
 8159SOL     OW25375   0.569   5.796   0.737
 8159SOL    HW125376   0.555   5.751   0.825
 8159SOL    HW225377   0.633   5.872   0.748
 8160SOL     OW25378   4.471   1.783   1.849
 8160SOL    HW125379   4.506   1.764   1.941
 8160SOL    HW225380   4.390   1.841   1.855
 8161SOL     OW25381   4.160   3.189   1.381
 8161SOL    HW125382   4.111   3.102   1.393
 8161SOL    HW225383   4.230   3.178   1.311
 8162SOL     OW25384   6.014   0.703   2.171
 8162SOL    HW125385   5.970   0.791   2.189
 8162SOL    HW225386   5.952   0.629   2.198
 8163SOL     OW25387   2.083   3.175   5.632
 8163SOL    HW125388   2.091   3.165   5.731
 8163SOL    HW225389   2.015   3.246   5.611
 8164SOL     OW25390   4.672   3.640   1.687
 8164SOL    HW125391   4.658   3.729   1.732
 8164SOL    HW225392   4.591   3.584   1.699
 8165SOL     OW25393   1.928   4.781   1.503
 8165SOL    HW125394   1.883   4.767   1.592
 8165SOL    HW225395   1.941   4.879   1.487
 8166SOL     OW25396   3.896   6.828   1.415
 8166SOL    HW125397   3.812   6.781   1.443
 8166SOL    HW225398   3.941   6.777   1.342
 8167SOL     OW25399   5.225   2.671   4.599
 8167SOL    HW125400   5.126   2.685   4.609
 8167SOL    HW225401   5.242   2.592   4.539
 8168SOL     OW25402   2.712   2.014   2.725
 8168SOL    HW125403   2.674   2.035   2.635
 8168SOL    HW225404   2.725   2.098   2.777
 8169SOL     OW25405   5.363   4.127   5.013
 8169SOL    HW125406   5.326   4.034   5.013
 8169SOL    HW225407   5.331   4.176   4.931
 8170SOL     OW25408   1.935   5.082   3.939
 8170SOL    HW125409   1.992   5.156   3.974
 8170SOL    HW225410   1.884   5.115   3.859
 8171SOL     OW25411   1.707   1.086   6.529
 8171SOL    HW125412   1.801   1.051   6.535
 8171SOL    HW225413   1.652   1.047   6.603
 8172SOL     OW25414   0.477   6.016   1.151
 8172SOL    HW125415   0.499   6.102   1.196
 8172SOL    HW225416   0.433   5.955   1.215
 8173SOL     OW25417   6.135   3.441   0.416
 8173SOL    HW125418   6.055   3.393   0.381
 8173SOL    HW225419   6.126   3.453   0.514
 8174SOL     OW25420   5.315   6.456   2.309
 8174SOL    HW125421   5.246   6.409   2.254
 8174SOL    HW225422   5.406   6.425   2.282
 8175SOL     OW25423   2.089   2.646   4.164
 8175SOL    HW125424   2.012   2.695   4.123
 8175SOL    HW225425   2.137   2.593   4.094
 8176SOL     OW25426   3.826   5.835   3.459
 8176SOL    HW125427   3.922   5.833   3.429
 8176SOL    HW225428   3.821   5.814   3.556
 8177SOL     OW25429   1.717   6.283   6.124
 8177SOL    HW125430   1.655   6.312   6.052
 8177SOL    HW225431   1.665   6.256   6.205
 8178SOL     OW25432   2.539   6.524   5.809
 8178SOL    HW125433   2.513   6.428   5.803
 8178SOL    HW225434   2.494   6.565   5.888
 8179SOL     OW25435   3.869   0.566   0.428
 8179SOL    HW125436   3.810   0.612   0.362
 8179SOL    HW225437   3.907   0.483   0.387
 8180SOL     OW25438   4.979   4.545   5.351
 8180SOL    HW125439   4.905   4.482   5.324
 8180SOL    HW225440   5.035   4.567   5.271
 8181SOL     OW25441   2.611   2.278   2.329
 8181SOL    HW125442   2.696   2.242   2.290
 8181SOL    HW225443   2.555   2.316   2.255
 8182SOL     OW25444   5.481   2.693   5.585
 8182SOL    HW125445   5.529   2.769   5.540
 8182SOL    HW225446   5.384   2.696   5.561
 8183SOL     OW25447   2.117   3.145   3.380
 8183SOL    HW125448   2.082   3.221   3.326
 8183SOL    HW225449   2.191   3.099   3.330
 8184SOL     OW25450   6.147   5.918   4.367
 8184SOL    HW125451   6.189   6.007   4.353
 8184SOL    HW225452   6.049   5.924   4.350
 8185SOL     OW25453   1.143   2.284   3.104
 8185SOL    HW125454   1.098   2.258   3.189
 8185SOL    HW225455   1.195   2.369   3.119
 8186SOL     OW25456   4.432   4.047   6.857
 8186SOL    HW125457   4.388   3.977   6.801
 8186SOL    HW225458   4.381   4.133   6.848
 8187SOL     OW25459   1.957   1.861   5.961
 8187SOL    HW125460   1.902   1.779   5.941
 8187SOL    HW225461   1.918   1.909   6.040
 8188SOL     OW25462   4.904   2.913   2.542
 8188SOL    HW125463   4.872   2.931   2.635
 8188SOL    HW225464   4.937   2.999   2.501
 8189SOL     OW25465   6.709   5.031   2.882
 8189SOL    HW125466   6.621   5.080   2.879
 8189SOL    HW225467   6.784   5.098   2.876
 8190SOL     OW25468   6.315   3.392   2.154
 8190SOL    HW125469   6.326   3.490   2.169
 8190SOL    HW225470   6.249   3.355   2.218
 8191SOL     OW25471   6.077   5.202   1.517
 8191SOL    HW125472   6.134   5.220   1.598
 8191SOL    HW225473   6.136   5.194   1.436
 8192SOL     OW25474   1.427   2.295   1.035
 8192SOL    HW125475   1.442   2.266   0.940
 8192SOL    HW225476   1.454   2.222   1.097
 8193SOL     OW25477   3.910   6.975   5.653
 8193SOL    HW125478   3.884   6.998   5.747
 8193SOL    HW225479   3.827   6.964   5.598
 8194SOL     OW25480   1.907   0.958   2.710
 8194SOL    HW125481   1.886   0.990   2.803
 8194SOL    HW225482   1.883   1.030   2.645
 8195SOL     OW25483   5.572   1.451   1.774
 8195SOL    HW125484   5.598   1.546   1.794
 8195SOL    HW225485   5.550   1.443   1.677
 8196SOL     OW25486   1.796   1.102   0.532
 8196SOL    HW125487   1.821   1.021   0.585
 8196SOL    HW225488   1.710   1.139   0.567
 8197SOL     OW25489   0.599   6.976   0.805
 8197SOL    HW125490   0.521   6.932   0.850
 8197SOL    HW225491   0.569   7.021   0.722
 8198SOL     OW25492   3.523   0.672   2.989
 8198SOL    HW125493   3.531   0.594   3.051
 8198SOL    HW225494   3.436   0.718   3.005
 8199SOL     OW25495   5.711   4.832   1.117
 8199SOL    HW125496   5.729   4.754   1.058
 8199SOL    HW225497   5.797   4.868   1.153
 8200SOL     OW25498   4.150   3.682   1.711
 8200SOL    HW125499   4.181   3.684   1.616
 8200SOL    HW225500   4.180   3.765   1.758
 8201SOL     OW25501   0.789   1.402   5.324
 8201SOL    HW125502   0.867   1.424   5.382
 8201SOL    HW225503   0.779   1.473   5.254
 8202SOL     OW25504   1.803   3.464   4.585
 8202SOL    HW125505   1.868   3.389   4.572
 8202SOL    HW225506   1.710   3.428   4.585
 8203SOL     OW25507   6.392   4.532   6.815
 8203SOL    HW125508   6.424   4.465   6.748
 8203SOL    HW225509   6.354   4.611   6.768
 8204SOL     OW25510   3.613   0.360   0.590
 8204SOL    HW125511   3.528   0.406   0.565
 8204SOL    HW225512   3.593   0.265   0.614
 8205SOL     OW25513   4.411   6.666   3.235
 8205SOL    HW125514   4.353   6.712   3.167
 8205SOL    HW225515   4.495   6.636   3.191
 8206SOL     OW25516   3.601   1.832   4.853
 8206SOL    HW125517   3.557   1.770   4.790
 8206SOL    HW225518   3.698   1.809   4.861
 8207SOL     OW25519   2.945   6.075   6.922
 8207SOL    HW125520   2.997   5.992   6.901
 8207SOL    HW225521   2.920   6.120   6.836
 8208SOL     OW25522   2.064   6.015   0.442
 8208SOL    HW125523   1.985   5.957   0.463
 8208SOL    HW225524   2.148   5.962   0.454
 8209SOL     OW25525   0.750   5.428   5.739
 8209SOL    HW125526   0.727   5.478   5.656
 8209SOL    HW225527   0.665   5.394   5.782
 8210SOL     OW25528   2.408   0.957   0.720
 8210SOL    HW125529   2.362   1.007   0.646
 8210SOL    HW225530   2.424   0.862   0.691
 8211SOL     OW25531   3.587   4.133   3.563
 8211SOL    HW125532   3.645   4.120   3.643
 8211SOL    HW225533   3.491   4.130   3.590
 8212SOL     OW25534   4.300   4.854   6.541
 8212SOL    HW125535   4.285   4.756   6.554
 8212SOL    HW225536   4.313   4.898   6.630
 8213SOL     OW25537   4.614   4.321   1.623
 8213SOL    HW125538   4.576   4.329   1.715
 8213SOL    HW225539   4.599   4.229   1.588
 8214SOL     OW25540   3.841   5.562   3.660
 8214SOL    HW125541   3.841   5.463   3.677
 8214SOL    HW225542   3.746   5.592   3.646
 8215SOL     OW25543   2.757   6.290   6.320
 8215SOL    HW125544   2.701   6.317   6.398
 8215SOL    HW225545   2.799   6.201   6.337
 8216SOL     OW25546   4.972   5.342   0.680
 8216SOL    HW125547   4.889   5.328   0.734
 8216SOL    HW225548   4.949   5.390   0.595
 8217SOL     OW25549   3.262   6.475   3.413
 8217SOL    HW125550   3.329   6.402   3.427
 8217SOL    HW225551   3.184   6.439   3.362
 8218SOL     OW25552   1.759   6.677   4.149
 8218SOL    HW125553   1.805   6.766   4.143
 8218SOL    HW225554   1.670   6.683   4.104
 8219SOL     OW25555   3.789   3.225   3.406
 8219SOL    HW125556   3.704   3.237   3.356
 8219SOL    HW225557   3.865   3.265   3.353
 8220SOL     OW25558   4.504   3.947   5.617
 8220SOL    HW125559   4.456   4.025   5.659
 8220SOL    HW225560   4.493   3.951   5.518
 8221SOL     OW25561   6.695   3.855   3.972
 8221SOL    HW125562   6.705   3.815   3.881
 8221SOL    HW225563   6.665   3.784   4.036
 8222SOL     OW25564   5.496   2.430   6.003
 8222SOL    HW125565   5.575   2.444   6.062
 8222SOL    HW225566   5.412   2.450   6.054
 8223SOL     OW25567   1.185   6.166   5.627
 8223SOL    HW125568   1.235   6.238   5.675
 8223SOL    HW225569   1.088   6.173   5.650
 8224SOL     OW25570   5.848   1.019   5.973
 8224SOL    HW125571   5.761   0.974   5.955
 8224SOL    HW225572   5.850   1.050   6.068
 8225SOL     OW25573   6.055   2.736   0.100
 8225SOL    HW125574   6.128   2.704   0.040
 8225SOL    HW225575   6.019   2.659   0.153
 8226SOL     OW25576   4.115   1.384   6.791
 8226SOL    HW125577   4.190   1.320   6.772
 8226SOL    HW225578   4.031   1.333   6.807
 8227SOL     OW25579   5.368   3.366   2.416
 8227SOL    HW125580   5.367   3.395   2.512
 8227SOL    HW225581   5.364   3.447   2.357
 8228SOL     OW25582   3.145   1.247   4.712
 8228SOL    HW125583   3.147   1.151   4.683
 8228SOL    HW225584   3.086   1.299   4.650
 8229SOL     OW25585   3.975   4.702   0.903
 8229SOL    HW125586   4.030   4.775   0.862
 8229SOL    HW225587   3.889   4.693   0.854
 8230SOL     OW25588   6.145   0.632   6.186
 8230SOL    HW125589   6.102   0.657   6.100
 8230SOL    HW225590   6.238   0.669   6.189
 8231SOL     OW25591   3.406   1.649   1.984
 8231SOL    HW125592   3.480   1.672   1.922
 8231SOL    HW225593   3.420   1.557   2.020
 8232SOL     OW25594   4.063   6.605   3.470
 8232SOL    HW125595   4.072   6.527   3.408
 8232SOL    HW225596   4.153   6.627   3.508
 8233SOL     OW25597   2.544   1.237   6.314
 8233SOL    HW125598   2.573   1.220   6.408
 8233SOL    HW225599   2.471   1.305   6.314
 8234SOL     OW25600   1.130   2.798   0.055
 8234SOL    HW125601   1.177   2.865   7.027
 8234SOL    HW225602   1.090   2.844   0.134
 8235SOL     OW25603   0.392   6.708   1.127
 8235SOL    HW125604   0.321   6.637   1.121
 8235SOL    HW225605   0.477   6.667   1.158
 8236SOL     OW25606   0.834   0.158   0.998
 8236SOL    HW125607   0.920   0.109   1.009
 8236SOL    HW225608   0.835   0.241   1.054
 8237SOL     OW25609   4.367   5.236   5.561
 8237SOL    HW125610   4.306   5.292   5.617
 8237SOL    HW225611   4.443   5.292   5.528
 8238SOL     OW25612   6.499   5.183   0.309
 8238SOL    HW125613   6.407   5.164   0.344
 8238SOL    HW225614   6.535   5.264   0.355
 8239SOL     OW25615   5.030   2.008   4.810
 8239SOL    HW125616   4.980   1.928   4.778
 8239SOL    HW225617   4.965   2.078   4.841
 8240SOL     OW25618   3.517   3.692   4.878
 8240SOL    HW125619   3.472   3.727   4.961
 8240SOL    HW225620   3.553   3.769   4.825
 8241SOL     OW25621   1.116   2.873   5.567
 8241SOL    HW125622   1.071   2.921   5.493
 8241SOL    HW225623   1.201   2.920   5.591
 8242SOL     OW25624   0.313   2.602   3.450
 8242SOL    HW125625   0.329   2.613   3.352
 8242SOL    HW225626   0.356   2.518   3.482
 8243SOL     OW25627   1.148   6.036   3.475
 8243SOL    HW125628   1.223   5.977   3.443
 8243SOL    HW225629   1.162   6.129   3.441
 8244SOL     OW25630   5.569   0.940   3.801
 8244SOL    HW125631   5.669   0.948   3.801
 8244SOL    HW225632   5.541   0.877   3.729
 8245SOL     OW25633   5.632   3.779   2.084
 8245SOL    HW125634   5.614   3.751   2.179
 8245SOL    HW225635   5.671   3.871   2.084
 8246SOL     OW25636   1.974   4.301   6.491
 8246SOL    HW125637   1.992   4.341   6.401
 8246SOL    HW225638   2.024   4.215   6.500
 8247SOL     OW25639   2.160   4.453   3.596
 8247SOL    HW125640   2.240   4.492   3.641
 8247SOL    HW225641   2.106   4.402   3.663
 8248SOL     OW25642   0.057   5.931   2.802
 8248SOL    HW125643   0.037   5.832   2.799
 8248SOL    HW225644   0.005   5.973   2.876
 8249SOL     OW25645   2.798   0.700   6.143
 8249SOL    HW125646   2.835   0.780   6.191
 8249SOL    HW225647   2.853   0.681   6.062
 8250SOL     OW25648   1.280   1.631   0.120
 8250SOL    HW125649   1.354   1.661   0.179
 8250SOL    HW225650   1.203   1.695   0.128
 8251SOL     OW25651   1.414   1.963   6.299
 8251SOL    HW125652   1.316   1.978   6.285
 8251SOL    HW225653   1.452   1.913   6.222
 8252SOL     OW25654   0.571   2.072   6.772
 8252SOL    HW125655   0.509   2.000   6.740
 8252SOL    HW225656   0.517   2.149   6.807
 8253SOL     OW25657   6.374   4.839   5.976
 8253SOL    HW125658   6.351   4.872   5.884
 8253SOL    HW225659   6.309   4.769   6.003
 8254SOL     OW25660   5.226   4.886   6.593
 8254SOL    HW125661   5.261   4.972   6.558
 8254SOL    HW225662   5.218   4.820   6.519
 8255SOL     OW25663   1.548   6.896   5.972
 8255SOL    HW125664   1.558   6.978   6.028
 8255SOL    HW225665   1.590   6.818   6.020
 8256SOL     OW25666   1.372   5.764   3.004
 8256SOL    HW125667   1.420   5.814   2.932
 8256SOL    HW225668   1.296   5.712   2.963
 8257SOL     OW25669   4.752   4.119   3.445
 8257SOL    HW125670   4.726   4.135   3.350
 8257SOL    HW225671   4.812   4.039   3.450
 8258SOL     OW25672   0.570   3.773   4.234
 8258SOL    HW125673   0.658   3.812   4.261
 8258SOL    HW225674   0.496   3.826   4.275
 8259SOL     OW25675   5.456   2.731   4.179
 8259SOL    HW125676   5.399   2.797   4.131
 8259SOL    HW225677   5.433   2.731   4.276
 8260SOL     OW25678   4.763   2.364   6.345
 8260SOL    HW125679   4.850   2.320   6.368
 8260SOL    HW225680   4.688   2.308   6.380
 8261SOL     OW25681   5.808   2.249   2.880
 8261SOL    HW125682   5.812   2.297   2.793
 8261SOL    HW225683   5.894   2.262   2.929
 8262SOL     OW25684   4.936   3.854   1.957
 8262SOL    HW125685   4.857   3.816   2.005
 8262SOL    HW225686   4.920   3.849   1.858
 8263SOL     OW25687   6.197   1.350   6.899
 8263SOL    HW125688   6.168   1.401   6.980
 8263SOL    HW225689   6.157   1.391   6.817
 8264SOL     OW25690   3.273   0.963   1.588
 8264SOL    HW125691   3.325   1.034   1.635
 8264SOL    HW225692   3.176   0.987   1.586
 8265SOL     OW25693   4.331   5.658   0.434
 8265SOL    HW125694   4.392   5.700   0.368
 8265SOL    HW225695   4.309   5.565   0.405
 8266SOL     OW25696   4.813   2.502   3.446
 8266SOL    HW125697   4.796   2.594   3.480
 8266SOL    HW225698   4.735   2.472   3.391
 8267SOL     OW25699   1.957   3.233   2.995
 8267SOL    HW125700   2.014   3.315   3.003
 8267SOL    HW225701   1.870   3.249   3.042
 8268SOL     OW25702   2.749   5.073   1.580
 8268SOL    HW125703   2.779   5.040   1.669
 8268SOL    HW225704   2.690   5.153   1.592
 8269SOL     OW25705   6.847   1.380   4.210
 8269SOL    HW125706   6.755   1.413   4.190
 8269SOL    HW225707   6.842   1.293   4.260
 8270SOL     OW25708   3.554   4.390   0.350
 8270SOL    HW125709   3.483   4.370   0.282
 8270SOL    HW225710   3.640   4.348   0.321
 8271SOL     OW25711   3.225   7.006   5.546
 8271SOL    HW125712   3.162   6.958   5.484
 8271SOL    HW225713   3.249   6.945   5.622
 8272SOL     OW25714   0.927   0.421   2.053
 8272SOL    HW125715   0.959   0.464   1.968
 8272SOL    HW225716   0.991   0.348   2.079
 8273SOL     OW25717   4.553   6.834   5.726
 8273SOL    HW125718   4.483   6.874   5.667
 8273SOL    HW225719   4.640   6.879   5.709
 8274SOL     OW25720   5.656   6.720   3.629
 8274SOL    HW125721   5.675   6.817   3.614
 8274SOL    HW225722   5.558   6.707   3.644
 8275SOL     OW25723   4.762   0.831   4.586
 8275SOL    HW125724   4.665   0.853   4.588
 8275SOL    HW225725   4.807   0.882   4.513
 8276SOL     OW25726   5.776   2.658   0.929
 8276SOL    HW125727   5.859   2.706   0.900
 8276SOL    HW225728   5.760   2.676   1.026
 8277SOL     OW25729   1.506   0.066   1.741
 8277SOL    HW125730   1.422   0.023   1.775
 8277SOL    HW225731   1.522   0.151   1.790
 8278SOL     OW25732   1.654   0.468   1.352
 8278SOL    HW125733   1.686   0.387   1.401
 8278SOL    HW225734   1.685   0.464   1.257
 8279SOL     OW25735   5.693   5.109   5.599
 8279SOL    HW125736   5.770   5.065   5.553
 8279SOL    HW225737   5.672   5.059   5.684
 8280SOL     OW25738   6.182   4.254   6.887
 8280SOL    HW125739   6.150   4.163   6.864
 8280SOL    HW225740   6.272   4.248   6.930
 8281SOL     OW25741   3.005   4.787   6.596
 8281SOL    HW125742   3.061   4.849   6.651
 8281SOL    HW225743   2.991   4.827   6.505
 8282SOL     OW25744   4.086   2.558   1.107
 8282SOL    HW125745   4.063   2.653   1.128
 8282SOL    HW225746   4.185   2.550   1.096
 8283SOL     OW25747   0.887   1.085   3.347
 8283SOL    HW125748   0.977   1.077   3.390
 8283SOL    HW225749   0.870   1.005   3.290
 8284SOL     OW25750   5.110   2.108   1.891
 8284SOL    HW125751   5.050   2.092   1.969
 8284SOL    HW225752   5.149   2.200   1.897
 8285SOL     OW25753   0.676   4.919   0.506
 8285SOL    HW125754   0.679   4.840   0.444
 8285SOL    HW225755   0.735   4.992   0.470
 8286SOL     OW25756   6.386   1.677   6.464
 8286SOL    HW125757   6.469   1.630   6.436
 8286SOL    HW225758   6.334   1.706   6.384
 8287SOL     OW25759   0.400   0.496   3.358
 8287SOL    HW125760   0.400   0.594   3.380
 8287SOL    HW225761   0.314   0.472   3.312
 8288SOL     OW25762   2.922   0.114   2.227
 8288SOL    HW125763   3.021   0.099   2.234
 8288SOL    HW225764   2.877   0.077   2.308
 8289SOL     OW25765   6.052   7.015   0.326
 8289SOL    HW125766   6.130   0.037   0.363
 8289SOL    HW225767   5.984   7.001   0.398
 8290SOL     OW25768   5.159   2.700   1.933
 8290SOL    HW125769   5.181   2.639   2.009
 8290SOL    HW225770   5.061   2.696   1.914
 8291SOL     OW25771   5.357   5.693   5.511
 8291SOL    HW125772   5.342   5.699   5.610
 8291SOL    HW225773   5.454   5.679   5.493
 8292SOL     OW25774   6.743   3.806   5.319
 8292SOL    HW125775   6.838   3.802   5.286
 8292SOL    HW225776   6.710   3.712   5.334
 8293SOL     OW25777   2.676   5.745   4.291
 8293SOL    HW125778   2.709   5.762   4.384
 8293SOL    HW225779   2.661   5.832   4.244
 8294SOL     OW25780   6.878   3.308   6.312
 8294SOL    HW125781   6.957   3.349   6.357
 8294SOL    HW225782   6.890   3.208   6.307
 8295SOL     OW25783   4.291   5.143   1.801
 8295SOL    HW125784   4.264   5.049   1.824
 8295SOL    HW225785   4.212   5.192   1.764
 8296SOL     OW25786   3.609   0.483   2.354
 8296SOL    HW125787   3.684   0.547   2.373
 8296SOL    HW225788   3.627   0.435   2.268
 8297SOL     OW25789   5.545   4.314   1.761
 8297SOL    HW125790   5.477   4.267   1.819
 8297SOL    HW225791   5.530   4.289   1.666
 8298SOL     OW25792   6.966   6.881   0.982
 8298SOL    HW125793   0.012   6.893   1.045
 8298SOL    HW225794   6.917   6.968   0.972
 8299SOL     OW25795   0.931   2.553   6.464
 8299SOL    HW125796   0.954   2.584   6.556
 8299SOL    HW225797   1.014   2.527   6.415
 8300SOL     OW25798   5.020   5.630   3.896
 8300SOL    HW125799   5.064   5.568   3.831
 8300SOL    HW225800   4.944   5.582   3.941
 8301SOL     OW25801   6.540   5.409   0.446
 8301SOL    HW125802   6.474   5.420   0.519
 8301SOL    HW225803   6.548   5.495   0.395
 8302SOL     OW25804   3.798   6.696   5.966
 8302SOL    HW125805   3.768   6.780   5.921
 8302SOL    HW225806   3.718   6.648   6.003
 8303SOL     OW25807   1.356   5.055   3.711
 8303SOL    HW125808   1.375   5.059   3.809
 8303SOL    HW225809   1.268   5.099   3.692
 8304SOL     OW25810   5.499   2.948   3.754
 8304SOL    HW125811   5.554   2.940   3.838
 8304SOL    HW225812   5.503   3.042   3.721
 8305SOL     OW25813   4.433   6.831   5.332
 8305SOL    HW125814   4.339   6.829   5.301
 8305SOL    HW225815   4.438   6.878   5.420
 8306SOL     OW25816   4.896   1.157   4.006
 8306SOL    HW125817   4.985   1.173   4.047
 8306SOL    HW225818   4.904   1.163   3.906
 8307SOL     OW25819   0.055   4.954   4.243
 8307SOL    HW125820   6.988   4.975   4.248
 8307SOL    HW225821   0.094   4.955   4.336
 8308SOL     OW25822   2.084   5.306   0.124
 8308SOL    HW125823   1.995   5.287   0.082
 8308SOL    HW225824   2.076   5.379   0.191
 8309SOL     OW25825   6.567   4.770   2.797
 8309SOL    HW125826   6.532   4.819   2.718
 8309SOL    HW225827   6.527   4.808   2.880
 8310SOL     OW25828   1.549   6.090   3.112
 8310SOL    HW125829   1.461   6.076   3.158
 8310SOL    HW225830   1.622   6.049   3.166
 8311SOL     OW25831   5.121   6.231   1.683
 8311SOL    HW125832   5.147   6.267   1.773
 8311SOL    HW225833   5.183   6.268   1.614
 8312SOL     OW25834   6.297   1.406   0.494
 8312SOL    HW125835   6.306   1.333   0.562
 8312SOL    HW225836   6.306   1.368   0.402
 8313SOL     OW25837   4.711   2.628   6.348
 8313SOL    HW125838   4.740   2.532   6.348
 8313SOL    HW225839   4.747   2.674   6.267
 8314SOL     OW25840   4.680   5.587   4.166
 8314SOL    HW125841   4.726   5.548   4.086
 8314SOL    HW225842   4.638   5.674   4.140
 8315SOL     OW25843   3.157   2.442   6.639
 8315SOL    HW125844   3.145   2.343   6.635
 8315SOL    HW225845   3.206   2.473   6.558
 8316SOL     OW25846   1.707   1.405   4.539
 8316SOL    HW125847   1.669   1.495   4.565
 8316SOL    HW225848   1.632   1.343   4.517
 8317SOL     OW25849   1.209   1.751   5.938
 8317SOL    HW125850   1.118   1.792   5.932
 8317SOL    HW225851   1.264   1.799   6.006
 8318SOL     OW25852   4.459   6.469   5.322
 8318SOL    HW125853   4.459   6.521   5.237
 8318SOL    HW225854   4.517   6.514   5.390
 8319SOL     OW25855   2.743   5.830   6.761
 8319SOL    HW125856   2.751   5.860   6.666
 8319SOL    HW225857   2.760   5.908   6.822
 8320SOL     OW25858   3.948   5.177   5.795
 8320SOL    HW125859   4.032   5.131   5.822
 8320SOL    HW225860   3.931   5.161   5.698
 8321SOL     OW25861   0.420   0.575   0.741
 8321SOL    HW125862   0.456   0.544   0.653
 8321SOL    HW225863   0.488   0.560   0.813
 8322SOL     OW25864   1.943   1.133   1.587
 8322SOL    HW125865   1.978   1.050   1.632
 8322SOL    HW225866   2.019   1.180   1.542
 8323SOL     OW25867   5.606   5.308   6.801
 8323SOL    HW125868   5.585   5.387   6.743
 8323SOL    HW225869   5.704   5.290   6.798
 8324SOL     OW25870   5.649   6.327   6.103
 8324SOL    HW125871   5.586   6.361   6.174
 8324SOL    HW225872   5.738   6.370   6.115
 8325SOL     OW25873   1.395   6.525   4.929
 8325SOL    HW125874   1.344   6.611   4.923
 8325SOL    HW225875   1.408   6.488   4.837
 8326SOL     OW25876   2.124   1.976   6.715
 8326SOL    HW125877   2.114   1.914   6.637
 8326SOL    HW225878   2.082   2.064   6.694
 8327SOL     OW25879   0.657   6.380   5.080
 8327SOL    HW125880   0.598   6.392   5.160
 8327SOL    HW225881   0.604   6.337   5.007
 8328SOL     OW25882   1.364   0.184   0.544
 8328SOL    HW125883   1.362   0.244   0.464
 8328SOL    HW225884   1.349   0.090   0.516
 8329SOL     OW25885   1.638   2.605   4.883
 8329SOL    HW125886   1.716   2.655   4.846
 8329SOL    HW225887   1.656   2.583   4.979
 8330SOL     OW25888   3.129   0.062   0.278
 8330SOL    HW125889   3.039   0.020   0.283
 8330SOL    HW225890   3.186   0.028   0.352
 8331SOL     OW25891   2.251   2.232   6.368
 8331SOL    HW125892   2.246   2.322   6.411
 8331SOL    HW225893   2.232   2.240   6.270
 8332SOL     OW25894   5.598   3.748   1.050
 8332SOL    HW125895   5.571   3.841   1.023
 8332SOL    HW225896   5.625   3.748   1.146
 8333SOL     OW25897   3.347   4.255   6.091
 8333SOL    HW125898   3.293   4.223   6.168
 8333SOL    HW225899   3.292   4.253   6.008
 8334SOL     OW25900   3.246   2.601   5.304
 8334SOL    HW125901   3.232   2.511   5.263
 8334SOL    HW225902   3.344   2.620   5.309
 8335SOL     OW25903   5.492   3.647   6.169
 8335SOL    HW125904   5.533   3.559   6.146
 8335SOL    HW225905   5.530   3.718   6.109
 8336SOL     OW25906   0.950   4.547   3.916
 8336SOL    HW125907   0.992   4.591   3.996
 8336SOL    HW225908   0.965   4.448   3.921
 8337SOL     OW25909   6.510   0.653   4.048
 8337SOL    HW125910   6.457   0.715   4.106
 8337SOL    HW225911   6.473   0.561   4.056
 8338SOL     OW25912   2.235   5.933   1.266
 8338SOL    HW125913   2.333   5.949   1.266
 8338SOL    HW225914   2.187   6.014   1.233
 8339SOL     OW25915   6.545   0.609   2.183
 8339SOL    HW125916   6.578   0.703   2.178
 8339SOL    HW225917   6.533   0.583   2.279
 8340SOL     OW25918   6.058   2.545   6.756
 8340SOL    HW125919   6.062   2.445   6.752
 8340SOL    HW225920   6.122   2.579   6.825
 8341SOL     OW25921   3.451   0.358   1.045
 8341SOL    HW125922   3.416   0.367   1.139
 8341SOL    HW225923   3.549   0.339   1.048
 8342SOL     OW25924   4.610   1.026   0.842
 8342SOL    HW125925   4.563   0.977   0.916
 8342SOL    HW225926   4.640   1.115   0.876
 8343SOL     OW25927   4.947   5.832   2.878
 8343SOL    HW125928   5.026   5.883   2.913
 8343SOL    HW225929   4.864   5.866   2.921
 8344SOL     OW25930   2.644   4.508   6.168
 8344SOL    HW125931   2.652   4.542   6.075
 8344SOL    HW225932   2.549   4.516   6.199
 8345SOL     OW25933   6.133   0.202   4.145
 8345SOL    HW125934   6.151   0.279   4.083
 8345SOL    HW225935   6.142   0.116   4.095
 8346SOL     OW25936   6.057   4.087   3.710
 8346SOL    HW125937   6.082   4.183   3.695
 8346SOL    HW225938   5.961   4.082   3.738
 8347SOL     OW25939   1.273   1.677   6.326
 8347SOL    HW125940   1.275   1.596   6.267
 8347SOL    HW225941   1.353   1.734   6.307
 8348SOL     OW25942   3.212   5.896   1.075
 8348SOL    HW125943   3.231   5.984   1.033
 8348SOL    HW225944   3.255   5.823   1.022
 8349SOL     OW25945   4.665   5.630   1.400
 8349SOL    HW125946   4.664   5.590   1.308
 8349SOL    HW225947   4.693   5.560   1.466
 8350SOL     OW25948   1.919   0.627   7.029
 8350SOL    HW125949   1.955   0.536   0.019
 8350SOL    HW225950   1.829   0.619   6.987
 8351SOL     OW25951   6.966   3.015   3.073
 8351SOL    HW125952   6.956   3.098   3.126
 8351SOL    HW225953   0.016   3.022   3.013
 8352SOL     OW25954   2.985   6.337   6.511
 8352SOL    HW125955   3.009   6.360   6.417
 8352SOL    HW225956   2.940   6.416   6.554
 8353SOL     OW25957   0.612   5.794   2.660
 8353SOL    HW125958   0.648   5.883   2.687
 8353SOL    HW225959   0.678   5.723   2.685
 8354SOL     OW25960   4.695   2.282   3.618
 8354SOL    HW125961   4.739   2.353   3.563
 8354SOL    HW225962   4.760   2.244   3.684
 8355SOL     OW25963   3.066   5.422   6.206
 8355SOL    HW125964   3.076   5.323   6.202
 8355SOL    HW225965   3.157   5.465   6.207
 8356SOL     OW25966   2.892   3.809   1.395
 8356SOL    HW125967   2.950   3.731   1.375
 8356SOL    HW225968   2.831   3.787   1.472
 8357SOL     OW25969   2.843   6.809   4.690
 8357SOL    HW125970   2.931   6.762   4.695
 8357SOL    HW225971   2.770   6.744   4.707
 8358SOL     OW25972   0.201   0.076   4.747
 8358SOL    HW125973   0.176   0.168   4.778
 8358SOL    HW225974   0.273   0.083   4.678
 8359SOL     OW25975   5.084   1.753   5.383
 8359SOL    HW125976   5.164   1.776   5.439
 8359SOL    HW225977   5.060   1.832   5.325
 8360SOL     OW25978   3.386   0.291   1.789
 8360SOL    HW125979   3.345   0.206   1.755
 8360SOL    HW225980   3.415   0.347   1.711
 8361SOL     OW25981   5.173   1.190   0.318
 8361SOL    HW125982   5.117   1.247   0.258
 8361SOL    HW225983   5.163   1.094   0.291
 8362SOL     OW25984   0.853   4.160   1.323
 8362SOL    HW125985   0.939   4.117   1.351
 8362SOL    HW225986   0.810   4.204   1.402
 8363SOL     OW25987   1.755   2.175   1.323
 8363SOL    HW125988   1.810   2.113   1.379
 8363SOL    HW225989   1.670   2.130   1.297
 8364SOL     OW25990   0.167   1.640   3.624
 8364SOL    HW125991   0.147   1.629   3.721
 8364SOL    HW225992   0.145   1.556   3.576
 8365SOL     OW25993   2.016   2.597   1.425
 8365SOL    HW125994   1.977   2.505   1.419
 8365SOL    HW225995   2.007   2.631   1.518
 8366SOL     OW25996   5.238   5.715   1.945
 8366SOL    HW125997   5.174   5.648   1.982
 8366SOL    HW225998   5.329   5.674   1.939
 8367SOL     OW25999   1.874   4.184   3.171
 8367SOL    HW126000   1.888   4.266   3.227
 8367SOL    HW226001   1.947   4.118   3.190
 8368SOL     OW26002   6.958   3.632   6.069
 8368SOL    HW126003   0.012   3.587   6.100
 8368SOL    HW226004   6.981   3.704   6.004
 8369SOL     OW26005   1.266   0.133   0.208
 8369SOL    HW126006   1.263   0.068   0.284
 8369SOL    HW226007   1.276   0.083   0.122
 8370SOL     OW26008   3.220   3.183   0.453
 8370SOL    HW126009   3.174   3.112   0.400
 8370SOL    HW226010   3.204   3.167   0.551
 8371SOL     OW26011   2.792   3.945   5.757
 8371SOL    HW126012   2.831   4.034   5.731
 8371SOL    HW226013   2.861   3.874   5.745
 8372SOL     OW26014   1.475   6.999   2.256
 8372SOL    HW126015   1.402   6.953   2.206
 8372SOL    HW226016   1.519   0.037   2.197
 8373SOL     OW26017   5.571   1.121   4.134
 8373SOL    HW126018   5.590   1.162   4.045
 8373SOL    HW226019   5.525   1.033   4.121
 8374SOL     OW26020   0.871   1.727   3.731
 8374SOL    HW126021   0.944   1.722   3.800
 8374SOL    HW226022   0.783   1.715   3.776
 8375SOL     OW26023   1.364   2.447   5.064
 8375SOL    HW126024   1.281   2.497   5.039
 8375SOL    HW226025   1.435   2.512   5.092
 8376SOL     OW26026   0.734   1.832   4.406
 8376SOL    HW126027   0.761   1.786   4.321
 8376SOL    HW226028   0.667   1.776   4.454
 8377SOL     OW26029   3.120   5.467   1.255
 8377SOL    HW126030   3.034   5.449   1.207
 8377SOL    HW226031   3.197   5.445   1.195
 8378SOL     OW26032   4.281   5.119   4.727
 8378SOL    HW126033   4.360   5.164   4.685
 8378SOL    HW226034   4.222   5.188   4.769
 8379SOL     OW26035   5.989   2.619   2.055
 8379SOL    HW126036   6.062   2.646   1.992
 8379SOL    HW226037   5.901   2.632   2.010
 8380SOL     OW26038   1.101   5.830   2.418
 8380SOL    HW126039   1.064   5.845   2.510
 8380SOL    HW226040   1.200   5.841   2.420
 8381SOL     OW26041   1.358   2.155   2.759
 8381SOL    HW126042   1.343   2.252   2.741
 8381SOL    HW226043   1.405   2.114   2.681
 8382SOL     OW26044   0.790   6.518   1.575
 8382SOL    HW126045   0.833   6.437   1.536
 8382SOL    HW226046   0.829   6.537   1.665
 8383SOL     OW26047   2.496   0.086   5.366
 8383SOL    HW126048   2.573   0.032   5.331
 8383SOL    HW226049   2.502   0.091   5.466
 8384SOL     OW26050   0.351   3.216   3.433
 8384SOL    HW126051   0.253   3.209   3.420
 8384SOL    HW226052   0.386   3.296   3.385
 8385SOL     OW26053   4.558   2.356   2.138
 8385SOL    HW126054   4.551   2.436   2.198
 8385SOL    HW226055   4.557   2.385   2.043
 8386SOL     OW26056   0.345   5.619   1.736
 8386SOL    HW126057   0.392   5.530   1.744
 8386SOL    HW226058   0.254   5.605   1.698
 8387SOL     OW26059   0.516   1.979   3.596
 8387SOL    HW126060   0.556   2.068   3.615
 8387SOL    HW226061   0.586   1.918   3.558
 8388SOL     OW26062   4.016   5.560   1.582
 8388SOL    HW126063   3.954   5.525   1.513
 8388SOL    HW226064   3.985   5.532   1.673
 8389SOL     OW26065   1.271   2.730   4.415
 8389SOL    HW126066   1.328   2.659   4.376
 8389SOL    HW226067   1.290   2.817   4.370
 8390SOL     OW26068   2.873   0.341   6.463
 8390SOL    HW126069   2.875   0.268   6.395
 8390SOL    HW226070   2.819   0.417   6.429
 8391SOL     OW26071   4.620   6.207   1.017
 8391SOL    HW126072   4.539   6.182   1.070
 8391SOL    HW226073   4.646   6.302   1.037
 8392SOL     OW26074   4.044   5.409   0.470
 8392SOL    HW126075   4.049   5.489   0.411
 8392SOL    HW226076   4.134   5.391   0.511
 8393SOL     OW26077   1.055   5.819   2.028
 8393SOL    HW126078   1.122   5.796   1.957
 8393SOL    HW226079   0.998   5.895   1.997
 8394SOL     OW26080   1.560   1.209   3.591
 8394SOL    HW126081   1.565   1.271   3.669
 8394SOL    HW226082   1.496   1.246   3.524
 8395SOL     OW26083   1.793   5.859   6.221
 8395SOL    HW126084   1.695   5.842   6.229
 8395SOL    HW226085   1.813   5.897   6.131
 8396SOL     OW26086   4.400   2.561   1.032
 8396SOL    HW126087   4.476   2.583   1.092
 8396SOL    HW226088   4.435   2.529   0.944
 8397SOL     OW26089   1.304   4.499   3.397
 8397SOL    HW126090   1.217   4.489   3.444
 8397SOL    HW226091   1.358   4.571   3.441
 8398SOL     OW26092   5.648   1.559   6.621
 8398SOL    HW126093   5.675   1.468   6.652
 8398SOL    HW226094   5.597   1.605   6.693
 8399SOL     OW26095   5.804   6.409   5.439
 8399SOL    HW126096   5.855   6.430   5.355
 8399SOL    HW226097   5.736   6.479   5.455
 8400SOL     OW26098   6.245   6.483   4.172
 8400SOL    HW126099   6.195   6.490   4.258
 8400SOL    HW226100   6.230   6.392   4.133
 8401SOL     OW26101   2.846   3.769   5.266
 8401SOL    HW126102   2.765   3.826   5.281
 8401SOL    HW226103   2.922   3.805   5.320
 8402SOL     OW26104   5.083   0.626   5.134
 8402SOL    HW126105   5.139   0.708   5.147
 8402SOL    HW226106   5.022   0.614   5.212
 8403SOL     OW26107   0.712   2.733   5.605
 8403SOL    HW126108   0.690   2.652   5.658
 8403SOL    HW226109   0.770   2.794   5.659
 8404SOL     OW26110   4.634   5.265   5.903
 8404SOL    HW126111   4.683   5.339   5.950
 8404SOL    HW226112   4.701   5.203   5.861
 8405SOL     OW26113   1.591   2.354   5.412
 8405SOL    HW126114   1.514   2.415   5.431
 8405SOL    HW226115   1.643   2.338   5.496
 8406SOL     OW26116   5.593   3.266   1.688
 8406SOL    HW126117   5.568   3.363   1.695
 8406SOL    HW226118   5.683   3.257   1.647
 8407SOL     OW26119   5.077   3.728   2.911
 8407SOL    HW126120   5.100   3.815   2.867
 8407SOL    HW226121   5.053   3.744   3.007
 8408SOL     OW26122   4.798   4.016   3.914
 8408SOL    HW126123   4.775   4.092   3.975
 8408SOL    HW226124   4.863   3.956   3.959
 8409SOL     OW26125   1.390   1.565   3.756
 8409SOL    HW126126   1.476   1.514   3.751
 8409SOL    HW226127   1.401   1.642   3.819
 8410SOL     OW26128   2.043   5.124   2.551
 8410SOL    HW126129   2.112   5.052   2.552
 8410SOL    HW226130   2.079   5.203   2.501
 8411SOL     OW26131   1.689   3.202   3.108
 8411SOL    HW126132   1.657   3.113   3.142
 8411SOL    HW226133   1.616   3.269   3.115
 8412SOL     OW26134   6.453   2.938   2.360
 8412SOL    HW126135   6.423   3.008   2.425
 8412SOL    HW226136   6.481   2.982   2.275
 8413SOL     OW26137   2.139   5.074   0.903
 8413SOL    HW126138   2.235   5.047   0.915
 8413SOL    HW226139   2.126   5.167   0.937
 8414SOL     OW26140   5.687   0.635   3.943
 8414SOL    HW126141   5.756   0.687   3.893
 8414SOL    HW226142   5.729   0.555   3.984
 8415SOL     OW26143   0.054   4.722   1.065
 8415SOL    HW126144   0.083   4.803   1.015
 8415SOL    HW226145   0.135   4.671   1.095
 8416SOL     OW26146   4.453   4.625   2.618
 8416SOL    HW126147   4.509   4.622   2.536
 8416SOL    HW226148   4.503   4.673   2.691
 8417SOL     OW26149   1.408   5.322   0.163
 8417SOL    HW126150   1.432   5.261   0.238
 8417SOL    HW226151   1.344   5.392   0.196
 8418SOL     OW26152   5.752   5.594   2.853
 8418SOL    HW126153   5.816   5.671   2.852
 8418SOL    HW226154   5.663   5.625   2.821
 8419SOL     OW26155   4.146   0.998   4.045
 8419SOL    HW126156   4.242   1.024   4.032
 8419SOL    HW226157   4.141   0.909   4.090
 8420SOL     OW26158   4.143   1.927   5.475
 8420SOL    HW126159   4.063   1.868   5.475
 8420SOL    HW226160   4.117   2.019   5.505
 8421SOL     OW26161   0.385   1.166   1.003
 8421SOL    HW126162   0.386   1.111   0.920
 8421SOL    HW226163   0.477   1.168   1.043
 8422SOL     OW26164   2.941   0.305   1.735
 8422SOL    HW126165   2.852   0.331   1.696
 8422SOL    HW226166   2.931   0.293   1.834
 8423SOL     OW26167   2.386   3.671   1.322
 8423SOL    HW126168   2.460   3.660   1.256
 8423SOL    HW226169   2.316   3.602   1.306
 8424SOL     OW26170   2.798   2.395   1.456
 8424SOL    HW126171   2.782   2.383   1.554
 8424SOL    HW226172   2.760   2.482   1.427
 8425SOL     OW26173   0.358   4.592   6.054
 8425SOL    HW126174   0.337   4.553   5.965
 8425SOL    HW226175   0.318   4.535   6.126
 8426SOL     OW26176   3.491   3.315   2.442
 8426SOL    HW126177   3.466   3.230   2.395
 8426SOL    HW226178   3.411   3.375   2.444
 8427SOL     OW26179   1.766   2.317   0.035
 8427SOL    HW126180   1.859   2.285   0.014
 8427SOL    HW226181   1.769   2.415   0.056
 8428SOL     OW26182   6.251   3.738   0.575
 8428SOL    HW126183   6.262   3.806   0.648
 8428SOL    HW226184   6.268   3.647   0.612
 8429SOL     OW26185   1.838   6.406   3.322
 8429SOL    HW126186   1.749   6.433   3.359
 8429SOL    HW226187   1.881   6.339   3.383
 8430SOL     OW26188   4.500   5.343   2.532
 8430SOL    HW126189   4.589   5.378   2.560
 8430SOL    HW226190   4.509   5.248   2.500
 8431SOL     OW26191   2.869   3.406   2.349
 8431SOL    HW126192   2.876   3.505   2.357
 8431SOL    HW226193   2.896   3.363   2.435
 8432SOL     OW26194   4.619   6.326   6.770
 8432SOL    HW126195   4.538   6.334   6.712
 8432SOL    HW226196   4.596   6.274   6.852
 8433SOL     OW26197   0.170   1.378   3.512
 8433SOL    HW126198   0.257   1.338   3.541
 8433SOL    HW226199   0.107   1.305   3.485
 8434SOL     OW26200   5.699   6.817   6.777
 8434SOL    HW126201   5.657   6.871   6.703
 8434SOL    HW226202   5.792   6.850   6.793
 8435SOL     OW26203   4.911   2.604   1.101
 8435SOL    HW126204   4.933   2.524   1.157
 8435SOL    HW226205   4.959   2.684   1.137
 8436SOL     OW26206   3.053   4.187   1.731
 8436SOL    HW126207   3.000   4.268   1.757
 8436SOL    HW226208   3.117   4.211   1.658
 8437SOL     OW26209   0.076   2.249   1.140
 8437SOL    HW126210   7.005   2.246   1.137
 8437SOL    HW226211   0.111   2.157   1.157
 8438SOL     OW26212   2.111   5.300   1.067
 8438SOL    HW126213   2.197   5.321   1.113
 8438SOL    HW226214   2.069   5.385   1.036
 8439SOL     OW26215   5.307   0.887   1.545
 8439SOL    HW126216   5.355   0.833   1.614
 8439SOL    HW226217   5.217   0.847   1.529
 8440SOL     OW26218   1.191   3.103   4.084
 8440SOL    HW126219   1.252   3.133   4.011
 8440SOL    HW226220   1.215   3.010   4.111
 8441SOL     OW26221   4.341   5.964   1.489
 8441SOL    HW126222   4.370   5.939   1.581
 8441SOL    HW226223   4.241   5.971   1.486
 8442SOL     OW26224   2.498   2.377   0.585
 8442SOL    HW126225   2.413   2.415   0.550
 8442SOL    HW226226   2.551   2.449   0.630
 8443SOL     OW26227   0.096   1.662   1.435
 8443SOL    HW126228   0.056   1.741   1.389
 8443SOL    HW226229   0.024   1.597   1.458
 8444SOL     OW26230   4.755   1.920   3.376
 8444SOL    HW126231   4.668   1.923   3.425
 8444SOL    HW226232   4.829   1.953   3.436
 8445SOL     OW26233   5.099   5.498   2.066
 8445SOL    HW126234   5.106   5.398   2.064
 8445SOL    HW226235   5.005   5.524   2.088
 8446SOL     OW26236   6.760   3.526   3.157
 8446SOL    HW126237   6.698   3.449   3.148
 8446SOL    HW226238   6.735   3.580   3.237
 8447SOL     OW26239   4.886   4.137   0.879
 8447SOL    HW126240   4.950   4.201   0.837
 8447SOL    HW226241   4.936   4.060   0.919
 8448SOL     OW26242   1.559   4.262   5.844
 8448SOL    HW126243   1.514   4.237   5.930
 8448SOL    HW226244   1.634   4.199   5.826
 8449SOL     OW26245   1.237   0.822   5.144
 8449SOL    HW126246   1.165   0.757   5.121
 8449SOL    HW226247   1.196   0.909   5.171
 8450SOL     OW26248   1.984   5.543   1.011
 8450SOL    HW126249   2.023   5.548   0.919
 8450SOL    HW226250   1.898   5.493   1.008
 8451SOL     OW26251   3.194   3.609   0.658
 8451SOL    HW126252   3.285   3.603   0.618
 8451SOL    HW226253   3.195   3.569   0.750
 8452SOL     OW26254   0.374   6.041   1.567
 8452SOL    HW126255   0.319   6.005   1.492
 8452SOL    HW226256   0.430   5.968   1.605
 8453SOL     OW26257   0.020   5.144   5.212
 8453SOL    HW126258   0.110   5.104   5.231
 8453SOL    HW226259   6.982   5.070   5.202
 8454SOL     OW26260   2.432   0.181   4.871
 8454SOL    HW126261   2.511   0.122   4.890
 8454SOL    HW226262   2.385   0.148   4.789
 8455SOL     OW26263   5.941   3.193   0.584
 8455SOL    HW126264   6.014   3.188   0.653
 8455SOL    HW226265   5.871   3.257   0.614
 8456SOL     OW26266   5.338   4.964   3.459
 8456SOL    HW126267   5.395   5.023   3.402
 8456SOL    HW226268   5.396   4.903   3.513
 8457SOL     OW26269   6.589   6.558   5.715
 8457SOL    HW126270   6.655   6.618   5.670
 8457SOL    HW226271   6.545   6.607   5.790
 8458SOL     OW26272   1.316   1.845   1.243
 8458SOL    HW126273   1.334   1.810   1.335
 8458SOL    HW226274   1.342   1.776   1.175
 8459SOL     OW26275   2.429   5.255   3.423
 8459SOL    HW126276   2.486   5.249   3.505
 8459SOL    HW226277   2.343   5.300   3.447
 8460SOL     OW26278   3.480   1.555   1.457
 8460SOL    HW126279   3.579   1.558   1.442
 8460SOL    HW226280   3.442   1.647   1.445
 8461SOL     OW26281   5.379   4.298   3.223
 8461SOL    HW126282   5.397   4.396   3.217
 8461SOL    HW226283   5.325   4.269   3.143
 8462SOL     OW26284   1.827   4.056   0.685
 8462SOL    HW126285   1.818   4.144   0.733
 8462SOL    HW226286   1.736   4.022   0.663
 8463SOL     OW26287   0.077   6.981   1.222
 8463SOL    HW126288   0.056   0.047   1.244
 8463SOL    HW226289   0.139   6.944   1.291
 8464SOL     OW26290   6.850   2.758   6.368
 8464SOL    HW126291   6.841   2.854   6.338
 8464SOL    HW226292   6.914   2.753   6.445
 8465SOL     OW26293   5.215   4.282   0.751
 8465SOL    HW126294   5.185   4.359   0.807
 8465SOL    HW226295   5.139   4.249   0.695
 8466SOL     OW26296   0.533   1.444   5.465
 8466SOL    HW126297   0.459   1.466   5.401
 8466SOL    HW226298   0.621   1.451   5.418
 8467SOL     OW26299   3.306   1.128   0.663
 8467SOL    HW126300   3.250   1.136   0.745
 8467SOL    HW226301   3.325   1.031   0.645
 8468SOL     OW26302   5.454   4.072   0.419
 8468SOL    HW126303   5.506   4.157   0.430
 8468SOL    HW226304   5.511   4.004   0.372
 8469SOL     OW26305   3.756   2.877   5.196
 8469SOL    HW126306   3.667   2.883   5.150
 8469SOL    HW226307   3.749   2.813   5.273
 8470SOL     OW26308   1.415   5.786   1.513
 8470SOL    HW126309   1.336   5.739   1.551
 8470SOL    HW226310   1.459   5.728   1.444
 8471SOL     OW26311   4.172   1.444   3.531
 8471SOL    HW126312   4.169   1.344   3.527
 8471SOL    HW226313   4.145   1.482   3.442
 8472SOL     OW26314   5.780   1.759   6.527
 8472SOL    HW126315   5.718   1.822   6.478
 8472SOL    HW226316   5.734   1.672   6.541
 8473SOL     OW26317   5.090   5.111   5.768
 8473SOL    HW126318   5.112   5.208   5.775
 8473SOL    HW226319   5.082   5.086   5.671
 8474SOL     OW26320   3.058   3.832   5.426
 8474SOL    HW126321   3.155   3.834   5.451
 8474SOL    HW226322   3.012   3.760   5.476
 8475SOL     OW26323   0.337   2.252   2.962
 8475SOL    HW126324   0.296   2.173   2.918
 8475SOL    HW226325   0.385   2.223   3.045
 8476SOL     OW26326   6.410   1.027   2.295
 8476SOL    HW126327   6.480   1.084   2.253
 8476SOL    HW226328   6.398   0.944   2.240
 8477SOL     OW26329   5.670   0.558   0.932
 8477SOL    HW126330   5.618   0.480   0.899
 8477SOL    HW226331   5.699   0.614   0.854
 8478SOL     OW26332   1.126   6.722   6.323
 8478SOL    HW126333   1.103   6.732   6.226
 8478SOL    HW226334   1.226   6.721   6.334
 8479SOL     OW26335   0.920   2.834   0.279
 8479SOL    HW126336   0.856   2.822   0.356
 8479SOL    HW226337   0.870   2.871   0.201
 8480SOL     OW26338   3.099   4.284   0.917
 8480SOL    HW126339   3.040   4.332   0.852
 8480SOL    HW226340   3.048   4.266   1.001
 8481SOL     OW26341   4.860   2.970   2.827
 8481SOL    HW126342   4.848   3.060   2.785
 8481SOL    HW226343   4.841   2.976   2.925
 8482SOL     OW26344   4.691   0.318   6.101
 8482SOL    HW126345   4.655   0.276   6.184
 8482SOL    HW226346   4.705   0.416   6.117
 8483SOL     OW26347   3.776   4.982   3.730
 8483SOL    HW126348   3.776   4.954   3.635
 8483SOL    HW226349   3.822   4.914   3.786
 8484SOL     OW26350   6.536   6.454   5.224
 8484SOL    HW126351   6.617   6.443   5.282
 8484SOL    HW226352   6.509   6.366   5.186
 8485SOL     OW26353   4.196   0.712   5.577
 8485SOL    HW126354   4.265   0.691   5.647
 8485SOL    HW226355   4.171   0.808   5.582
 8486SOL     OW26356   5.387   2.244   4.581
 8486SOL    HW126357   5.374   2.153   4.621
 8486SOL    HW226358   5.433   2.303   4.647
 8487SOL     OW26359   6.810   1.908   6.388
 8487SOL    HW126360   6.756   1.829   6.420
 8487SOL    HW226361   6.856   1.884   6.303
 8488SOL     OW26362   3.783   4.906   2.500
 8488SOL    HW126363   3.748   4.856   2.420
 8488SOL    HW226364   3.725   4.888   2.579
 8489SOL     OW26365   6.248   2.006   2.011
 8489SOL    HW126366   6.218   2.034   2.102
 8489SOL    HW226367   6.341   2.038   1.994
 8490SOL     OW26368   3.329   6.875   0.356
 8490SOL    HW126369   3.298   6.850   0.265
 8490SOL    HW226370   3.425   6.848   0.367
 8491SOL     OW26371   3.683   5.339   2.161
 8491SOL    HW126372   3.701   5.380   2.251
 8491SOL    HW226373   3.630   5.402   2.105
 8492SOL     OW26374   6.186   6.253   4.003
 8492SOL    HW126375   6.199   6.157   4.026
 8492SOL    HW226376   6.098   6.265   3.957
 8493SOL     OW26377   5.200   0.393   5.568
 8493SOL    HW126378   5.205   0.406   5.667
 8493SOL    HW226379   5.201   0.296   5.547
 8494SOL     OW26380   0.249   3.269   2.159
 8494SOL    HW126381   0.305   3.269   2.076
 8494SOL    HW226382   0.285   3.204   2.225
 8495SOL     OW26383   5.547   6.080   5.658
 8495SOL    HW126384   5.587   5.992   5.684
 8495SOL    HW226385   5.612   6.153   5.676
 8496SOL     OW26386   4.669   1.923   2.688
 8496SOL    HW126387   4.718   1.958   2.608
 8496SOL    HW226388   4.704   1.969   2.770
 8497SOL     OW26389   6.144   0.843   2.467
 8497SOL    HW126390   6.180   0.787   2.393
 8497SOL    HW226391   6.175   0.806   2.555
 8498SOL     OW26392   4.300   6.435   4.043
 8498SOL    HW126393   4.281   6.531   4.063
 8498SOL    HW226394   4.214   6.388   4.023
 8499SOL     OW26395   6.344   7.020   5.101
 8499SOL    HW126396   6.267   0.039   5.144
 8499SOL    HW226397   6.430   0.024   5.141
 8500SOL     OW26398   1.415   0.640   6.779
 8500SOL    HW126399   1.326   0.610   6.745
 8500SOL    HW226400   1.477   0.562   6.781
 8501SOL     OW26401   3.435   1.015   5.067
 8501SOL    HW126402   3.371   0.939   5.056
 8501SOL    HW226403   3.395   1.099   5.030
 8502SOL     OW26404   6.612   3.002   0.282
 8502SOL    HW126405   6.603   2.940   0.360
 8502SOL    HW226406   6.656   3.086   0.312
 8503SOL     OW26407   4.762   2.557   5.713
 8503SOL    HW126408   4.676   2.509   5.700
 8503SOL    HW226409   4.797   2.539   5.805
 8504SOL     OW26410   1.324   0.124   3.300
 8504SOL    HW126411   1.274   0.203   3.266
 8504SOL    HW226412   1.268   0.042   3.289
 8505SOL     OW26413   5.609   1.865   2.887
 8505SOL    HW126414   5.657   1.899   2.968
 8505SOL    HW226415   5.513   1.894   2.891
 8506SOL     OW26416   1.932   0.661   5.601
 8506SOL    HW126417   1.835   0.684   5.603
 8506SOL    HW226418   1.953   0.616   5.514
 8507SOL     OW26419   4.289   4.555   5.733
 8507SOL    HW126420   4.315   4.642   5.774
 8507SOL    HW226421   4.201   4.526   5.772
 8508SOL     OW26422   3.749   0.737   6.117
 8508SOL    HW126423   3.745   0.637   6.117
 8508SOL    HW226424   3.665   0.774   6.156
 8509SOL     OW26425   5.024   2.397   2.070
 8509SOL    HW126426   4.956   2.457   2.113
 8509SOL    HW226427   5.001   2.302   2.091
 8510SOL     OW26428   0.988   2.085   4.796
 8510SOL    HW126429   0.934   2.048   4.720
 8510SOL    HW226430   1.027   2.173   4.769
 8511SOL     OW26431   5.583   2.332   3.944
 8511SOL    HW126432   5.603   2.414   3.998
 8511SOL    HW226433   5.589   2.355   3.846
 8512SOL     OW26434   1.957   6.848   5.670
 8512SOL    HW126435   1.933   6.781   5.600
 8512SOL    HW226436   1.911   6.935   5.650
 8513SOL     OW26437   4.216   5.294   0.025
 8513SOL    HW126438   4.259   5.207   0.002
 8513SOL    HW226439   4.151   5.319   6.983
 8514SOL     OW26440   3.407   5.693   4.986
 8514SOL    HW126441   3.451   5.777   4.953
 8514SOL    HW226442   3.387   5.633   4.909
 8515SOL     OW26443   5.736   2.682   1.909
 8515SOL    HW126444   5.774   2.732   1.831
 8515SOL    HW226445   5.735   2.584   1.890
 8516SOL     OW26446   0.029   1.509   1.766
 8516SOL    HW126447   7.002   1.542   1.690
 8516SOL    HW226448   0.113   1.468   1.729
 8517SOL     OW26449   1.680   3.763   5.012
 8517SOL    HW126450   1.583   3.784   5.000
 8517SOL    HW226451   1.706   3.689   4.951
 8518SOL     OW26452   2.970   6.013   1.058
 8518SOL    HW126453   2.985   6.090   0.997
 8518SOL    HW226454   3.058   5.975   1.088
 8519SOL     OW26455   2.568   5.245   3.658
 8519SOL    HW126456   2.588   5.334   3.698
 8519SOL    HW226457   2.642   5.181   3.680
 8520SOL     OW26458   3.538   6.337   6.629
 8520SOL    HW126459   3.474   6.351   6.555
 8520SOL    HW226460   3.492   6.292   6.706
 8521SOL     OW26461   1.538   1.334   2.552
 8521SOL    HW126462   1.534   1.242   2.591
 8521SOL    HW226463   1.612   1.339   2.485
 8522SOL     OW26464   1.993   6.629   4.915
 8522SOL    HW126465   1.923   6.634   4.843
 8522SOL    HW226466   1.991   6.539   4.957
 8523SOL     OW26467   1.829   6.528   0.015
 8523SOL    HW126468   1.898   6.582   0.062
 8523SOL    HW226469   1.806   6.448   0.070
 8524SOL     OW26470   1.503   1.738   0.248
 8524SOL    HW126471   1.545   1.750   0.158
 8524SOL    HW226472   1.555   1.790   0.316
 8525SOL     OW26473   5.246   3.803   4.280
 8525SOL    HW126474   5.190   3.754   4.213
 8525SOL    HW226475   5.198   3.885   4.310
 8526SOL     OW26476   1.064   3.508   1.879
 8526SOL    HW126477   1.037   3.599   1.910
 8526SOL    HW226478   1.104   3.457   1.955
 8527SOL     OW26479   4.638   0.089   4.464
 8527SOL    HW126480   4.580   0.031   4.521
 8527SOL    HW226481   4.666   0.170   4.516
 8528SOL     OW26482   5.461   0.915   0.228
 8528SOL    HW126483   5.480   0.996   0.283
 8528SOL    HW226484   5.384   0.865   0.268
 8529SOL     OW26485   0.360   6.957   5.242
 8529SOL    HW126486   0.403   6.896   5.176
 8529SOL    HW226487   0.279   6.999   5.202
 8530SOL     OW26488   2.089   4.999   6.237
 8530SOL    HW126489   2.010   4.937   6.246
 8530SOL    HW226490   2.098   5.029   6.142
 8531SOL     OW26491   4.007   5.223   1.773
 8531SOL    HW126492   3.980   5.140   1.822
 8531SOL    HW226493   3.928   5.283   1.764
 8532SOL     OW26494   1.614   4.294   0.458
 8532SOL    HW126495   1.663   4.208   0.472
 8532SOL    HW226496   1.523   4.274   0.421
 8533SOL     OW26497   3.575   6.580   5.662
 8533SOL    HW126498   3.517   6.519   5.608
 8533SOL    HW226499   3.618   6.647   5.602
 8534SOL     OW26500   2.111   2.119   0.688
 8534SOL    HW126501   2.200   2.158   0.711
 8534SOL    HW226502   2.053   2.119   0.769
 8535SOL     OW26503   0.844   3.280   6.092
 8535SOL    HW126504   0.888   3.301   6.180
 8535SOL    HW226505   0.862   3.355   6.028
 8536SOL     OW26506   5.910   0.212   6.330
 8536SOL    HW126507   5.965   0.158   6.267
 8536SOL    HW226508   5.822   0.233   6.288
 8537SOL     OW26509   4.400   6.266   3.193
 8537SOL    HW126510   4.338   6.237   3.120
 8537SOL    HW226511   4.392   6.203   3.270
 8538SOL     OW26512   4.730   0.367   5.045
 8538SOL    HW126513   4.769   0.403   5.130
 8538SOL    HW226514   4.645   0.318   5.066
 8539SOL     OW26515   0.939   2.999   3.127
 8539SOL    HW126516   0.927   3.068   3.056
 8539SOL    HW226517   0.870   3.011   3.198
 8540SOL     OW26518   4.870   6.443   6.403
 8540SOL    HW126519   4.949   6.457   6.464
 8540SOL    HW226520   4.898   6.390   6.323
 8541SOL     OW26521   2.638   6.227   5.860
 8541SOL    HW126522   2.560   6.258   5.807
 8541SOL    HW226523   2.644   6.127   5.857
 8542SOL     OW26524   1.748   5.052   5.866
 8542SOL    HW126525   1.717   5.055   5.771
 8542SOL    HW226526   1.682   5.102   5.924
 8543SOL     OW26527   3.454   2.085   5.427
 8543SOL    HW126528   3.475   1.994   5.392
 8543SOL    HW226529   3.463   2.152   5.353
 8544SOL     OW26530   5.611   3.800   5.402
 8544SOL    HW126531   5.677   3.854   5.350
 8544SOL    HW226532   5.528   3.788   5.348
 8545SOL     OW26533   2.751   0.568   6.382
 8545SOL    HW126534   2.767   0.626   6.302
 8545SOL    HW226535   2.653   0.553   6.393
 8546SOL     OW26536   3.208   1.067   3.484
 8546SOL    HW126537   3.298   1.040   3.450
 8546SOL    HW226538   3.137   1.016   3.435
 8547SOL     OW26539   5.839   6.536   5.666
 8547SOL    HW126540   5.817   6.454   5.718
 8547SOL    HW226541   5.829   6.518   5.569
 8548SOL     OW26542   1.344   4.277   4.468
 8548SOL    HW126543   1.384   4.223   4.394
 8548SOL    HW226544   1.416   4.315   4.525
 8549SOL     OW26545   2.734   0.447   3.742
 8549SOL    HW126546   2.818   0.394   3.728
 8549SOL    HW226547   2.715   0.456   3.840
 8550SOL     OW26548   0.284   4.086   5.225
 8550SOL    HW126549   0.316   4.114   5.134
 8550SOL    HW226550   0.192   4.121   5.240
 8551SOL     OW26551   3.993   1.561   4.468
 8551SOL    HW126552   3.984   1.617   4.386
 8551SOL    HW226553   4.076   1.505   4.461
 8552SOL     OW26554   3.798   1.856   2.066
 8552SOL    HW126555   3.826   1.792   1.994
 8552SOL    HW226556   3.811   1.950   2.033
 8553SOL     OW26557   5.057   3.622   0.458
 8553SOL    HW126558   5.052   3.524   0.440
 8553SOL    HW226559   4.965   3.659   0.467
 8554SOL     OW26560   1.018   1.100   6.750
 8554SOL    HW126561   1.070   1.042   6.813
 8554SOL    HW226562   0.949   1.151   6.802
 8555SOL     OW26563   3.398   1.918   3.511
 8555SOL    HW126564   3.495   1.894   3.520
 8555SOL    HW226565   3.383   2.009   3.549
 8556SOL     OW26566   0.186   4.762   5.374
 8556SOL    HW126567   0.242   4.786   5.454
 8556SOL    HW226568   0.099   4.725   5.405
 8557SOL     OW26569   6.314   0.884   0.550
 8557SOL    HW126570   6.276   0.944   0.620
 8557SOL    HW226571   6.309   0.789   0.581
 8558SOL     OW26572   2.749   6.299   3.411
 8558SOL    HW126573   2.842   6.323   3.439
 8558SOL    HW226574   2.686   6.372   3.437
 8559SOL     OW26575   1.077   3.066   3.509
 8559SOL    HW126576   1.009   2.993   3.502
 8559SOL    HW226577   1.040   3.142   3.561
 8560SOL     OW26578   3.345   4.156   1.369
 8560SOL    HW126579   3.302   4.066   1.379
 8560SOL    HW226580   3.280   4.227   1.398
 8561SOL     OW26581   4.167   0.603   2.196
 8561SOL    HW126582   4.250   0.552   2.175
 8561SOL    HW226583   4.135   0.578   2.288
 8562SOL     OW26584   5.445   2.566   6.635
 8562SOL    HW126585   5.412   2.657   6.609
 8562SOL    HW226586   5.533   2.575   6.681
 8563SOL     OW26587   1.032   4.800   2.771
 8563SOL    HW126588   1.078   4.889   2.760
 8563SOL    HW226589   1.033   4.774   2.868
 8564SOL     OW26590   3.921   6.667   6.873
 8564SOL    HW126591   3.900   6.702   6.965
 8564SOL    HW226592   3.855   6.596   6.849
 8565SOL     OW26593   0.992   5.530   1.450
 8565SOL    HW126594   0.904   5.564   1.482
 8565SOL    HW226595   0.981   5.438   1.413
 8566SOL     OW26596   3.494   1.016   3.398
 8566SOL    HW126597   3.538   0.932   3.365
 8566SOL    HW226598   3.506   1.089   3.332
 8567SOL     OW26599   1.773   2.785   1.196
 8567SOL    HW126600   1.832   2.707   1.215
 8567SOL    HW226601   1.796   2.825   1.108
 8568SOL     OW26602   5.743   6.775   5.830
 8568SOL    HW126603   5.772   6.696   5.777
 8568SOL    HW226604   5.711   6.848   5.769
 8569SOL     OW26605   5.036   1.558   6.500
 8569SOL    HW126606   5.100   1.635   6.500
 8569SOL    HW226607   5.060   1.496   6.425
 8570SOL     OW26608   1.486   2.018   3.642
 8570SOL    HW126609   1.518   1.929   3.609
 8570SOL    HW226610   1.475   2.080   3.564
 8571SOL     OW26611   1.134   0.984   3.438
 8571SOL    HW126612   1.188   1.068   3.435
 8571SOL    HW226613   1.180   0.916   3.495
 8572SOL     OW26614   2.901   3.628   5.539
 8572SOL    HW126615   2.893   3.541   5.490
 8572SOL    HW226616   2.810   3.670   5.546
 8573SOL     OW26617   1.522   5.814   6.215
 8573SOL    HW126618   1.470   5.819   6.130
 8573SOL    HW226619   1.476   5.754   6.280
 8574SOL     OW26620   5.590   1.513   5.392
 8574SOL    HW126621   5.575   1.509   5.293
 8574SOL    HW226622   5.672   1.461   5.415
 8575SOL     OW26623   2.678   6.111   4.486
 8575SOL    HW126624   2.610   6.053   4.441
 8575SOL    HW226625   2.719   6.061   4.562
 8576SOL     OW26626   1.497   3.373   5.147
 8576SOL    HW126627   1.450   3.409   5.066
 8576SOL    HW226628   1.571   3.434   5.173
 8577SOL     OW26629   1.715   0.561   0.520
 8577SOL    HW126630   1.813   0.575   0.502
 8577SOL    HW226631   1.698   0.570   0.618
 8578SOL     OW26632   1.145   0.547   5.957
 8578SOL    HW126633   1.149   0.645   5.979
 8578SOL    HW226634   1.055   0.526   5.919
 8579SOL     OW26635   3.807   6.826   2.172
 8579SOL    HW126636   3.883   6.855   2.231
 8579SOL    HW226637   3.751   6.906   2.149
 8580SOL     OW26638   2.392   0.540   1.838
 8580SOL    HW126639   2.398   0.470   1.767
 8580SOL    HW226640   2.401   0.498   1.928
 8581SOL     OW26641   3.868   3.860   2.457
 8581SOL    HW126642   3.949   3.802   2.446
 8581SOL    HW226643   3.876   3.941   2.400
 8582SOL     OW26644   4.490   5.734   5.824
 8582SOL    HW126645   4.445   5.789   5.755
 8582SOL    HW226646   4.457   5.639   5.818
 8583SOL     OW26647   3.573   6.743   3.215
 8583SOL    HW126648   3.644   6.813   3.208
 8583SOL    HW226649   3.613   6.657   3.247
 8584SOL     OW26650   6.112   2.219   5.025
 8584SOL    HW126651   6.075   2.309   5.048
 8584SOL    HW226652   6.084   2.153   5.095
 8585SOL     OW26653   4.979   2.242   2.460
 8585SOL    HW126654   5.004   2.337   2.447
 8585SOL    HW226655   4.894   2.222   2.410
 8586SOL     OW26656   6.738   6.355   5.360
 8586SOL    HW126657   6.797   6.274   5.350
 8586SOL    HW226658   6.676   6.341   5.437
 8587SOL     OW26659   6.803   1.212   0.812
 8587SOL    HW126660   6.880   1.148   0.813
 8587SOL    HW226661   6.831   1.300   0.848
 8588SOL     OW26662   1.585   1.134   5.547
 8588SOL    HW126663   1.557   1.202   5.478
 8588SOL    HW226664   1.681   1.110   5.534
 8589SOL     OW26665   5.785   2.577   6.850
 8589SOL    HW126666   5.864   2.563   6.790
 8589SOL    HW226667   5.741   2.663   6.827
 8590SOL     OW26668   1.429   1.347   3.364
 8590SOL    HW126669   1.492   1.424   3.352
 8590SOL    HW226670   1.340   1.370   3.325
 8591SOL     OW26671   1.326   3.953   5.357
 8591SOL    HW126672   1.290   3.925   5.445
 8591SOL    HW226673   1.423   3.976   5.366
 8592SOL     OW26674   0.526   1.962   4.811
 8592SOL    HW126675   0.459   1.960   4.885
 8592SOL    HW226676   0.557   1.869   4.792
 8593SOL     OW26677   6.547   1.215   0.537
 8593SOL    HW126678   6.481   1.218   0.612
 8593SOL    HW226679   6.585   1.123   0.529
 8594SOL     OW26680   6.133   4.137   6.106
 8594SOL    HW126681   6.196   4.069   6.143
 8594SOL    HW226682   6.040   4.116   6.137
 8595SOL     OW26683   5.576   6.168   2.462
 8595SOL    HW126684   5.612   6.083   2.499
 8595SOL    HW226685   5.484   6.153   2.426
 8596SOL     OW26686   0.341   1.993   5.769
 8596SOL    HW126687   0.320   2.054   5.845
 8596SOL    HW226688   0.399   1.918   5.801
 8597SOL     OW26689   6.130   2.258   5.872
 8597SOL    HW126690   6.079   2.213   5.799
 8597SOL    HW226691   6.161   2.348   5.841
 8598SOL     OW26692   6.887   0.903   6.268
 8598SOL    HW126693   6.857   0.980   6.212
 8598SOL    HW226694   6.939   0.938   6.346
 8599SOL     OW26695   5.760   3.949   5.232
 8599SOL    HW126696   5.709   3.988   5.156
 8599SOL    HW226697   5.837   3.895   5.196
 8600SOL     OW26698   4.280   2.862   1.426
 8600SOL    HW126699   4.262   2.765   1.409
 8600SOL    HW226700   4.340   2.898   1.354
 8601SOL     OW26701   4.981   5.711   2.394
 8601SOL    HW126702   4.967   5.646   2.320
 8601SOL    HW226703   4.903   5.774   2.398
 8602SOL     OW26704   2.031   6.535   5.277
 8602SOL    HW126705   2.053   6.546   5.374
 8602SOL    HW226706   2.107   6.492   5.230
 8603SOL     OW26707   0.800   1.246   6.455
 8603SOL    HW126708   0.804   1.305   6.535
 8603SOL    HW226709   0.863   1.280   6.384
 8604SOL     OW26710   1.337   5.273   6.250
 8604SOL    HW126711   1.335   5.188   6.303
 8604SOL    HW226712   1.430   5.310   6.249
 8605SOL     OW26713   6.196   4.507   3.754
 8605SOL    HW126714   6.142   4.474   3.832
 8605SOL    HW226715   6.149   4.483   3.669
 8606SOL     OW26716   1.226   0.263   6.371
 8606SOL    HW126717   1.283   0.345   6.374
 8606SOL    HW226718   1.138   0.285   6.328
 8607SOL     OW26719   2.731   2.972   1.400
 8607SOL    HW126720   2.689   3.063   1.396
 8607SOL    HW226721   2.810   2.974   1.462
 8608SOL     OW26722   2.254   5.999   1.863
 8608SOL    HW126723   2.231   6.069   1.795
 8608SOL    HW226724   2.336   6.027   1.912
 8609SOL     OW26725   5.531   2.417   4.734
 8609SOL    HW126726   5.630   2.411   4.751
 8609SOL    HW226727   5.501   2.512   4.741
 8610SOL     OW26728   0.011   4.984   2.313
 8610SOL    HW126729   0.066   4.948   2.388
 8610SOL    HW226730   6.968   5.041   2.350
 8611SOL     OW26731   1.938   1.546   5.339
 8611SOL    HW126732   1.855   1.602   5.341
 8611SOL    HW226733   2.003   1.585   5.274
 8612SOL     OW26734   3.394   3.210   5.348
 8612SOL    HW126735   3.337   3.140   5.306
 8612SOL    HW226736   3.490   3.181   5.345
 8613SOL     OW26737   3.151   3.260   3.662
 8613SOL    HW126738   3.166   3.166   3.692
 8613SOL    HW226739   3.231   3.291   3.610
 8614SOL     OW26740   0.428   2.676   3.919
 8614SOL    HW126741   0.518   2.709   3.890
 8614SOL    HW226742   0.411   2.704   4.014
 8615SOL     OW26743   3.821   1.191   5.209
 8615SOL    HW126744   3.790   1.099   5.183
 8615SOL    HW226745   3.892   1.221   5.146
 8616SOL     OW26746   5.949   4.195   5.673
 8616SOL    HW126747   5.973   4.100   5.694
 8616SOL    HW226748   6.025   4.255   5.700
 8617SOL     OW26749   1.139   6.608   3.228
 8617SOL    HW126750   1.105   6.701   3.212
 8617SOL    HW226751   1.091   6.544   3.168
 8618SOL     OW26752   5.975   4.259   0.740
 8618SOL    HW126753   5.965   4.160   0.735
 8618SOL    HW226754   5.978   4.297   0.647
 8619SOL     OW26755   5.296   5.470   6.980
 8619SOL    HW126756   5.222   5.464   6.913
 8619SOL    HW226757   5.334   5.562   6.980
 8620SOL     OW26758   1.376   6.500   3.627
 8620SOL    HW126759   1.438   6.513   3.550
 8620SOL    HW226760   1.427   6.504   3.713
 8621SOL     OW26761   6.132   3.708   1.626
 8621SOL    HW126762   6.102   3.697   1.531
 8621SOL    HW226763   6.135   3.618   1.670
 8622SOL     OW26764   0.977   5.985   1.404
 8622SOL    HW126765   1.038   5.971   1.481
 8622SOL    HW226766   0.959   6.083   1.392
 8623SOL     OW26767   2.226   2.030   3.189
 8623SOL    HW126768   2.129   2.035   3.166
 8623SOL    HW226769   2.271   2.115   3.162
 8624SOL     OW26770   3.425   3.783   5.146
 8624SOL    HW126771   3.403   3.707   5.207
 8624SOL    HW226772   3.369   3.862   5.171
 8625SOL     OW26773   4.460   3.288   6.117
 8625SOL    HW126774   4.439   3.374   6.072
 8625SOL    HW226775   4.450   3.213   6.052
 8626SOL     OW26776   4.941   1.905   1.358
 8626SOL    HW126777   4.919   1.942   1.449
 8626SOL    HW226778   4.937   1.805   1.361
 8627SOL     OW26779   0.776   7.008   3.111
 8627SOL    HW126780   0.776   6.973   3.204
 8627SOL    HW226781   0.681   7.015   3.078
 8628SOL     OW26782   1.318   6.881   0.991
 8628SOL    HW126783   1.344   6.801   1.044
 8628SOL    HW226784   1.394   6.946   0.989
 8629SOL     OW26785   0.029   0.438   4.603
 8629SOL    HW126786   0.067   0.397   4.521
 8629SOL    HW226787   6.971   0.395   4.624
 8630SOL     OW26788   5.271   2.854   1.516
 8630SOL    HW126789   5.240   2.767   1.476
 8630SOL    HW226790   5.198   2.922   1.507
 8631SOL     OW26791   1.595   6.241   6.366
 8631SOL    HW126792   1.633   6.154   6.397
 8631SOL    HW226793   1.620   6.313   6.431
 8632SOL     OW26794   6.212   5.988   4.057
 8632SOL    HW126795   6.121   5.960   4.086
 8632SOL    HW226796   6.269   5.907   4.041
 8633SOL     OW26797   6.680   3.247   5.574
 8633SOL    HW126798   6.703   3.329   5.523
 8633SOL    HW226799   6.584   3.251   5.604
 8634SOL     OW26800   5.118   5.083   6.040
 8634SOL    HW126801   5.116   5.076   5.941
 8634SOL    HW226802   5.062   5.010   6.079
 8635SOL     OW26803   5.131   2.174   6.169
 8635SOL    HW126804   5.147   2.121   6.085
 8635SOL    HW226805   5.052   2.136   6.218
 8636SOL     OW26806   4.039   6.260   1.313
 8636SOL    HW126807   4.068   6.328   1.245
 8636SOL    HW226808   4.020   6.173   1.267
 8637SOL     OW26809   2.894   2.176   0.359
 8637SOL    HW126810   2.970   2.238   0.343
 8637SOL    HW226811   2.927   2.094   0.405
 8638SOL     OW26812   4.957   2.721   4.618
 8638SOL    HW126813   4.915   2.799   4.664
 8638SOL    HW226814   4.947   2.639   4.675
 8639SOL     OW26815   3.062   4.476   0.592
 8639SOL    HW126816   3.063   4.457   0.494
 8639SOL    HW226817   3.018   4.564   0.608
 8640SOL     OW26818   3.906   2.458   6.762
 8640SOL    HW126819   3.869   2.519   6.692
 8640SOL    HW226820   3.934   2.512   6.842
 8641SOL     OW26821   3.163   4.930   3.568
 8641SOL    HW126822   3.124   5.021   3.553
 8641SOL    HW226823   3.244   4.938   3.627
 8642SOL     OW26824   2.248   6.057   3.239
 8642SOL    HW126825   2.159   6.036   3.199
 8642SOL    HW226826   2.313   5.985   3.214
 8643SOL     OW26827   4.004   6.738   1.194
 8643SOL    HW126828   4.090   6.784   1.171
 8643SOL    HW226829   4.015   6.640   1.182
 8644SOL     OW26830   6.067   2.339   6.467
 8644SOL    HW126831   6.031   2.299   6.383
 8644SOL    HW226832   5.991   2.366   6.526
 8645SOL     OW26833   4.885   4.786   2.696
 8645SOL    HW126834   4.795   4.820   2.668
 8645SOL    HW226835   4.919   4.722   2.629
 8646SOL     OW26836   0.113   2.106   4.980
 8646SOL    HW126837   0.109   2.203   4.957
 8646SOL    HW226838   0.057   2.054   4.915
 8647SOL     OW26839   1.853   4.782   1.806
 8647SOL    HW126840   1.836   4.875   1.773
 8647SOL    HW226841   1.935   4.781   1.863
 8648SOL     OW26842   5.369   5.219   6.898
 8648SOL    HW126843   5.331   5.292   6.954
 8648SOL    HW226844   5.457   5.250   6.860
 8649SOL     OW26845   5.601   1.967   1.882
 8649SOL    HW126846   5.663   1.912   1.826
 8649SOL    HW226847   5.645   1.990   1.969
 8650SOL     OW26848   2.132   0.864   5.473
 8650SOL    HW126849   2.191   0.892   5.548
 8650SOL    HW226850   2.052   0.816   5.509
 8651SOL     OW26851   4.170   1.989   1.963
 8651SOL    HW126852   4.088   2.045   1.950
 8651SOL    HW226853   4.246   2.048   1.991
 8652SOL     OW26854   6.450   2.120   4.281
 8652SOL    HW126855   6.392   2.040   4.295
 8652SOL    HW226856   6.505   2.137   4.363
 8653SOL     OW26857   5.710   0.658   0.666
 8653SOL    HW126858   5.622   0.705   0.669
 8653SOL    HW226859   5.784   0.726   0.664
 8654SOL     OW26860   0.682   4.842   2.936
 8654SOL    HW126861   0.748   4.766   2.932
 8654SOL    HW226862   0.646   4.850   3.029
 8655SOL     OW26863   1.462   0.193   4.990
 8655SOL    HW126864   1.486   0.212   4.895
 8655SOL    HW226865   1.462   0.095   5.006
 8656SOL     OW26866   4.386   5.845   1.158
 8656SOL    HW126867   4.458   5.874   1.222
 8656SOL    HW226868   4.328   5.923   1.136
 8657SOL     OW26869   3.142   1.635   2.421
 8657SOL    HW126870   3.197   1.674   2.347
 8657SOL    HW226871   3.151   1.692   2.503
 8658SOL     OW26872   6.278   3.823   0.868
 8658SOL    HW126873   6.347   3.759   0.902
 8658SOL    HW226874   6.275   3.903   0.927
 8659SOL     OW26875   3.523   0.459   3.146
 8659SOL    HW126876   3.466   0.381   3.172
 8659SOL    HW226877   3.601   0.466   3.208
 8660SOL     OW26878   6.926   3.766   1.727
 8660SOL    HW126879   6.879   3.681   1.703
 8660SOL    HW226880   6.983   3.796   1.651
 8661SOL     OW26881   6.364   3.690   2.206
 8661SOL    HW126882   6.328   3.728   2.121
 8661SOL    HW226883   6.452   3.733   2.227
 8662SOL     OW26884   1.601   2.397   3.019
 8662SOL    HW126885   1.643   2.388   2.928
 8662SOL    HW226886   1.619   2.489   3.054
 8663SOL     OW26887   3.283   4.867   2.825
 8663SOL    HW126888   3.233   4.853   2.740
 8663SOL    HW226889   3.254   4.953   2.867
 8664SOL     OW26890   3.126   6.194   4.035
 8664SOL    HW126891   3.167   6.270   4.085
 8664SOL    HW226892   3.037   6.222   3.999
 8665SOL     OW26893   6.716   3.749   6.415
 8665SOL    HW126894   6.709   3.682   6.489
 8665SOL    HW226895   6.812   3.763   6.391
 8666SOL     OW26896   5.201   0.590   2.938
 8666SOL    HW126897   5.160   0.644   3.012
 8666SOL    HW226898   5.273   0.531   2.976
 8667SOL     OW26899   5.376   2.296   2.076
 8667SOL    HW126900   5.311   2.330   2.008
 8667SOL    HW226901   5.377   2.359   2.154
 8668SOL     OW26902   3.959   2.100   3.551
 8668SOL    HW126903   3.988   2.120   3.644
 8668SOL    HW226904   3.929   2.005   3.544
 8669SOL     OW26905   0.418   6.319   5.987
 8669SOL    HW126906   0.392   6.331   5.891
 8669SOL    HW226907   0.517   6.307   5.994
 8670SOL     OW26908   0.194   5.440   5.459
 8670SOL    HW126909   0.191   5.340   5.456
 8670SOL    HW226910   0.283   5.471   5.424
 8671SOL     OW26911   7.000   3.001   3.834
 8671SOL    HW126912   0.019   3.088   3.838
 8671SOL    HW226913   0.036   2.926   3.845
 8672SOL     OW26914   6.555   1.377   2.540
 8672SOL    HW126915   6.468   1.371   2.492
 8672SOL    HW226916   6.546   1.441   2.616
 8673SOL     OW26917   0.845   1.033   1.648
 8673SOL    HW126918   0.751   0.999   1.651
 8673SOL    HW226919   0.905   0.963   1.610
 8674SOL     OW26920   0.231   3.577   3.620
 8674SOL    HW126921   0.300   3.647   3.599
 8674SOL    HW226922   0.192   3.543   3.534
 8675SOL     OW26923   4.668   2.658   5.208
 8675SOL    HW126924   4.602   2.724   5.242
 8675SOL    HW226925   4.706   2.689   5.121
 8676SOL     OW26926   4.568   2.241   0.742
 8676SOL    HW126927   4.558   2.340   0.757
 8676SOL    HW226928   4.492   2.193   0.786
 8677SOL     OW26929   2.944   0.903   0.012
 8677SOL    HW126930   2.949   0.832   6.972
 8677SOL    HW226931   2.852   0.943   0.011
 8678SOL     OW26932   3.213   1.951   0.113
 8678SOL    HW126933   3.301   1.907   0.098
 8678SOL    HW226934   3.147   1.884   0.147
 8679SOL     OW26935   1.575   1.999   6.512
 8679SOL    HW126936   1.636   1.920   6.505
 8679SOL    HW226937   1.506   1.994   6.440
 8680SOL     OW26938   6.839   0.339   1.222
 8680SOL    HW126939   6.739   0.345   1.219
 8680SOL    HW226940   6.878   0.405   1.158
 8681SOL     OW26941   5.393   5.208   0.864
 8681SOL    HW126942   5.389   5.123   0.812
 8681SOL    HW226943   5.309   5.218   0.918
 8682SOL     OW26944   2.068   1.151   3.066
 8682SOL    HW126945   2.080   1.237   3.017
 8682SOL    HW226946   2.154   1.127   3.112
 8683SOL     OW26947   2.589   4.758   3.926
 8683SOL    HW126948   2.507   4.738   3.981
 8683SOL    HW226949   2.669   4.721   3.972
 8684SOL     OW26950   2.377   4.294   3.165
 8684SOL    HW126951   2.432   4.373   3.191
 8684SOL    HW226952   2.345   4.246   3.247
 8685SOL     OW26953   5.366   3.598   5.315
 8685SOL    HW126954   5.382   3.558   5.224
 8685SOL    HW226955   5.400   3.535   5.385
 8686SOL     OW26956   1.239   4.850   3.162
 8686SOL    HW126957   1.211   4.912   3.234
 8686SOL    HW226958   1.158   4.811   3.118
 8687SOL     OW26959   5.470   4.387   5.596
 8687SOL    HW126960   5.465   4.292   5.567
 8687SOL    HW226961   5.441   4.394   5.692
 8688SOL     OW26962   0.718   4.105   5.197
 8688SOL    HW126963   0.672   4.018   5.180
 8688SOL    HW226964   0.659   4.181   5.168
 8689SOL     OW26965   4.497   3.417   0.715
 8689SOL    HW126966   4.443   3.363   0.651
 8689SOL    HW226967   4.461   3.405   0.808
 8690SOL     OW26968   1.479   2.457   2.418
 8690SOL    HW126969   1.440   2.366   2.430
 8690SOL    HW226970   1.525   2.484   2.503
 8691SOL     OW26971   3.300   1.398   6.847
 8691SOL    HW126972   3.239   1.437   6.915
 8691SOL    HW226973   3.387   1.448   6.847
 8692SOL     OW26974   5.220   1.817   4.513
 8692SOL    HW126975   5.140   1.854   4.467
 8692SOL    HW226976   5.263   1.889   4.568
 8693SOL     OW26977   0.636   0.376   5.918
 8693SOL    HW126978   0.584   0.299   5.955
 8693SOL    HW226979   0.680   0.425   5.994
 8694SOL     OW26980   4.206   3.766   5.423
 8694SOL    HW126981   4.212   3.675   5.383
 8694SOL    HW226982   4.184   3.759   5.520
 8695SOL     OW26983   4.081   4.492   1.339
 8695SOL    HW126984   4.067   4.472   1.242
 8695SOL    HW226985   4.078   4.590   1.355
 8696SOL     OW26986   3.074   6.365   6.791
 8696SOL    HW126987   3.014   6.427   6.841
 8696SOL    HW226988   3.045   6.359   6.696
 8697SOL     OW26989   1.634   3.174   4.652
 8697SOL    HW126990   1.568   3.100   4.641
 8697SOL    HW226991   1.675   3.194   4.563
 8698SOL     OW26992   5.650   4.047   0.003
 8698SOL    HW126993   5.696   4.122   6.986
 8698SOL    HW226994   5.711   3.968   0.009
 8699SOL     OW26995   2.630   2.173   1.435
 8699SOL    HW126996   2.694   2.247   1.413
 8699SOL    HW226997   2.618   2.114   1.355
 8700SOL     OW26998   0.122   1.744   4.455
 8700SOL    HW126999   0.029   1.776   4.441
 8700SOL    HW227000   0.178   1.766   4.375
 8701SOL     OW27001   1.942   3.047   6.388
 8701SOL    HW127002   2.009   2.978   6.360
 8701SOL    HW227003   1.856   3.031   6.339
 8702SOL     OW27004   5.514   3.971   1.430
 8702SOL    HW127005   5.445   3.914   1.475
 8702SOL    HW227006   5.472   4.018   1.352
 8703SOL     OW27007   2.264   5.462   1.875
 8703SOL    HW127008   2.276   5.526   1.950
 8703SOL    HW227009   2.169   5.430   1.872
 8704SOL     OW27010   6.071   0.961   3.571
 8704SOL    HW127011   6.104   1.042   3.618
 8704SOL    HW227012   6.130   0.883   3.593
 8705SOL     OW27013   3.527   2.318   6.994
 8705SOL    HW127014   3.625   2.335   7.002
 8705SOL    HW227015   3.498   2.251   0.033
 8706SOL     OW27016   5.019   2.850   5.868
 8706SOL    HW127017   5.017   2.820   5.773
 8706SOL    HW227018   5.108   2.828   5.908
 8707SOL     OW27019   0.540   0.888   3.561
 8707SOL    HW127020   0.515   0.951   3.635
 8707SOL    HW227021   0.592   0.937   3.491
 8708SOL     OW27022   5.978   2.209   0.752
 8708SOL    HW127023   6.041   2.273   0.708
 8708SOL    HW227024   5.933   2.255   0.829
 8709SOL     OW27025   6.641   6.248   3.729
 8709SOL    HW127026   6.729   6.204   3.710
 8709SOL    HW227027   6.587   6.191   3.791
 8710SOL     OW27028   2.212   2.575   3.931
 8710SOL    HW127029   2.280   2.642   3.901
 8710SOL    HW227030   2.224   2.490   3.880
 8711SOL     OW27031   1.643   1.311   2.172
 8711SOL    HW127032   1.649   1.302   2.072
 8711SOL    HW227033   1.670   1.225   2.215
 8712SOL     OW27034   1.738   3.576   4.213
 8712SOL    HW127035   1.755   3.644   4.284
 8712SOL    HW227036   1.774   3.487   4.242
 8713SOL     OW27037   0.081   4.114   2.939
 8713SOL    HW127038   0.020   4.092   3.015
 8713SOL    HW227039   0.127   4.031   2.909
 8714SOL     OW27040   6.958   4.067   6.319
 8714SOL    HW127041   6.944   3.968   6.314
 8714SOL    HW227042   0.026   4.087   6.321
 8715SOL     OW27043   2.357   5.437   1.151
 8715SOL    HW127044   2.373   5.535   1.167
 8715SOL    HW227045   2.362   5.418   1.053
 8716SOL     OW27046   5.999   0.261   2.486
 8716SOL    HW127047   5.979   0.219   2.398
 8716SOL    HW227048   6.030   0.356   2.472
 8717SOL     OW27049   3.798   2.351   6.988
 8717SOL    HW127050   3.884   2.322   0.001
 8717SOL    HW227051   3.818   2.400   6.903
 8718SOL     OW27052   2.829   5.510   6.104
 8718SOL    HW127053   2.820   5.591   6.047
 8718SOL    HW227054   2.914   5.515   6.156
 8719SOL     OW27055   3.230   1.898   4.800
 8719SOL    HW127056   3.286   1.973   4.766
 8719SOL    HW227057   3.234   1.895   4.900
 8720SOL     OW27058   0.456   6.183   5.239
 8720SOL    HW127059   0.491   6.258   5.296
 8720SOL    HW227060   0.382   6.217   5.181
 8721SOL     OW27061   1.242   0.799   1.385
 8721SOL    HW127062   1.314   0.734   1.409
 8721SOL    HW227063   1.263   0.842   1.298
 8722SOL     OW27064   4.165   1.457   0.263
 8722SOL    HW127065   4.215   1.526   0.316
 8722SOL    HW227066   4.196   1.459   0.168
 8723SOL     OW27067   3.982   6.277   2.875
 8723SOL    HW127068   3.883   6.268   2.874
 8723SOL    HW227069   4.020   6.233   2.793
 8724SOL     OW27070   3.263   0.613   5.181
 8724SOL    HW127071   3.289   0.616   5.084
 8724SOL    HW227072   3.293   0.526   5.220
 8725SOL     OW27073   6.530   0.831   2.493
 8725SOL    HW127074   6.612   0.847   2.548
 8725SOL    HW227075   6.490   0.919   2.466
 8726SOL     OW27076   6.875   1.281   0.456
 8726SOL    HW127077   6.795   1.242   0.411
 8726SOL    HW227078   6.854   1.374   0.485
 8727SOL     OW27079   4.819   5.607   6.635
 8727SOL    HW127080   4.889   5.573   6.572
 8727SOL    HW227081   4.777   5.690   6.597
 8728SOL     OW27082   6.191   6.605   4.553
 8728SOL    HW127083   6.096   6.624   4.527
 8728SOL    HW227084   6.218   6.664   4.629
 8729SOL     OW27085   5.831   6.233   5.658
 8729SOL    HW127086   5.917   6.239   5.708
 8729SOL    HW227087   5.836   6.290   5.576
 8730SOL     OW27088   3.934   4.728   1.798
 8730SOL    HW127089   3.981   4.677   1.726
 8730SOL    HW227090   3.994   4.739   1.877
 8731SOL     OW27091   6.883   2.083   4.297
 8731SOL    HW127092   6.905   2.160   4.237
 8731SOL    HW227093   6.968   2.034   4.320
 8732SOL     OW27094   5.154   6.267   5.259
 8732SOL    HW127095   5.194   6.196   5.316
 8732SOL    HW227096   5.200   6.268   5.170
 8733SOL     OW27097   6.117   4.564   1.517
 8733SOL    HW127098   6.122   4.620   1.600
 8733SOL    HW227099   6.179   4.601   1.448
 8734SOL     OW27100   1.053   5.861   1.151
 8734SOL    HW127101   0.989   5.870   1.228
 8734SOL    HW227102   1.003   5.836   1.068
 8735SOL     OW27103   1.152   2.480   6.263
 8735SOL    HW127104   1.089   2.411   6.228
 8735SOL    HW227105   1.142   2.564   6.210
 8736SOL     OW27106   1.286   6.048   3.781
 8736SOL    HW127107   1.189   6.070   3.764
 8736SOL    HW227108   1.341   6.130   3.765
 8737SOL     OW27109   7.012   5.531   6.844
 8737SOL    HW127110   6.946   5.474   6.796
 8737SOL    HW227111   0.046   5.473   6.896
 8738SOL     OW27112   2.109   2.720   2.274
 8738SOL    HW127113   2.112   2.678   2.365
 8738SOL    HW227114   2.093   2.818   2.283
 8739SOL     OW27115   4.089   4.759   3.128
 8739SOL    HW127116   4.154   4.766   3.204
 8739SOL    HW227117   3.997   4.778   3.161
 8740SOL     OW27118   2.732   1.667   3.531
 8740SOL    HW127119   2.779   1.715   3.605
 8740SOL    HW227120   2.766   1.573   3.525
 8741SOL     OW27121   1.742   2.082   2.733
 8741SOL    HW127122   1.816   2.072   2.667
 8741SOL    HW227123   1.687   1.998   2.735
 8742SOL     OW27124   1.858   3.384   1.710
 8742SOL    HW127125   1.876   3.482   1.713
 8742SOL    HW227126   1.889   3.342   1.795
 8743SOL     OW27127   0.884   3.410   6.950
 8743SOL    HW127128   0.854   3.452   6.864
 8743SOL    HW227129   0.983   3.420   6.960
 8744SOL     OW27130   3.201   3.912   6.280
 8744SOL    HW127131   3.276   3.956   6.330
 8744SOL    HW227132   3.115   3.928   6.328
 8745SOL     OW27133   5.945   1.771   6.808
 8745SOL    HW127134   6.025   1.773   6.867
 8745SOL    HW227135   5.972   1.742   6.716
 8746SOL     OW27136   4.670   4.805   4.878
 8746SOL    HW127137   4.749   4.805   4.816
 8746SOL    HW227138   4.604   4.736   4.848
 8747SOL     OW27139   0.742   6.666   1.953
 8747SOL    HW127140   0.694   6.699   2.034
 8747SOL    HW227141   0.834   6.636   1.979
 8748SOL     OW27142   5.873   1.464   4.259
 8748SOL    HW127143   5.860   1.549   4.309
 8748SOL    HW227144   5.788   1.412   4.257
 8749SOL     OW27145   3.053   1.616   4.034
 8749SOL    HW127146   3.122   1.676   3.992
 8749SOL    HW227147   2.974   1.609   3.973
 8750SOL     OW27148   4.048   3.425   1.323
 8750SOL    HW127149   3.953   3.399   1.307
 8750SOL    HW227150   4.100   3.345   1.353
 8751SOL     OW27151   2.033   0.076   0.651
 8751SOL    HW127152   2.084   0.154   0.687
 8751SOL    HW227153   2.086   0.030   0.581
 8752SOL     OW27154   0.356   3.187   6.252
 8752SOL    HW127155   0.328   3.142   6.337
 8752SOL    HW227156   0.456   3.190   6.247
 8753SOL     OW27157   1.903   1.487   1.211
 8753SOL    HW127158   1.894   1.431   1.128
 8753SOL    HW227159   1.868   1.579   1.193
 8754SOL     OW27160   1.405   5.864   5.926
 8754SOL    HW127161   1.356   5.935   5.976
 8754SOL    HW227162   1.347   5.830   5.851
 8755SOL     OW27163   0.824   2.169   1.551
 8755SOL    HW127164   0.762   2.197   1.478
 8755SOL    HW227165   0.851   2.250   1.603
 8756SOL     OW27166   1.646   1.691   2.281
 8756SOL    HW127167   1.705   1.615   2.254
 8756SOL    HW227168   1.550   1.665   2.269
 8757SOL     OW27169   5.639   5.890   4.489
 8757SOL    HW127170   5.722   5.942   4.470
 8757SOL    HW227171   5.563   5.926   4.434
 8758SOL     OW27172   3.712   5.605   6.715
 8758SOL    HW127173   3.741   5.668   6.788
 8758SOL    HW227174   3.635   5.550   6.748
 8759SOL     OW27175   6.832   1.164   1.974
 8759SOL    HW127176   6.920   1.210   1.985
 8759SOL    HW227177   6.834   1.076   2.021
 8760SOL     OW27178   1.978   2.579   4.404
 8760SOL    HW127179   1.959   2.485   4.432
 8760SOL    HW227180   1.997   2.582   4.306
 8761SOL     OW27181   4.805   2.979   3.380
 8761SOL    HW127182   4.896   2.952   3.348
 8761SOL    HW227183   4.770   2.910   3.444
 8762SOL     OW27184   4.245   5.993   2.766
 8762SOL    HW127185   4.207   5.975   2.857
 8762SOL    HW227186   4.258   5.906   2.718
 8763SOL     OW27187   6.889   1.175   5.390
 8763SOL    HW127188   6.917   1.203   5.482
 8763SOL    HW227189   6.907   1.078   5.378
 8764SOL     OW27190   3.328   5.480   6.211
 8764SOL    HW127191   3.362   5.460   6.303
 8764SOL    HW227192   3.372   5.418   6.146
 8765SOL     OW27193   4.406   6.950   3.278
 8765SOL    HW127194   4.315   6.970   3.314
 8765SOL    HW227195   4.424   6.852   3.285
 8766SOL     OW27196   6.255   6.967   4.847
 8766SOL    HW127197   6.308   6.974   4.931
 8766SOL    HW227198   6.221   0.027   4.821
 8767SOL     OW27199   2.010   1.081   4.808
 8767SOL    HW127200   2.002   1.090   4.907
 8767SOL    HW227201   2.079   1.145   4.774
 8768SOL     OW27202   6.850   1.617   1.143
 8768SOL    HW127203   6.783   1.643   1.073
 8768SOL    HW227204   6.807   1.621   1.233
 8769SOL     OW27205   6.410   6.741   6.423
 8769SOL    HW127206   6.431   6.670   6.491
 8769SOL    HW227207   6.492   6.794   6.404
 8770SOL     OW27208   4.720   1.528   0.623
 8770SOL    HW127209   4.691   1.446   0.574
 8770SOL    HW227210   4.795   1.505   0.684
 8771SOL     OW27211   0.345   2.514   6.127
 8771SOL    HW127212   0.299   2.496   6.040
 8771SOL    HW227213   0.326   2.439   6.191
 8772SOL     OW27214   0.632   6.397   3.703
 8772SOL    HW127215   0.720   6.397   3.656
 8772SOL    HW227216   0.599   6.303   3.714
 8773SOL     OW27217   6.945   1.303   3.932
 8773SOL    HW127218   6.927   1.308   4.030
 8773SOL    HW227219   6.937   1.394   3.892
 8774SOL     OW27220   1.531   2.333   6.852
 8774SOL    HW127221   1.579   2.342   6.939
 8774SOL    HW227222   1.536   2.238   6.820
 8775SOL     OW27223   5.388   2.040   2.959
 8775SOL    HW127224   5.453   2.110   2.930
 8775SOL    HW227225   5.399   2.022   3.056
 8776SOL     OW27226   5.088   3.082   1.551
 8776SOL    HW127227   5.129   3.053   1.638
 8776SOL    HW227228   5.074   3.181   1.552
 8777SOL     OW27229   6.690   2.168   4.480
 8777SOL    HW127230   6.759   2.145   4.411
 8777SOL    HW227231   6.687   2.267   4.494
 8778SOL     OW27232   1.804   4.118   6.831
 8778SOL    HW127233   1.782   4.040   6.772
 8778SOL    HW227234   1.761   4.105   6.920
 8779SOL     OW27235   4.142   5.876   3.039
 8779SOL    HW127236   4.218   5.838   3.092
 8779SOL    HW227237   4.056   5.834   3.069
 8780SOL     OW27238   1.145   3.823   4.135
 8780SOL    HW127239   1.056   3.789   4.106
 8780SOL    HW227240   1.212   3.749   4.134
 8781SOL     OW27241   3.553   1.611   1.731
 8781SOL    HW127242   3.501   1.596   1.647
 8781SOL    HW227243   3.613   1.533   1.747
 8782SOL     OW27244   6.741   2.587   0.254
 8782SOL    HW127245   6.733   2.641   0.170
 8782SOL    HW227246   6.650   2.565   0.289
 8783SOL     OW27247   3.949   3.524   5.608
 8783SOL    HW127248   3.880   3.451   5.606
 8783SOL    HW227249   3.904   3.613   5.602
 8784SOL     OW27250   4.088   1.120   6.288
 8784SOL    HW127251   4.136   1.185   6.229
 8784SOL    HW227252   4.154   1.059   6.331
 8785SOL     OW27253   0.095   6.099   6.471
 8785SOL    HW127254   0.131   6.191   6.459
 8785SOL    HW227255   0.155   6.033   6.425
 8786SOL     OW27256   5.698   2.134   3.331
 8786SOL    HW127257   5.634   2.146   3.407
 8786SOL    HW227258   5.788   2.110   3.366
 8787SOL     OW27259   3.270   4.961   2.290
 8787SOL    HW127260   3.361   4.945   2.252
 8787SOL    HW227261   3.201   4.926   2.227
 8788SOL     OW27262   0.163   6.090   3.794
 8788SOL    HW127263   0.097   6.156   3.831
 8788SOL    HW227264   0.120   6.038   3.721
 8789SOL     OW27265   1.244   3.381   0.029
 8789SOL    HW127266   1.167   3.365   0.091
 8789SOL    HW227267   1.298   3.458   0.061
 8790SOL     OW27268   5.195   3.101   5.111
 8790SOL    HW127269   5.250   3.128   5.032
 8790SOL    HW227270   5.188   3.002   5.114
 8791SOL     OW27271   4.372   6.026   4.887
 8791SOL    HW127272   4.359   5.952   4.821
 8791SOL    HW227273   4.442   5.999   4.953
 8792SOL     OW27274   5.698   5.048   0.542
 8792SOL    HW127275   5.703   4.949   0.528
 8792SOL    HW227276   5.608   5.082   0.514
 8793SOL     OW27277   6.292   7.026   5.400
 8793SOL    HW127278   6.293   0.033   5.493
 8793SOL    HW227279   6.386   7.010   5.370
 8794SOL     OW27280   6.883   2.435   3.283
 8794SOL    HW127281   6.865   2.533   3.275
 8794SOL    HW227282   6.957   2.410   3.221
 8795SOL     OW27283   1.545   0.399   6.768
 8795SOL    HW127284   1.460   0.352   6.789
 8795SOL    HW227285   1.622   0.335   6.774
 8796SOL     OW27286   5.538   4.392   4.240
 8796SOL    HW127287   5.614   4.430   4.291
 8796SOL    HW227288   5.540   4.426   4.146
 8797SOL     OW27289   5.134   6.132   4.902
 8797SOL    HW127290   5.229   6.136   4.931
 8797SOL    HW227291   5.101   6.037   4.907
 8798SOL     OW27292   1.970   5.709   5.912
 8798SOL    HW127293   2.029   5.785   5.883
 8798SOL    HW227294   1.997   5.679   6.003
 8799SOL     OW27295   1.776   6.519   1.874
 8799SOL    HW127296   1.726   6.599   1.906
 8799SOL    HW227297   1.718   6.466   1.812
 8800SOL     OW27298   6.613   5.962   4.025
 8800SOL    HW127299   6.709   5.986   4.012
 8800SOL    HW227300   6.588   5.888   3.963
 8801SOL     OW27301   4.714   3.138   5.520
 8801SOL    HW127302   4.799   3.142   5.467
 8801SOL    HW227303   4.654   3.213   5.494
 8802SOL     OW27304   1.237   6.408   6.945
 8802SOL    HW127305   1.337   6.413   6.946
 8802SOL    HW227306   1.202   6.459   6.866
 8803SOL     OW27307   5.252   5.215   4.899
 8803SOL    HW127308   5.175   5.232   4.961
 8803SOL    HW227309   5.327   5.172   4.949
 8804SOL     OW27310   1.959   6.866   2.094
 8804SOL    HW127311   2.007   6.927   2.157
 8804SOL    HW227312   2.018   6.788   2.071
 8805SOL     OW27313   5.125   4.672   1.809
 8805SOL    HW127314   5.220   4.676   1.776
 8805SOL    HW227315   5.114   4.736   1.886
 8806SOL     OW27316   1.000   0.621   1.860
 8806SOL    HW127317   0.919   0.621   1.801
 8806SOL    HW227318   1.001   0.705   1.914
 8807SOL     OW27319   6.260   2.200   1.683
 8807SOL    HW127320   6.176   2.180   1.634
 8807SOL    HW227321   6.241   2.264   1.758
 8808SOL     OW27322   1.496   1.484   0.801
 8808SOL    HW127323   1.519   1.426   0.722
 8808SOL    HW227324   1.399   1.475   0.822
 8809SOL     OW27325   1.024   3.369   3.280
 8809SOL    HW127326   0.928   3.388   3.300
 8809SOL    HW227327   1.071   3.339   3.363
 8810SOL     OW27328   6.023   2.309   4.504
 8810SOL    HW127329   6.078   2.325   4.586
 8810SOL    HW227330   6.032   2.214   4.476
 8811SOL     OW27331   3.990   5.313   2.238
 8811SOL    HW127332   3.941   5.237   2.197
 8811SOL    HW227333   4.073   5.280   2.282
 8812SOL     OW27334   5.619   0.496   0.460
 8812SOL    HW127335   5.674   0.508   0.543
 8812SOL    HW227336   5.626   0.578   0.403
 8813SOL     OW27337   1.531   3.037   1.748
 8813SOL    HW127338   1.570   3.128   1.735
 8813SOL    HW227339   1.592   2.982   1.805
 8814SOL     OW27340   5.316   7.005   4.877
 8814SOL    HW127341   5.407   7.006   4.919
 8814SOL    HW227342   5.246   7.005   4.949
 8815SOL     OW27343   5.233   0.969   1.174
 8815SOL    HW127344   5.305   0.900   1.184
 8815SOL    HW227345   5.152   0.927   1.132
 8816SOL     OW27346   0.072   0.643   3.412
 8816SOL    HW127347   0.075   0.580   3.335
 8816SOL    HW227348   0.154   0.701   3.411
 8817SOL     OW27349   1.082   2.268   3.851
 8817SOL    HW127350   1.106   2.268   3.948
 8817SOL    HW227351   1.128   2.192   3.804
 8818SOL     OW27352   1.155   6.204   6.532
 8818SOL    HW127353   1.113   6.165   6.614
 8818SOL    HW227354   1.218   6.277   6.559
 8819SOL     OW27355   5.173   6.436   5.757
 8819SOL    HW127356   5.244   6.503   5.777
 8819SOL    HW227357   5.196   6.349   5.800
 8820SOL     OW27358   3.807   6.470   5.775
 8820SOL    HW127359   3.721   6.489   5.728
 8820SOL    HW227360   3.822   6.539   5.846
 8821SOL     OW27361   0.844   5.699   5.769
 8821SOL    HW127362   0.830   5.602   5.750
 8821SOL    HW227363   0.759   5.739   5.806
 8822SOL     OW27364   6.469   0.245   4.471
 8822SOL    HW127365   6.524   0.255   4.388
 8822SOL    HW227366   6.524   0.205   4.543
 8823SOL     OW27367   4.571   2.277   3.322
 8823SOL    HW127368   4.475   2.285   3.295
 8823SOL    HW227369   4.577   2.258   3.420
 8824SOL     OW27370   1.663   7.025   4.409
 8824SOL    HW127371   1.605   0.075   4.430
 8824SOL    HW227372   1.753   0.027   4.380
 8825SOL     OW27373   1.264   6.944   0.367
 8825SOL    HW127374   1.226   6.948   0.459
 8825SOL    HW227375   1.287   6.850   0.344
 8826SOL     OW27376   0.592   3.923   0.514
 8826SOL    HW127377   0.554   3.964   0.597
 8826SOL    HW227378   0.688   3.897   0.531
 8827SOL     OW27379   4.734   6.025   3.395
 8827SOL    HW127380   4.814   6.051   3.342
 8827SOL    HW227381   4.763   5.993   3.486
 8828SOL     OW27382   5.192   2.356   5.316
 8828SOL    HW127383   5.205   2.322   5.409
 8828SOL    HW227384   5.248   2.303   5.253
 8829SOL     OW27385   5.994   1.089   2.826
 8829SOL    HW127386   6.016   0.994   2.803
 8829SOL    HW227387   5.989   1.143   2.742
 8830SOL     OW27388   3.108   0.702   2.864
 8830SOL    HW127389   3.176   0.760   2.820
 8830SOL    HW227390   3.020   0.713   2.818
 8831SOL     OW27391   0.716   2.816   2.669
 8831SOL    HW127392   0.797   2.874   2.665
 8831SOL    HW227393   0.718   2.750   2.593
 8832SOL     OW27394   6.125   0.245   5.121
 8832SOL    HW127395   6.084   0.317   5.178
 8832SOL    HW227396   6.076   0.159   5.135
 8833SOL     OW27397   4.705   3.045   0.876
 8833SOL    HW127398   4.781   3.079   0.821
 8833SOL    HW227399   4.667   3.120   0.931
 8834SOL     OW27400   5.807   4.376   6.024
 8834SOL    HW127401   5.779   4.448   6.088
 8834SOL    HW227402   5.904   4.387   6.002
 8835SOL     OW27403   6.471   0.989   5.248
 8835SOL    HW127404   6.441   0.957   5.158
 8835SOL    HW227405   6.409   1.061   5.280
 8836SOL     OW27406   4.264   1.615   1.352
 8836SOL    HW127407   4.362   1.603   1.369
 8836SOL    HW227408   4.251   1.682   1.279
 8837SOL     OW27409   5.011   4.878   0.375
 8837SOL    HW127410   5.029   4.883   0.474
 8837SOL    HW227411   4.912   4.880   0.360
 8838SOL     OW27412   2.185   4.085   2.595
 8838SOL    HW127413   2.112   4.091   2.663
 8838SOL    HW227414   2.217   4.177   2.572
 8839SOL     OW27415   4.481   4.760   1.245
 8839SOL    HW127416   4.559   4.702   1.223
 8839SOL    HW227417   4.402   4.734   1.190
 8840SOL     OW27418   0.386   0.314   1.740
 8840SOL    HW127419   0.302   0.337   1.790
 8840SOL    HW227420   0.377   0.223   1.701
 8841SOL     OW27421   3.804   1.735   0.901
 8841SOL    HW127422   3.714   1.695   0.884
 8841SOL    HW227423   3.872   1.662   0.903
 8842SOL     OW27424   3.529   3.210   3.831
 8842SOL    HW127425   3.609   3.257   3.794
 8842SOL    HW227426   3.461   3.277   3.860
 8843SOL     OW27427   2.722   6.087   5.201
 8843SOL    HW127428   2.688   6.171   5.244
 8843SOL    HW227429   2.794   6.048   5.259
 8844SOL     OW27430   3.952   3.123   5.375
 8844SOL    HW127431   3.975   3.031   5.342
 8844SOL    HW227432   4.017   3.150   5.446
 8845SOL     OW27433   0.890   3.222   2.107
 8845SOL    HW127434   0.949   3.302   2.106
 8845SOL    HW227435   0.796   3.249   2.089
 8846SOL     OW27436   5.780   5.476   4.274
 8846SOL    HW127437   5.760   5.391   4.322
 8846SOL    HW227438   5.695   5.527   4.259
 8847SOL     OW27439   0.697   2.182   3.911
 8847SOL    HW127440   0.661   2.171   4.004
 8847SOL    HW227441   0.765   2.111   3.893
 8848SOL     OW27442   6.108   2.485   0.944
 8848SOL    HW127443   6.178   2.424   0.980
 8848SOL    HW227444   6.020   2.438   0.945
 8849SOL     OW27445   2.970   5.337   4.404
 8849SOL    HW127446   2.930   5.254   4.364
 8849SOL    HW227447   3.004   5.317   4.496
 8850SOL     OW27448   3.853   2.409   0.785
 8850SOL    HW127449   3.897   2.400   0.875
 8850SOL    HW227450   3.771   2.352   0.782
 8851SOL     OW27451   7.026   5.040   2.926
 8851SOL    HW127452   0.080   5.060   2.875
 8851SOL    HW227453   7.008   4.941   2.925
 8852SOL     OW27454   5.197   3.674   4.817
 8852SOL    HW127455   5.232   3.754   4.769
 8852SOL    HW227456   5.193   3.596   4.756
 8853SOL     OW27457   4.893   1.781   4.704
 8853SOL    HW127458   4.829   1.763   4.779
 8853SOL    HW227459   4.922   1.694   4.664
 8854SOL     OW27460   2.946   0.899   5.863
 8854SOL    HW127461   2.954   0.984   5.916
 8854SOL    HW227462   2.936   0.920   5.766
 8855SOL     OW27463   6.069   4.988   6.073
 8855SOL    HW127464   6.117   4.949   6.151
 8855SOL    HW227465   6.001   4.922   6.039
 8856SOL     OW27466   5.329   1.448   5.401
 8856SOL    HW127467   5.410   1.503   5.418
 8856SOL    HW227468   5.281   1.483   5.320
 8857SOL     OW27469   2.162   3.310   4.317
 8857SOL    HW127470   2.141   3.389   4.260
 8857SOL    HW227471   2.124   3.323   4.409
 8858SOL     OW27472   0.748   3.557   5.692
 8858SOL    HW127473   0.713   3.574   5.784
 8858SOL    HW227474   0.786   3.465   5.687
 8859SOL     OW27475   2.605   6.802   5.449
 8859SOL    HW127476   2.543   6.879   5.434
 8859SOL    HW227477   2.584   6.760   5.537
 8860SOL     OW27478   2.160   1.461   1.293
 8860SOL    HW127479   2.211   1.412   1.222
 8860SOL    HW227480   2.065   1.470   1.265
 8861SOL     OW27481   1.779   2.406   0.405
 8861SOL    HW127482   1.841   2.433   0.479
 8861SOL    HW227483   1.832   2.360   0.333
 8862SOL     OW27484   0.008   2.295   4.799
 8862SOL    HW127485   6.938   2.298   4.807
 8862SOL    HW227486   0.049   2.362   4.861
 8863SOL     OW27487   2.271   5.589   5.201
 8863SOL    HW127488   2.178   5.623   5.218
 8863SOL    HW227489   2.323   5.658   5.151
 8864SOL     OW27490   1.886   4.667   5.773
 8864SOL    HW127491   1.799   4.673   5.821
 8864SOL    HW227492   1.947   4.604   5.821
 8865SOL     OW27493   2.994   2.269   5.805
 8865SOL    HW127494   3.056   2.348   5.809
 8865SOL    HW227495   3.044   2.190   5.770
 8866SOL     OW27496   4.846   0.464   5.296
 8866SOL    HW127497   4.822   0.381   5.347
 8866SOL    HW227498   4.894   0.528   5.356
 8867SOL     OW27499   6.202   0.906   3.233
 8867SOL    HW127500   6.172   0.813   3.255
 8867SOL    HW227501   6.143   0.945   3.163
 8868SOL     OW27502   5.525   3.544   0.735
 8868SOL    HW127503   5.438   3.593   0.749
 8868SOL    HW227504   5.584   3.597   0.674
 8869SOL     OW27505   3.237   1.797   3.210
 8869SOL    HW127506   3.181   1.812   3.291
 8869SOL    HW227507   3.184   1.820   3.128
 8870SOL     OW27508   5.074   0.415   1.994
 8870SOL    HW127509   5.135   0.356   2.047
 8870SOL    HW227510   4.980   0.383   2.003
 8871SOL     OW27511   1.322   2.258   3.562
 8871SOL    HW127512   1.401   2.279   3.504
 8871SOL    HW227513   1.326   2.312   3.645
 8872SOL     OW27514   1.299   2.065   2.065
 8872SOL    HW127515   1.226   2.073   2.132
 8872SOL    HW227516   1.285   1.983   2.010
 8873SOL     OW27517   6.693   5.603   4.819
 8873SOL    HW127518   6.782   5.617   4.863
 8873SOL    HW227519   6.634   5.549   4.880
 8874SOL     OW27520   1.090   1.482   6.700
 8874SOL    HW127521   1.129   1.563   6.742
 8874SOL    HW227522   1.081   1.497   6.601
 8875SOL     OW27523   1.407   0.987   4.026
 8875SOL    HW127524   1.400   0.889   4.046
 8875SOL    HW227525   1.486   1.003   3.966
 8876SOL     OW27526   2.696   0.899   4.899
 8876SOL    HW127527   2.632   0.822   4.905
 8876SOL    HW227528   2.707   0.925   4.804
 8877SOL     OW27529   3.065   6.862   4.437
 8877SOL    HW127530   3.073   6.817   4.526
 8877SOL    HW227531   3.067   6.961   4.450
 8878SOL     OW27532   5.729   4.477   5.086
 8878SOL    HW127533   5.749   4.381   5.065
 8878SOL    HW227534   5.670   4.482   5.167
 8879SOL     OW27535   4.719   5.446   4.407
 8879SOL    HW127536   4.702   5.510   4.482
 8879SOL    HW227537   4.668   5.475   4.326
 8880SOL     OW27538   1.137   6.456   5.263
 8880SOL    HW127539   1.179   6.493   5.346
 8880SOL    HW227540   1.050   6.502   5.247
 8881SOL     OW27541   7.018   1.958   2.721
 8881SOL    HW127542   6.937   1.951   2.779
 8881SOL    HW227543   0.054   1.887   2.747
 8882SOL     OW27544   5.457   3.036   0.280
 8882SOL    HW127545   5.503   2.952   0.251
 8882SOL    HW227546   5.381   3.013   0.341
 8883SOL     OW27547   5.693   1.174   5.409
 8883SOL    HW127548   5.730   1.165   5.501
 8883SOL    HW227549   5.745   1.116   5.346
 8884SOL     OW27550   0.082   1.393   6.356
 8884SOL    HW127551   0.073   1.464   6.426
 8884SOL    HW227552   0.157   1.331   6.381
 8885SOL     OW27553   5.681   3.777   1.306
 8885SOL    HW127554   5.645   3.691   1.344
 8885SOL    HW227555   5.629   3.854   1.344
 8886SOL     OW27556   2.883   5.790   6.018
 8886SOL    HW127557   2.879   5.786   5.918
 8886SOL    HW227558   2.966   5.744   6.050
 8887SOL     OW27559   1.522   1.671   1.049
 8887SOL    HW127560   1.439   1.660   0.994
 8887SOL    HW227561   1.574   1.586   1.047
 8888SOL     OW27562   2.806   1.979   3.062
 8888SOL    HW127563   2.857   2.029   2.993
 8888SOL    HW227564   2.708   1.986   3.044
 8889SOL     OW27565   3.449   1.182   4.129
 8889SOL    HW127566   3.441   1.280   4.151
 8889SOL    HW227567   3.541   1.151   4.149
 8890SOL     OW27568   0.207   4.745   3.508
 8890SOL    HW127569   0.243   4.828   3.465
 8890SOL    HW227570   0.152   4.695   3.442
 8891SOL     OW27571   3.194   1.227   6.068
 8891SOL    HW127572   3.215   1.262   6.159
 8891SOL    HW227573   3.101   1.190   6.067
 8892SOL     OW27574   1.202   7.023   2.914
 8892SOL    HW127575   1.288   0.021   2.957
 8892SOL    HW227576   1.147   6.972   2.980
 8893SOL     OW27577   0.509   1.031   0.756
 8893SOL    HW127578   0.421   1.045   0.711
 8893SOL    HW227579   0.580   1.016   0.687
 8894SOL     OW27580   4.799   2.469   6.005
 8894SOL    HW127581   4.846   2.383   5.990
 8894SOL    HW227582   4.703   2.451   6.026
 8895SOL     OW27583   1.697   1.224   3.000
 8895SOL    HW127584   1.775   1.182   2.955
 8895SOL    HW227585   1.724   1.311   3.040
 8896SOL     OW27586   2.041   4.444   5.291
 8896SOL    HW127587   2.091   4.384   5.230
 8896SOL    HW227588   1.946   4.412   5.300
 8897SOL     OW27589   1.056   2.373   1.687
 8897SOL    HW127590   1.095   2.452   1.638
 8897SOL    HW227591   1.070   2.290   1.634
 8898SOL     OW27592   0.142   2.858   5.316
 8898SOL    HW127593   0.086   2.915   5.376
 8898SOL    HW227594   0.213   2.812   5.370
 8899SOL     OW27595   3.046   5.195   1.779
 8899SOL    HW127596   3.120   5.152   1.832
 8899SOL    HW227597   3.007   5.270   1.832
 8900SOL     OW27598   6.532   1.937   3.618
 8900SOL    HW127599   6.627   1.964   3.602
 8900SOL    HW227600   6.482   2.014   3.659
 8901SOL     OW27601   1.893   7.010   1.696
 8901SOL    HW127602   1.817   7.019   1.632
 8901SOL    HW227603   1.951   0.061   1.691
 8902SOL     OW27604   3.738   6.217   5.598
 8902SOL    HW127605   3.690   6.280   5.538
 8902SOL    HW227606   3.816   6.264   5.640
 8903SOL     OW27607   6.759   0.664   2.773
 8903SOL    HW127608   6.720   0.594   2.832
 8903SOL    HW227609   6.685   0.717   2.730
 8904SOL     OW27610   0.974   4.594   3.420
 8904SOL    HW127611   0.901   4.579   3.353
 8904SOL    HW227612   0.942   4.567   3.511
 8905SOL     OW27613   2.201   4.284   4.834
 8905SOL    HW127614   2.243   4.203   4.874
 8905SOL    HW227615   2.104   4.287   4.857
 8906SOL     OW27616   2.314   5.343   4.798
 8906SOL    HW127617   2.244   5.280   4.830
 8906SOL    HW227618   2.281   5.393   4.719
 8907SOL     OW27619   3.813   2.663   6.586
 8907SOL    HW127620   3.832   2.750   6.630
 8907SOL    HW227621   3.880   2.647   6.513
 8908SOL     OW27622   0.763   3.127   2.807
 8908SOL    HW127623   0.711   3.075   2.874
 8908SOL    HW227624   0.819   3.195   2.855
 8909SOL     OW27625   3.357   0.105   5.339
 8909SOL    HW127626   3.288   0.067   5.401
 8909SOL    HW227627   3.349   0.062   5.250
 8910SOL     OW27628   4.132   2.631   0.436
 8910SOL    HW127629   4.188   2.557   0.475
 8910SOL    HW227630   4.118   2.702   0.505
 8911SOL     OW27631   5.106   2.635   3.863
 8911SOL    HW127632   5.112   2.579   3.945
 8911SOL    HW227633   5.086   2.730   3.888
 8912SOL     OW27634   4.711   1.055   6.686
 8912SOL    HW127635   4.797   1.005   6.694
 8912SOL    HW227636   4.656   1.017   6.611
 8913SOL     OW27637   4.658   3.958   1.071
 8913SOL    HW127638   4.728   4.004   1.016
 8913SOL    HW227639   4.644   4.008   1.156
 8914SOL     OW27640   4.883   2.674   4.179
 8914SOL    HW127641   4.944   2.641   4.252
 8914SOL    HW227642   4.878   2.606   4.106
 8915SOL     OW27643   0.686   5.228   2.229
 8915SOL    HW127644   0.725   5.273   2.310
 8915SOL    HW227645   0.637   5.296   2.174
 8916SOL     OW27646   6.091   3.336   2.309
 8916SOL    HW127647   6.046   3.409   2.258
 8916SOL    HW227648   6.034   3.309   2.387
 8917SOL     OW27649   5.368   4.530   5.340
 8917SOL    HW127650   5.432   4.606   5.331
 8917SOL    HW227651   5.370   4.496   5.434
 8918SOL     OW27652   5.024   3.934   6.159
 8918SOL    HW127653   4.925   3.947   6.152
 8918SOL    HW227654   5.056   3.883   6.079
 8919SOL     OW27655   2.127   3.307   1.621
 8919SOL    HW127656   2.028   3.298   1.610
 8919SOL    HW227657   2.173   3.231   1.574
 8920SOL     OW27658   6.546   5.390   5.915
 8920SOL    HW127659   6.602   5.473   5.920
 8920SOL    HW227660   6.565   5.332   5.994
 8921SOL     OW27661   0.805   5.486   3.904
 8921SOL    HW127662   0.856   5.400   3.914
 8921SOL    HW227663   0.845   5.555   3.964
 8922SOL     OW27664   0.079   3.369   6.446
 8922SOL    HW127665   0.073   3.450   6.505
 8922SOL    HW227666   0.115   3.396   6.357
 8923SOL     OW27667   2.613   4.681   4.377
 8923SOL    HW127668   2.604   4.674   4.477
 8923SOL    HW227669   2.580   4.596   4.335
 8924SOL     OW27670   2.086   6.326   4.728
 8924SOL    HW127671   1.998   6.368   4.749
 8924SOL    HW227672   2.144   6.391   4.680
 8925SOL     OW27673   4.570   5.494   1.169
 8925SOL    HW127674   4.579   5.399   1.202
 8925SOL    HW227675   4.490   5.501   1.109
 8926SOL     OW27676   5.720   0.143   6.834
 8926SOL    HW127677   5.768   0.164   6.749
 8926SOL    HW227678   5.776   0.171   6.912
 8927SOL     OW27679   2.571   1.667   4.653
 8927SOL    HW127680   2.491   1.645   4.709
 8927SOL    HW227681   2.610   1.755   4.681
 8928SOL     OW27682   0.855   0.246   5.554
 8928SOL    HW127683   0.872   0.343   5.570
 8928SOL    HW227684   0.941   0.197   5.544
 8929SOL     OW27685   5.035   4.145   3.250
 8929SOL    HW127686   4.947   4.192   3.252
 8929SOL    HW227687   5.022   4.050   3.223
 8930SOL     OW27688   0.318   5.796   5.107
 8930SOL    HW127689   0.325   5.851   5.023
 8930SOL    HW227690   0.288   5.854   5.182
 8931SOL     OW27691   4.472   1.092   1.412
 8931SOL    HW127692   4.536   1.108   1.487
 8931SOL    HW227693   4.522   1.090   1.326
 8932SOL     OW27694   4.888   0.819   0.514
 8932SOL    HW127695   4.902   0.761   0.434
 8932SOL    HW227696   4.791   0.819   0.539
 8933SOL     OW27697   1.721   6.998   5.055
 8933SOL    HW127698   1.741   6.947   5.139
 8933SOL    HW227699   1.670   6.941   4.992
 8934SOL     OW27700   3.959   6.604   4.075
 8934SOL    HW127701   3.956   6.613   4.174
 8934SOL    HW227702   3.895   6.670   4.034
 8935SOL     OW27703   5.928   1.749   3.005
 8935SOL    HW127704   5.849   1.809   3.018
 8935SOL    HW227705   5.982   1.780   2.927
 8936SOL     OW27706   1.513   4.080   1.999
 8936SOL    HW127707   1.533   4.177   1.982
 8936SOL    HW227708   1.523   4.061   2.096
 8937SOL     OW27709   3.251   6.908   4.904
 8937SOL    HW127710   3.253   6.989   4.845
 8937SOL    HW227711   3.181   6.845   4.871
 8938SOL     OW27712   5.375   6.559   1.649
 8938SOL    HW127713   5.452   6.621   1.641
 8938SOL    HW227714   5.393   6.491   1.720
 8939SOL     OW27715   6.667   2.739   4.587
 8939SOL    HW127716   6.610   2.772   4.662
 8939SOL    HW227717   6.648   2.793   4.505
 8940SOL     OW27718   6.624   3.443   2.104
 8940SOL    HW127719   6.669   3.371   2.156
 8940SOL    HW227720   6.525   3.438   2.118
 8941SOL     OW27721   5.972   2.484   3.231
 8941SOL    HW127722   5.874   2.468   3.219
 8941SOL    HW227723   5.992   2.495   3.329
 8942SOL     OW27724   4.551   5.045   3.717
 8942SOL    HW127725   4.540   4.973   3.785
 8942SOL    HW227726   4.643   5.083   3.724
 8943SOL     OW27727   4.096   3.583   0.555
 8943SOL    HW127728   4.107   3.681   0.566
 8943SOL    HW227729   4.095   3.539   0.645
 8944SOL     OW27730   4.644   6.438   4.970
 8944SOL    HW127731   4.736   6.472   4.953
 8944SOL    HW227732   4.646   6.338   4.978
 8945SOL     OW27733   6.470   4.693   1.390
 8945SOL    HW127734   6.475   4.593   1.387
 8945SOL    HW227735   6.503   4.731   1.304
 8946SOL     OW27736   3.589   1.547   4.473
 8946SOL    HW127737   3.534   1.475   4.514
 8946SOL    HW227738   3.645   1.510   4.399
 8947SOL     OW27739   2.565   5.234   0.445
 8947SOL    HW127740   2.628   5.259   0.372
 8947SOL    HW227741   2.523   5.317   0.483
 8948SOL     OW27742   5.416   0.366   2.601
 8948SOL    HW127743   5.449   0.427   2.673
 8948SOL    HW227744   5.450   0.398   2.512
 8949SOL     OW27745   3.894   6.418   0.892
 8949SOL    HW127746   3.960   6.386   0.824
 8949SOL    HW227747   3.832   6.484   0.849
 8950SOL     OW27748   3.479   4.122   3.307
 8950SOL    HW127749   3.507   4.038   3.260
 8950SOL    HW227750   3.532   4.131   3.391
 8951SOL     OW27751   0.592   0.496   3.746
 8951SOL    HW127752   0.646   0.539   3.673
 8951SOL    HW227753   0.649   0.485   3.827
 8952SOL     OW27754   1.765   3.932   4.810
 8952SOL    HW127755   1.757   3.911   4.907
 8952SOL    HW227756   1.805   3.854   4.761
 8953SOL     OW27757   0.428   5.258   0.806
 8953SOL    HW127758   0.406   5.254   0.709
 8953SOL    HW227759   0.368   5.324   0.852
 8954SOL     OW27760   2.304   4.596   5.547
 8954SOL    HW127761   2.276   4.630   5.457
 8954SOL    HW227762   2.260   4.509   5.565
 8955SOL     OW27763   6.061   3.133   5.825
 8955SOL    HW127764   6.054   3.035   5.807
 8955SOL    HW227765   6.154   3.154   5.857
 8956SOL     OW27766   0.765   6.319   0.843
 8956SOL    HW127767   0.775   6.343   0.940
 8956SOL    HW227768   0.671   6.292   0.826
 8957SOL     OW27769   1.061   6.996   3.403
 8957SOL    HW127770   0.972   6.995   3.449
 8957SOL    HW227771   1.110   6.912   3.425
 8958SOL     OW27772   6.679   3.578   4.901
 8958SOL    HW127773   6.590   3.545   4.933
 8958SOL    HW227774   6.727   3.623   4.976
 8959SOL     OW27775   5.271   1.283   4.036
 8959SOL    HW127776   5.334   1.264   4.111
 8959SOL    HW227777   5.184   1.315   4.072
 8960SOL     OW27778   5.195   5.087   2.788
 8960SOL    HW127779   5.174   5.059   2.694
 8960SOL    HW227780   5.289   5.061   2.810
 8961SOL     OW27781   2.346   1.940   5.725
 8961SOL    HW127782   2.414   1.868   5.713
 8961SOL    HW227783   2.298   1.927   5.811
 8962SOL     OW27784   6.939   6.196   1.887
 8962SOL    HW127785   7.011   6.126   1.882
 8962SOL    HW227786   6.922   6.219   1.983
 8963SOL     OW27787   2.202   5.847   5.834
 8963SOL    HW127788   2.279   5.785   5.824
 8963SOL    HW227789   2.221   5.933   5.786
 8964SOL     OW27790   0.950   2.453   3.707
 8964SOL    HW127791   1.010   2.510   3.651
 8964SOL    HW227792   1.004   2.381   3.751
 8965SOL     OW27793   3.592   5.841   0.464
 8965SOL    HW127794   3.518   5.872   0.524
 8965SOL    HW227795   3.663   5.799   0.519
 8966SOL     OW27796   4.734   0.191   5.354
 8966SOL    HW127797   4.643   0.177   5.394
 8966SOL    HW227798   4.804   0.169   5.421
 8967SOL     OW27799   2.833   0.603   3.175
 8967SOL    HW127800   2.898   0.583   3.101
 8967SOL    HW227801   2.859   0.552   3.257
 8968SOL     OW27802   2.983   5.195   2.693
 8968SOL    HW127803   3.072   5.197   2.646
 8968SOL    HW227804   2.919   5.256   2.646
 8969SOL     OW27805   7.004   0.838   2.864
 8969SOL    HW127806   0.044   0.801   2.802
 8969SOL    HW227807   6.921   0.781   2.858
 8970SOL     OW27808   2.047   1.642   4.345
 8970SOL    HW127809   2.031   1.552   4.386
 8970SOL    HW227810   2.007   1.645   4.254
 8971SOL     OW27811   3.058   4.563   1.158
 8971SOL    HW127812   2.988   4.565   1.087
 8971SOL    HW227813   3.024   4.608   1.241
 8972SOL     OW27814   6.261   3.902   6.276
 8972SOL    HW127815   6.267   3.975   6.345
 8972SOL    HW227816   6.214   3.823   6.315
 8973SOL     OW27817   2.673   1.851   3.983
 8973SOL    HW127818   2.765   1.891   3.981
 8973SOL    HW227819   2.640   1.850   4.077
 8974SOL     OW27820   1.679   4.596   5.204
 8974SOL    HW127821   1.688   4.499   5.179
 8974SOL    HW227822   1.641   4.603   5.296
 8975SOL     OW27823   0.644   3.366   6.370
 8975SOL    HW127824   0.624   3.277   6.330
 8975SOL    HW227825   0.559   3.413   6.392
 8976SOL     OW27826   5.988   0.382   1.916
 8976SOL    HW127827   6.027   0.471   1.893
 8976SOL    HW227828   5.933   0.350   1.840
 8977SOL     OW27829   0.145   5.129   6.076
 8977SOL    HW127830   0.132   5.217   6.032
 8977SOL    HW227831   0.065   5.108   6.133
 8978SOL     OW27832   6.583   5.333   5.407
 8978SOL    HW127833   6.559   5.359   5.501
 8978SOL    HW227834   6.655   5.393   5.373
 8979SOL     OW27835   1.548   4.418   3.935
 8979SOL    HW127836   1.555   4.450   4.029
 8979SOL    HW227837   1.639   4.391   3.902
 8980SOL     OW27838   4.350   0.838   0.797
 8980SOL    HW127839   4.319   0.778   0.723
 8980SOL    HW227840   4.381   0.782   0.874
 8981SOL     OW27841   4.254   2.207   0.232
 8981SOL    HW127842   4.316   2.158   0.292
 8981SOL    HW227843   4.306   2.270   0.174
 8982SOL     OW27844   0.460   0.989   2.258
 8982SOL    HW127845   0.515   0.913   2.294
 8982SOL    HW227846   0.490   1.009   2.165
 8983SOL     OW27847   1.293   6.360   2.494
 8983SOL    HW127848   1.309   6.455   2.471
 8983SOL    HW227849   1.204   6.331   2.458
 8984SOL     OW27850   6.256   1.101   3.727
 8984SOL    HW127851   6.298   1.034   3.787
 8984SOL    HW227852   6.220   1.177   3.782
 8985SOL     OW27853   4.971   0.172   2.280
 8985SOL    HW127854   5.060   0.208   2.310
 8985SOL    HW227855   4.985   0.089   2.226
 8986SOL     OW27856   0.626   6.561   6.715
 8986SOL    HW127857   0.548   6.580   6.656
 8986SOL    HW227858   0.707   6.542   6.660
 8987SOL     OW27859   2.927   6.184   2.441
 8987SOL    HW127860   2.851   6.123   2.463
 8987SOL    HW227861   2.895   6.278   2.444
 8988SOL     OW27862   2.244   0.285   0.780
 8988SOL    HW127863   2.247   0.220   0.857
 8988SOL    HW227864   2.297   0.366   0.802
 8989SOL     OW27865   5.904   0.956   1.840
 8989SOL    HW127866   5.815   0.920   1.867
 8989SOL    HW227867   5.973   0.930   1.907
 8990SOL     OW27868   3.680   1.119   2.526
 8990SOL    HW127869   3.690   1.214   2.555
 8990SOL    HW227870   3.600   1.111   2.466
 8991SOL     OW27871   0.978   2.053   0.898
 8991SOL    HW127872   1.071   2.015   0.893
 8991SOL    HW227873   0.926   2.002   0.966
 8992SOL     OW27874   0.515   5.341   5.857
 8992SOL    HW127875   0.531   5.272   5.927
 8992SOL    HW227876   0.471   5.298   5.778
 8993SOL     OW27877   5.011   3.858   3.992
 8993SOL    HW127878   5.092   3.863   3.932
 8993SOL    HW227879   5.021   3.780   4.053
 8994SOL     OW27880   1.695   5.998   1.979
 8994SOL    HW127881   1.669   6.007   2.075
 8994SOL    HW227882   1.630   6.050   1.922
 8995SOL     OW27883   2.151   3.835   3.654
 8995SOL    HW127884   2.190   3.745   3.673
 8995SOL    HW227885   2.159   3.854   3.556
 8996SOL     OW27886   2.830   3.845   1.128
 8996SOL    HW127887   2.760   3.775   1.121
 8996SOL    HW227888   2.884   3.831   1.211
 8997SOL     OW27889   4.462   1.482   4.865
 8997SOL    HW127890   4.484   1.452   4.958
 8997SOL    HW227891   4.540   1.531   4.827
 8998SOL     OW27892   0.715   1.547   6.830
 8998SOL    HW127893   0.736   1.640   6.798
 8998SOL    HW227894   0.619   1.543   6.857
 8999SOL     OW27895   5.731   2.881   5.804
 8999SOL    HW127896   5.651   2.822   5.820
 8999SOL    HW227897   5.773   2.905   5.891
 9000SOL     OW27898   4.704   4.597   1.207
 9000SOL    HW127899   4.772   4.544   1.258
 9000SOL    HW227900   4.714   4.579   1.110
 9001SOL     OW27901   0.788   3.662   3.802
 9001SOL    HW127902   0.851   3.711   3.742
 9001SOL    HW227903   0.835   3.582   3.840
 9002SOL     OW27904   5.225   2.693   5.484
 9002SOL    HW127905   5.159   2.762   5.512
 9002SOL    HW227906   5.202   2.661   5.392
 9003SOL     OW27907   6.706   2.824   6.695
 9003SOL    HW127908   6.643   2.876   6.752
 9003SOL    HW227909   6.758   2.886   6.636
 9004SOL     OW27910   5.095   5.706   0.507
 9004SOL    HW127911   5.085   5.623   0.452
 9004SOL    HW227912   5.039   5.699   0.590
 9005SOL     OW27913   4.904   3.378   3.638
 9005SOL    HW127914   4.840   3.330   3.698
 9005SOL    HW227915   4.922   3.323   3.557
 9006SOL     OW27916   2.936   6.697   1.867
 9006SOL    HW127917   2.955   6.784   1.822
 9006SOL    HW227918   2.838   6.677   1.859
 9007SOL     OW27919   1.498   6.525   5.359
 9007SOL    HW127920   1.413   6.502   5.406
 9007SOL    HW227921   1.482   6.602   5.298
 9008SOL     OW27922   0.258   4.239   2.078
 9008SOL    HW127923   0.286   4.262   1.986
 9008SOL    HW227924   0.212   4.150   2.077
 9009SOL     OW27925   4.084   6.266   6.884
 9009SOL    HW127926   4.104   6.363   6.882
 9009SOL    HW227927   4.005   6.247   6.825
 9010SOL     OW27928   6.852   5.868   4.460
 9010SOL    HW127929   6.949   5.887   4.467
 9010SOL    HW227930   6.834   5.773   4.488
 9011SOL     OW27931   4.663   2.634   1.922
 9011SOL    HW127932   4.623   2.548   1.889
 9011SOL    HW227933   4.619   2.711   1.876
 9012SOL     OW27934   4.696   4.955   2.244
 9012SOL    HW127935   4.772   5.020   2.249
 9012SOL    HW227936   4.659   4.940   2.335
 9013SOL     OW27937   4.415   5.832   1.765
 9013SOL    HW127938   4.506   5.873   1.775
 9013SOL    HW227939   4.348   5.884   1.818
 9014SOL     OW27940   2.260   1.148   1.947
 9014SOL    HW127941   2.288   1.095   1.867
 9014SOL    HW227942   2.216   1.232   1.917
 9015SOL     OW27943   6.441   2.144   4.631
 9015SOL    HW127944   6.533   2.135   4.594
 9015SOL    HW227945   6.406   2.235   4.611
 9016SOL     OW27946   0.207   6.087   6.992
 9016SOL    HW127947   0.179   6.135   0.045
 9016SOL    HW227948   0.146   6.112   6.917
 9017SOL     OW27949   6.540   3.345   3.143
 9017SOL    HW127950   6.529   3.289   3.061
 9017SOL    HW227951   6.551   3.286   3.223
 9018SOL     OW27952   4.546   1.478   6.393
 9018SOL    HW127953   4.506   1.387   6.391
 9018SOL    HW227954   4.535   1.518   6.484
 9019SOL     OW27955   1.875   5.213   0.007
 9019SOL    HW127956   1.898   5.148   6.964
 9019SOL    HW227957   1.843   5.298   6.996
 9020SOL     OW27958   0.754   4.851   4.766
 9020SOL    HW127959   0.668   4.831   4.719
 9020SOL    HW227960   0.795   4.766   4.798
 9021SOL     OW27961   6.274   5.422   5.848
 9021SOL    HW127962   6.232   5.372   5.773
 9021SOL    HW227963   6.373   5.412   5.843
 9022SOL     OW27964   2.359   6.923   6.226
 9022SOL    HW127965   2.422   6.893   6.298
 9022SOL    HW227966   2.402   6.996   6.173
 9023SOL     OW27967   3.450   4.128   3.896
 9023SOL    HW127968   3.548   4.139   3.875
 9023SOL    HW227969   3.436   4.047   3.951
 9024SOL     OW27970   1.225   0.036   6.547
 9024SOL    HW127971   1.322   0.051   6.564
 9024SOL    HW227972   1.190   0.110   6.489
 9025SOL     OW27973   0.062   3.096   0.305
 9025SOL    HW127974   0.047   3.041   0.223
 9025SOL    HW227975   0.059   3.037   0.385
 9026SOL     OW27976   2.652   3.268   5.576
 9026SOL    HW127977   2.586   3.255   5.649
 9026SOL    HW227978   2.636   3.357   5.532
 9027SOL     OW27979   1.586   3.229   2.601
 9027SOL    HW127980   1.626   3.318   2.581
 9027SOL    HW227981   1.613   3.200   2.693
 9028SOL     OW27982   2.343   4.544   4.904
 9028SOL    HW127983   2.322   4.609   4.831
 9028SOL    HW227984   2.282   4.465   4.897
 9029SOL     OW27985   5.825   5.047   2.716
 9029SOL    HW127986   5.820   4.965   2.772
 9029SOL    HW227987   5.760   5.040   2.640
 9030SOL     OW27988   4.579   2.584   3.243
 9030SOL    HW127989   4.558   2.568   3.340
 9030SOL    HW227990   4.502   2.552   3.187
 9031SOL     OW27991   2.602   1.393   2.004
 9031SOL    HW127992   2.537   1.394   2.080
 9031SOL    HW227993   2.689   1.355   2.037
 9032SOL     OW27994   0.363   3.096   2.328
 9032SOL    HW127995   0.443   3.037   2.339
 9032SOL    HW227996   0.326   3.120   2.417
 9033SOL     OW27997   1.164   3.836   2.832
 9033SOL    HW127998   1.174   3.866   2.737
 9033SOL    HW227999   1.184   3.913   2.893
 9034SOL     OW28000   1.727   6.990   6.903
 9034SOL    HW128001   1.700   6.900   6.938
 9034SOL    HW228002   1.749   0.020   6.980
 9035SOL     OW28003   6.465   1.066   4.354
 9035SOL    HW128004   6.509   1.112   4.431
 9035SOL    HW228005   6.366   1.078   4.361
 9036SOL     OW28006   0.663   1.102   4.758
 9036SOL    HW128007   0.588   1.075   4.698
 9036SOL    HW228008   0.742   1.129   4.702
 9037SOL     OW28009   2.375   4.260   5.869
 9037SOL    HW128010   2.403   4.180   5.922
 9037SOL    HW228011   2.447   4.330   5.875
 9038SOL     OW28012   4.811   5.171   5.539
 9038SOL    HW128013   4.791   5.150   5.443
 9038SOL    HW228014   4.834   5.268   5.547
 9039SOL     OW28015   2.506   4.874   6.966
 9039SOL    HW128016   2.437   4.807   6.993
 9039SOL    HW228017   2.593   4.827   6.949
 9040SOL     OW28018   2.859   1.058   2.661
 9040SOL    HW128019   2.803   1.141   2.663
 9040SOL    HW228020   2.944   1.074   2.711
 9041SOL     OW28021   1.992   2.761   5.954
 9041SOL    HW128022   2.052   2.684   5.975
 9041SOL    HW228023   2.037   2.820   5.887
 9042SOL     OW28024   1.577   5.527   2.428
 9042SOL    HW128025   1.547   5.442   2.384
 9042SOL    HW228026   1.670   5.515   2.462
 9043SOL     OW28027   0.083   1.793   6.941
 9043SOL    HW128028   0.155   1.861   6.959
 9043SOL    HW228029   0.059   1.794   6.844
 9044SOL     OW28030   0.703   4.302   0.379
 9044SOL    HW128031   0.761   4.269   0.453
 9044SOL    HW228032   0.634   4.232   0.358
 9045SOL     OW28033   2.361   4.797   4.692
 9045SOL    HW128034   2.366   4.884   4.741
 9045SOL    HW228035   2.309   4.810   4.607
 9046SOL     OW28036   3.686   4.245   6.369
 9046SOL    HW128037   3.754   4.180   6.404
 9046SOL    HW228038   3.716   4.283   6.282
 9047SOL     OW28039   1.065   4.015   4.327
 9047SOL    HW128040   1.085   3.930   4.279
 9047SOL    HW228041   0.972   4.013   4.363
 9048SOL     OW28042   1.368   2.706   4.883
 9048SOL    HW128043   1.390   2.802   4.902
 9048SOL    HW228044   1.452   2.652   4.883
 9049SOL     OW28045   5.018   6.444   6.050
 9049SOL    HW128046   5.042   6.403   5.962
 9049SOL    HW228047   4.919   6.445   6.060
 9050SOL     OW28048   0.007   4.488   6.106
 9050SOL    HW128049   6.962   4.540   6.148
 9050SOL    HW228050   0.001   4.496   6.006
 9051SOL     OW28051   6.172   6.576   6.338
 9051SOL    HW128052   6.155   6.544   6.431
 9051SOL    HW228053   6.127   6.664   6.324
 9052SOL     OW28054   2.698   5.219   4.992
 9052SOL    HW128055   2.640   5.300   5.002
 9052SOL    HW228056   2.731   5.214   4.898
 9053SOL     OW28057   2.567   1.385   3.090
 9053SOL    HW128058   2.593   1.333   3.008
 9053SOL    HW228059   2.471   1.368   3.111
 9054SOL     OW28060   1.741   6.997   1.453
 9054SOL    HW128061   1.757   0.052   1.402
 9054SOL    HW228062   1.653   6.957   1.426
 9055SOL     OW28063   1.224   2.562   4.685
 9055SOL    HW128064   1.287   2.595   4.756
 9055SOL    HW228065   1.237   2.614   4.601
 9056SOL     OW28066   5.007   2.438   1.612
 9056SOL    HW128067   4.932   2.376   1.590
 9056SOL    HW228068   5.050   2.469   1.527
 9057SOL     OW28069   3.647   6.814   6.598
 9057SOL    HW128070   3.649   6.778   6.691
 9057SOL    HW228071   3.553   6.821   6.566
 9058SOL     OW28072   2.708   2.105   4.170
 9058SOL    HW128073   2.782   2.092   4.105
 9058SOL    HW228074   2.655   2.187   4.145
 9059SOL     OW28075   6.904   0.778   2.359
 9059SOL    HW128076   6.974   0.774   2.288
 9059SOL    HW228077   6.815   0.754   2.319
 9060SOL     OW28078   6.820   5.066   0.702
 9060SOL    HW128079   6.826   5.048   0.800
 9060SOL    HW228080   6.898   5.023   0.656
 9061SOL     OW28081   4.741   4.248   2.208
 9061SOL    HW128082   4.671   4.245   2.137
 9061SOL    HW228083   4.783   4.158   2.217
 9062SOL     OW28084   0.216   5.635   3.087
 9062SOL    HW128085   0.183   5.541   3.093
 9062SOL    HW228086   0.144   5.698   3.116
 9063SOL     OW28087   4.924   0.243   1.056
 9063SOL    HW128088   4.838   0.201   1.027
 9063SOL    HW228089   4.929   0.336   1.021
 9064SOL     OW28090   1.121   5.656   2.956
 9064SOL    HW128091   1.044   5.719   2.958
 9064SOL    HW228092   1.096   5.571   3.003
 9065SOL     OW28093   3.369   4.163   6.603
 9065SOL    HW128094   3.436   4.202   6.665
 9065SOL    HW228095   3.330   4.235   6.545
 9066SOL     OW28096   5.190   4.715   3.754
 9066SOL    HW128097   5.185   4.666   3.667
 9066SOL    HW228098   5.099   4.749   3.778
 9067SOL     OW28099   2.090   6.656   4.102
 9067SOL    HW128100   2.083   6.755   4.117
 9067SOL    HW228101   2.096   6.638   4.003
 9068SOL     OW28102   4.763   0.157   5.894
 9068SOL    HW128103   4.721   0.196   5.976
 9068SOL    HW228104   4.710   0.078   5.864
 9069SOL     OW28105   5.182   2.363   1.862
 9069SOL    HW128106   5.118   2.401   1.928
 9069SOL    HW228107   5.142   2.365   1.770
 9070SOL     OW28108   1.558   0.753   6.179
 9070SOL    HW128109   1.577   0.851   6.188
 9070SOL    HW228110   1.621   0.713   6.113
 9071SOL     OW28111   4.789   2.742   6.587
 9071SOL    HW128112   4.764   2.690   6.505
 9071SOL    HW228113   4.884   2.723   6.611
 9072SOL     OW28114   6.268   0.682   2.268
 9072SOL    HW128115   6.334   0.613   2.239
 9072SOL    HW228116   6.181   0.668   2.220
 9073SOL     OW28117   4.615   2.811   5.939
 9073SOL    HW128118   4.679   2.778   6.008
 9073SOL    HW228119   4.658   2.808   5.849
 9074SOL     OW28120   2.445   0.983   3.951
 9074SOL    HW128121   2.397   1.010   3.867
 9074SOL    HW228122   2.387   0.920   4.003
 9075SOL     OW28123   5.294   5.670   0.706
 9075SOL    HW128124   5.358   5.594   0.696
 9075SOL    HW228125   5.232   5.672   0.628
 9076SOL     OW28126   1.358   5.823   2.488
 9076SOL    HW128127   1.345   5.749   2.553
 9076SOL    HW228128   1.444   5.810   2.439
 9077SOL     OW28129   6.020   1.424   6.287
 9077SOL    HW128130   6.100   1.379   6.247
 9077SOL    HW228131   6.015   1.518   6.253
 9078SOL     OW28132   4.949   6.681   0.214
 9078SOL    HW128133   4.887   6.665   0.290
 9078SOL    HW228134   4.913   6.754   0.156
 9079SOL     OW28135   1.294   1.282   6.665
 9079SOL    HW128136   1.333   1.221   6.734
 9079SOL    HW228137   1.221   1.337   6.708
 9080SOL     OW28138   6.513   4.383   1.449
 9080SOL    HW128139   6.531   4.415   1.542
 9080SOL    HW228140   6.436   4.320   1.448
 9081SOL     OW28141   5.203   1.652   0.297
 9081SOL    HW128142   5.158   1.575   0.251
 9081SOL    HW228143   5.152   1.736   0.279
 9082SOL     OW28144   3.475   4.549   6.609
 9082SOL    HW128145   3.428   4.508   6.531
 9082SOL    HW228146   3.551   4.490   6.638
 9083SOL     OW28147   3.905   0.840   0.709
 9083SOL    HW128148   3.921   0.918   0.770
 9083SOL    HW228149   3.825   0.859   0.651
 9084SOL     OW28150   6.570   4.409   4.651
 9084SOL    HW128151   6.601   4.406   4.746
 9084SOL    HW228152   6.592   4.322   4.606
 9085SOL     OW28153   2.768   4.337   1.078
 9085SOL    HW128154   2.700   4.390   1.129
 9085SOL    HW228155   2.722   4.266   1.025
 9086SOL     OW28156   6.919   2.415   0.669
 9086SOL    HW128157   6.845   2.375   0.723
 9086SOL    HW228158   6.883   2.489   0.612
 9087SOL     OW28159   5.046   1.230   1.636
 9087SOL    HW128160   5.080   1.195   1.723
 9087SOL    HW228161   5.084   1.176   1.560
 9088SOL     OW28162   5.548   6.111   6.725
 9088SOL    HW128163   5.633   6.111   6.776
 9088SOL    HW228164   5.565   6.084   6.630
 9089SOL     OW28165   5.444   4.938   2.828
 9089SOL    HW128166   5.531   4.904   2.792
 9089SOL    HW228167   5.454   4.957   2.926
 9090SOL     OW28168   6.199   5.607   5.379
 9090SOL    HW128169   6.108   5.568   5.396
 9090SOL    HW228170   6.190   5.705   5.365
 9091SOL     OW28171   2.728   2.090   1.693
 9091SOL    HW128172   2.694   2.156   1.761
 9091SOL    HW228173   2.699   2.119   1.602
 9092SOL     OW28174   2.719   1.765   5.324
 9092SOL    HW128175   2.650   1.742   5.393
 9092SOL    HW228176   2.810   1.753   5.362
 9093SOL     OW28177   1.973   3.586   0.169
 9093SOL    HW128178   1.960   3.499   0.216
 9093SOL    HW228179   2.056   3.631   0.203
 9094SOL     OW28180   6.528   2.810   0.586
 9094SOL    HW128181   6.621   2.822   0.623
 9094SOL    HW228182   6.472   2.761   0.653
 9095SOL     OW28183   1.773   2.613   7.006
 9095SOL    HW128184   1.769   2.646   0.070
 9095SOL    HW228185   1.705   2.662   6.950
 9096SOL     OW28186   6.554   4.466   3.019
 9096SOL    HW128187   6.618   4.525   3.068
 9096SOL    HW228188   6.583   4.455   2.925
 9097SOL     OW28189   6.579   5.909   5.696
 9097SOL    HW128190   6.582   5.919   5.795
 9097SOL    HW228191   6.639   5.834   5.668
 9098SOL     OW28192   3.757   3.469   5.002
 9098SOL    HW128193   3.780   3.559   5.039
 9098SOL    HW228194   3.818   3.400   5.041
 9099SOL     OW28195   1.765   2.422   6.698
 9099SOL    HW128196   1.677   2.389   6.733
 9099SOL    HW228197   1.774   2.397   6.602
 9100SOL     OW28198   1.397   3.035   0.444
 9100SOL    HW128199   1.363   3.077   0.528
 9100SOL    HW228200   1.322   3.027   0.378
 9101SOL     OW28201   2.155   2.309   6.959
 9101SOL    HW128202   2.162   2.403   6.993
 9101SOL    HW228203   2.247   2.275   6.938
 9102SOL     OW28204   4.725   6.620   1.982
 9102SOL    HW128205   4.780   6.549   2.026
 9102SOL    HW228206   4.727   6.605   1.883
 9103SOL     OW28207   0.574   4.268   6.311
 9103SOL    HW128208   0.668   4.287   6.282
 9103SOL    HW228209   0.541   4.185   6.266
 9104SOL     OW28210   5.067   0.255   3.056
 9104SOL    HW128211   5.105   0.239   2.965
 9104SOL    HW228212   5.006   0.335   3.053
 9105SOL     OW28213   2.819   1.923   6.435
 9105SOL    HW128214   2.889   1.969   6.490
 9105SOL    HW228215   2.743   1.987   6.419
 9106SOL     OW28216   6.322   5.510   2.126
 9106SOL    HW128217   6.280   5.543   2.211
 9106SOL    HW228218   6.319   5.582   2.057
 9107SOL     OW28219   5.046   6.467   6.662
 9107SOL    HW128220   5.067   6.555   6.707
 9107SOL    HW228221   5.012   6.402   6.730
 9108SOL     OW28222   3.440   6.007   0.130
 9108SOL    HW128223   3.376   5.991   0.056
 9108SOL    HW228224   3.521   5.949   0.117
 9109SOL     OW28225   3.064   1.356   4.105
 9109SOL    HW128226   3.100   1.338   4.013
 9109SOL    HW228227   3.022   1.446   4.107
 9110SOL     OW28228   1.407   3.614   3.259
 9110SOL    HW128229   1.314   3.647   3.246
 9110SOL    HW228230   1.471   3.689   3.244
 9111SOL     OW28231   4.231   3.784   1.467
 9111SOL    HW128232   4.269   3.794   1.375
 9111SOL    HW228233   4.180   3.866   1.491
 9112SOL     OW28234   0.928   5.578   2.132
 9112SOL    HW128235   0.905   5.580   2.230
 9112SOL    HW228236   0.992   5.652   2.112
 9113SOL     OW28237   2.904   5.450   6.810
 9113SOL    HW128238   2.960   5.398   6.746
 9113SOL    HW228239   2.839   5.506   6.759
 9114SOL     OW28240   2.632   3.565   1.505
 9114SOL    HW128241   2.553   3.605   1.459
 9114SOL    HW228242   2.603   3.484   1.556
 9115SOL     OW28243   1.941   4.234   4.655
 9115SOL    HW128244   1.925   4.185   4.741
 9115SOL    HW228245   2.010   4.186   4.601
 9116SOL     OW28246   2.223   1.960   6.391
 9116SOL    HW128247   2.226   2.055   6.361
 9116SOL    HW228248   2.310   1.937   6.436
 9117SOL     OW28249   0.053   3.390   0.015
 9117SOL    HW128250   6.992   3.393   0.058
 9117SOL    HW228251   0.120   3.354   0.079
 9118SOL     OW28252   0.758   6.086   1.090
 9118SOL    HW128253   0.805   6.050   1.009
 9118SOL    HW228254   0.686   6.022   1.118
 9119SOL     OW28255   6.300   0.269   1.052
 9119SOL    HW128256   6.309   0.207   0.974
 9119SOL    HW228257   6.361   0.240   1.125
 9120SOL     OW28258   5.985   0.886   6.712
 9120SOL    HW128259   6.009   0.841   6.626
 9120SOL    HW228260   5.943   0.820   6.775
 9121SOL     OW28261   1.688   1.729   6.480
 9121SOL    HW128262   1.628   1.672   6.536
 9121SOL    HW228263   1.705   1.684   6.393
 9122SOL     OW28264   1.140   2.255   1.129
 9122SOL    HW128265   1.209   2.283   1.063
 9122SOL    HW228266   1.050   2.288   1.099
 9123SOL     OW28267   2.476   6.631   6.990
 9123SOL    HW128268   2.408   6.612   0.031
 9123SOL    HW228269   2.563   6.654   0.003
 9124SOL     OW28270   6.741   4.691   5.739
 9124SOL    HW128271   6.714   4.694   5.836
 9124SOL    HW228272   6.740   4.597   5.707
 9125SOL     OW28273   4.671   5.667   0.978
 9125SOL    HW128274   4.713   5.750   1.014
 9125SOL    HW228275   4.663   5.599   1.052
 9126SOL     OW28276   5.837   6.733   2.864
 9126SOL    HW128277   5.927   6.754   2.826
 9126SOL    HW228278   5.824   6.634   2.865
 9127SOL     OW28279   5.556   5.830   5.805
 9127SOL    HW128280   5.463   5.812   5.773
 9127SOL    HW228281   5.553   5.869   5.897
 9128SOL     OW28282   4.845   2.315   5.580
 9128SOL    HW128283   4.757   2.268   5.570
 9128SOL    HW228284   4.830   2.414   5.588
 9129SOL     OW28285   2.209   1.947   6.982
 9129SOL    HW128286   2.173   1.927   6.891
 9129SOL    HW228287   2.144   2.004   0.002
 9130SOL     OW28288   6.114   6.127   1.044
 9130SOL    HW128289   6.094   6.205   0.984
 9130SOL    HW228290   6.197   6.082   1.013
 9131SOL     OW28291   1.094   4.650   4.168
 9131SOL    HW128292   1.018   4.603   4.213
 9131SOL    HW228293   1.174   4.647   4.227
 9132SOL     OW28294   1.926   2.877   4.142
 9132SOL    HW128295   1.919   2.942   4.066
 9132SOL    HW228296   2.016   2.885   4.185
 9133SOL     OW28297   1.393   5.315   1.597
 9133SOL    HW128298   1.394   5.345   1.501
 9133SOL    HW228299   1.300   5.293   1.624
 9134SOL     OW28300   2.944   4.837   5.947
 9134SOL    HW128301   3.034   4.862   5.983
 9134SOL    HW228302   2.873   4.885   5.998
 9135SOL     OW28303   0.973   6.558   4.195
 9135SOL    HW128304   0.891   6.575   4.249
 9135SOL    HW228305   1.049   6.532   4.256
 9136SOL     OW28306   3.867   5.471   5.508
 9136SOL    HW128307   3.788   5.440   5.456
 9136SOL    HW228308   3.849   5.462   5.606
 9137SOL     OW28309   4.171   0.730   1.726
 9137SOL    HW128310   4.155   0.645   1.675
 9137SOL    HW228311   4.084   0.776   1.741
 9138SOL     OW28312   3.293   4.088   0.956
 9138SOL    HW128313   3.236   4.042   1.024
 9138SOL    HW228314   3.242   4.164   0.916
 9139SOL     OW28315   3.269   1.110   5.840
 9139SOL    HW128316   3.219   1.134   5.757
 9139SOL    HW228317   3.226   1.155   5.919
 9140SOL     OW28318   6.554   2.810   3.671
 9140SOL    HW128319   6.474   2.832   3.727
 9140SOL    HW228320   6.608   2.893   3.657
 9141SOL     OW28321   5.531   0.548   5.901
 9141SOL    HW128322   5.434   0.569   5.914
 9141SOL    HW228323   5.568   0.605   5.828
 9142SOL     OW28324   1.104   4.482   6.510
 9142SOL    HW128325   1.061   4.557   6.460
 9142SOL    HW228326   1.091   4.397   6.458
 9143SOL     OW28327   5.715   4.184   0.883
 9143SOL    HW128328   5.749   4.208   0.974
 9143SOL    HW228329   5.790   4.152   0.826
 9144SOL     OW28330   1.296   4.993   5.113
 9144SOL    HW128331   1.340   4.908   5.085
 9144SOL    HW228332   1.198   4.989   5.091
 9145SOL     OW28333   0.431   3.770   6.293
 9145SOL    HW128334   0.417   3.687   6.347
 9145SOL    HW228335   0.359   3.836   6.313
 9146SOL     OW28336   0.481   1.888   1.238
 9146SOL    HW128337   0.540   1.969   1.231
 9146SOL    HW228338   0.470   1.863   1.334
 9147SOL     OW28339   5.046   6.140   6.012
 9147SOL    HW128340   4.955   6.107   5.990
 9147SOL    HW228341   5.110   6.063   6.011
 9148SOL     OW28342   3.398   5.408   3.111
 9148SOL    HW128343   3.448   5.386   3.028
 9148SOL    HW228344   3.364   5.324   3.153
 9149SOL     OW28345   6.038   2.923   4.666
 9149SOL    HW128346   5.996   2.928   4.575
 9149SOL    HW228347   6.116   2.861   4.663
 9150SOL     OW28348   4.360   1.448   3.005
 9150SOL    HW128349   4.420   1.385   3.054
 9150SOL    HW228350   4.393   1.541   3.017
 9151SOL     OW28351   1.194   3.347   2.085
 9151SOL    HW128352   1.228   3.272   2.028
 9151SOL    HW228353   1.268   3.381   2.143
 9152SOL     OW28354   2.255   5.498   3.763
 9152SOL    HW128355   2.216   5.433   3.699
 9152SOL    HW228356   2.350   5.473   3.782
 9153SOL     OW28357   1.233   3.316   6.631
 9153SOL    HW128358   1.138   3.339   6.655
 9153SOL    HW228359   1.233   3.238   6.569
 9154SOL     OW28360   1.832   5.534   0.177
 9154SOL    HW128361   1.804   5.495   0.089
 9154SOL    HW228362   1.767   5.505   0.247
 9155SOL     OW28363   1.380   4.220   0.313
 9155SOL    HW128364   1.364   4.137   0.259
 9155SOL    HW228365   1.318   4.293   0.282
 9156SOL     OW28366   5.437   2.475   1.807
 9156SOL    HW128367   5.357   2.424   1.841
 9156SOL    HW228368   5.416   2.572   1.806
 9157SOL     OW28369   5.304   3.513   5.910
 9157SOL    HW128370   5.281   3.605   5.943
 9157SOL    HW228371   5.402   3.506   5.894
 9158SOL     OW28372   0.282   3.991   3.488
 9158SOL    HW128373   0.216   4.066   3.479
 9158SOL    HW228374   0.293   3.945   3.401
 9159SOL     OW28375   6.738   4.764   2.470
 9159SOL    HW128376   6.767   4.847   2.518
 9159SOL    HW228377   6.737   4.780   2.372
 9160SOL     OW28378   0.050   6.992   0.552
 9160SOL    HW128379   7.002   6.937   0.583
 9160SOL    HW228380   0.019   0.056   0.534
 9161SOL     OW28381   5.587   4.010   2.814
 9161SOL    HW128382   5.503   4.064   2.827
 9161SOL    HW228383   5.666   4.066   2.837
 9162SOL     OW28384   5.250   2.188   2.502
 9162SOL    HW128385   5.226   2.101   2.544
 9162SOL    HW228386   5.203   2.197   2.414
 9163SOL     OW28387   3.087   0.967   4.711
 9163SOL    HW128388   3.164   0.939   4.769
 9163SOL    HW228389   3.001   0.938   4.752
 9164SOL     OW28390   2.600   0.156   0.592
 9164SOL    HW128391   2.607   0.216   0.672
 9164SOL    HW228392   2.692   0.136   0.558
 9165SOL     OW28393   4.714   6.016   0.189
 9165SOL    HW128394   4.734   5.985   0.282
 9165SOL    HW228395   4.756   6.106   0.174
 9166SOL     OW28396   2.565   5.511   1.483
 9166SOL    HW128397   2.506   5.591   1.470
 9166SOL    HW228398   2.648   5.522   1.428
 9167SOL     OW28399   0.337   4.102   4.961
 9167SOL    HW128400   0.260   4.103   4.898
 9167SOL    HW228401   0.418   4.139   4.916
 9168SOL     OW28402   3.172   0.733   0.074
 9168SOL    HW128403   3.242   0.761   0.009
 9168SOL    HW228404   3.095   0.797   0.070
 9169SOL     OW28405   0.365   0.025   2.808
 9169SOL    HW128406   0.386   0.076   2.891
 9169SOL    HW228407   0.371   0.086   2.729
 9170SOL     OW28408   6.382   6.258   7.010
 9170SOL    HW128409   6.315   6.332   7.011
 9170SOL    HW228410   6.430   6.254   0.068
 9171SOL     OW28411   2.803   5.771   5.452
 9171SOL    HW128412   2.711   5.734   5.461
 9171SOL    HW228413   2.870   5.706   5.489
 9172SOL     OW28414   2.697   2.412   4.052
 9172SOL    HW128415   2.620   2.452   4.103
 9172SOL    HW228416   2.769   2.386   4.116
 9173SOL     OW28417   0.559   5.165   4.999
 9173SOL    HW128418   0.516   5.169   4.909
 9173SOL    HW228419   0.603   5.252   5.019
 9174SOL     OW28420   0.220   5.844   0.144
 9174SOL    HW128421   0.221   5.939   0.112
 9174SOL    HW228422   0.261   5.840   0.235
 9175SOL     OW28423   1.650   6.568   5.758
 9175SOL    HW128424   1.551   6.579   5.768
 9175SOL    HW228425   1.685   6.639   5.696
 9176SOL     OW28426   1.283   1.788   5.610
 9176SOL    HW128427   1.360   1.727   5.627
 9176SOL    HW228428   1.276   1.809   5.513
 9177SOL     OW28429   1.280   4.743   3.582
 9177SOL    HW128430   1.196   4.793   3.559
 9177SOL    HW228431   1.279   4.719   3.679
 9178SOL     OW28432   2.052   4.402   0.462
 9178SOL    HW128433   2.036   4.461   0.383
 9178SOL    HW228434   1.981   4.418   0.531
 9179SOL     OW28435   2.308   4.923   4.979
 9179SOL    HW128436   2.278   4.906   5.073
 9179SOL    HW228437   2.407   4.910   4.972
 9180SOL     OW28438   5.744   2.043   3.059
 9180SOL    HW128439   5.745   2.118   2.993
 9180SOL    HW228440   5.742   2.080   3.151
 9181SOL     OW28441   3.920   1.573   2.000
 9181SOL    HW128442   3.914   1.528   1.911
 9181SOL    HW228443   4.000   1.634   2.002
 9182SOL     OW28444   2.112   0.038   2.173
 9182SOL    HW128445   2.188   0.035   2.108
 9182SOL    HW228446   2.126   0.113   2.237
 9183SOL     OW28447   5.046   5.540   5.991
 9183SOL    HW128448   5.131   5.505   5.952
 9183SOL    HW228449   4.980   5.464   6.000
 9184SOL     OW28450   4.804   7.009   6.897
 9184SOL    HW128451   4.727   0.036   6.868
 9184SOL    HW228452   4.870   0.036   6.947
 9185SOL     OW28453   4.592   1.314   4.687
 9185SOL    HW128454   4.678   1.312   4.736
 9185SOL    HW228455   4.518   1.342   4.748
 9186SOL     OW28456   5.146   0.142   6.645
 9186SOL    HW128457   5.179   0.112   6.555
 9186SOL    HW228458   5.152   0.241   6.651
 9187SOL     OW28459   2.932   6.622   2.517
 9187SOL    HW128460   2.886   6.550   2.466
 9187SOL    HW228461   2.981   6.682   2.454
 9188SOL     OW28462   2.221   6.166   1.101
 9188SOL    HW128463   2.275   6.225   1.041
 9188SOL    HW228464   2.126   6.198   1.103
 9189SOL     OW28465   5.517   4.927   1.784
 9189SOL    HW128466   5.556   4.961   1.869
 9189SOL    HW228467   5.536   4.991   1.709
 9190SOL     OW28468   0.940   5.425   0.760
 9190SOL    HW128469   1.023   5.463   0.800
 9190SOL    HW228470   0.936   5.450   0.663
 9191SOL     OW28471   0.020   0.484   6.293
 9191SOL    HW128472   6.969   0.539   6.316
 9191SOL    HW228473   0.103   0.538   6.311
 9192SOL     OW28474   1.139   3.941   4.796
 9192SOL    HW128475   1.197   3.884   4.737
 9192SOL    HW228476   1.085   3.882   4.856
 9193SOL     OW28477   2.610   3.310   0.441
 9193SOL    HW128478   2.701   3.325   0.481
 9193SOL    HW228479   2.589   3.385   0.379
 9194SOL     OW28480   3.009   0.398   4.372
 9194SOL    HW128481   3.069   0.477   4.357
 9194SOL    HW228482   2.980   0.361   4.284
 9195SOL     OW28483   1.763   0.711   3.756
 9195SOL    HW128484   1.690   0.651   3.790
 9195SOL    HW228485   1.813   0.750   3.834
 9196SOL     OW28486   5.151   1.702   5.886
 9196SOL    HW128487   5.098   1.780   5.852
 9196SOL    HW228488   5.103   1.617   5.864
 9197SOL     OW28489   2.375   3.714   0.634
 9197SOL    HW128490   2.350   3.754   0.546
 9197SOL    HW228491   2.432   3.778   0.685
 9198SOL     OW28492   0.752   4.796   4.013
 9198SOL    HW128493   0.735   4.723   4.079
 9198SOL    HW228494   0.715   4.769   3.924
 9199SOL     OW28495   6.055   4.432   5.213
 9199SOL    HW128496   5.957   4.419   5.197
 9199SOL    HW228497   6.105   4.355   5.172
 9200SOL     OW28498   3.248   0.629   0.323
 9200SOL    HW128499   3.168   0.586   0.366
 9200SOL    HW228500   3.222   0.666   0.234
 9201SOL     OW28501   1.807   4.276   0.840
 9201SOL    HW128502   1.868   4.267   0.918
 9201SOL    HW228503   1.762   4.366   0.843
 9202SOL     OW28504   2.710   0.931   3.861
 9202SOL    HW128505   2.623   0.981   3.858
 9202SOL    HW228506   2.708   0.857   3.795
 9203SOL     OW28507   6.783   6.689   0.389
 9203SOL    HW128508   6.745   6.667   0.299
 9203SOL    HW228509   6.827   6.779   0.385
 9204SOL     OW28510   5.636   0.176   5.308
 9204SOL    HW128511   5.601   0.255   5.358
 9204SOL    HW228512   5.585   0.094   5.334
 9205SOL     OW28513   6.858   5.156   1.523
 9205SOL    HW128514   6.921   5.138   1.599
 9205SOL    HW228515   6.775   5.199   1.559
 9206SOL     OW28516   3.421   6.517   0.451
 9206SOL    HW128517   3.338   6.465   0.430
 9206SOL    HW228518   3.494   6.490   0.388
 9207SOL     OW28519   5.374   5.654   6.179
 9207SOL    HW128520   5.408   5.631   6.270
 9207SOL    HW228521   5.410   5.743   6.151
 9208SOL     OW28522   1.423   3.711   2.423
 9208SOL    HW128523   1.337   3.661   2.429
 9208SOL    HW228524   1.410   3.805   2.454
 9209SOL     OW28525   2.531   0.153   6.890
 9209SOL    HW128526   2.525   0.078   6.956
 9209SOL    HW228527   2.454   0.148   6.826
 9210SOL     OW28528   6.684   0.515   3.552
 9210SOL    HW128529   6.763   0.576   3.550
 9210SOL    HW228530   6.631   0.532   3.635
 9211SOL     OW28531   0.402   1.599   2.530
 9211SOL    HW128532   0.485   1.559   2.491
 9211SOL    HW228533   0.370   1.674   2.472
 9212SOL     OW28534   3.506   5.168   4.402
 9212SOL    HW128535   3.588   5.139   4.450
 9212SOL    HW228536   3.517   5.261   4.367
 9213SOL     OW28537   6.008   4.773   6.370
 9213SOL    HW128538   5.996   4.735   6.278
 9213SOL    HW228539   5.981   4.704   6.437
 9214SOL     OW28540   6.994   5.057   0.189
 9214SOL    HW128541   0.063   5.074   0.193
 9214SOL    HW228542   6.964   5.062   0.093
 9215SOL     OW28543   1.270   1.602   0.937
 9215SOL    HW128544   1.212   1.521   0.950
 9215SOL    HW228545   1.239   1.652   0.857
 9216SOL     OW28546   2.092   6.833   3.656
 9216SOL    HW128547   2.077   6.923   3.696
 9216SOL    HW228548   2.018   6.811   3.592
 9217SOL     OW28549   0.367   2.784   0.290
 9217SOL    HW128550   0.344   2.718   0.362
 9217SOL    HW228551   0.379   2.875   0.331
 9218SOL     OW28552   2.038   1.229   0.555
 9218SOL    HW128553   1.948   1.194   0.529
 9218SOL    HW228554   2.031   1.326   0.577
 9219SOL     OW28555   0.082   1.320   0.356
 9219SOL    HW128556   0.097   1.416   0.334
 9219SOL    HW228557   7.018   1.307   0.389
 9220SOL     OW28558   3.501   6.085   1.000
 9220SOL    HW128559   3.513   6.014   1.070
 9220SOL    HW228560   3.583   6.144   0.998
 9221SOL     OW28561   2.840   4.791   4.829
 9221SOL    HW128562   2.848   4.758   4.923
 9221SOL    HW228563   2.865   4.717   4.766
 9222SOL     OW28564   2.608   2.082   6.372
 9222SOL    HW128565   2.655   2.158   6.326
 9222SOL    HW228566   2.555   2.118   6.449
 9223SOL     OW28567   2.714   3.086   5.361
 9223SOL    HW128568   2.637   3.066   5.301
 9223SOL    HW228569   2.683   3.141   5.438
 9224SOL     OW28570   2.084   4.869   5.206
 9224SOL    HW128571   2.037   4.957   5.202
 9224SOL    HW228572   2.024   4.801   5.248
 9225SOL     OW28573   2.173   6.492   0.086
 9225SOL    HW128574   2.246   6.503   0.153
 9225SOL    HW228575   2.206   6.437   0.010
 9226SOL     OW28576   4.080   6.340   0.704
 9226SOL    HW128577   4.119   6.294   0.624
 9226SOL    HW228578   4.120   6.431   0.713
 9227SOL     OW28579   1.619   6.732   1.622
 9227SOL    HW128580   1.580   6.784   1.698
 9227SOL    HW228581   1.717   6.750   1.615
 9228SOL     OW28582   0.806   6.896   0.031
 9228SOL    HW128583   0.743   6.968   0.003
 9228SOL    HW228584   0.847   6.854   6.980
 9229SOL     OW28585   0.595   5.925   5.894
 9229SOL    HW128586   0.590   5.848   5.958
 9229SOL    HW228587   0.512   5.927   5.839
 9230SOL     OW28588   4.957   1.024   3.428
 9230SOL    HW128589   5.029   0.959   3.452
 9230SOL    HW228590   4.894   1.033   3.506
 9231SOL     OW28591   2.061   3.444   3.407
 9231SOL    HW128592   2.033   3.349   3.425
 9231SOL    HW228593   1.979   3.500   3.393
 9232SOL     OW28594   4.439   4.907   0.918
 9232SOL    HW128595   4.446   4.899   0.818
 9232SOL    HW228596   4.375   4.839   0.952
 9233SOL     OW28597   5.001   4.517   0.807
 9233SOL    HW128598   5.000   4.565   0.720
 9233SOL    HW228599   5.039   4.576   0.878
 9234SOL     OW28600   1.568   5.964   3.757
 9234SOL    HW128601   1.472   5.945   3.779
 9234SOL    HW228602   1.620   5.878   3.758
 9235SOL     OW28603   0.677   2.203   3.613
 9235SOL    HW128604   0.710   2.290   3.575
 9235SOL    HW228605   0.696   2.201   3.711
 9236SOL     OW28606   4.103   2.563   5.770
 9236SOL    HW128607   4.023   2.504   5.761
 9236SOL    HW228608   4.119   2.581   5.867
 9237SOL     OW28609   1.680   3.766   3.568
 9237SOL    HW128610   1.597   3.822   3.567
 9237SOL    HW228611   1.681   3.710   3.651
 9238SOL     OW28612   4.349   3.427   6.539
 9238SOL    HW128613   4.406   3.425   6.621
 9238SOL    HW228614   4.401   3.468   6.464
 9239SOL     OW28615   1.298   3.719   6.229
 9239SOL    HW128616   1.328   3.814   6.229
 9239SOL    HW228617   1.280   3.689   6.322
 9240SOL     OW28618   4.974   1.352   1.971
 9240SOL    HW128619   4.897   1.382   1.915
 9240SOL    HW228620   5.001   1.259   1.944
 9241SOL     OW28621   0.557   5.436   6.525
 9241SOL    HW128622   0.479   5.373   6.521
 9241SOL    HW228623   0.556   5.484   6.612
 9242SOL     OW28624   6.135   6.078   1.401
 9242SOL    HW128625   6.102   6.170   1.376
 9242SOL    HW228626   6.068   6.034   1.460
 9243SOL     OW28627   5.558   6.287   4.506
 9243SOL    HW128628   5.517   6.209   4.458
 9243SOL    HW228629   5.557   6.367   4.445
 9244SOL     OW28630   3.457   5.286   0.296
 9244SOL    HW128631   3.463   5.221   0.373
 9244SOL    HW228632   3.522   5.360   0.309
 9245SOL     OW28633   0.610   6.654   1.321
 9245SOL    HW128634   0.552   6.719   1.370
 9245SOL    HW228635   0.681   6.704   1.271
 9246SOL     OW28636   6.782   4.836   4.199
 9246SOL    HW128637   6.747   4.815   4.291
 9246SOL    HW228638   6.734   4.780   4.132
 9247SOL     OW28639   1.580   6.618   3.393
 9247SOL    HW128640   1.523   6.696   3.418
 9247SOL    HW228641   1.671   6.628   3.433
 9248SOL     OW28642   3.802   1.948   6.137
 9248SOL    HW128643   3.831   2.029   6.187
 9248SOL    HW228644   3.727   1.903   6.186
 9249SOL     OW28645   4.072   6.366   3.327
 9249SOL    HW128646   4.000   6.400   3.267
 9249SOL    HW228647   4.160   6.370   3.279
 9250SOL     OW28648   5.453   3.841   3.350
 9250SOL    HW128649   5.362   3.800   3.344
 9250SOL    HW228650   5.444   3.940   3.359
 9251SOL     OW28651   4.223   2.306   2.929
 9251SOL    HW128652   4.300   2.243   2.937
 9251SOL    HW228653   4.138   2.257   2.948
 9252SOL     OW28654   1.499   6.655   4.105
 9252SOL    HW128655   1.467   6.733   4.159
 9252SOL    HW228656   1.473   6.668   4.010
 9253SOL     OW28657   1.616   6.839   5.668
 9253SOL    HW128658   1.540   6.774   5.664
 9253SOL    HW228659   1.638   6.858   5.764
 9254SOL     OW28660   5.590   2.792   1.333
 9254SOL    HW128661   5.594   2.705   1.380
 9254SOL    HW228662   5.545   2.860   1.391
 9255SOL     OW28663   0.085   5.189   0.639
 9255SOL    HW128664   0.092   5.090   0.647
 9255SOL    HW228665   0.002   5.213   0.588
 9256SOL     OW28666   3.939   5.025   2.006
 9256SOL    HW128667   3.946   5.040   2.105
 9256SOL    HW228668   3.998   4.949   1.980
 9257SOL     OW28669   0.662   3.694   0.671
 9257SOL    HW128670   0.666   3.696   0.770
 9257SOL    HW228671   0.569   3.675   0.641
 9258SOL     OW28672   3.291   3.363   3.879
 9258SOL    HW128673   3.280   3.299   3.954
 9258SOL    HW228674   3.215   3.353   3.815
 9259SOL     OW28675   1.226   1.963   0.556
 9259SOL    HW128676   1.311   2.004   0.521
 9259SOL    HW228677   1.247   1.875   0.598
 9260SOL     OW28678   6.730   3.783   6.965
 9260SOL    HW128679   6.712   3.723   6.888
 9260SOL    HW228680   6.658   3.773   0.003
 9261SOL     OW28681   3.715   0.071   6.606
 9261SOL    HW128682   3.725   7.001   6.604
 9261SOL    HW228683   3.629   0.097   6.563
 9262SOL     OW28684   4.957   0.690   5.737
 9262SOL    HW128685   4.954   0.781   5.696
 9262SOL    HW228686   4.971   0.698   5.836
 9263SOL     OW28687   5.918   3.988   1.993
 9263SOL    HW128688   5.845   3.991   2.061
 9263SOL    HW228689   5.891   3.928   1.917
 9264SOL     OW28690   6.055   2.355   0.128
 9264SOL    HW128691   5.985   2.301   0.176
 9264SOL    HW228692   6.131   2.374   0.190
 9265SOL     OW28693   1.285   1.833   5.325
 9265SOL    HW128694   1.321   1.749   5.284
 9265SOL    HW228695   1.326   1.912   5.280
 9266SOL     OW28696   2.772   6.303   2.010
 9266SOL    HW128697   2.840   6.376   2.007
 9266SOL    HW228698   2.809   6.225   2.060
 9267SOL     OW28699   2.701   5.240   5.773
 9267SOL    HW128700   2.783   5.253   5.829
 9267SOL    HW228701   2.703   5.149   5.732
 9268SOL     OW28702   0.720   1.320   2.636
 9268SOL    HW128703   0.645   1.345   2.697
 9268SOL    HW228704   0.807   1.345   2.678
 9269SOL     OW28705   4.497   1.983   5.822
 9269SOL    HW128706   4.452   1.912   5.768
 9269SOL    HW228707   4.531   1.943   5.907
 9270SOL     OW28708   1.324   0.373   5.893
 9270SOL    HW128709   1.263   0.446   5.924
 9270SOL    HW228710   1.319   0.295   5.956
 9271SOL     OW28711   0.741   5.183   6.426
 9271SOL    HW128712   0.671   5.183   6.355
 9271SOL    HW228713   0.707   5.231   6.507
 9272SOL     OW28714   2.440   4.990   6.710
 9272SOL    HW128715   2.349   5.031   6.722
 9272SOL    HW228716   2.476   4.962   6.799
 9273SOL     OW28717   4.226   6.079   5.692
 9273SOL    HW128718   4.155   6.148   5.708
 9273SOL    HW228719   4.306   6.123   5.650
 9274SOL     OW28720   5.988   2.306   1.850
 9274SOL    HW128721   5.890   2.319   1.858
 9274SOL    HW228722   6.007   2.245   1.772
 9275SOL     OW28723   0.441   0.769   6.320
 9275SOL    HW128724   0.394   0.681   6.324
 9275SOL    HW228725   0.413   0.826   6.397
 9276SOL     OW28726   5.108   6.970   3.990
 9276SOL    HW128727   5.056   0.025   3.980
 9276SOL    HW228728   5.089   6.929   4.079
 9277SOL     OW28729   3.029   2.558   0.430
 9277SOL    HW128730   3.000   2.624   0.361
 9277SOL    HW228731   3.055   2.472   0.386
 9278SOL     OW28732   1.523   2.738   1.297
 9278SOL    HW128733   1.536   2.779   1.387
 9278SOL    HW228734   1.608   2.744   1.245
 9279SOL     OW28735   2.566   6.565   0.801
 9279SOL    HW128736   2.558   6.540   0.898
 9279SOL    HW228737   2.569   6.665   0.792
 9280SOL     OW28738   2.016   0.558   2.915
 9280SOL    HW128739   2.003   0.602   3.004
 9280SOL    HW228740   2.097   0.597   2.870
 9281SOL     OW28741   2.089   2.791   0.579
 9281SOL    HW128742   2.036   2.813   0.497
 9281SOL    HW228743   2.047   2.835   0.658
 9282SOL     OW28744   4.412   1.785   6.354
 9282SOL    HW128745   4.392   1.712   6.419
 9282SOL    HW228746   4.484   1.844   6.392
 9283SOL     OW28747   5.528   2.276   2.856
 9283SOL    HW128748   5.486   2.360   2.822
 9283SOL    HW228749   5.628   2.285   2.850
 9284SOL     OW28750   3.435   3.787   1.996
 9284SOL    HW128751   3.369   3.778   2.070
 9284SOL    HW228752   3.520   3.827   2.031
 9285SOL     OW28753   6.493   2.324   6.801
 9285SOL    HW128754   6.414   2.312   6.741
 9285SOL    HW228755   6.477   2.276   6.887
 9286SOL     OW28756   5.580   5.423   4.687
 9286SOL    HW128757   5.646   5.366   4.735
 9286SOL    HW228758   5.629   5.490   4.631
 9287SOL     OW28759   2.803   0.062   1.988
 9287SOL    HW128760   2.846   0.080   2.076
 9287SOL    HW228761   2.742   0.138   1.965
 9288SOL     OW28762   4.852   2.181   5.962
 9288SOL    HW128763   4.939   2.212   5.925
 9288SOL    HW228764   4.800   2.134   5.890
 9289SOL     OW28765   5.799   3.626   2.545
 9289SOL    HW128766   5.754   3.620   2.634
 9289SOL    HW228767   5.741   3.583   2.475
 9290SOL     OW28768   4.524   2.015   4.385
 9290SOL    HW128769   4.462   1.996   4.461
 9290SOL    HW228770   4.492   2.096   4.335
 9291SOL     OW28771   1.048   1.761   4.747
 9291SOL    HW128772   1.008   1.686   4.696
 9291SOL    HW228773   1.033   1.847   4.698
 9292SOL     OW28774   6.871   3.254   0.218
 9292SOL    HW128775   6.955   3.202   0.204
 9292SOL    HW228776   6.808   3.237   0.142
 9293SOL     OW28777   6.514   3.996   6.247
 9293SOL    HW128778   6.423   3.956   6.257
 9293SOL    HW228779   6.584   3.926   6.261
 9294SOL     OW28780   5.546   6.020   6.390
 9294SOL    HW128781   5.471   5.993   6.330
 9294SOL    HW228782   5.619   6.061   6.336
 9295SOL     OW28783   4.523   1.865   3.820
 9295SOL    HW128784   4.508   1.954   3.863
 9295SOL    HW228785   4.594   1.815   3.870
 9296SOL     OW28786   6.908   6.684   5.483
 9296SOL    HW128787   6.895   6.639   5.571
 9296SOL    HW228788   6.838   6.653   5.419
 9297SOL     OW28789   0.392   0.539   1.231
 9297SOL    HW128790   0.487   0.561   1.252
 9297SOL    HW228791   0.389   0.469   1.159
 9298SOL     OW28792   0.508   6.346   4.814
 9298SOL    HW128793   0.502   6.370   4.717
 9298SOL    HW228794   0.417   6.352   4.855
 9299SOL     OW28795   1.751   2.717   3.818
 9299SOL    HW128796   1.824   2.781   3.798
 9299SOL    HW228797   1.664   2.753   3.784
 9300SOL     OW28798   5.797   4.097   3.792
 9300SOL    HW128799   5.789   4.104   3.891
 9300SOL    HW228800   5.711   4.065   3.753
 9301SOL     OW28801   6.132   4.157   2.030
 9301SOL    HW128802   6.151   4.126   2.123
 9301SOL    HW228803   6.049   4.113   1.997
 9302SOL     OW28804   2.272   2.231   2.793
 9302SOL    HW128805   2.348   2.204   2.852
 9302SOL    HW228806   2.208   2.288   2.844
 9303SOL     OW28807   4.318   3.997   0.538
 9303SOL    HW128808   4.387   3.944   0.489
 9303SOL    HW228809   4.227   3.971   0.507
 9304SOL     OW28810   4.156   3.054   0.152
 9304SOL    HW128811   4.118   3.048   0.059
 9304SOL    HW228812   4.250   3.087   0.147
 9305SOL     OW28813   5.002   3.448   2.288
 9305SOL    HW128814   5.082   3.449   2.227
 9305SOL    HW228815   4.954   3.361   2.278
 9306SOL     OW28816   6.324   4.651   4.014
 9306SOL    HW128817   6.311   4.608   3.924
 9306SOL    HW228818   6.273   4.736   4.018
 9307SOL     OW28819   2.109   0.738   6.371
 9307SOL    HW128820   2.155   0.718   6.284
 9307SOL    HW228821   2.121   0.661   6.433
 9308SOL     OW28822   6.643   1.810   0.668
 9308SOL    HW128823   6.600   1.839   0.753
 9308SOL    HW228824   6.733   1.770   0.688
 9309SOL     OW28825   4.931   3.110   6.158
 9309SOL    HW128826   4.855   3.140   6.216
 9309SOL    HW228827   4.906   3.122   6.062
 9310SOL     OW28828   4.268   6.054   0.972
 9310SOL    HW128829   4.234   6.051   0.878
 9310SOL    HW228830   4.313   6.142   0.989
 9311SOL     OW28831   6.641   3.296   1.778
 9311SOL    HW128832   6.679   3.318   1.688
 9311SOL    HW228833   6.589   3.373   1.813
 9312SOL     OW28834   1.710   4.529   4.862
 9312SOL    HW128835   1.694   4.484   4.774
 9312SOL    HW228836   1.622   4.542   4.909
 9313SOL     OW28837   6.317   6.579   2.349
 9313SOL    HW128838   6.345   6.601   2.255
 9313SOL    HW228839   6.242   6.639   2.377
 9314SOL     OW28840   5.460   4.638   6.700
 9314SOL    HW128841   5.394   4.689   6.756
 9314SOL    HW228842   5.423   4.547   6.680
 9315SOL     OW28843   0.549   6.792   6.538
 9315SOL    HW128844   0.510   6.702   6.519
 9315SOL    HW228845   0.537   6.813   6.634
 9316SOL     OW28846   3.457   5.903   4.414
 9316SOL    HW128847   3.396   5.938   4.343
 9316SOL    HW228848   3.545   5.879   4.372
 9317SOL     OW28849   5.170   4.505   5.541
 9317SOL    HW128850   5.086   4.532   5.494
 9317SOL    HW228851   5.193   4.573   5.610
 9318SOL     OW28852   6.429   6.551   6.193
 9318SOL    HW128853   6.333   6.559   6.218
 9318SOL    HW228854   6.485   6.607   6.255
 9319SOL     OW28855   6.484   2.735   4.785
 9319SOL    HW128856   6.571   2.700   4.817
 9319SOL    HW228857   6.440   2.788   4.858
 9320SOL     OW28858   3.883   3.006   6.364
 9320SOL    HW128859   3.902   2.910   6.343
 9320SOL    HW228860   3.867   3.056   6.279
 9321SOL     OW28861   5.984   6.066   3.788
 9321SOL    HW128862   5.983   5.991   3.721
 9321SOL    HW228863   6.051   6.134   3.760
 9322SOL     OW28864   0.825   6.426   0.171
 9322SOL    HW128865   0.840   6.525   0.167
 9322SOL    HW228866   0.863   6.390   0.256
 9323SOL     OW28867   0.554   1.225   6.350
 9323SOL    HW128868   0.623   1.239   6.420
 9323SOL    HW228869   0.576   1.143   6.297
 9324SOL     OW28870   1.768   5.435   6.954
 9324SOL    HW128871   1.780   5.504   6.883
 9324SOL    HW228872   1.671   5.413   6.963
 9325SOL     OW28873   0.381   3.030   0.509
 9325SOL    HW128874   0.282   3.045   0.510
 9325SOL    HW228875   0.409   2.984   0.593
 9326SOL     OW28876   2.038   5.230   1.328
 9326SOL    HW128877   2.062   5.326   1.312
 9326SOL    HW228878   2.058   5.176   1.247
 9327SOL     OW28879   3.709   0.806   3.580
 9327SOL    HW128880   3.736   0.782   3.487
 9327SOL    HW228881   3.686   0.904   3.584
 9328SOL     OW28882   3.398   0.594   2.119
 9328SOL    HW128883   3.464   0.603   2.193
 9328SOL    HW228884   3.441   0.621   2.033
 9329SOL     OW28885   1.030   4.112   1.890
 9329SOL    HW128886   1.123   4.078   1.906
 9329SOL    HW228887   1.017   4.125   1.791
 9330SOL     OW28888   5.541   6.605   6.681
 9330SOL    HW128889   5.599   6.676   6.720
 9330SOL    HW228890   5.598   6.531   6.646
 9331SOL     OW28891   0.606   1.591   0.238
 9331SOL    HW128892   0.668   1.651   0.289
 9331SOL    HW228893   0.513   1.628   0.244
 9332SOL     OW28894   3.839   3.672   5.179
 9332SOL    HW128895   3.910   3.638   5.240
 9332SOL    HW228896   3.770   3.720   5.233
 9333SOL     OW28897   5.200   5.475   1.128
 9333SOL    HW128898   5.158   5.534   1.197
 9333SOL    HW228899   5.154   5.487   1.040
 9334SOL     OW28900   2.952   6.992   4.849
 9334SOL    HW128901   2.906   6.955   4.768
 9334SOL    HW228902   3.009   0.040   4.823
 9335SOL     OW28903   0.587   0.985   1.756
 9335SOL    HW128904   0.582   1.082   1.780
 9335SOL    HW228905   0.497   0.952   1.728
 9336SOL     OW28906   3.442   7.008   5.101
 9336SOL    HW128907   3.366   6.967   5.051
 9336SOL    HW228908   3.510   0.013   5.035
 9337SOL     OW28909   4.621   6.666   2.685
 9337SOL    HW128910   4.542   6.726   2.699
 9337SOL    HW228911   4.599   6.574   2.717
 9338SOL     OW28912   3.525   6.899   1.711
 9338SOL    HW128913   3.436   6.904   1.756
 9338SOL    HW228914   3.564   6.991   1.705
 9339SOL     OW28915   3.903   5.470   1.326
 9339SOL    HW128916   3.953   5.385   1.344
 9339SOL    HW228917   3.809   5.460   1.361
 9340SOL     OW28918   6.102   3.208   0.817
 9340SOL    HW128919   6.104   3.140   0.891
 9340SOL    HW228920   6.066   3.294   0.853
 9341SOL     OW28921   6.700   4.420   5.690
 9341SOL    HW128922   6.696   4.406   5.789
 9341SOL    HW228923   6.780   4.373   5.652
 9342SOL     OW28924   1.288   0.178   6.110
 9342SOL    HW128925   1.201   0.160   6.065
 9342SOL    HW228926   1.272   0.209   6.203
 9343SOL     OW28927   6.270   6.166   4.302
 9343SOL    HW128928   6.310   6.242   4.353
 9343SOL    HW228929   6.342   6.108   4.264
 9344SOL     OW28930   4.495   6.499   0.771
 9344SOL    HW128931   4.399   6.520   0.756
 9344SOL    HW228932   4.527   6.545   0.854
 9345SOL     OW28933   0.464   3.279   0.948
 9345SOL    HW128934   0.445   3.359   1.005
 9345SOL    HW228935   0.547   3.295   0.895
 9346SOL     OW28936   6.058   0.221   0.711
 9346SOL    HW128937   6.101   0.311   0.711
 9346SOL    HW228938   6.030   0.197   0.804
 9347SOL     OW28939   2.024   6.598   1.920
 9347SOL    HW128940   2.094   6.536   1.956
 9347SOL    HW228941   1.944   6.546   1.891
 9348SOL     OW28942   2.542   4.944   0.482
 9348SOL    HW128943   2.564   4.932   0.579
 9348SOL    HW228944   2.586   5.027   0.447
 9349SOL     OW28945   1.821   5.559   2.249
 9349SOL    HW128946   1.828   5.521   2.342
 9349SOL    HW228947   1.730   5.542   2.212
 9350SOL     OW28948   0.142   3.026   5.752
 9350SOL    HW128949   0.060   3.049   5.805
 9350SOL    HW228950   0.222   3.069   5.794
 9351SOL     OW28951   3.157   1.037   6.376
 9351SOL    HW128952   3.167   1.136   6.372
 9351SOL    HW228953   3.175   1.006   6.469
 9352SOL     OW28954   2.548   5.095   5.967
 9352SOL    HW128955   2.614   5.043   6.021
 9352SOL    HW228956   2.595   5.168   5.918
 9353SOL     OW28957   5.892   1.025   1.032
 9353SOL    HW128958   5.891   1.102   0.969
 9353SOL    HW228959   5.798   0.994   1.049
 9354SOL     OW28960   1.160   1.767   6.617
 9354SOL    HW128961   1.211   1.728   6.541
 9354SOL    HW228962   1.084   1.823   6.581
 9355SOL     OW28963   0.744   1.614   5.184
 9355SOL    HW128964   0.758   1.620   5.086
 9355SOL    HW228965   0.705   1.700   5.217
 9356SOL     OW28966   4.872   0.190   3.668
 9356SOL    HW128967   4.922   0.200   3.582
 9356SOL    HW228968   4.783   0.234   3.659
 9357SOL     OW28969   1.049   2.004   0.343
 9357SOL    HW128970   1.101   2.006   0.428
 9357SOL    HW228971   1.065   2.090   0.293
 9358SOL     OW28972   1.328   2.595   1.484
 9358SOL    HW128973   1.383   2.666   1.439
 9358SOL    HW228974   1.380   2.555   1.559
 9359SOL     OW28975   1.113   0.154   5.508
 9359SOL    HW128976   1.197   0.102   5.528
 9359SOL    HW228977   1.135   0.231   5.449
 9360SOL     OW28978   0.694   0.504   6.163
 9360SOL    HW128979   0.738   0.594   6.160
 9360SOL    HW228980   0.728   0.452   6.241
 9361SOL     OW28981   2.550   5.769   4.689
 9361SOL    HW128982   2.632   5.768   4.632
 9361SOL    HW228983   2.551   5.690   4.751
 9362SOL     OW28984   2.295   0.706   2.508
 9362SOL    HW128985   2.381   0.757   2.501
 9362SOL    HW228986   2.219   0.766   2.481
 9363SOL     OW28987   1.895   4.104   2.420
 9363SOL    HW128988   1.868   4.108   2.324
 9363SOL    HW228989   1.947   4.186   2.444
 9364SOL     OW28990   6.837   2.260   0.311
 9364SOL    HW128991   6.816   2.355   0.333
 9364SOL    HW228992   6.909   2.227   0.372
 9365SOL     OW28993   2.685   0.741   5.285
 9365SOL    HW128994   2.700   0.815   5.219
 9365SOL    HW228995   2.750   0.667   5.268
 9366SOL     OW28996   3.935   6.420   2.421
 9366SOL    HW128997   3.961   6.373   2.337
 9366SOL    HW228998   3.886   6.504   2.398
 9367SOL     OW28999   6.559   0.621   1.419
 9367SOL    HW129000   6.468   0.654   1.440
 9367SOL    HW229001   6.608   0.689   1.364
 9368SOL     OW29002   2.627   0.704   2.862
 9368SOL    HW129003   2.536   0.704   2.821
 9368SOL    HW229004   2.622   0.737   2.956
 9369SOL     OW29005   3.618   5.261   0.997
 9369SOL    HW129006   3.702   5.306   1.027
 9369SOL    HW229007   3.586   5.199   1.070
 9370SOL     OW29008   4.358   1.974   5.139
 9370SOL    HW129009   4.286   1.960   5.071
 9370SOL    HW229010   4.436   2.018   5.096
 9371SOL     OW29011   4.279   4.650   0.470
 9371SOL    HW129012   4.355   4.638   0.534
 9371SOL    HW229013   4.284   4.741   0.429
 9372SOL     OW29014   4.089   6.042   1.473
 9372SOL    HW129015   4.046   6.071   1.559
 9372SOL    HW229016   4.077   6.114   1.405
 9373SOL     OW29017   6.830   2.835   1.152
 9373SOL    HW129018   6.890   2.905   1.189
 9373SOL    HW229019   6.873   2.792   1.073
 9374SOL     OW29020   6.751   5.577   6.282
 9374SOL    HW129021   6.762   5.623   6.370
 9374SOL    HW229022   6.654   5.575   6.257
 9375SOL     OW29023   1.179   1.105   7.008
 9375SOL    HW129024   1.263   1.078   6.961
 9375SOL    HW229025   1.190   1.197   0.016
 9376SOL     OW29026   2.851   3.506   0.695
 9376SOL    HW129027   2.856   3.590   0.642
 9376SOL    HW229028   2.890   3.431   0.641
 9377SOL     OW29029   1.488   0.440   3.286
 9377SOL    HW129030   1.491   0.527   3.335
 9377SOL    HW229031   1.435   0.374   3.340
 9378SOL     OW29032   3.399   1.030   4.702
 9378SOL    HW129033   3.438   1.083   4.627
 9378SOL    HW229034   3.394   1.087   4.784
 9379SOL     OW29035   3.997   0.393   4.631
 9379SOL    HW129036   4.066   0.324   4.609
 9379SOL    HW229037   4.028   0.483   4.601
 9380SOL     OW29038   4.826   5.840   0.375
 9380SOL    HW129039   4.891   5.794   0.314
 9380SOL    HW229040   4.820   5.789   0.461
 9381SOL     OW29041   5.716   0.782   5.195
 9381SOL    HW129042   5.782   0.845   5.153
 9381SOL    HW229043   5.647   0.757   5.128
 9382SOL     OW29044   3.279   5.837   6.232
 9382SOL    HW129045   3.211   5.811   6.165
 9382SOL    HW229046   3.369   5.802   6.204
 9383SOL     OW29047   5.307   3.734   1.725
 9383SOL    HW129048   5.252   3.808   1.766
 9383SOL    HW229049   5.304   3.742   1.626
 9384SOL     OW29050   3.561   6.967   1.139
 9384SOL    HW129051   3.616   0.001   1.193
 9384SOL    HW229052   3.506   7.017   1.072
 9385SOL     OW29053   4.013   2.214   4.270
 9385SOL    HW129054   3.938   2.188   4.332
 9385SOL    HW229055   4.092   2.244   4.323
 9386SOL     OW29056   5.559   0.136   1.781
 9386SOL    HW129057   5.564   0.104   1.875
 9386SOL    HW229058   5.468   0.118   1.744
 9387SOL     OW29059   2.036   1.794   6.505
 9387SOL    HW129060   1.950   1.776   6.457
 9387SOL    HW229061   2.100   1.839   6.443
 9388SOL     OW29062   2.749   6.775   4.421
 9388SOL    HW129063   2.833   6.806   4.466
 9388SOL    HW229064   2.688   6.733   4.488
 9389SOL     OW29065   2.121   4.042   1.939
 9389SOL    HW129066   2.136   4.135   1.905
 9389SOL    HW229067   2.095   4.045   2.035
 9390SOL     OW29068   5.225   5.034   3.878
 9390SOL    HW129069   5.277   4.959   3.919
 9390SOL    HW229070   5.138   4.999   3.843
 9391SOL     OW29071   2.110   3.815   4.576
 9391SOL    HW129072   2.140   3.860   4.660
 9391SOL    HW229073   2.012   3.829   4.563
 9392SOL     OW29074   4.879   4.485   2.216
 9392SOL    HW129075   4.831   4.398   2.208
 9392SOL    HW229076   4.976   4.472   2.195
 9393SOL     OW29077   1.599   5.372   6.219
 9393SOL    HW129078   1.681   5.380   6.163
 9393SOL    HW229079   1.618   5.407   6.311
 9394SOL     OW29080   4.375   0.628   0.466
 9394SOL    HW129081   4.277   0.614   0.481
 9394SOL    HW229082   4.413   0.548   0.419
 9395SOL     OW29083   1.436   1.074   1.735
 9395SOL    HW129084   1.398   0.981   1.738
 9395SOL    HW229085   1.523   1.072   1.686
 9396SOL     OW29086   1.103   1.030   6.148
 9396SOL    HW129087   1.011   1.011   6.182
 9396SOL    HW229088   1.163   1.049   6.225
 9397SOL     OW29089   3.489   1.137   4.443
 9397SOL    HW129090   3.414   1.135   4.376
 9397SOL    HW229091   3.576   1.129   4.396
 9398SOL     OW29092   0.119   1.936   0.506
 9398SOL    HW129093   0.200   1.952   0.450
 9398SOL    HW229094   0.051   1.885   0.453
 9399SOL     OW29095   1.157   2.297   4.661
 9399SOL    HW129096   1.214   2.380   4.665
 9399SOL    HW229097   1.213   2.217   4.682
 9400SOL     OW29098   5.770   1.874   1.243
 9400SOL    HW129099   5.682   1.828   1.252
 9400SOL    HW229100   5.829   1.822   1.181
 9401SOL     OW29101   0.297   2.329   3.749
 9401SOL    HW129102   0.307   2.233   3.721
 9401SOL    HW229103   0.280   2.385   3.668
 9402SOL     OW29104   3.284   6.135   5.205
 9402SOL    HW129105   3.259   6.076   5.281
 9402SOL    HW229106   3.225   6.115   5.126
 9403SOL     OW29107   5.964   2.250   1.259
 9403SOL    HW129108   5.875   2.204   1.257
 9403SOL    HW229109   6.029   2.200   1.202
 9404SOL     OW29110   2.192   2.440   1.198
 9404SOL    HW129111   2.129   2.362   1.207
 9404SOL    HW229112   2.185   2.498   1.279
 9405SOL     OW29113   6.505   5.972   5.415
 9405SOL    HW129114   6.527   5.941   5.508
 9405SOL    HW229115   6.491   5.892   5.356
 9406SOL     OW29116   1.420   1.802   0.721
 9406SOL    HW129117   1.506   1.752   0.711
 9406SOL    HW229118   1.343   1.738   0.716
 9407SOL     OW29119   1.615   4.160   4.718
 9407SOL    HW129120   1.672   4.171   4.637
 9407SOL    HW229121   1.658   4.095   4.781
 9408SOL     OW29122   5.473   4.244   3.902
 9408SOL    HW129123   5.380   4.264   3.872
 9408SOL    HW229124   5.517   4.328   3.934
 9409SOL     OW29125   6.056   5.698   1.473
 9409SOL    HW129126   6.071   5.755   1.392
 9409SOL    HW229127   5.964   5.715   1.509
 9410SOL     OW29128   4.386   0.670   1.007
 9410SOL    HW129129   4.484   0.650   0.998
 9410SOL    HW229130   4.333   0.596   0.966
 9411SOL     OW29131   3.235   4.061   3.204
 9411SOL    HW129132   3.202   3.997   3.274
 9411SOL    HW229133   3.286   4.135   3.248
 9412SOL     OW29134   4.795   6.965   1.699
 9412SOL    HW129135   4.831   6.922   1.617
 9412SOL    HW229136   4.854   0.012   1.726
 9413SOL     OW29137   3.836   4.893   3.278
 9413SOL    HW129138   3.841   4.987   3.245
 9413SOL    HW229139   3.778   4.890   3.359
 9414SOL     OW29140   2.502   1.911   2.281
 9414SOL    HW129141   2.555   1.951   2.206
 9414SOL    HW229142   2.469   1.983   2.341
 9415SOL     OW29143   5.410   0.415   1.477
 9415SOL    HW129144   5.369   0.342   1.422
 9415SOL    HW229145   5.482   0.460   1.424
 9416SOL     OW29146   6.204   5.253   5.649
 9416SOL    HW129147   6.166   5.175   5.698
 9416SOL    HW229148   6.160   5.261   5.559
 9417SOL     OW29149   3.911   5.567   2.237
 9417SOL    HW129150   3.854   5.568   2.319
 9417SOL    HW229151   3.938   5.473   2.215
 9418SOL     OW29152   3.238   2.014   5.059
 9418SOL    HW129153   3.192   1.962   5.131
 9418SOL    HW229154   3.182   2.092   5.031
 9419SOL     OW29155   2.226   2.480   6.485
 9419SOL    HW129156   2.314   2.506   6.525
 9419SOL    HW229157   2.194   2.553   6.425
 9420SOL     OW29158   5.593   3.560   5.828
 9420SOL    HW129159   5.599   3.652   5.788
 9420SOL    HW229160   5.641   3.559   5.916
 9421SOL     OW29161   4.384   6.385   6.598
 9421SOL    HW129162   4.350   6.293   6.583
 9421SOL    HW229163   4.355   6.444   6.522
 9422SOL     OW29164   2.752   6.588   5.398
 9422SOL    HW129165   2.771   6.541   5.484
 9422SOL    HW229166   2.686   6.662   5.414
 9423SOL     OW29167   4.665   5.475   1.621
 9423SOL    HW129168   4.716   5.477   1.707
 9423SOL    HW229169   4.572   5.508   1.637
 9424SOL     OW29170   6.928   0.396   4.102
 9424SOL    HW129171   6.907   0.390   4.004
 9424SOL    HW229172   6.871   0.467   4.143
 9425SOL     OW29173   0.184   4.648   0.797
 9425SOL    HW129174   0.152   4.626   0.704
 9425SOL    HW229175   0.180   4.566   0.853
 9426SOL     OW29176   4.140   2.831   6.391
 9426SOL    HW129177   4.224   2.860   6.437
 9426SOL    HW229178   4.154   2.836   6.292
 9427SOL     OW29179   3.766   5.403   1.813
 9427SOL    HW129180   3.695   5.435   1.875
 9427SOL    HW229181   3.854   5.443   1.839
 9428SOL     OW29182   0.804   6.464   5.539
 9428SOL    HW129183   0.759   6.496   5.621
 9428SOL    HW229184   0.736   6.436   5.472
 9429SOL     OW29185   3.185   2.170   4.124
 9429SOL    HW129186   3.148   2.188   4.216
 9429SOL    HW229187   3.192   2.072   4.109
 9430SOL     OW29188   1.599   0.565   4.814
 9430SOL    HW129189   1.612   0.493   4.882
 9430SOL    HW229190   1.544   0.638   4.854
 9431SOL     OW29191   1.250   4.410   4.886
 9431SOL    HW129192   1.231   4.426   4.789
 9431SOL    HW229193   1.202   4.328   4.916
 9432SOL     OW29194   6.704   1.433   3.623
 9432SOL    HW129195   6.751   1.345   3.627
 9432SOL    HW229196   6.753   1.495   3.562
 9433SOL     OW29197   4.406   5.567   1.701
 9433SOL    HW129198   4.342   5.555   1.625
 9433SOL    HW229199   4.406   5.663   1.729
 9434SOL     OW29200   4.379   6.061   4.478
 9434SOL    HW129201   4.410   6.068   4.384
 9434SOL    HW229202   4.295   6.114   4.490
 9435SOL     OW29203   5.935   4.067   0.154
 9435SOL    HW129204   5.888   4.079   0.242
 9435SOL    HW229205   6.019   4.122   0.154
 9436SOL     OW29206   3.393   1.171   2.751
 9436SOL    HW129207   3.471   1.110   2.746
 9436SOL    HW229208   3.411   1.244   2.818
 9437SOL     OW29209   5.347   0.974   4.325
 9437SOL    HW129210   5.417   0.934   4.385
 9437SOL    HW229211   5.337   0.916   4.244
 9438SOL     OW29212   4.950   0.584   2.837
 9438SOL    HW129213   4.915   0.491   2.845
 9438SOL    HW229214   5.045   0.587   2.866
 9439SOL     OW29215   1.969   3.905   1.236
 9439SOL    HW129216   2.043   3.948   1.288
 9439SOL    HW229217   1.903   3.865   1.300
 9440SOL     OW29218   1.700   5.932   5.158
 9440SOL    HW129219   1.638   6.003   5.192
 9440SOL    HW229220   1.679   5.913   5.062
 9441SOL     OW29221   0.317   6.300   4.197
 9441SOL    HW129222   0.335   6.202   4.209
 9441SOL    HW229223   0.395   6.352   4.229
 9442SOL     OW29224   5.918   3.268   1.092
 9442SOL    HW129225   5.945   3.196   1.155
 9442SOL    HW229226   5.818   3.272   1.085
 9443SOL     OW29227   2.720   4.372   1.460
 9443SOL    HW129228   2.801   4.319   1.434
 9443SOL    HW229229   2.692   4.345   1.552
 9444SOL     OW29230   2.101   5.506   6.477
 9444SOL    HW129231   2.048   5.482   6.558
 9444SOL    HW229232   2.097   5.432   6.411
 9445SOL     OW29233   0.090   1.119   3.809
 9445SOL    HW129234   0.028   1.173   3.867
 9445SOL    HW229235   0.125   1.041   3.861
 9446SOL     OW29236   6.401   4.577   4.542
 9446SOL    HW129237   6.458   4.498   4.567
 9446SOL    HW229238   6.372   4.569   4.447
 9447SOL     OW29239   5.446   5.246   2.138
 9447SOL    HW129240   5.422   5.335   2.177
 9447SOL    HW229241   5.464   5.256   2.041
 9448SOL     OW29242   5.291   2.044   6.815
 9448SOL    HW129243   5.380   2.090   6.818
 9448SOL    HW229244   5.258   2.042   6.721
 9449SOL     OW29245   4.820   6.710   2.410
 9449SOL    HW129246   4.728   6.673   2.412
 9449SOL    HW229247   4.845   6.732   2.315
 9450SOL     OW29248   1.000   0.336   2.827
 9450SOL    HW129249   1.097   0.355   2.814
 9450SOL    HW229250   0.948   0.379   2.753
 9451SOL     OW29251   3.978   5.264   0.251
 9451SOL    HW129252   3.985   5.305   0.341
 9451SOL    HW229253   4.070   5.250   0.213
 9452SOL     OW29254   6.299   4.261   6.443
 9452SOL    HW129255   6.278   4.183   6.501
 9452SOL    HW229256   6.215   4.291   6.396
 9453SOL     OW29257   6.721   4.956   2.238
 9453SOL    HW129258   6.767   4.935   2.152
 9453SOL    HW229259   6.681   5.048   2.234
 9454SOL     OW29260   5.453   5.455   0.691
 9454SOL    HW129261   5.462   5.362   0.725
 9454SOL    HW229262   5.540   5.503   0.705
 9455SOL     OW29263   4.579   0.259   1.504
 9455SOL    HW129264   4.506   0.316   1.467
 9455SOL    HW229265   4.647   0.241   1.433
 9456SOL     OW29266   6.911   2.183   2.576
 9456SOL    HW129267   6.968   2.104   2.599
 9456SOL    HW229268   6.881   2.227   2.660
 9457SOL     OW29269   6.417   6.154   3.863
 9457SOL    HW129270   6.355   6.217   3.912
 9457SOL    HW229271   6.420   6.066   3.911
 9458SOL     OW29272   6.536   3.790   0.130
 9458SOL    HW129273   6.450   3.790   0.079
 9458SOL    HW229274   6.524   3.741   0.217
 9459SOL     OW29275   5.310   4.612   4.790
 9459SOL    HW129276   5.283   4.708   4.805
 9459SOL    HW229277   5.283   4.557   4.869
 9460SOL     OW29278   1.691   2.563   2.611
 9460SOL    HW129279   1.777   2.562   2.559
 9460SOL    HW229280   1.642   2.648   2.592
 9461SOL     OW29281   2.411   2.060   1.911
 9461SOL    HW129282   2.420   2.012   1.824
 9461SOL    HW229283   2.493   2.116   1.928
 9462SOL     OW29284   6.958   1.277   5.626
 9462SOL    HW129285   6.989   1.372   5.618
 9462SOL    HW229286   6.980   1.242   5.716
 9463SOL     OW29287   6.621   4.858   0.600
 9463SOL    HW129288   6.695   4.918   0.630
 9463SOL    HW229289   6.628   4.770   0.648
 9464SOL     OW29290   1.118   7.005   1.537
 9464SOL    HW129291   1.099   0.073   1.527
 9464SOL    HW229292   1.032   6.955   1.552
 9465SOL     OW29293   6.500   5.733   0.427
 9465SOL    HW129294   6.553   5.702   0.506
 9465SOL    HW229295   6.563   5.757   0.352
 9466SOL     OW29296   4.416   3.948   5.349
 9466SOL    HW129297   4.452   3.926   5.258
 9466SOL    HW229298   4.346   3.881   5.374
 9467SOL     OW29299   0.978   3.906   1.091
 9467SOL    HW129300   1.032   3.888   1.009
 9467SOL    HW229301   0.989   3.830   1.155
 9468SOL     OW29302   6.250   1.168   1.436
 9468SOL    HW129303   6.298   1.162   1.524
 9468SOL    HW229304   6.303   1.225   1.374
 9469SOL     OW29305   6.924   6.839   1.827
 9469SOL    HW129306   6.961   6.856   1.736
 9469SOL    HW229307   6.849   6.903   1.845
 9470SOL     OW29308   3.309   2.945   0.816
 9470SOL    HW129309   3.275   2.855   0.842
 9470SOL    HW229310   3.293   3.010   0.891
 9471SOL     OW29311   6.434   3.041   4.884
 9471SOL    HW129312   6.521   3.053   4.836
 9471SOL    HW229313   6.368   3.108   4.851
 9472SOL     OW29314   1.944   3.483   6.152
 9472SOL    HW129315   2.028   3.441   6.187
 9472SOL    HW229316   1.881   3.500   6.229
 9473SOL     OW29317   3.067   3.599   1.334
 9473SOL    HW129318   3.166   3.583   1.329
 9473SOL    HW229319   3.026   3.582   1.245
 9474SOL     OW29320   5.726   4.580   0.965
 9474SOL    HW129321   5.750   4.614   0.874
 9474SOL    HW229322   5.780   4.499   0.985
 9475SOL     OW29323   5.844   3.555   6.844
 9475SOL    HW129324   5.911   3.629   6.829
 9475SOL    HW229325   5.752   3.594   6.844
 9476SOL     OW29326   4.323   4.029   0.929
 9476SOL    HW129327   4.391   4.048   1.000
 9476SOL    HW229328   4.352   4.071   0.843
 9477SOL     OW29329   1.615   4.761   0.966
 9477SOL    HW129330   1.622   4.664   0.942
 9477SOL    HW229331   1.638   4.773   1.063
 9478SOL     OW29332   6.683   3.685   5.747
 9478SOL    HW129333   6.638   3.774   5.737
 9478SOL    HW229334   6.676   3.655   5.842
 9479SOL     OW29335   4.459   0.871   2.113
 9479SOL    HW129336   4.387   0.938   2.092
 9479SOL    HW229337   4.515   0.906   2.188
 9480SOL     OW29338   5.501   0.375   0.832
 9480SOL    HW129339   5.475   0.361   0.736
 9480SOL    HW229340   5.464   0.300   0.887
 9481SOL     OW29341   4.766   6.968   3.123
 9481SOL    HW129342   4.864   6.966   3.142
 9481SOL    HW229343   4.751   6.997   3.029
 9482SOL     OW29344   5.956   4.933   5.001
 9482SOL    HW129345   6.009   5.018   4.992
 9482SOL    HW229346   6.000   4.861   4.948
 9483SOL     OW29347   5.987   4.887   6.790
 9483SOL    HW129348   5.896   4.923   6.812
 9483SOL    HW229349   6.057   4.952   6.818
 9484SOL     OW29350   1.778   6.462   4.333
 9484SOL    HW129351   1.744   6.546   4.289
 9484SOL    HW229352   1.873   6.447   4.305
 9485SOL     OW29353   0.442   1.146   4.998
 9485SOL    HW129354   0.485   1.080   4.936
 9485SOL    HW229355   0.505   1.165   5.073
 9486SOL     OW29356   6.622   5.799   6.775
 9486SOL    HW129357   6.557   5.824   6.846
 9486SOL    HW229358   6.593   5.838   6.688
 9487SOL     OW29359   3.070   3.904   3.053
 9487SOL    HW129360   3.120   3.968   3.112
 9487SOL    HW229361   3.136   3.851   2.999
 9488SOL     OW29362   2.109   0.925   1.719
 9488SOL    HW129363   2.131   0.832   1.688
 9488SOL    HW229364   2.030   0.922   1.780
 9489SOL     OW29365   6.197   4.430   0.303
 9489SOL    HW129366   6.277   4.451   0.360
 9489SOL    HW229367   6.217   4.351   0.246
 9490SOL     OW29368   5.653   3.558   4.777
 9490SOL    HW129369   5.616   3.549   4.870
 9490SOL    HW229370   5.669   3.654   4.757
 9491SOL     OW29371   5.463   0.137   2.750
 9491SOL    HW129372   5.447   0.210   2.684
 9491SOL    HW229373   5.556   0.143   2.784
 9492SOL     OW29374   4.532   2.407   4.244
 9492SOL    HW129375   4.489   2.319   4.223
 9492SOL    HW229376   4.529   2.423   4.342
 9493SOL     OW29377   2.911   6.083   2.185
 9493SOL    HW129378   2.943   6.138   2.263
 9493SOL    HW229379   2.852   6.009   2.218
 9494SOL     OW29380   5.092   2.488   2.482
 9494SOL    HW129381   5.117   2.490   2.578
 9494SOL    HW229382   5.069   2.581   2.452
 9495SOL     OW29383   5.002   2.837   1.214
 9495SOL    HW129384   4.994   2.898   1.135
 9495SOL    HW229385   4.947   2.872   1.289
 9496SOL     OW29386   5.714   3.066   1.372
 9496SOL    HW129387   5.637   3.037   1.429
 9496SOL    HW229388   5.711   3.016   1.285
 9497SOL     OW29389   5.295   4.937   5.048
 9497SOL    HW129390   5.239   4.947   5.131
 9497SOL    HW229391   5.374   4.997   5.054
 9498SOL     OW29392   0.748   5.486   6.143
 9498SOL    HW129393   0.683   5.481   6.219
 9498SOL    HW229394   0.828   5.429   6.164
 9499SOL     OW29395   5.223   6.072   4.184
 9499SOL    HW129396   5.228   5.974   4.201
 9499SOL    HW229397   5.130   6.098   4.160
 9500SOL     OW29398   2.979   1.502   0.858
 9500SOL    HW129399   2.929   1.531   0.776
 9500SOL    HW229400   2.987   1.580   0.920
 9501SOL     OW29401   1.935   3.995   5.431
 9501SOL    HW129402   1.968   3.906   5.465
 9501SOL    HW229403   1.912   3.988   5.334
 9502SOL     OW29404   5.732   4.192   3.408
 9502SOL    HW129405   5.698   4.099   3.394
 9502SOL    HW229406   5.656   4.251   3.437
 9503SOL     OW29407   5.721   1.267   0.747
 9503SOL    HW129408   5.648   1.213   0.790
 9503SOL    HW229409   5.703   1.274   0.649
 9504SOL     OW29410   6.423   5.768   2.461
 9504SOL    HW129411   6.496   5.735   2.401
 9504SOL    HW229412   6.422   5.868   2.460
 9505SOL     OW29413   4.809   3.444   6.438
 9505SOL    HW129414   4.756   3.523   6.470
 9505SOL    HW229415   4.762   3.402   6.360
 9506SOL     OW29416   3.319   1.177   1.794
 9506SOL    HW129417   3.232   1.198   1.837
 9506SOL    HW229418   3.331   1.234   1.712
 9507SOL     OW29419   6.539   6.278   1.619
 9507SOL    HW129420   6.451   6.284   1.664
 9507SOL    HW229421   6.587   6.195   1.648
 9508SOL     OW29422   5.150   1.139   1.877
 9508SOL    HW129423   5.183   1.050   1.908
 9508SOL    HW229424   5.228   1.197   1.851
 9509SOL     OW29425   5.820   1.615   3.892
 9509SOL    HW129426   5.833   1.676   3.813
 9509SOL    HW229427   5.769   1.663   3.963
 9510SOL     OW29428   1.190   3.203   2.766
 9510SOL    HW129429   1.159   3.258   2.844
 9510SOL    HW229430   1.190   3.106   2.791
 9511SOL     OW29431   1.058   1.779   1.074
 9511SOL    HW129432   1.124   1.839   1.030
 9511SOL    HW229433   1.106   1.712   1.130
 9512SOL     OW29434   6.512   2.383   1.857
 9512SOL    HW129435   6.416   2.400   1.880
 9512SOL    HW229436   6.570   2.450   1.905
 9513SOL     OW29437   4.760   3.943   5.233
 9513SOL    HW129438   4.756   4.003   5.313
 9513SOL    HW229439   4.753   3.998   5.150
 9514SOL     OW29440   3.726   3.173   1.275
 9514SOL    HW129441   3.645   3.131   1.234
 9514SOL    HW229442   3.700   3.221   1.358
 9515SOL     OW29443   0.008   5.819   3.162
 9515SOL    HW129444   0.076   5.891   3.179
 9515SOL    HW229445   6.968   5.853   3.099
 9516SOL     OW29446   0.454   4.040   6.146
 9516SOL    HW129447   0.517   3.971   6.181
 9516SOL    HW229448   0.498   4.092   6.073
 9517SOL     OW29449   0.637   6.201   1.683
 9517SOL    HW129450   0.664   6.175   1.590
 9517SOL    HW229451   0.562   6.267   1.678
 9518SOL     OW29452   0.781   0.715   1.080
 9518SOL    HW129453   0.834   0.638   1.116
 9518SOL    HW229454   0.712   0.742   1.148
 9519SOL     OW29455   1.748   2.194   5.214
 9519SOL    HW129456   1.710   2.257   5.282
 9519SOL    HW229457   1.698   2.205   5.128
 9520SOL     OW29458   4.505   0.022   1.541
 9520SOL    HW129459   4.528   0.119   1.541
 9520SOL    HW229460   4.486   7.021   1.634
 9521SOL     OW29461   5.389   4.567   3.249
 9521SOL    HW129462   5.335   4.647   3.222
 9521SOL    HW229463   5.486   4.584   3.231
 9522SOL     OW29464   3.208   4.871   6.043
 9522SOL    HW129465   3.217   4.778   6.080
 9522SOL    HW229466   3.295   4.919   6.053
 9523SOL     OW29467   2.373   0.390   5.261
 9523SOL    HW129468   2.293   0.336   5.233
 9523SOL    HW229469   2.434   0.334   5.316
 9524SOL     OW29470   5.461   3.312   0.519
 9524SOL    HW129471   5.399   3.390   0.514
 9524SOL    HW229472   5.429   3.248   0.590
 9525SOL     OW29473   4.044   0.014   4.686
 9525SOL    HW129474   4.038   7.011   4.592
 9525SOL    HW229475   4.099   0.097   4.690
 9526SOL     OW29476   4.858   5.550   0.516
 9526SOL    HW129477   4.814   5.515   0.434
 9526SOL    HW229478   4.793   5.607   0.567
 9527SOL     OW29479   0.243   2.360   0.580
 9527SOL    HW129480   0.150   2.330   0.557
 9527SOL    HW229481   0.302   2.280   0.590
 9528SOL     OW29482   6.339   0.916   2.001
 9528SOL    HW129483   6.414   0.857   1.969
 9528SOL    HW229484   6.354   1.009   1.967
 9529SOL     OW29485   1.571   2.568   5.182
 9529SOL    HW129486   1.569   2.483   5.235
 9529SOL    HW229487   1.621   2.638   5.233
 9530SOL     OW29488   2.611   1.195   3.755
 9530SOL    HW129489   2.547   1.143   3.697
 9530SOL    HW229490   2.704   1.180   3.722
 9531SOL     OW29491   3.031   6.742   3.820
 9531SOL    HW129492   3.034   6.813   3.890
 9531SOL    HW229493   3.013   6.784   3.731
 9532SOL     OW29494   2.971   1.466   2.009
 9532SOL    HW129495   2.944   1.504   1.921
 9532SOL    HW229496   3.062   1.424   2.000
 9533SOL     OW29497   0.944   1.572   4.579
 9533SOL    HW129498   0.852   1.596   4.548
 9533SOL    HW229499   1.006   1.568   4.501
 9534SOL     OW29500   5.863   1.683   4.411
 9534SOL    HW129501   5.778   1.733   4.396
 9534SOL    HW229502   5.941   1.741   4.387
 9535SOL     OW29503   3.186   1.642   4.730
 9535SOL    HW129504   3.190   1.735   4.769
 9535SOL    HW229505   3.131   1.584   4.789
 9536SOL     OW29506   2.175   6.595   6.325
 9536SOL    HW129507   2.224   6.656   6.388
 9536SOL    HW229508   2.077   6.602   6.342
 9537SOL     OW29509   1.965   0.598   0.434
 9537SOL    HW129510   2.030   0.605   0.510
 9537SOL    HW229511   1.944   0.689   0.400
 9538SOL     OW29512   6.095   3.751   2.618
 9538SOL    HW129513   6.114   3.743   2.520
 9538SOL    HW229514   6.073   3.661   2.655
 9539SOL     OW29515   0.175   3.843   6.767
 9539SOL    HW129516   0.161   3.937   6.800
 9539SOL    HW229517   0.179   3.780   6.845
 9540SOL     OW29518   5.816   3.543   6.018
 9540SOL    HW129519   5.829   3.605   6.095
 9540SOL    HW229520   5.870   3.460   6.031
 9541SOL     OW29521   6.708   2.330   3.666
 9541SOL    HW129522   6.732   2.233   3.656
 9541SOL    HW229523   6.633   2.352   3.604
 9542SOL     OW29524   4.759   4.283   4.685
 9542SOL    HW129525   4.829   4.354   4.690
 9542SOL    HW229526   4.743   4.245   4.776
 9543SOL     OW29527   3.808   2.669   0.716
 9543SOL    HW129528   3.759   2.687   0.801
 9543SOL    HW229529   3.827   2.571   0.708
 9544SOL     OW29530   4.659   0.622   1.009
 9544SOL    HW129531   4.730   0.662   0.952
 9544SOL    HW229532   4.680   0.639   1.105
 9545SOL     OW29533   1.360   6.979   4.762
 9545SOL    HW129534   1.298   7.006   4.688
 9545SOL    HW229535   1.442   0.006   4.759
 9546SOL     OW29536   2.529   4.536   1.975
 9546SOL    HW129537   2.563   4.579   2.059
 9546SOL    HW229538   2.605   4.520   1.913
 9547SOL     OW29539   5.185   5.798   3.451
 9547SOL    HW129540   5.087   5.802   3.429
 9547SOL    HW229541   5.220   5.891   3.464
 9548SOL     OW29542   5.575   6.695   2.672
 9548SOL    HW129543   5.671   6.693   2.701
 9548SOL    HW229544   5.534   6.605   2.685
 9549SOL     OW29545   2.196   5.825   0.085
 9549SOL    HW129546   2.201   5.775   7.027
 9549SOL    HW229547   2.110   5.876   0.089
 9550SOL     OW29548   1.945   1.162   7.026
 9550SOL    HW129549   1.876   1.229   7.000
 9550SOL    HW229550   1.917   1.071   6.995
 9551SOL     OW29551   1.614   5.729   5.315
 9551SOL    HW129552   1.651   5.804   5.259
 9551SOL    HW229553   1.688   5.665   5.337
 9552SOL     OW29554   0.152   5.374   2.701
 9552SOL    HW129555   0.217   5.446   2.727
 9552SOL    HW229556   0.171   5.345   2.607
 9553SOL     OW29557   5.299   4.790   6.283
 9553SOL    HW129558   5.387   4.751   6.255
 9553SOL    HW229559   5.315   4.876   6.333
 9554SOL     OW29560   2.280   1.686   2.365
 9554SOL    HW129561   2.324   1.773   2.341
 9554SOL    HW229562   2.201   1.703   2.424
 9555SOL     OW29563   6.602   2.353   6.422
 9555SOL    HW129564   6.608   2.451   6.440
 9555SOL    HW229565   6.579   2.338   6.326
 9556SOL     OW29566   6.686   0.972   0.883
 9556SOL    HW129567   6.592   0.995   0.907
 9556SOL    HW229568   6.733   1.054   0.850
 9557SOL     OW29569   5.059   1.506   1.595
 9557SOL    HW129570   5.146   1.542   1.629
 9557SOL    HW229571   5.059   1.406   1.605
 9558SOL     OW29572   0.241   3.742   1.400
 9558SOL    HW129573   0.167   3.804   1.427
 9558SOL    HW229574   0.314   3.794   1.356
 9559SOL     OW29575   0.551   4.092   2.915
 9559SOL    HW129576   0.646   4.077   2.939
 9559SOL    HW229577   0.545   4.137   2.826
 9560SOL     OW29578   3.499   1.946   5.739
 9560SOL    HW129579   3.466   2.017   5.801
 9560SOL    HW229580   3.580   1.902   5.779
 9561SOL     OW29581   3.505   5.204   6.976
 9561SOL    HW129582   3.488   5.166   0.037
 9561SOL    HW229583   3.568   5.145   6.926
 9562SOL     OW29584   6.484   5.212   4.046
 9562SOL    HW129585   6.425   5.134   4.024
 9562SOL    HW229586   6.580   5.182   4.047
 9563SOL     OW29587   0.583   0.038   6.515
 9563SOL    HW129588   0.680   0.050   6.540
 9563SOL    HW229589   0.563   6.970   6.506
 9564SOL     OW29590   1.181   0.798   6.012
 9564SOL    HW129591   1.260   0.808   5.953
 9564SOL    HW229592   1.148   0.888   6.040
 9565SOL     OW29593   2.602   5.906   5.803
 9565SOL    HW129594   2.532   5.837   5.821
 9565SOL    HW229595   2.680   5.890   5.865
 9566SOL     OW29596   2.812   5.431   5.358
 9566SOL    HW129597   2.716   5.450   5.339
 9566SOL    HW229598   2.832   5.335   5.339
 9567SOL     OW29599   5.718   4.525   4.405
 9567SOL    HW129600   5.735   4.550   4.501
 9567SOL    HW229601   5.657   4.593   4.364
 9568SOL     OW29602   5.534   3.207   5.612
 9568SOL    HW129603   5.470   3.135   5.639
 9568SOL    HW229604   5.625   3.168   5.597
 9569SOL     OW29605   5.802   0.075   1.335
 9569SOL    HW129606   5.847   0.123   1.260
 9569SOL    HW229607   5.814   0.127   1.420
 9570SOL     OW29608   0.662   2.211   6.536
 9570SOL    HW129609   0.626   2.269   6.609
 9570SOL    HW229610   0.632   2.116   6.550
 9571SOL     OW29611   3.512   2.116   0.158
 9571SOL    HW129612   3.606   2.085   0.146
 9571SOL    HW229613   3.456   2.040   0.193
 9572SOL     OW29614   0.470   3.999   0.977
 9572SOL    HW129615   0.474   4.052   0.892
 9572SOL    HW229616   0.539   3.927   0.975
 9573SOL     OW29617   5.156   1.943   2.257
 9573SOL    HW129618   5.157   1.926   2.355
 9573SOL    HW229619   5.118   1.862   2.210
 9574SOL     OW29620   3.130   1.792   3.598
 9574SOL    HW129621   3.220   1.822   3.567
 9574SOL    HW229622   3.096   1.719   3.538
 9575SOL     OW29623   3.765   1.839   2.966
 9575SOL    HW129624   3.753   1.938   2.973
 9575SOL    HW229625   3.798   1.816   2.874
 9576SOL     OW29626   3.470   3.437   5.752
 9576SOL    HW129627   3.378   3.430   5.713
 9576SOL    HW229628   3.500   3.347   5.783
 9577SOL     OW29629   0.533   5.000   3.916
 9577SOL    HW129630   0.496   4.953   3.996
 9577SOL    HW229631   0.613   5.054   3.942
 9578SOL     OW29632   0.170   4.400   1.369
 9578SOL    HW129633   0.249   4.347   1.402
 9578SOL    HW229634   0.088   4.369   1.416
 9579SOL     OW29635   1.450   4.652   3.060
 9579SOL    HW129636   1.379   4.722   3.072
 9579SOL    HW229637   1.506   4.647   3.142
 9580SOL     OW29638   4.248   3.557   5.210
 9580SOL    HW129639   4.221   3.591   5.120
 9580SOL    HW229640   4.179   3.493   5.243
 9581SOL     OW29641   1.256   6.070   6.000
 9581SOL    HW129642   1.159   6.046   5.998
 9581SOL    HW229643   1.284   6.085   6.095
 9582SOL     OW29644   3.640   5.594   2.863
 9582SOL    HW129645   3.613   5.646   2.783
 9582SOL    HW229646   3.649   5.655   2.941
 9583SOL     OW29647   1.140   4.900   2.076
 9583SOL    HW129648   1.064   4.882   2.014
 9583SOL    HW229649   1.215   4.836   2.057
 9584SOL     OW29650   5.084   4.009   6.888
 9584SOL    HW129651   5.092   3.938   6.818
 9584SOL    HW229652   5.039   4.089   6.850
 9585SOL     OW29653   6.045   1.306   3.186
 9585SOL    HW129654   6.111   1.274   3.119
 9585SOL    HW229655   6.004   1.228   3.232
 9586SOL     OW29656   4.864   3.985   2.252
 9586SOL    HW129657   4.787   3.954   2.197
 9586SOL    HW229658   4.848   3.961   2.348
 9587SOL     OW29659   4.839   6.150   1.660
 9587SOL    HW129660   4.772   6.223   1.647
 9587SOL    HW229661   4.927   6.190   1.684
 9588SOL     OW29662   5.986   1.110   3.362
 9588SOL    HW129663   6.034   1.057   3.432
 9588SOL    HW229664   5.891   1.081   3.357
 9589SOL     OW29665   3.845   1.792   5.651
 9589SOL    HW129666   3.805   1.852   5.583
 9589SOL    HW229667   3.791   1.797   5.735
 9590SOL     OW29668   6.888   4.765   4.533
 9590SOL    HW129669   6.962   4.776   4.467
 9590SOL    HW229670   6.841   4.678   4.517
 9591SOL     OW29671   7.014   4.263   2.497
 9591SOL    HW129672   7.003   4.222   2.407
 9591SOL    HW229673   6.969   4.353   2.498
 9592SOL     OW29674   4.091   5.758   0.360
 9592SOL    HW129675   4.053   5.831   0.417
 9592SOL    HW229676   4.185   5.739   0.387
 9593SOL     OW29677   2.242   1.871   3.412
 9593SOL    HW129678   2.332   1.909   3.434
 9593SOL    HW229679   2.214   1.903   3.322
 9594SOL     OW29680   5.543   0.133   1.120
 9594SOL    HW129681   5.589   0.222   1.123
 9594SOL    HW229682   5.473   0.135   1.048
 9595SOL     OW29683   2.236   5.196   5.948
 9595SOL    HW129684   2.172   5.120   5.940
 9595SOL    HW229685   2.301   5.193   5.873
 9596SOL     OW29686   5.589   5.329   2.498
 9596SOL    HW129687   5.544   5.417   2.483
 9596SOL    HW229688   5.647   5.335   2.579
 9597SOL     OW29689   2.360   4.990   1.512
 9597SOL    HW129690   2.410   5.057   1.457
 9597SOL    HW229691   2.424   4.939   1.569
 9598SOL     OW29692   0.878   6.003   5.844
 9598SOL    HW129693   0.781   5.983   5.857
 9598SOL    HW229694   0.888   6.081   5.782
 9599SOL     OW29695   3.721   2.104   5.522
 9599SOL    HW129696   3.751   2.023   5.471
 9599SOL    HW229697   3.621   2.108   5.521
 9600SOL     OW29698   1.382   6.350   6.583
 9600SOL    HW129699   1.440   6.306   6.652
 9600SOL    HW229700   1.418   6.333   6.492
 9601SOL     OW29701   1.340   6.814   4.978
 9601SOL    HW129702   1.252   6.802   4.930
 9601SOL    HW229703   1.407   6.854   4.915
 9602SOL     OW29704   1.095   5.608   6.379
 9602SOL    HW129705   1.061   5.679   6.440
 9602SOL    HW229706   1.026   5.535   6.372
 9603SOL     OW29707   0.835   5.749   1.369
 9603SOL    HW129708   0.890   5.827   1.400
 9603SOL    HW229709   0.892   5.689   1.313
 9604SOL     OW29710   6.842   0.683   6.488
 9604SOL    HW129711   6.823   0.716   6.396
 9604SOL    HW229712   6.843   0.760   6.551
 9605SOL     OW29713   3.609   4.697   1.315
 9605SOL    HW129714   3.667   4.685   1.234
 9605SOL    HW229715   3.659   4.668   1.396
 9606SOL     OW29716   0.273   1.060   5.278
 9606SOL    HW129717   0.332   1.089   5.203
 9606SOL    HW229718   0.284   0.962   5.292
 9607SOL     OW29719   6.847   2.852   3.986
 9607SOL    HW129720   6.880   2.914   3.915
 9607SOL    HW229721   6.889   2.762   3.974
 9608SOL     OW29722   6.355   0.876   1.328
 9608SOL    HW129723   6.286   0.935   1.287
 9608SOL    HW229724   6.380   0.911   1.418
 9609SOL     OW29725   1.641   2.122   4.263
 9609SOL    HW129726   1.556   2.107   4.213
 9609SOL    HW229727   1.697   2.189   4.214
 9610SOL     OW29728   4.926   0.961   5.641
 9610SOL    HW129729   4.827   0.967   5.633
 9610SOL    HW229730   4.957   1.025   5.712
 9611SOL     OW29731   4.588   5.505   0.641
 9611SOL    HW129732   4.651   5.493   0.718
 9611SOL    HW229733   4.516   5.570   0.667
 9612SOL     OW29734   5.842   3.790   3.494
 9612SOL    HW129735   5.924   3.837   3.463
 9612SOL    HW229736   5.819   3.820   3.586
 9613SOL     OW29737   5.796   0.611   4.932
 9613SOL    HW129738   5.811   0.513   4.922
 9613SOL    HW229739   5.720   0.627   4.995
 9614SOL     OW29740   2.683   2.925   0.453
 9614SOL    HW129741   2.609   2.992   0.452
 9614SOL    HW229742   2.663   2.852   0.388
 9615SOL     OW29743   6.940   5.614   3.891
 9615SOL    HW129744   6.841   5.617   3.881
 9615SOL    HW229745   6.963   5.566   3.976
 9616SOL     OW29746   1.176   2.048   1.334
 9616SOL    HW129747   1.162   2.134   1.285
 9616SOL    HW229748   1.248   1.995   1.290
 9617SOL     OW29749   0.161   2.797   3.799
 9617SOL    HW129750   0.118   2.779   3.711
 9617SOL    HW229751   0.192   2.711   3.839
 9618SOL     OW29752   4.874   3.588   1.871
 9618SOL    HW129753   4.810   3.619   1.801
 9618SOL    HW229754   4.858   3.491   1.890
 9619SOL     OW29755   0.843   0.278   0.604
 9619SOL    HW129756   0.776   0.217   0.561
 9619SOL    HW229757   0.811   0.372   0.597
 9620SOL     OW29758   4.089   0.933   6.025
 9620SOL    HW129759   4.162   0.915   5.958
 9620SOL    HW229760   4.001   0.904   5.987
 9621SOL     OW29761   0.008   0.923   1.500
 9621SOL    HW129762   0.080   0.991   1.484
 9621SOL    HW229763   0.037   0.835   1.463
 9622SOL     OW29764   6.647   6.852   4.898
 9622SOL    HW129765   6.589   6.785   4.945
 9622SOL    HW229766   6.637   6.941   4.942
 9623SOL     OW29767   2.303   6.215   6.015
 9623SOL    HW129768   2.396   6.206   6.052
 9623SOL    HW229769   2.248   6.137   6.045
 9624SOL     OW29770   4.848   5.358   6.789
 9624SOL    HW129771   4.852   5.260   6.772
 9624SOL    HW229772   4.805   5.404   6.711
 9625SOL     OW29773   4.926   4.587   5.983
 9625SOL    HW129774   4.943   4.489   5.969
 9625SOL    HW229775   4.888   4.601   6.075
 9626SOL     OW29776   2.537   2.920   6.417
 9626SOL    HW129777   2.605   2.859   6.457
 9626SOL    HW229778   2.510   2.885   6.327
 9627SOL     OW29779   6.951   6.550   0.583
 9627SOL    HW129780   7.027   6.571   0.521
 9627SOL    HW229781   6.866   6.548   0.531
 9628SOL     OW29782   5.448   1.197   5.300
 9628SOL    HW129783   5.535   1.181   5.346
 9628SOL    HW229784   5.407   1.281   5.334
 9629SOL     OW29785   0.393   5.336   3.954
 9629SOL    HW129786   0.360   5.242   3.938
 9629SOL    HW229787   0.422   5.376   3.867
 9630SOL     OW29788   5.974   0.347   6.910
 9630SOL    HW129789   5.959   0.377   6.815
 9630SOL    HW229790   6.072   0.341   6.928
 9631SOL     OW29791   4.755   5.751   0.700
 9631SOL    HW129792   4.683   5.818   0.681
 9631SOL    HW229793   4.732   5.701   0.784
 9632SOL     OW29794   2.608   5.071   3.032
 9632SOL    HW129795   2.670   5.118   2.969
 9632SOL    HW229796   2.626   5.101   3.125
 9633SOL     OW29797   3.147   3.052   5.322
 9633SOL    HW129798   3.072   3.119   5.324
 9633SOL    HW229799   3.111   2.963   5.351
 9634SOL     OW29800   6.260   4.630   2.579
 9634SOL    HW129801   6.208   4.580   2.511
 9634SOL    HW229802   6.292   4.567   2.649
 9635SOL     OW29803   0.550   5.579   4.668
 9635SOL    HW129804   0.485   5.599   4.596
 9635SOL    HW229805   0.549   5.480   4.687
 9636SOL     OW29806   5.421   3.684   3.945
 9636SOL    HW129807   5.425   3.626   4.026
 9636SOL    HW229808   5.428   3.627   3.863
 9637SOL     OW29809   2.768   2.677   6.991
 9637SOL    HW129810   2.779   2.646   0.056
 9637SOL    HW229811   2.840   2.635   6.934
 9638SOL     OW29812   0.184   4.354   5.458
 9638SOL    HW129813   0.257   4.422   5.456
 9638SOL    HW229814   0.218   4.269   5.497
 9639SOL     OW29815   4.874   2.717   1.598
 9639SOL    HW129816   4.928   2.647   1.644
 9639SOL    HW229817   4.863   2.796   1.658
 9640SOL     OW29818   3.328   6.663   3.229
 9640SOL    HW129819   3.315   6.595   3.301
 9640SOL    HW229820   3.417   6.708   3.241
 9641SOL     OW29821   0.319   3.560   4.595
 9641SOL    HW129822   0.388   3.583   4.526
 9641SOL    HW229823   0.305   3.461   4.598
 9642SOL     OW29824   0.438   3.548   4.861
 9642SOL    HW129825   0.373   3.483   4.900
 9642SOL    HW229826   0.412   3.568   4.766
 9643SOL     OW29827   5.627   5.234   4.098
 9643SOL    HW129828   5.722   5.200   4.093
 9643SOL    HW229829   5.619   5.319   4.045
 9644SOL     OW29830   0.837   4.522   3.668
 9644SOL    HW129831   0.886   4.510   3.754
 9644SOL    HW229832   0.778   4.603   3.674
 9645SOL     OW29833   1.318   4.505   6.879
 9645SOL    HW129834   1.244   4.457   6.926
 9645SOL    HW229835   1.346   4.585   6.934
 9646SOL     OW29836   2.708   5.242   1.017
 9646SOL    HW129837   2.656   5.240   1.102
 9646SOL    HW229838   2.719   5.149   0.982
 9647SOL     OW29839   5.945   6.968   3.385
 9647SOL    HW129840   5.999   6.963   3.469
 9647SOL    HW229841   5.912   6.876   3.362
 9648SOL     OW29842   3.654   2.080   1.130
 9648SOL    HW129843   3.622   2.104   1.221
 9648SOL    HW229844   3.609   2.138   1.062
 9649SOL     OW29845   6.705   6.442   1.007
 9649SOL    HW129846   6.740   6.407   0.920
 9649SOL    HW229847   6.777   6.435   1.076
 9650SOL     OW29848   0.589   5.262   4.654
 9650SOL    HW129849   0.543   5.270   4.566
 9650SOL    HW229850   0.688   5.267   4.642
 9651SOL     OW29851   4.255   1.468   7.022
 9651SOL    HW129852   4.319   1.392   0.003
 9651SOL    HW229853   4.207   1.459   6.934
 9652SOL     OW29854   0.361   3.756   0.809
 9652SOL    HW129855   0.400   3.667   0.786
 9652SOL    HW229856   0.329   3.755   0.904
 9653SOL     OW29857   5.188   4.265   5.373
 9653SOL    HW129858   5.182   4.349   5.427
 9653SOL    HW229859   5.280   4.256   5.335
 9654SOL     OW29860   4.164   3.476   4.282
 9654SOL    HW129861   4.134   3.430   4.198
 9654SOL    HW229862   4.114   3.562   4.293
 9655SOL     OW29863   4.825   0.751   0.806
 9655SOL    HW129864   4.813   0.850   0.816
 9655SOL    HW229865   4.741   0.712   0.770
 9656SOL     OW29866   5.260   4.566   6.028
 9656SOL    HW129867   5.289   4.598   5.937
 9656SOL    HW229868   5.210   4.639   6.074
 9657SOL     OW29869   4.816   5.108   2.868
 9657SOL    HW129870   4.904   5.068   2.843
 9657SOL    HW229871   4.828   5.205   2.888
 9658SOL     OW29872   5.516   0.717   2.614
 9658SOL    HW129873   5.525   0.643   2.681
 9658SOL    HW229874   5.588   0.785   2.630
 9659SOL     OW29875   2.952   2.757   0.254
 9659SOL    HW129876   2.854   2.751   0.269
 9659SOL    HW229877   2.985   2.847   0.282
 9660SOL     OW29878   2.525   0.103   1.608
 9660SOL    HW129879   2.453   0.098   1.540
 9660SOL    HW229880   2.614   0.103   1.562
 9661SOL     OW29881   4.117   3.642   2.068
 9661SOL    HW129882   4.030   3.610   2.106
 9661SOL    HW229883   4.164   3.565   2.024
 9662SOL     OW29884   4.388   0.361   5.305
 9662SOL    HW129885   4.314   0.422   5.333
 9662SOL    HW229886   4.377   0.272   5.348
 9663SOL     OW29887   1.024   5.842   2.671
 9663SOL    HW129888   0.939   5.802   2.706
 9663SOL    HW229889   1.028   5.939   2.694
 9664SOL     OW29890   2.045   4.631   3.393
 9664SOL    HW129891   1.991   4.598   3.315
 9664SOL    HW229892   2.056   4.557   3.459
 9665SOL     OW29893   6.694   4.530   6.389
 9665SOL    HW129894   6.772   4.483   6.348
 9665SOL    HW229895   6.614   4.471   6.386
 9666SOL     OW29896   5.461   3.244   0.817
 9666SOL    HW129897   5.522   3.170   0.790
 9666SOL    HW229898   5.481   3.325   0.763
 9667SOL     OW29899   5.491   6.377   6.367
 9667SOL    HW129900   5.429   6.425   6.429
 9667SOL    HW229901   5.580   6.365   6.411
 9668SOL     OW29902   2.539   0.508   7.018
 9668SOL    HW129903   2.495   0.515   6.929
 9668SOL    HW229904   2.472   0.523   0.060
 9669SOL     OW29905   3.810   0.640   6.811
 9669SOL    HW129906   3.845   0.556   6.771
 9669SOL    HW229907   3.840   0.647   6.906
 9670SOL     OW29908   0.776   0.599   1.668
 9670SOL    HW129909   0.739   0.507   1.655
 9670SOL    HW229910   0.798   0.640   1.580
 9671SOL     OW29911   0.752   6.236   6.569
 9671SOL    HW129912   0.748   6.142   6.535
 9671SOL    HW229913   0.702   6.242   6.656
 9672SOL     OW29914   0.849   3.718   4.580
 9672SOL    HW129915   0.803   3.673   4.504
 9672SOL    HW229916   0.795   3.796   4.611
 9673SOL     OW29917   2.685   3.014   6.200
 9673SOL    HW129918   2.663   3.015   6.297
 9673SOL    HW229919   2.784   3.015   6.188
 9674SOL     OW29920   2.117   6.944   4.085
 9674SOL    HW129921   2.149   7.015   4.022
 9674SOL    HW229922   2.159   6.958   4.175
 9675SOL     OW29923   5.993   3.929   5.703
 9675SOL    HW129924   5.948   3.862   5.762
 9675SOL    HW229925   6.060   3.980   5.757
 9676SOL     OW29926   1.203   3.332   5.885
 9676SOL    HW129927   1.235   3.406   5.826
 9676SOL    HW229928   1.213   3.245   5.837
 9677SOL     OW29929   0.405   4.648   2.576
 9677SOL    HW129930   0.314   4.646   2.534
 9677SOL    HW229931   0.460   4.573   2.539
 9678SOL     OW29932   4.316   2.814   5.975
 9678SOL    HW129933   4.307   2.876   5.896
 9678SOL    HW229934   4.412   2.807   6.000
 9679SOL     OW29935   1.183   1.003   3.849
 9679SOL    HW129936   1.102   1.050   3.884
 9679SOL    HW229937   1.260   1.017   3.912
 9680SOL     OW29938   4.807   0.404   2.202
 9680SOL    HW129939   4.818   0.306   2.216
 9680SOL    HW229940   4.775   0.421   2.109
 9681SOL     OW29941   0.813   3.505   1.246
 9681SOL    HW129942   0.731   3.537   1.294
 9681SOL    HW229943   0.848   3.423   1.292
 9682SOL     OW29944   4.205   6.519   5.424
 9682SOL    HW129945   4.151   6.488   5.346
 9682SOL    HW229946   4.302   6.511   5.403
 9683SOL     OW29947   3.408   6.105   3.955
 9683SOL    HW129948   3.421   6.199   3.925
 9683SOL    HW229949   3.316   6.093   3.991
 9684SOL     OW29950   0.611   2.769   6.290
 9684SOL    HW129951   0.591   2.687   6.344
 9684SOL    HW229952   0.593   2.750   6.194
 9685SOL     OW29953   3.578   4.384   1.701
 9685SOL    HW129954   3.576   4.465   1.759
 9685SOL    HW229955   3.499   4.326   1.721
 9686SOL     OW29956   0.447   1.746   5.840
 9686SOL    HW129957   0.431   1.743   5.742
 9686SOL    HW229958   0.360   1.736   5.889
 9687SOL     OW29959   5.191   1.863   3.920
 9687SOL    HW129960   5.103   1.866   3.968
 9687SOL    HW229961   5.197   1.778   3.868
 9688SOL     OW29962   0.048   5.117   1.695
 9688SOL    HW129963   0.077   5.022   1.691
 9688SOL    HW229964   7.028   5.133   1.780
 9689SOL     OW29965   1.750   5.374   1.671
 9689SOL    HW129966   1.660   5.415   1.655
 9689SOL    HW229967   1.809   5.390   1.592
 9690SOL     OW29968   5.932   4.591   4.897
 9690SOL    HW129969   5.856   4.552   4.949
 9690SOL    HW229970   5.996   4.518   4.872
 9691SOL     OW29971   3.812   3.319   2.159
 9691SOL    HW129972   3.842   3.257   2.087
 9691SOL    HW229973   3.714   3.335   2.152
 9692SOL     OW29974   4.999   4.666   0.571
 9692SOL    HW129975   5.091   4.692   0.598
 9692SOL    HW229976   4.997   4.650   0.472
 9693SOL     OW29977   4.450   3.000   6.526
 9693SOL    HW129978   4.373   2.963   6.578
 9693SOL    HW229979   4.420   3.082   6.476
 9694SOL     OW29980   2.378   6.519   1.297
 9694SOL    HW129981   2.280   6.529   1.276
 9694SOL    HW229982   2.393   6.536   1.394
 9695SOL     OW29983   2.012   2.306   3.795
 9695SOL    HW129984   2.004   2.373   3.722
 9695SOL    HW229985   2.107   2.276   3.803
 9696SOL     OW29986   4.951   3.296   3.331
 9696SOL    HW129987   5.031   3.241   3.307
 9696SOL    HW229988   4.876   3.275   3.268
 9697SOL     OW29989   0.004   6.840   1.555
 9697SOL    HW129990   6.988   6.762   1.513
 9697SOL    HW229991   0.102   6.835   1.538
 9698SOL     OW29992   6.646   3.572   1.856
 9698SOL    HW129993   6.605   3.663   1.863
 9698SOL    HW229994   6.655   3.532   1.947
 9699SOL     OW29995   1.498   6.306   2.128
 9699SOL    HW129996   1.430   6.368   2.088
 9699SOL    HW229997   1.490   6.309   2.228
 9700SOL     OW29998   6.586   0.447   6.122
 9700SOL    HW129999   6.546   0.416   6.036
 9700SOL    HW230000   6.615   0.542   6.112
 9701SOL     OW30001   5.525   3.942   6.635
 9701SOL    HW130002   5.456   3.983   6.575
 9701SOL    HW230003   5.487   3.860   6.678
 9702SOL     OW30004   3.303   3.945   1.745
 9702SOL    HW130005   3.386   3.890   1.747
 9702SOL    HW230006   3.227   3.891   1.711
 9703SOL     OW30007   6.542   5.252   2.849
 9703SOL    HW130008   6.552   5.351   2.835
 9703SOL    HW230009   6.495   5.212   2.770
 9704SOL     OW30010   0.755   4.122   1.938
 9704SOL    HW130011   0.745   4.219   1.960
 9704SOL    HW230012   0.848   4.104   1.908
 9705SOL     OW30013   0.275   3.705   6.071
 9705SOL    HW130014   0.245   3.784   6.019
 9705SOL    HW230015   0.336   3.734   6.145
 9706SOL     OW30016   1.498   6.557   1.915
 9706SOL    HW130017   1.423   6.516   1.968
 9706SOL    HW230018   1.488   6.657   1.916
 9707SOL     OW30019   0.864   5.036   2.198
 9707SOL    HW130020   0.954   5.058   2.236
 9707SOL    HW230021   0.808   5.119   2.195
 9708SOL     OW30022   2.831   1.278   2.177
 9708SOL    HW130023   2.901   1.206   2.186
 9708SOL    HW230024   2.868   1.352   2.121
 9709SOL     OW30025   4.620   1.572   1.729
 9709SOL    HW130026   4.573   1.653   1.764
 9709SOL    HW230027   4.553   1.506   1.696
 9710SOL     OW30028   4.633   4.335   4.441
 9710SOL    HW130029   4.702   4.324   4.513
 9710SOL    HW230030   4.654   4.274   4.365
 9711SOL     OW30031   2.949   1.003   6.668
 9711SOL    HW130032   2.904   0.914   6.656
 9711SOL    HW230033   3.048   0.991   6.661
 9712SOL     OW30034   5.180   6.608   5.071
 9712SOL    HW130035   5.149   6.514   5.059
 9712SOL    HW230036   5.214   6.644   4.984
 9713SOL     OW30037   1.638   0.800   3.019
 9713SOL    HW130038   1.606   0.889   2.987
 9713SOL    HW230039   1.683   0.810   3.108
 9714SOL     OW30040   2.367   2.745   4.252
 9714SOL    HW130041   2.402   2.817   4.193
 9714SOL    HW230042   2.282   2.709   4.215
 9715SOL     OW30043   0.009   1.967   5.912
 9715SOL    HW130044   0.097   2.009   5.934
 9715SOL    HW230045   6.965   2.029   5.937
 9716SOL     OW30046   2.133   6.588   1.241
 9716SOL    HW130047   2.115   6.639   1.157
 9716SOL    HW230048   2.056   6.526   1.259
 9717SOL     OW30049   3.844   2.454   5.745
 9717SOL    HW130050   3.813   2.498   5.830
 9717SOL    HW230051   3.852   2.356   5.759
 9718SOL     OW30052   3.415   2.449   6.739
 9718SOL    HW130053   3.440   2.352   6.744
 9718SOL    HW230054   3.320   2.458   6.709
 9719SOL     OW30055   4.094   0.045   5.476
 9719SOL    HW130056   4.074   0.142   5.458
 9719SOL    HW230057   4.028   0.009   5.542
 9720SOL     OW30058   1.873   2.932   2.496
 9720SOL    HW130059   1.799   2.877   2.456
 9720SOL    HW230060   1.885   2.906   2.592
 9721SOL     OW30061   1.192   2.128   1.605
 9721SOL    HW130062   1.188   2.118   1.505
 9721SOL    HW230063   1.141   2.053   1.647
 9722SOL     OW30064   3.834   2.639   5.352
 9722SOL    HW130065   3.924   2.623   5.311
 9722SOL    HW230066   3.845   2.677   5.444
 9723SOL     OW30067   5.896   0.351   4.918
 9723SOL    HW130068   5.953   0.320   4.994
 9723SOL    HW230069   5.810   0.300   4.918
 9724SOL     OW30070   2.067   4.974   1.207
 9724SOL    HW130071   2.044   4.978   1.305
 9724SOL    HW230072   2.156   5.017   1.192
 9725SOL     OW30073   5.457   5.593   3.775
 9725SOL    HW130074   5.444   5.517   3.711
 9725SOL    HW230075   5.372   5.645   3.782
 9726SOL     OW30076   6.973   0.172   3.440
 9726SOL    HW130077   6.916   0.185   3.521
 9726SOL    HW230078   6.943   0.234   3.367
 9727SOL     OW30079   5.959   2.719   1.600
 9727SOL    HW130080   5.937   2.624   1.576
 9727SOL    HW230081   6.058   2.729   1.608
 9728SOL     OW30082   5.687   1.996   4.802
 9728SOL    HW130083   5.708   1.899   4.817
 9728SOL    HW230084   5.772   2.047   4.787
 9729SOL     OW30085   0.650   3.626   2.686
 9729SOL    HW130086   0.748   3.608   2.676
 9729SOL    HW230087   0.633   3.679   2.769
 9730SOL     OW30088   0.941   5.245   3.435
 9730SOL    HW130089   0.923   5.192   3.518
 9730SOL    HW230090   1.011   5.313   3.453
 9731SOL     OW30091   0.095   2.024   1.522
 9731SOL    HW130092   0.030   2.099   1.515
 9731SOL    HW230093   0.063   1.946   1.468
 9732SOL     OW30094   0.751   3.000   3.344
 9732SOL    HW130095   0.710   3.087   3.369
 9732SOL    HW230096   0.788   2.955   3.426
 9733SOL     OW30097   5.908   5.389   1.124
 9733SOL    HW130098   5.857   5.305   1.143
 9733SOL    HW230099   5.901   5.411   1.027
 9734SOL     OW30100   4.028   4.222   6.861
 9734SOL    HW130101   3.984   4.206   6.949
 9734SOL    HW230102   3.988   4.302   6.817
 9735SOL     OW30103   1.142   1.550   0.379
 9735SOL    HW130104   1.062   1.501   0.345
 9735SOL    HW230105   1.179   1.609   0.306
 9736SOL     OW30106   5.001   2.109   5.477
 9736SOL    HW130107   5.092   2.141   5.502
 9736SOL    HW230108   4.937   2.185   5.480
 9737SOL     OW30109   5.345   3.212   4.917
 9737SOL    HW130110   5.439   3.245   4.916
 9737SOL    HW230111   5.291   3.265   4.852
 9738SOL     OW30112   1.954   6.299   1.612
 9738SOL    HW130113   2.049   6.269   1.608
 9738SOL    HW230114   1.901   6.235   1.669
 9739SOL     OW30115   5.520   6.720   0.012
 9739SOL    HW130116   5.540   6.756   6.951
 9739SOL    HW230117   5.581   6.762   0.079
 9740SOL     OW30118   6.569   0.794   1.174
 9740SOL    HW130119   6.649   0.847   1.147
 9740SOL    HW230120   6.522   0.841   1.248
 9741SOL     OW30121   2.495   2.417   3.648
 9741SOL    HW130122   2.575   2.391   3.702
 9741SOL    HW230123   2.483   2.516   3.652
 9742SOL     OW30124   4.302   1.161   6.763
 9742SOL    HW130125   4.327   1.128   6.854
 9742SOL    HW230126   4.378   1.213   6.725
 9743SOL     OW30127   6.722   3.361   4.724
 9743SOL    HW130128   6.720   3.445   4.778
 9743SOL    HW230129   6.813   3.349   4.684
 9744SOL     OW30130   1.487   2.822   2.675
 9744SOL    HW130131   1.444   2.743   2.631
 9744SOL    HW230132   1.444   2.906   2.643
 9745SOL     OW30133   1.097   6.368   6.323
 9745SOL    HW130134   1.176   6.366   6.262
 9745SOL    HW230135   1.093   6.282   6.375
 9746SOL     OW30136   3.138   6.627   6.141
 9746SOL    HW130137   3.050   6.580   6.134
 9746SOL    HW230138   3.127   6.723   6.116
 9747SOL     OW30139   4.119   1.482   3.218
 9747SOL    HW130140   4.027   1.516   3.196
 9747SOL    HW230141   4.150   1.421   3.145
 9748SOL     OW30142   0.702   1.996   3.161
 9748SOL    HW130143   0.640   2.074   3.162
 9748SOL    HW230144   0.756   1.993   3.245
 9749SOL     OW30145   6.749   0.197   1.474
 9749SOL    HW130146   6.812   0.209   1.550
 9749SOL    HW230147   6.794   0.221   1.388
 9750SOL     OW30148   5.534   2.527   5.032
 9750SOL    HW130149   5.516   2.568   4.942
 9750SOL    HW230150   5.454   2.539   5.091
 9751SOL     OW30151   2.968   6.399   0.874
 9751SOL    HW130152   3.048   6.397   0.813
 9751SOL    HW230153   2.886   6.374   0.822
 9752SOL     OW30154   3.659   3.556   0.521
 9752SOL    HW130155   3.675   3.610   0.604
 9752SOL    HW230156   3.624   3.466   0.547
 9753SOL     OW30157   6.736   6.071   3.145
 9753SOL    HW130158   6.770   6.106   3.232
 9753SOL    HW230159   6.695   6.146   3.093
 9754SOL     OW30160   3.512   1.402   2.072
 9754SOL    HW130161   3.583   1.429   2.137
 9754SOL    HW230162   3.554   1.358   1.993
 9755SOL     OW30163   3.253   3.845   1.069
 9755SOL    HW130164   3.346   3.860   1.036
 9755SOL    HW230165   3.229   3.748   1.059
 9756SOL     OW30166   5.340   7.020   6.800
 9756SOL    HW130167   5.256   0.032   6.768
 9756SOL    HW230168   5.349   6.929   6.760
 9757SOL     OW30169   5.488   3.730   4.463
 9757SOL    HW130170   5.478   3.786   4.381
 9757SOL    HW230171   5.585   3.712   4.479
 9758SOL     OW30172   3.181   0.854   2.564
 9758SOL    HW130173   3.207   0.939   2.517
 9758SOL    HW230174   3.239   0.841   2.644
 9759SOL     OW30175   0.218   2.312   0.917
 9759SOL    HW130176   0.204   2.247   0.842
 9759SOL    HW230177   0.173   2.279   0.999
 9760SOL     OW30178   4.423   0.668   5.840
 9760SOL    HW130179   4.382   0.577   5.845
 9760SOL    HW230180   4.487   0.671   5.763
 9761SOL     OW30181   1.037   1.806   1.614
 9761SOL    HW130182   1.013   1.841   1.524
 9761SOL    HW230183   0.967   1.740   1.644
 9762SOL     OW30184   3.837   1.027   6.197
 9762SOL    HW130185   3.928   1.029   6.239
 9762SOL    HW230186   3.802   0.933   6.199
 9763SOL     OW30187   6.188   2.205   0.963
 9763SOL    HW130188   6.129   2.160   0.895
 9763SOL    HW230189   6.180   2.157   1.050
 9764SOL     OW30190   0.517   2.739   2.843
 9764SOL    HW130191   0.498   2.641   2.845
 9764SOL    HW230192   0.580   2.759   2.768
 9765SOL     OW30193   6.773   1.974   1.395
 9765SOL    HW130194   6.684   1.937   1.368
 9765SOL    HW230195   6.769   2.003   1.490
 9766SOL     OW30196   0.229   2.738   2.934
 9766SOL    HW130197   0.177   2.655   2.915
 9766SOL    HW230198   0.291   2.756   2.858
 9767SOL     OW30199   3.479   1.435   5.020
 9767SOL    HW130200   3.478   1.534   5.010
 9767SOL    HW230201   3.508   1.411   5.113
 9768SOL     OW30202   4.910   2.008   6.791
 9768SOL    HW130203   4.945   2.095   6.757
 9768SOL    HW230204   4.974   1.969   6.857
 9769SOL     OW30205   3.577   1.346   5.264
 9769SOL    HW130206   3.610   1.428   5.313
 9769SOL    HW230207   3.654   1.284   5.249
 9770SOL     OW30208   1.972   3.352   5.075
 9770SOL    HW130209   1.985   3.450   5.082
 9770SOL    HW230210   1.884   3.333   5.031
 9771SOL     OW30211   3.162   0.929   2.193
 9771SOL    HW130212   3.247   0.938   2.245
 9771SOL    HW230213   3.151   0.834   2.164
 9772SOL     OW30214   0.403   0.382   2.036
 9772SOL    HW130215   0.407   0.479   2.015
 9772SOL    HW230216   0.330   0.339   1.983
 9773SOL     OW30217   5.803   6.473   2.143
 9773SOL    HW130218   5.762   6.542   2.083
 9773SOL    HW230219   5.892   6.506   2.175
 9774SOL     OW30220   1.964   5.720   4.391
 9774SOL    HW130221   1.992   5.808   4.430
 9774SOL    HW230222   1.941   5.657   4.465
 9775SOL     OW30223   1.313   1.365   2.968
 9775SOL    HW130224   1.359   1.293   2.916
 9775SOL    HW230225   1.310   1.449   2.913
 9776SOL     OW30226   1.887   5.498   1.450
 9776SOL    HW130227   1.848   5.566   1.387
 9776SOL    HW230228   1.980   5.526   1.475
 9777SOL     OW30229   4.345   1.688   5.323
 9777SOL    HW130230   4.286   1.767   5.337
 9777SOL    HW230231   4.327   1.620   5.395
 9778SOL     OW30232   1.704   3.538   2.895
 9778SOL    HW130233   1.654   3.604   2.840
 9778SOL    HW230234   1.789   3.513   2.850
 9779SOL     OW30235   2.998   0.470   3.366
 9779SOL    HW130236   3.029   0.377   3.347
 9779SOL    HW230237   3.074   0.534   3.352
 9780SOL     OW30238   0.839   1.417   0.802
 9780SOL    HW130239   0.825   1.385   0.708
 9780SOL    HW230240   0.757   1.464   0.834
 9781SOL     OW30241   1.345   1.270   2.167
 9781SOL    HW130242   1.415   1.337   2.144
 9781SOL    HW230243   1.389   1.186   2.200
 9782SOL     OW30244   0.089   2.706   0.441
 9782SOL    HW130245   0.091   2.695   0.342
 9782SOL    HW230246   0.181   2.693   0.478
 9783SOL     OW30247   5.169   1.882   2.500
 9783SOL    HW130248   5.076   1.880   2.537
 9783SOL    HW230249   5.195   1.790   2.470
 9784SOL     OW30250   1.990   1.543   0.591
 9784SOL    HW130251   1.978   1.570   0.496
 9784SOL    HW230252   2.055   1.604   0.636
 9785SOL     OW30253   1.685   3.517   4.841
 9785SOL    HW130254   1.728   3.534   4.752
 9785SOL    HW230255   1.710   3.426   4.873
 9786SOL     OW30256   2.791   4.724   6.970
 9786SOL    HW130257   2.815   4.821   6.957
 9786SOL    HW230258   2.802   4.700   0.037
 9787SOL     OW30259   2.738   3.410   1.295
 9787SOL    HW130260   2.696   3.319   1.300
 9787SOL    HW230261   2.705   3.466   1.371
 9788SOL     OW30262   2.834   0.062   2.846
 9788SOL    HW130263   2.805   7.015   2.789
 9788SOL    HW230264   2.907   0.112   2.799
 9789SOL     OW30265   4.337   1.686   0.946
 9789SOL    HW130266   4.421   1.694   1.000
 9789SOL    HW230267   4.357   1.641   0.859
 9790SOL     OW30268   4.628   5.962   4.570
 9790SOL    HW130269   4.535   5.986   4.597
 9790SOL    HW230270   4.691   5.980   4.646
 9791SOL     OW30271   0.623   0.733   1.334
 9791SOL    HW130272   0.604   0.831   1.341
 9791SOL    HW230273   0.698   0.709   1.396
 9792SOL     OW30274   3.697   4.298   0.837
 9792SOL    HW130275   3.730   4.215   0.792
 9792SOL    HW230276   3.635   4.346   0.776
 9793SOL     OW30277   5.935   1.247   2.481
 9793SOL    HW130278   5.881   1.305   2.420
 9793SOL    HW230279   5.925   1.280   2.575
 9794SOL     OW30280   3.618   5.348   4.670
 9794SOL    HW130281   3.669   5.311   4.593
 9794SOL    HW230282   3.671   5.421   4.713
 9795SOL     OW30283   1.747   3.942   3.112
 9795SOL    HW130284   1.756   3.844   3.128
 9795SOL    HW230285   1.819   3.991   3.162
 9796SOL     OW30286   3.402   4.140   4.655
 9796SOL    HW130287   3.480   4.179   4.606
 9796SOL    HW230288   3.419   4.146   4.754
 9797SOL     OW30289   3.282   5.820   0.324
 9797SOL    HW130290   3.281   5.721   0.312
 9797SOL    HW230291   3.367   5.857   0.286
 9798SOL     OW30292   6.914   4.323   6.388
 9798SOL    HW130293   6.983   4.355   6.453
 9798SOL    HW230294   6.935   4.229   6.360
 9799SOL     OW30295   3.953   6.482   6.618
 9799SOL    HW130296   3.868   6.506   6.664
 9799SOL    HW230297   3.967   6.383   6.623
 9800SOL     OW30298   6.181   4.705   4.982
 9800SOL    HW130299   6.088   4.675   4.960
 9800SOL    HW230300   6.186   4.730   5.079
 9801SOL     OW30301   4.172   6.589   0.770
 9801SOL    HW130302   4.143   6.642   0.850
 9801SOL    HW230303   4.203   6.651   0.698
 9802SOL     OW30304   3.975   3.440   0.167
 9802SOL    HW130305   3.890   3.391   0.186
 9802SOL    HW230306   3.994   3.438   0.069
 9803SOL     OW30307   2.056   3.530   6.488
 9803SOL    HW130308   2.108   3.527   6.574
 9803SOL    HW230309   2.110   3.487   6.415
 9804SOL     OW30310   1.154   4.521   2.751
 9804SOL    HW130311   1.235   4.525   2.810
 9804SOL    HW230312   1.113   4.612   2.746
 9805SOL     OW30313   0.286   5.775   4.539
 9805SOL    HW130314   0.317   5.697   4.484
 9805SOL    HW230315   0.254   5.848   4.478
 9806SOL     OW30316   3.556   1.536   6.853
 9806SOL    HW130317   3.609   1.484   6.921
 9806SOL    HW230318   3.606   1.619   6.829
 9807SOL     OW30319   3.763   3.024   3.825
 9807SOL    HW130320   3.803   2.986   3.742
 9807SOL    HW230321   3.667   2.996   3.831
 9808SOL     OW30322   3.099   5.759   2.227
 9808SOL    HW130323   3.133   5.674   2.269
 9808SOL    HW230324   3.013   5.740   2.180
 9809SOL     OW30325   5.860   2.377   0.970
 9809SOL    HW130326   5.789   2.442   0.942
 9809SOL    HW230327   5.855   2.364   1.069
 9810SOL     OW30328   2.870   3.172   0.806
 9810SOL    HW130329   2.907   3.241   0.869
 9810SOL    HW230330   2.790   3.209   0.759
 9811SOL     OW30331   5.390   3.540   4.197
 9811SOL    HW130332   5.320   3.564   4.265
 9811SOL    HW230333   5.475   3.515   4.244
 9812SOL     OW30334   3.448   5.915   6.531
 9812SOL    HW130335   3.507   5.933   6.610
 9812SOL    HW230336   3.479   5.970   6.454
 9813SOL     OW30337   3.938   0.774   2.067
 9813SOL    HW130338   3.998   0.717   2.123
 9813SOL    HW230339   3.984   0.797   1.981
 9814SOL     OW30340   6.393   1.826   6.180
 9814SOL    HW130341   6.466   1.895   6.182
 9814SOL    HW230342   6.426   1.745   6.132
 9815SOL     OW30343   4.518   2.610   4.686
 9815SOL    HW130344   4.490   2.673   4.759
 9815SOL    HW230345   4.592   2.652   4.632
 9816SOL     OW30346   3.060   1.184   0.014
 9816SOL    HW130347   3.156   1.175   7.021
 9816SOL    HW230348   3.016   1.094   0.012
 9817SOL     OW30349   6.746   0.626   1.616
 9817SOL    HW130350   6.714   0.588   1.703
 9817SOL    HW230351   6.676   0.615   1.546
 9818SOL     OW30352   3.518   2.652   5.332
 9818SOL    HW130353   3.544   2.710   5.409
 9818SOL    HW230354   3.586   2.581   5.319
 9819SOL     OW30355   3.062   0.699   1.881
 9819SOL    HW130356   3.095   0.677   1.789
 9819SOL    HW230357   3.093   0.628   1.944
 9820SOL     OW30358   3.831   2.668   6.987
 9820SOL    HW130359   3.731   2.671   6.978
 9820SOL    HW230360   3.857   2.688   0.051
 9821SOL     OW30361   6.675   5.217   0.040
 9821SOL    HW130362   6.645   5.191   6.978
 9821SOL    HW230363   6.596   5.243   0.095
 9822SOL     OW30364   0.106   0.645   2.660
 9822SOL    HW130365   0.053   0.563   2.641
 9822SOL    HW230366   0.159   0.670   2.578
 9823SOL     OW30367   3.394   6.585   2.013
 9823SOL    HW130368   3.490   6.608   1.997
 9823SOL    HW230369   3.349   6.567   1.925
 9824SOL     OW30370   1.491   4.191   6.089
 9824SOL    HW130371   1.401   4.230   6.069
 9824SOL    HW230372   1.542   4.253   6.147
 9825SOL     OW30373   4.403   5.320   5.070
 9825SOL    HW130374   4.457   5.353   5.146
 9825SOL    HW230375   4.422   5.223   5.055
 9826SOL     OW30376   5.912   6.392   5.187
 9826SOL    HW130377   5.845   6.425   5.121
 9826SOL    HW230378   5.998   6.371   5.140
 9827SOL     OW30379   0.790   5.043   4.958
 9827SOL    HW130380   0.705   5.085   4.991
 9827SOL    HW230381   0.768   4.975   4.889
 9828SOL     OW30382   1.985   2.129   0.029
 9828SOL    HW130383   1.922   2.096   6.989
 9828SOL    HW230384   2.039   2.205   7.022
 9829SOL     OW30385   2.553   4.393   1.235
 9829SOL    HW130386   2.482   4.450   1.275
 9829SOL    HW230387   2.617   4.365   1.307
 9830SOL     OW30388   6.949   1.419   0.910
 9830SOL    HW130389   6.966   1.512   0.940
 9830SOL    HW230390   6.959   1.356   0.987
 9831SOL     OW30391   5.795   6.837   1.484
 9831SOL    HW130392   5.844   6.917   1.449
 9831SOL    HW230393   5.758   6.784   1.407
 9832SOL     OW30394   3.880   4.260   1.022
 9832SOL    HW130395   3.952   4.328   1.036
 9832SOL    HW230396   3.829   4.282   0.939
 9833SOL     OW30397   4.518   4.377   6.233
 9833SOL    HW130398   4.432   4.401   6.188
 9833SOL    HW230399   4.530   4.432   6.315
 9834SOL     OW30400   2.081   1.968   4.079
 9834SOL    HW130401   2.079   2.062   4.112
 9834SOL    HW230402   2.175   1.941   4.060
 9835SOL     OW30403   5.713   1.136   4.838
 9835SOL    HW130404   5.634   1.169   4.786
 9835SOL    HW230405   5.796   1.179   4.802
 9836SOL     OW30406   4.775   5.294   1.454
 9836SOL    HW130407   4.701   5.271   1.391
 9836SOL    HW230408   4.740   5.356   1.525
 9837SOL     OW30409   2.244   6.357   5.504
 9837SOL    HW130410   2.148   6.354   5.531
 9837SOL    HW230411   2.259   6.292   5.430
 9838SOL     OW30412   6.740   5.983   4.885
 9838SOL    HW130413   6.730   5.967   4.786
 9838SOL    HW230414   6.829   5.950   4.915
 9839SOL     OW30415   6.242   2.703   2.569
 9839SOL    HW130416   6.209   2.693   2.475
 9839SOL    HW230417   6.209   2.790   2.606
 9840SOL     OW30418   5.811   0.304   0.389
 9840SOL    HW130419   5.808   0.301   0.289
 9840SOL    HW230420   5.728   0.349   0.423
 9841SOL     OW30421   2.289   2.999   3.995
 9841SOL    HW130422   2.266   3.090   3.961
 9841SOL    HW230423   2.257   2.990   4.090
 9842SOL     OW30424   3.074   3.581   3.943
 9842SOL    HW130425   3.038   3.593   3.850
 9842SOL    HW230426   3.070   3.484   3.968
 9843SOL     OW30427   5.999   4.609   3.191
 9843SOL    HW130428   5.921   4.551   3.168
 9843SOL    HW230429   6.080   4.576   3.144
 9844SOL     OW30430   5.303   0.266   2.048
 9844SOL    HW130431   5.307   0.259   2.148
 9844SOL    HW230432   5.390   0.301   2.014
 9845SOL     OW30433   1.472   1.517   3.126
 9845SOL    HW130434   1.398   1.458   3.095
 9845SOL    HW230435   1.495   1.583   3.054
 9846SOL     OW30436   2.924   3.639   3.674
 9846SOL    HW130437   2.953   3.687   3.591
 9846SOL    HW230438   2.873   3.702   3.732
 9847SOL     OW30439   1.936   4.448   4.969
 9847SOL    HW130440   1.844   4.467   4.934
 9847SOL    HW230441   1.956   4.510   5.044
 9848SOL     OW30442   5.833   3.535   0.148
 9848SOL    HW130443   5.841   3.450   0.095
 9848SOL    HW230444   5.744   3.576   0.132
 9849SOL     OW30445   0.063   6.304   5.594
 9849SOL    HW130446   0.101   6.362   5.667
 9849SOL    HW230447   0.084   6.208   5.613
 9850SOL     OW30448   4.471   0.147   2.855
 9850SOL    HW130449   4.487   0.226   2.914
 9850SOL    HW230450   4.437   0.178   2.766
 9851SOL     OW30451   5.560   3.274   5.262
 9851SOL    HW130452   5.588   3.356   5.310
 9851SOL    HW230453   5.486   3.229   5.312
 9852SOL     OW30454   5.637   1.798   4.383
 9852SOL    HW130455   5.626   1.866   4.456
 9852SOL    HW230456   5.548   1.759   4.361
 9853SOL     OW30457   0.423   4.798   1.279
 9853SOL    HW130458   0.502   4.763   1.329
 9853SOL    HW230459   0.425   4.898   1.280
 9854SOL     OW30460   4.001   5.982   3.730
 9854SOL    HW130461   4.004   5.894   3.777
 9854SOL    HW230462   3.999   5.967   3.631
 9855SOL     OW30463   1.799   3.734   0.829
 9855SOL    HW130464   1.875   3.799   0.837
 9855SOL    HW230465   1.834   3.641   0.834
 9856SOL     OW30466   3.560   3.053   1.100
 9856SOL    HW130467   3.464   3.077   1.083
 9856SOL    HW230468   3.606   3.036   1.014
 9857SOL     OW30469   6.679   4.218   3.097
 9857SOL    HW130470   6.703   4.171   3.012
 9857SOL    HW230471   6.649   4.311   3.076
 9858SOL     OW30472   3.699   1.540   1.299
 9858SOL    HW130473   3.784   1.589   1.280
 9858SOL    HW230474   3.706   1.447   1.264
 9859SOL     OW30475   0.073   0.232   1.254
 9859SOL    HW130476   0.104   0.273   1.168
 9859SOL    HW230477   7.008   0.258   1.271
 9860SOL     OW30478   0.608   0.764   2.315
 9860SOL    HW130479   0.689   0.716   2.282
 9860SOL    HW230480   0.548   0.700   2.363
 9861SOL     OW30481   3.056   6.493   4.579
 9861SOL    HW130482   2.966   6.458   4.607
 9861SOL    HW230483   3.077   6.461   4.487
 9862SOL     OW30484   0.472   2.377   0.997
 9862SOL    HW130485   0.538   2.304   1.011
 9862SOL    HW230486   0.390   2.340   0.953
 9863SOL     OW30487   3.354   0.122   0.417
 9863SOL    HW130488   3.390   0.028   0.420
 9863SOL    HW230489   3.402   0.173   0.345
 9864SOL     OW30490   4.624   6.033   2.981
 9864SOL    HW130491   4.626   5.990   2.891
 9864SOL    HW230492   4.612   6.131   2.971
 9865SOL     OW30493   1.818   2.525   4.035
 9865SOL    HW130494   1.818   2.592   3.961
 9865SOL    HW230495   1.743   2.546   4.098
 9866SOL     OW30496   3.231   5.533   3.645
 9866SOL    HW130497   3.221   5.440   3.678
 9866SOL    HW230498   3.307   5.578   3.692
 9867SOL     OW30499   4.356   0.307   6.443
 9867SOL    HW130500   4.286   0.235   6.451
 9867SOL    HW230501   4.329   0.372   6.372
 9868SOL     OW30502   0.628   5.129   5.981
 9868SOL    HW130503   0.627   5.046   5.926
 9868SOL    HW230504   0.722   5.155   6.003
 9869SOL     OW30505   1.359   4.104   2.813
 9869SOL    HW130506   1.414   4.184   2.788
 9869SOL    HW230507   1.418   4.032   2.848
 9870SOL     OW30508   4.453   4.534   1.892
 9870SOL    HW130509   4.476   4.439   1.911
 9870SOL    HW230510   4.489   4.559   1.802
 9871SOL     OW30511   1.496   1.991   5.858
 9871SOL    HW130512   1.572   1.946   5.810
 9871SOL    HW230513   1.413   1.981   5.803
 9872SOL     OW30514   1.458   4.283   3.345
 9872SOL    HW130515   1.426   4.377   3.359
 9872SOL    HW230516   1.433   4.252   3.254
 9873SOL     OW30517   1.452   2.093   0.412
 9873SOL    HW130518   1.501   2.097   0.325
 9873SOL    HW230519   1.518   2.100   0.488
 9874SOL     OW30520   1.124   3.690   4.538
 9874SOL    HW130521   1.179   3.774   4.540
 9874SOL    HW230522   1.030   3.711   4.566
 9875SOL     OW30523   0.906   1.124   2.550
 9875SOL    HW130524   0.814   1.139   2.587
 9875SOL    HW230525   0.974   1.146   2.620
 9876SOL     OW30526   6.615   5.191   2.260
 9876SOL    HW130527   6.648   5.284   2.243
 9876SOL    HW230528   6.521   5.195   2.295
 9877SOL     OW30529   3.640   6.749   1.492
 9877SOL    HW130530   3.585   6.751   1.409
 9877SOL    HW230531   3.595   6.803   1.563
 9878SOL     OW30532   0.796   0.291   5.274
 9878SOL    HW130533   0.815   0.389   5.271
 9878SOL    HW230534   0.835   0.252   5.357
 9879SOL     OW30535   5.801   5.986   5.121
 9879SOL    HW130536   5.882   5.991   5.181
 9879SOL    HW230537   5.724   5.950   5.173
 9880SOL     OW30538   1.697   1.477   4.023
 9880SOL    HW130539   1.718   1.381   4.035
 9880SOL    HW230540   1.606   1.497   4.060
 9881SOL     OW30541   6.971   1.493   5.925
 9881SOL    HW130542   0.005   1.443   5.983
 9881SOL    HW230543   6.999   1.482   5.829
 9882SOL     OW30544   2.081   2.056   2.913
 9882SOL    HW130545   2.176   2.079   2.892
 9882SOL    HW230546   2.069   1.957   2.916
 9883SOL     OW30547   2.602   1.137   2.281
 9883SOL    HW130548   2.623   1.040   2.295
 9883SOL    HW230549   2.686   1.187   2.259
 9884SOL     OW30550   3.321   0.708   3.992
 9884SOL    HW130551   3.414   0.744   3.982
 9884SOL    HW230552   3.310   0.626   3.936
 9885SOL     OW30553   6.226   4.166   4.324
 9885SOL    HW130554   6.208   4.139   4.229
 9885SOL    HW230555   6.322   4.150   4.345
 9886SOL     OW30556   0.939   3.269   1.658
 9886SOL    HW130557   0.956   3.354   1.708
 9886SOL    HW230558   0.964   3.191   1.716
 9887SOL     OW30559   4.354   6.845   6.089
 9887SOL    HW130560   4.338   6.746   6.088
 9887SOL    HW230561   4.295   6.889   6.022
 9888SOL     OW30562   6.237   5.166   0.094
 9888SOL    HW130563   6.284   5.082   0.124
 9888SOL    HW230564   6.291   5.245   0.121
 9889SOL     OW30565   0.278   5.180   0.447
 9889SOL    HW130566   0.204   5.166   0.513
 9889SOL    HW230567   0.366   5.168   0.492
 9890SOL     OW30568   1.253   3.188   0.602
 9890SOL    HW130569   1.174   3.126   0.594
 9890SOL    HW230570   1.223   3.282   0.588
 9891SOL     OW30571   4.864   1.880   1.892
 9891SOL    HW130572   4.871   1.799   1.835
 9891SOL    HW230573   4.861   1.962   1.834
 9892SOL     OW30574   0.947   6.435   6.931
 9892SOL    HW130575   0.896   6.408   7.012
 9892SOL    HW230576   1.043   6.412   6.942
 9893SOL     OW30577   2.636   1.953   0.744
 9893SOL    HW130578   2.570   1.900   0.691
 9893SOL    HW230579   2.655   2.039   0.697
 9894SOL     OW30580   2.212   1.256   1.493
 9894SOL    HW130581   2.311   1.248   1.501
 9894SOL    HW230582   2.189   1.344   1.451
 9895SOL     OW30583   4.272   2.977   5.346
 9895SOL    HW130584   4.230   3.022   5.426
 9895SOL    HW230585   4.202   2.925   5.297
 9896SOL     OW30586   6.837   6.582   6.452
 9896SOL    HW130587   6.894   6.515   6.500
 9896SOL    HW230588   6.843   6.567   6.353
 9897SOL     OW30589   5.381   5.139   4.238
 9897SOL    HW130590   5.414   5.088   4.318
 9897SOL    HW230591   5.454   5.145   4.170
 9898SOL     OW30592   2.894   6.776   5.848
 9898SOL    HW130593   2.841   6.829   5.782
 9898SOL    HW230594   2.871   6.805   5.940
 9899SOL     OW30595   6.922   5.118   6.900
 9899SOL    HW130596   6.843   5.083   6.952
 9899SOL    HW230597   6.890   5.186   6.834
 9900SOL     OW30598   2.277   4.229   3.420
 9900SOL    HW130599   2.238   4.308   3.468
 9900SOL    HW230600   2.286   4.153   3.485
 9901SOL     OW30601   2.357   2.987   5.595
 9901SOL    HW130602   2.404   2.944   5.517
 9901SOL    HW230603   2.275   3.034   5.562
 9902SOL     OW30604   2.780   4.280   0.407
 9902SOL    HW130605   2.836   4.254   0.486
 9902SOL    HW230606   2.683   4.271   0.431
 9903SOL     OW30607   5.598   0.619   4.376
 9903SOL    HW130608   5.693   0.620   4.409
 9903SOL    HW230609   5.593   0.565   4.292
 9904SOL     OW30610   6.383   2.667   0.769
 9904SOL    HW130611   6.312   2.605   0.735
 9904SOL    HW230612   6.414   2.637   0.859
 9905SOL     OW30613   5.237   0.488   0.252
 9905SOL    HW130614   5.206   0.400   0.288
 9905SOL    HW230615   5.312   0.473   0.187
 9906SOL     OW30616   3.259   2.945   5.029
 9906SOL    HW130617   3.182   2.992   4.985
 9906SOL    HW230618   3.246   2.947   5.129
 9907SOL     OW30619   1.274   6.988   1.898
 9907SOL    HW130620   1.228   0.043   1.923
 9907SOL    HW230621   1.211   6.930   1.847
 9908SOL     OW30622   5.111   3.581   2.522
 9908SOL    HW130623   5.129   3.677   2.501
 9908SOL    HW230624   5.076   3.535   2.441
 9909SOL     OW30625   2.507   0.409   4.989
 9909SOL    HW130626   2.471   0.414   5.082
 9909SOL    HW230627   2.454   0.342   4.937
 9910SOL     OW30628   0.095   5.336   3.692
 9910SOL    HW130629   0.018   5.314   3.632
 9910SOL    HW230630   0.088   5.431   3.721
 9911SOL     OW30631   2.645   5.709   2.748
 9911SOL    HW130632   2.740   5.728   2.724
 9911SOL    HW230633   2.640   5.622   2.797
 9912SOL     OW30634   5.001   0.752   6.710
 9912SOL    HW130635   5.090   0.710   6.729
 9912SOL    HW230636   4.941   0.684   6.667
 9913SOL     OW30637   4.557   3.230   6.855
 9913SOL    HW130638   4.567   3.132   6.837
 9913SOL    HW230639   4.580   3.249   6.950
 9914SOL     OW30640   0.172   4.097   4.362
 9914SOL    HW130641   0.173   4.007   4.407
 9914SOL    HW230642   0.198   4.087   4.267
 9915SOL     OW30643   5.329   1.195   3.703
 9915SOL    HW130644   5.335   1.267   3.772
 9915SOL    HW230645   5.419   1.180   3.662
 9916SOL     OW30646   1.743   2.879   1.880
 9916SOL    HW130647   1.828   2.901   1.831
 9916SOL    HW230648   1.748   2.914   1.973
 9917SOL     OW30649   6.221   4.216   5.107
 9917SOL    HW130650   6.222   4.127   5.060
 9917SOL    HW230651   6.295   4.273   5.072
 9918SOL     OW30652   4.777   2.732   2.384
 9918SOL    HW130653   4.690   2.692   2.410
 9918SOL    HW230654   4.803   2.802   2.450
 9919SOL     OW30655   6.081   6.318   0.837
 9919SOL    HW130656   6.160   6.296   0.779
 9919SOL    HW230657   6.063   6.417   0.833
 9920SOL     OW30658   4.890   1.472   2.899
 9920SOL    HW130659   4.966   1.538   2.896
 9920SOL    HW230660   4.811   1.509   2.850
 9921SOL     OW30661   3.666   5.075   6.199
 9921SOL    HW130662   3.751   5.077   6.251
 9921SOL    HW230663   3.590   5.106   6.256
 9922SOL     OW30664   0.008   5.287   0.876
 9922SOL    HW130665   0.017   5.244   0.786
 9922SOL    HW230666   6.945   5.324   0.886
 9923SOL     OW30667   5.461   4.784   1.208
 9923SOL    HW130668   5.560   4.788   1.209
 9923SOL    HW230669   5.427   4.768   1.301
 9924SOL     OW30670   1.223   3.456   4.645
 9924SOL    HW130671   1.171   3.440   4.728
 9924SOL    HW230672   1.193   3.542   4.603
 9925SOL     OW30673   5.473   2.013   3.211
 9925SOL    HW130674   5.488   1.915   3.219
 9925SOL    HW230675   5.535   2.061   3.273
 9926SOL     OW30676   2.714   5.133   0.080
 9926SOL    HW130677   2.619   5.115   0.105
 9926SOL    HW230678   2.722   5.225   0.043
 9927SOL     OW30679   5.415   0.241   3.737
 9927SOL    HW130680   5.464   0.194   3.663
 9927SOL    HW230681   5.333   0.190   3.760
 9928SOL     OW30682   4.871   4.989   1.935
 9928SOL    HW130683   4.856   4.898   1.973
 9928SOL    HW230684   4.868   5.057   2.008
 9929SOL     OW30685   1.083   4.830   2.382
 9929SOL    HW130686   1.109   4.862   2.473
 9929SOL    HW230687   1.128   4.887   2.313
 9930SOL     OW30688   6.144   0.631   3.345
 9930SOL    HW130689   6.240   0.646   3.324
 9930SOL    HW230690   6.108   0.557   3.288
 9931SOL     OW30691   0.536   5.218   6.241
 9931SOL    HW130692   0.543   5.189   6.145
 9931SOL    HW230693   0.524   5.317   6.245
 9932SOL     OW30694   0.665   6.664   5.312
 9932SOL    HW130695   0.761   6.689   5.320
 9932SOL    HW230696   0.609   6.731   5.361
 9933SOL     OW30697   0.155   6.172   2.243
 9933SOL    HW130698   0.165   6.254   2.187
 9933SOL    HW230699   0.233   6.111   2.228
 9934SOL     OW30700   6.955   1.731   5.512
 9934SOL    HW130701   6.855   1.733   5.511
 9934SOL    HW230702   6.989   1.807   5.568
 9935SOL     OW30703   3.116   0.234   6.091
 9935SOL    HW130704   3.147   0.301   6.024
 9935SOL    HW230705   3.022   0.254   6.118
 9936SOL     OW30706   1.331   4.033   4.327
 9936SOL    HW130707   1.233   4.030   4.348
 9936SOL    HW230708   1.344   4.017   4.229
 9937SOL     OW30709   6.545   2.650   6.082
 9937SOL    HW130710   6.618   2.586   6.060
 9937SOL    HW230711   6.568   2.741   6.047
 9938SOL     OW30712   0.007   6.295   2.572
 9938SOL    HW130713   7.003   6.222   2.513
 9938SOL    HW230714   0.101   6.276   2.599
 9939SOL     OW30715   3.564   3.207   2.674
 9939SOL    HW130716   3.656   3.168   2.674
 9939SOL    HW230717   3.539   3.233   2.581
 9940SOL     OW30718   6.948   0.574   1.101
 9940SOL    HW130719   6.879   0.594   1.031
 9940SOL    HW230720   6.915   0.604   1.190
 9941SOL     OW30721   3.362   5.330   5.109
 9941SOL    HW130722   3.395   5.297   5.020
 9941SOL    HW230723   3.408   5.416   5.131
 9942SOL     OW30724   2.685   5.867   3.980
 9942SOL    HW130725   2.602   5.854   3.926
 9942SOL    HW230726   2.675   5.948   4.038
 9943SOL     OW30727   0.850   0.248   5.025
 9943SOL    HW130728   0.821   0.273   5.118
 9943SOL    HW230729   0.789   0.177   4.990
 9944SOL     OW30730   1.503   4.460   0.142
 9944SOL    HW130731   1.505   4.383   0.078
 9944SOL    HW230732   1.420   4.453   0.199
 9945SOL     OW30733   6.598   5.897   0.039
 9945SOL    HW130734   6.505   5.862   0.044
 9945SOL    HW230735   6.652   5.860   0.116
 9946SOL     OW30736   5.781   1.753   4.858
 9946SOL    HW130737   5.879   1.771   4.848
 9946SOL    HW230738   5.763   1.655   4.846
 9947SOL     OW30739   6.038   4.618   3.484
 9947SOL    HW130740   6.083   4.591   3.399
 9947SOL    HW230741   5.978   4.544   3.515
 9948SOL     OW30742   5.387   3.983   4.133
 9948SOL    HW130743   5.352   3.890   4.147
 9948SOL    HW230744   5.480   3.978   4.098
 9949SOL     OW30745   6.161   4.825   1.997
 9949SOL    HW130746   6.142   4.728   2.013
 9949SOL    HW230747   6.091   4.863   1.936
 9950SOL     OW30748   2.860   6.205   6.690
 9950SOL    HW130749   2.918   6.246   6.620
 9950SOL    HW230750   2.771   6.251   6.690
 9951SOL     OW30751   6.050   2.277   3.091
 9951SOL    HW130752   6.026   2.362   3.137
 9951SOL    HW230753   6.138   2.288   3.044
 9952SOL     OW30754   6.952   5.059   6.274
 9952SOL    HW130755   6.913   5.137   6.322
 9952SOL    HW230756   6.923   4.974   6.319
 9953SOL     OW30757   5.644   2.868   4.004
 9953SOL    HW130758   5.737   2.856   3.971
 9953SOL    HW230759   5.612   2.782   4.045
 9954SOL     OW30760   4.049   0.437   4.893
 9954SOL    HW130761   4.015   0.422   4.800
 9954SOL    HW230762   4.105   0.359   4.920
 9955SOL     OW30763   0.668   4.851   4.379
 9955SOL    HW130764   0.744   4.873   4.317
 9955SOL    HW230765   0.683   4.761   4.420
 9956SOL     OW30766   0.898   6.157   0.098
 9956SOL    HW130767   0.852   6.109   0.023
 9956SOL    HW230768   0.853   6.244   0.115
 9957SOL     OW30769   5.724   5.360   2.205
 9957SOL    HW130770   5.737   5.275   2.155
 9957SOL    HW230771   5.668   5.342   2.287
 9958SOL     OW30772   2.728   4.503   0.763
 9958SOL    HW130773   2.761   4.434   0.699
 9958SOL    HW230774   2.629   4.494   0.775
 9959SOL     OW30775   3.228   3.896   1.407
 9959SOL    HW130776   3.215   3.855   1.316
 9959SOL    HW230777   3.227   3.824   1.476
 9960SOL     OW30778   0.649   1.457   2.379
 9960SOL    HW130779   0.631   1.396   2.303
 9960SOL    HW230780   0.710   1.412   2.445
 9961SOL     OW30781   2.118   3.968   4.828
 9961SOL    HW130782   2.033   4.000   4.871
 9961SOL    HW230783   2.196   3.995   4.884
 9962SOL     OW30784   5.080   6.781   4.223
 9962SOL    HW130785   5.032   6.771   4.310
 9962SOL    HW230786   5.035   6.725   4.153
 9963SOL     OW30787   3.416   0.980   1.014
 9963SOL    HW130788   3.339   0.993   1.077
 9963SOL    HW230789   3.442   1.068   0.974
 9964SOL     OW30790   5.248   6.523   4.671
 9964SOL    HW130791   5.237   6.536   4.572
 9964SOL    HW230792   5.253   6.425   4.691
 9965SOL     OW30793   4.343   6.727   0.523
 9965SOL    HW130794   4.434   6.701   0.556
 9965SOL    HW230795   4.353   6.782   0.440
 9966SOL     OW30796   6.455   0.791   3.375
 9966SOL    HW130797   6.391   0.863   3.348
 9966SOL    HW230798   6.437   0.709   3.322
 9967SOL     OW30799   1.027   4.974   0.891
 9967SOL    HW130800   0.963   5.040   0.852
 9967SOL    HW230801   1.028   4.891   0.835
 9968SOL     OW30802   2.941   3.670   3.189
 9968SOL    HW130803   2.937   3.577   3.151
 9968SOL    HW230804   2.990   3.730   3.125
 9969SOL     OW30805   1.426   3.659   1.192
 9969SOL    HW130806   1.401   3.668   1.289
 9969SOL    HW230807   1.458   3.566   1.174
 9970SOL     OW30808   5.944   4.442   1.700
 9970SOL    HW130809   5.999   4.484   1.628
 9970SOL    HW230810   6.004   4.393   1.763
 9971SOL     OW30811   2.727   6.896   6.909
 9971SOL    HW130812   2.676   6.925   6.990
 9971SOL    HW230813   2.679   6.820   6.865
 9972SOL     OW30814   6.544   4.941   1.217
 9972SOL    HW130815   6.632   4.957   1.260
 9972SOL    HW230816   6.555   4.882   1.137
 9973SOL     OW30817   5.606   0.210   3.537
 9973SOL    HW130818   5.612   0.181   3.442
 9973SOL    HW230819   5.694   0.249   3.566
 9974SOL     OW30820   2.439   6.940   4.513
 9974SOL    HW130821   2.474   6.847   4.512
 9974SOL    HW230822   2.507   7.000   4.557
 9975SOL     OW30823   6.719   4.324   0.580
 9975SOL    HW130824   6.757   4.232   0.566
 9975SOL    HW230825   6.758   4.364   0.663
 9976SOL     OW30826   2.964   6.627   5.224
 9976SOL    HW130827   3.043   6.565   5.223
 9976SOL    HW230828   2.899   6.596   5.293
 9977SOL     OW30829   6.492   4.399   3.832
 9977SOL    HW130830   6.417   4.417   3.896
 9977SOL    HW230831   6.543   4.484   3.816
 9978SOL     OW30832   0.499   2.263   5.072
 9978SOL    HW130833   0.590   2.241   5.106
 9978SOL    HW230834   0.450   2.178   5.051
 9979SOL     OW30835   0.549   3.859   4.816
 9979SOL    HW130836   0.557   3.785   4.882
 9979SOL    HW230837   0.550   3.947   4.864
 9980SOL     OW30838   2.846   6.468   5.635
 9980SOL    HW130839   2.818   6.465   5.731
 9980SOL    HW230840   2.850   6.376   5.598
 9981SOL     OW30841   4.360   2.175   4.236
 9981SOL    HW130842   4.292   2.160   4.165
 9981SOL    HW230843   4.317   2.224   4.313
 9982SOL     OW30844   6.455   6.284   3.117
 9982SOL    HW130845   6.549   6.291   3.083
 9982SOL    HW230846   6.407   6.371   3.103
 9983SOL     OW30847   6.418   1.021   0.955
 9983SOL    HW130848   6.368   0.935   0.966
 9983SOL    HW230849   6.418   1.071   1.042
 9984SOL     OW30850   2.883   1.334   6.325
 9984SOL    HW130851   2.861   1.431   6.311
 9984SOL    HW230852   2.804   1.287   6.364
 9985SOL     OW30853   2.174   1.789   1.724
 9985SOL    HW130854   2.144   1.751   1.637
 9985SOL    HW230855   2.150   1.727   1.798
 9986SOL     OW30856   4.845   4.091   5.011
 9986SOL    HW130857   4.917   4.116   5.076
 9986SOL    HW230858   4.784   4.169   4.998
 9987SOL     OW30859   0.492   4.219   5.715
 9987SOL    HW130860   0.526   4.306   5.678
 9987SOL    HW230861   0.517   4.145   5.653
 9988SOL     OW30862   6.719   0.316   4.345
 9988SOL    HW130863   6.702   0.406   4.304
 9988SOL    HW230864   6.796   0.322   4.408
 9989SOL     OW30865   1.457   2.962   4.620
 9989SOL    HW130866   1.464   2.912   4.533
 9989SOL    HW230867   1.370   3.012   4.622
 9990SOL     OW30868   1.397   5.313   1.880
 9990SOL    HW130869   1.419   5.324   1.783
 9990SOL    HW230870   1.323   5.376   1.904
 9991SOL     OW30871   4.299   2.039   3.235
 9991SOL    HW130872   4.283   1.942   3.217
 9991SOL    HW230873   4.342   2.081   3.155
 9992SOL     OW30874   6.476   5.485   6.276
 9992SOL    HW130875   6.395   5.499   6.218
 9992SOL    HW230876   6.531   5.410   6.240
 9993SOL     OW30877   1.272   0.584   2.138
 9993SOL    HW130878   1.273   0.568   2.039
 9993SOL    HW230879   1.204   0.653   2.160
 9994SOL     OW30880   6.309   5.016   3.286
 9994SOL    HW130881   6.356   4.933   3.315
 9994SOL    HW230882   6.373   5.093   3.290
 9995SOL     OW30883   4.897   1.173   4.703
 9995SOL    HW130884   4.983   1.141   4.662
 9995SOL    HW230885   4.854   1.098   4.754
 9996SOL     OW30886   2.425   3.234   6.810
 9996SOL    HW130887   2.433   3.234   6.710
 9996SOL    HW230888   2.392   3.323   6.841
 9997SOL     OW30889   1.910   0.130   4.384
 9997SOL    HW130890   1.942   0.168   4.298
 9997SOL    HW230891   1.866   0.202   4.438
 9998SOL     OW30892   5.728   6.145   4.908
 9998SOL    HW130893   5.783   6.229   4.905
 9998SOL    HW230894   5.748   6.095   4.992
 9999SOL     OW30895   7.017   0.841   4.971
 9999SOL    HW130896   6.959   0.919   4.950
 9999SOL    HW230897   0.082   0.871   4.980
10000SOL     OW30898   6.754   4.643   0.296
10000SOL    HW130899   6.739   4.594   0.210
10000SOL    HW230900   6.687   4.717   0.304
10001SOL     OW30901   3.707   6.975   3.484
10001SOL    HW130902   3.694   6.960   3.386
10001SOL    HW230903   3.781   6.916   3.517
10002SOL     OW30904   1.623   2.109   1.667
10002SOL    HW130905   1.636   2.055   1.583
10002SOL    HW230906   1.636   2.049   1.746
10003SOL     OW30907   5.031   3.868   3.139
10003SOL    HW130908   5.119   3.913   3.128
10003SOL    HW230909   5.039   3.792   3.203
10004SOL     OW30910   6.722   3.037   3.676
10004SOL    HW130911   6.647   3.084   3.722
10004SOL    HW230912   6.809   3.069   3.714
10005SOL     OW30913   4.799   0.287   4.175
10005SOL    HW130914   4.718   0.237   4.145
10005SOL    HW230915   4.780   0.334   4.261
10006SOL     OW30916   4.887   1.742   4.383
10006SOL    HW130917   4.893   1.672   4.454
10006SOL    HW230918   4.906   1.832   4.422
10007SOL     OW30919   5.929   4.160   4.167
10007SOL    HW130920   5.997   4.102   4.211
10007SOL    HW230921   5.974   4.245   4.137
10008SOL     OW30922   3.249   0.220   3.786
10008SOL    HW130923   3.149   0.228   3.781
10008SOL    HW230924   3.276   0.126   3.765
10009SOL     OW30925   2.327   4.230   1.124
10009SOL    HW130926   2.259   4.263   1.188
10009SOL    HW230927   2.417   4.264   1.150
10010SOL     OW30928   6.007   0.863   6.302
10010SOL    HW130929   6.051   0.829   6.386
10010SOL    HW230930   5.965   0.786   6.254
10011SOL     OW30931   6.983   6.472   3.597
10011SOL    HW130932   6.920   6.536   3.553
10011SOL    HW230933   0.016   6.435   3.529
10012SOL     OW30934   5.762   0.272   4.282
10012SOL    HW130935   5.674   0.310   4.311
10012SOL    HW230936   5.814   0.246   4.363
10013SOL     OW30937   1.518   0.870   1.965
10013SOL    HW130938   1.453   0.847   1.893
10013SOL    HW230939   1.558   0.960   1.947
10014SOL     OW30940   1.521   4.840   5.615
10014SOL    HW130941   1.565   4.929   5.629
10014SOL    HW230942   1.449   4.828   5.683
10015SOL     OW30943   2.441   6.046   6.541
10015SOL    HW130944   2.384   6.046   6.623
10015SOL    HW230945   2.388   6.010   6.464
10016SOL     OW30946   2.373   1.383   5.174
10016SOL    HW130947   2.333   1.341   5.092
10016SOL    HW230948   2.441   1.452   5.146
10017SOL     OW30949   0.038   1.942   3.599
10017SOL    HW130950   0.100   2.019   3.615
10017SOL    HW230951   0.091   1.862   3.573
10018SOL     OW30952   4.985   6.655   5.777
10018SOL    HW130953   5.023   6.563   5.788
10018SOL    HW230954   4.935   6.659   5.690
10019SOL     OW30955   1.154   0.930   2.582
10019SOL    HW130956   1.074   0.907   2.527
10019SOL    HW230957   1.129   1.000   2.649
10020SOL     OW30958   0.055   2.641   0.162
10020SOL    HW130959   0.021   2.731   0.135
10020SOL    HW230960   0.004   2.570   0.115
10021SOL     OW30961   4.869   2.971   1.434
10021SOL    HW130962   4.946   3.016   1.479
10021SOL    HW230963   4.826   2.907   1.497
10022SOL     OW30964   1.948   0.854   5.889
10022SOL    HW130965   1.965   0.939   5.840
10022SOL    HW230966   2.019   0.787   5.865
10023SOL     OW30967   0.675   3.620   0.967
10023SOL    HW130968   0.727   3.544   0.928
10023SOL    HW230969   0.647   3.597   1.060
10024SOL     OW30970   1.086   3.834   3.212
10024SOL    HW130971   1.033   3.759   3.173
10024SOL    HW230972   1.124   3.890   3.139
10025SOL     OW30973   0.744   0.970   0.970
10025SOL    HW130974   0.749   0.877   1.008
10025SOL    HW230975   0.658   0.981   0.920
10026SOL     OW30976   6.731   0.812   4.318
10026SOL    HW130977   6.783   0.897   4.312
10026SOL    HW230978   6.700   0.799   4.412
10027SOL     OW30979   6.005   2.896   5.727
10027SOL    HW130980   5.972   2.920   5.635
10027SOL    HW230981   5.942   2.830   5.769
10028SOL     OW30982   1.919   0.893   1.932
10028SOL    HW130983   1.941   0.954   2.008
10028SOL    HW230984   1.940   0.799   1.957
10029SOL     OW30985   3.638   1.375   3.775
10029SOL    HW130986   3.578   1.420   3.841
10029SOL    HW230987   3.662   1.283   3.808
10030SOL     OW30988   1.189   1.381   3.217
10030SOL    HW130989   1.090   1.378   3.232
10030SOL    HW230990   1.210   1.342   3.128
10031SOL     OW30991   6.269   4.745   3.672
10031SOL    HW130992   6.203   4.809   3.632
10031SOL    HW230993   6.222   4.662   3.701
10032SOL     OW30994   3.778   1.863   5.398
10032SOL    HW130995   3.692   1.849   5.349
10032SOL    HW230996   3.850   1.809   5.354
10033SOL     OW30997   5.308   3.266   3.910
10033SOL    HW130998   5.250   3.333   3.863
10033SOL    HW230999   5.385   3.313   3.954
10034SOL     OW31000   4.123   6.799   5.923
10034SOL    HW131001   4.124   6.759   5.832
10034SOL    HW231002   4.076   6.737   5.986
10035SOL     OW31003   0.745   6.959   3.793
10035SOL    HW131004   0.828   6.942   3.845
10035SOL    HW231005   0.759   0.008   3.732
10036SOL     OW31006   6.403   0.583   0.121
10036SOL    HW131007   6.470   0.586   0.047
10036SOL    HW231008   6.446   0.547   0.204
10037SOL     OW31009   7.026   6.676   1.264
10037SOL    HW131010   0.082   6.727   1.267
10037SOL    HW231011   7.003   6.644   1.356
10038SOL     OW31012   6.451   0.085   1.250
10038SOL    HW131013   6.486   7.028   1.217
10038SOL    HW231014   6.458   0.088   1.350
10039SOL     OW31015   4.177   0.544   3.020
10039SOL    HW131016   4.192   0.504   2.929
10039SOL    HW231017   4.261   0.588   3.052
10040SOL     OW31018   0.721   2.354   0.825
10040SOL    HW131019   0.694   2.261   0.850
10040SOL    HW231020   0.693   2.417   0.897
10041SOL     OW31021   1.379   6.652   0.739
10041SOL    HW131022   1.311   6.599   0.688
10041SOL    HW231023   1.340   6.679   0.827
10042SOL     OW31024   6.007   2.142   3.340
10042SOL    HW131025   5.987   2.156   3.244
10042SOL    HW231026   6.100   2.173   3.360
10043SOL     OW31027   1.682   2.730   5.376
10043SOL    HW131028   1.747   2.805   5.364
10043SOL    HW231029   1.615   2.755   5.446
10044SOL     OW31030   4.959   0.923   6.487
10044SOL    HW131031   4.992   0.889   6.575
10044SOL    HW231032   5.035   0.961   6.435
10045SOL     OW31033   2.305   0.932   1.002
10045SOL    HW131034   2.377   0.926   0.933
10045SOL    HW231035   2.338   0.984   1.081
10046SOL     OW31036   0.511   5.649   1.038
10046SOL    HW131037   0.567   5.591   1.098
10046SOL    HW231038   0.543   5.744   1.044
10047SOL     OW31039   1.753   3.400   0.844
10047SOL    HW131040   1.687   3.345   0.895
10047SOL    HW231041   1.845   3.384   0.879
10048SOL     OW31042   5.840   3.828   1.784
10048SOL    HW131043   5.768   3.763   1.806
10048SOL    HW231044   5.895   3.793   1.708
10049SOL     OW31045   6.187   1.547   5.078
10049SOL    HW131046   6.169   1.481   5.151
10049SOL    HW231047   6.261   1.512   5.020
10050SOL     OW31048   6.705   2.387   6.125
10050SOL    HW131049   6.750   2.329   6.057
10050SOL    HW231050   6.766   2.400   6.203
10051SOL     OW31051   1.971   1.395   3.899
10051SOL    HW131052   2.044   1.373   3.964
10051SOL    HW231053   1.882   1.384   3.944
10052SOL     OW31054   0.754   0.465   3.967
10052SOL    HW131055   0.798   0.384   3.928
10052SOL    HW231056   0.799   0.547   3.934
10053SOL     OW31057   6.176   5.087   3.003
10053SOL    HW131058   6.172   5.005   2.947
10053SOL    HW231059   6.088   5.101   3.048
10054SOL     OW31060   6.048   3.908   3.894
10054SOL    HW131061   6.087   3.818   3.873
10054SOL    HW231062   6.072   3.972   3.821
10055SOL     OW31063   1.820   1.803   6.885
10055SOL    HW131064   1.837   1.894   6.847
10055SOL    HW231065   1.867   1.734   6.830
10056SOL     OW31066   5.348   2.299   4.101
10056SOL    HW131067   5.306   2.220   4.058
10056SOL    HW231068   5.438   2.315   4.060
10057SOL     OW31069   6.187   4.670   5.275
10057SOL    HW131070   6.244   4.667   5.357
10057SOL    HW231071   6.129   4.588   5.272
10058SOL     OW31072   6.655   3.999   4.225
10058SOL    HW131073   6.584   3.952   4.276
10058SOL    HW231074   6.665   3.958   4.134
10059SOL     OW31075   5.019   5.905   6.368
10059SOL    HW131076   5.039   5.811   6.341
10059SOL    HW231077   5.086   5.936   6.435
10060SOL     OW31078   2.791   1.918   2.157
10060SOL    HW131079   2.885   1.904   2.128
10060SOL    HW231080   2.762   1.841   2.215
10061SOL     OW31081   3.902   6.445   3.132
10061SOL    HW131082   3.929   6.474   3.040
10061SOL    HW231083   3.802   6.451   3.141
10062SOL     OW31084   6.708   0.112   4.637
10062SOL    HW131085   6.750   0.079   4.721
10062SOL    HW231086   6.677   0.035   4.582
10063SOL     OW31087   3.314   2.157   4.742
10063SOL    HW131088   3.257   2.239   4.734
10063SOL    HW231089   3.355   2.153   4.833
10064SOL     OW31090   3.207   6.674   2.327
10064SOL    HW131091   3.197   6.587   2.278
10064SOL    HW231092   3.260   6.659   2.410
10065SOL     OW31093   6.993   1.704   2.042
10065SOL    HW131094   6.948   1.724   1.954
10065SOL    HW231095   6.924   1.698   2.114
10066SOL     OW31096   6.351   3.883   3.649
10066SOL    HW131097   6.377   3.966   3.698
10066SOL    HW231098   6.253   3.886   3.628
10067SOL     OW31099   5.700   3.531   5.323
10067SOL    HW131100   5.772   3.582   5.370
10067SOL    HW231101   5.617   3.530   5.379
10068SOL     OW31102   1.996   3.433   2.324
10068SOL    HW131103   1.985   3.471   2.232
10068SOL    HW231104   1.909   3.395   2.356
10069SOL     OW31105   2.741   5.171   2.112
10069SOL    HW131106   2.663   5.202   2.166
10069SOL    HW231107   2.806   5.124   2.171
10070SOL     OW31108   4.635   6.880   0.356
10070SOL    HW131109   4.542   6.867   0.321
10070SOL    HW231110   4.637   6.860   0.453
10071SOL     OW31111   5.297   0.645   5.534
10071SOL    HW131112   5.248   0.560   5.556
10071SOL    HW231113   5.232   0.721   5.534
10072SOL     OW31114   5.925   2.413   2.305
10072SOL    HW131115   5.840   2.398   2.254
10072SOL    HW231116   5.959   2.506   2.287
10073SOL     OW31117   5.450   6.315   5.183
10073SOL    HW131118   5.476   6.242   5.246
10073SOL    HW231119   5.435   6.400   5.234
10074SOL     OW31120   2.139   4.285   0.925
10074SOL    HW131121   2.220   4.303   0.980
10074SOL    HW231122   2.086   4.369   0.915
10075SOL     OW31123   1.363   3.321   2.321
10075SOL    HW131124   1.283   3.314   2.381
10075SOL    HW231125   1.446   3.308   2.374
10076SOL     OW31126   5.710   3.915   3.291
10076SOL    HW131127   5.615   3.884   3.287
10076SOL    HW231128   5.763   3.854   3.350
10077SOL     OW31129   4.156   3.645   6.479
10077SOL    HW131130   4.210   3.570   6.515
10077SOL    HW231131   4.186   3.731   6.521
10078SOL     OW31132   5.873   5.122   4.043
10078SOL    HW131133   5.957   5.174   4.057
10078SOL    HW231134   5.860   5.105   3.945
10079SOL     OW31135   5.216   4.774   2.846
10079SOL    HW131136   5.287   4.841   2.825
10079SOL    HW231137   5.130   4.821   2.868
10080SOL     OW31138   5.280   2.186   5.537
10080SOL    HW131139   5.331   2.101   5.523
10080SOL    HW231140   5.342   2.255   5.574
10081SOL     OW31141   1.657   4.973   0.446
10081SOL    HW131142   1.693   5.001   0.535
10081SOL    HW231143   1.733   4.957   0.383
10082SOL     OW31144   0.956   5.253   1.399
10082SOL    HW131145   0.988   5.240   1.305
10082SOL    HW231146   0.878   5.193   1.416
10083SOL     OW31147   3.022   6.008   2.788
10083SOL    HW131148   2.966   5.987   2.708
10083SOL    HW231149   3.073   6.093   2.772
10084SOL     OW31150   1.763   3.262   4.917
10084SOL    HW131151   1.738   3.216   4.831
10084SOL    HW231152   1.758   3.196   4.992
10085SOL     OW31153   3.931   6.876   1.782
10085SOL    HW131154   3.906   6.958   1.835
10085SOL    HW231155   3.932   6.899   1.685
10086SOL     OW31156   3.366   0.176   2.812
10086SOL    HW131157   3.392   0.134   2.725
10086SOL    HW231158   3.430   0.148   2.883
10087SOL     OW31159   2.013   5.011   5.946
10087SOL    HW131160   1.926   5.050   5.915
10087SOL    HW231161   2.009   4.911   5.938
10088SOL     OW31162   6.503   1.883   0.905
10088SOL    HW131163   6.517   1.954   0.974
10088SOL    HW231164   6.405   1.873   0.886
10089SOL     OW31165   3.887   6.656   1.968
10089SOL    HW131166   3.926   6.718   1.900
10089SOL    HW231167   3.886   6.700   2.058
10090SOL     OW31168   2.632   5.572   2.043
10090SOL    HW131169   2.572   5.601   1.968
10090SOL    HW231170   2.690   5.497   2.013
10091SOL     OW31171   5.358   5.074   3.087
10091SOL    HW131172   5.413   5.072   3.170
10091SOL    HW231173   5.261   5.075   3.111
10092SOL     OW31174   0.388   1.036   2.542
10092SOL    HW131175   0.413   1.008   2.450
10092SOL    HW231176   0.317   1.107   2.537
10093SOL     OW31177   4.744   3.935   6.188
10093SOL    HW131178   4.657   3.980   6.170
10093SOL    HW231179   4.748   3.907   6.284
10094SOL     OW31180   3.306   2.658   0.725
10094SOL    HW131181   3.357   2.635   0.643
10094SOL    HW231182   3.212   2.681   0.701
10095SOL     OW31183   4.435   2.496   5.368
10095SOL    HW131184   4.465   2.469   5.460
10095SOL    HW231185   4.515   2.514   5.311
10096SOL     OW31186   6.795   4.678   1.917
10096SOL    HW131187   6.797   4.694   1.818
10096SOL    HW231188   6.707   4.709   1.954
10097SOL     OW31189   1.124   1.232   1.257
10097SOL    HW131190   1.027   1.242   1.279
10097SOL    HW231191   1.174   1.204   1.339
10098SOL     OW31192   3.840   5.393   0.020
10098SOL    HW131193   3.752   5.440   0.018
10098SOL    HW231194   3.883   5.405   0.109
10099SOL     OW31195   0.194   6.082   3.407
10099SOL    HW131196   0.199   6.075   3.308
10099SOL    HW231197   0.186   5.990   3.447
10100SOL     OW31198   4.807   5.091   3.819
10100SOL    HW131199   4.845   5.159   3.756
10100SOL    HW231200   4.766   5.138   3.897
10101SOL     OW31201   7.010   2.412   6.999
10101SOL    HW131202   0.010   2.317   6.988
10101SOL    HW231203   6.916   2.421   6.966
10102SOL     OW31204   7.000   4.744   2.866
10102SOL    HW131205   6.967   4.740   2.960
10102SOL    HW231206   0.071   4.745   2.866
10103SOL     OW31207   7.006   0.109   6.769
10103SOL    HW131208   0.053   0.139   6.825
10103SOL    HW231209   6.986   0.179   6.700
10104SOL     OW31210   2.531   1.283   4.885
10104SOL    HW131211   2.523   1.383   4.885
10104SOL    HW231212   2.577   1.253   4.801
10105SOL     OW31213   2.949   1.346   4.543
10105SOL    HW131214   2.907   1.436   4.552
10105SOL    HW231215   2.897   1.291   4.478
10106SOL     OW31216   5.970   3.989   1.066
10106SOL    HW131217   5.978   4.000   0.967
10106SOL    HW231218   6.010   4.068   1.112
10107SOL     OW31219   5.327   5.962   6.250
10107SOL    HW131220   5.285   5.939   6.162
10107SOL    HW231221   5.272   6.030   6.297
10108SOL     OW31222   2.454   2.202   5.210
10108SOL    HW131223   2.384   2.165   5.149
10108SOL    HW231224   2.527   2.134   5.222
10109SOL     OW31225   1.093   3.269   0.865
10109SOL    HW131226   1.079   3.368   0.877
10109SOL    HW231227   1.057   3.241   0.777
10110SOL     OW31228   6.062   6.516   2.198
10110SOL    HW131229   6.122   6.539   2.121
10110SOL    HW231230   6.115   6.467   2.267
10111SOL     OW31231   6.793   2.947   1.529
10111SOL    HW131232   6.766   3.006   1.453
10111SOL    HW231233   6.772   2.852   1.506
10112SOL     OW31234   6.845   2.824   4.300
10112SOL    HW131235   6.912   2.872   4.357
10112SOL    HW231236   6.873   2.831   4.204
10113SOL     OW31237   6.729   5.946   6.336
10113SOL    HW131238   6.803   5.881   6.319
10113SOL    HW231239   6.768   6.036   6.356
10114SOL     OW31240   5.181   3.931   1.343
10114SOL    HW131241   5.236   4.006   1.305
10114SOL    HW231242   5.085   3.944   1.317
10115SOL     OW31243   3.581   1.839   6.282
10115SOL    HW131244   3.548   1.745   6.275
10115SOL    HW231245   3.504   1.902   6.268
10116SOL     OW31246   0.306   7.023   6.591
10116SOL    HW131247   0.403   7.026   6.615
10116SOL    HW231248   0.273   0.087   6.575
10117SOL     OW31249   0.353   4.606   1.530
10117SOL    HW131250   0.438   4.558   1.507
10117SOL    HW231251   0.300   4.552   1.595
10118SOL     OW31252   3.895   5.300   3.675
10118SOL    HW131253   3.871   5.246   3.756
10118SOL    HW231254   3.979   5.264   3.635
10119SOL     OW31255   6.025   6.205   6.883
10119SOL    HW131256   6.070   6.142   6.946
10119SOL    HW231257   5.993   6.285   6.933
10120SOL     OW31258   2.491   2.129   2.929
10120SOL    HW131259   2.494   2.098   3.024
10120SOL    HW231260   2.567   2.191   2.912
10121SOL     OW31261   6.438   5.609   1.656
10121SOL    HW131262   6.492   5.544   1.603
10121SOL    HW231263   6.353   5.629   1.608
10122SOL     OW31264   1.906   0.404   3.478
10122SOL    HW131265   1.861   0.427   3.391
10122SOL    HW231266   1.862   0.324   3.518
10123SOL     OW31267   6.083   6.218   6.607
10123SOL    HW131268   6.154   6.149   6.590
10123SOL    HW231269   6.047   6.206   6.700
10124SOL     OW31270   1.361   4.437   2.919
10124SOL    HW131271   1.395   4.518   2.966
10124SOL    HW231272   1.282   4.401   2.968
10125SOL     OW31273   1.888   1.626   4.722
10125SOL    HW131274   1.842   1.676   4.648
10125SOL    HW231275   1.820   1.594   4.788
10126SOL     OW31276   6.588   6.053   4.278
10126SOL    HW131277   6.600   6.047   4.179
10126SOL    HW231278   6.582   6.149   4.305
10127SOL     OW31279   2.496   0.698   4.894
10127SOL    HW131280   2.447   0.714   4.809
10127SOL    HW231281   2.503   0.599   4.911
10128SOL     OW31282   3.265   1.330   0.452
10128SOL    HW131283   3.276   1.242   0.498
10128SOL    HW231284   3.205   1.318   0.372
10129SOL     OW31285   6.641   1.995   5.422
10129SOL    HW131286   6.573   2.041   5.365
10129SOL    HW231287   6.732   2.030   5.401
10130SOL     OW31288   1.345   2.516   3.209
10130SOL    HW131289   1.427   2.568   3.189
10130SOL    HW231290   1.363   2.451   3.283
10131SOL     OW31291   2.165   0.700   5.250
10131SOL    HW131292   2.138   0.781   5.301
10131SOL    HW231293   2.258   0.673   5.277
10132SOL     OW31294   5.850   0.524   2.275
10132SOL    HW131295   5.811   0.592   2.337
10132SOL    HW231296   5.778   0.486   2.217
10133SOL     OW31297   4.475   5.271   0.924
10133SOL    HW131298   4.443   5.176   0.916
10133SOL    HW231299   4.400   5.333   0.902
10134SOL     OW31300   6.635   0.033   3.168
10134SOL    HW131301   6.627   0.039   3.267
10134SOL    HW231302   6.600   6.974   3.137
10135SOL     OW31303   6.097   6.568   3.569
10135SOL    HW131304   6.007   6.582   3.529
10135SOL    HW231305   6.109   6.631   3.646
10136SOL     OW31306   4.746   0.725   2.921
10136SOL    HW131307   4.810   0.649   2.904
10136SOL    HW231308   4.777   0.806   2.871
10137SOL     OW31309   6.520   5.554   2.961
10137SOL    HW131310   6.420   5.548   2.969
10137SOL    HW231311   6.543   5.621   2.890
10138SOL     OW31312   0.225   1.606   2.060
10138SOL    HW131313   0.242   1.582   2.156
10138SOL    HW231314   0.129   1.630   2.048
10139SOL     OW31315   3.033   2.713   0.645
10139SOL    HW131316   2.949   2.767   0.656
10139SOL    HW231317   3.022   2.650   0.569
10140SOL     OW31318   6.020   6.244   4.332
10140SOL    HW131319   6.117   6.219   4.330
10140SOL    HW231320   6.009   6.327   4.387
10141SOL     OW31321   0.945   2.017   4.456
10141SOL    HW131322   1.031   1.968   4.462
10141SOL    HW231323   0.871   1.953   4.434
10142SOL     OW31324   3.963   6.112   1.732
10142SOL    HW131325   4.030   6.125   1.805
10142SOL    HW231326   3.875   6.086   1.771
10143SOL     OW31327   6.494   3.391   6.792
10143SOL    HW131328   6.397   3.415   6.789
10143SOL    HW231329   6.511   3.330   6.870
10144SOL     OW31330   4.032   0.960   1.315
10144SOL    HW131331   4.109   1.012   1.353
10144SOL    HW231332   4.066   0.899   1.244
10145SOL     OW31333   6.534   0.330   5.052
10145SOL    HW131334   6.461   0.336   5.120
10145SOL    HW231335   6.527   0.407   4.988
10146SOL     OW31336   1.744   1.867   5.318
10146SOL    HW131337   1.807   1.945   5.312
10146SOL    HW231338   1.663   1.894   5.369
10147SOL     OW31339   3.535   5.095   0.518
10147SOL    HW131340   3.629   5.059   0.519
10147SOL    HW231341   3.513   5.132   0.609
10148SOL     OW31342   0.187   5.509   6.299
10148SOL    HW131343   0.146   5.577   6.360
10148SOL    HW231344   0.116   5.469   6.241
10149SOL     OW31345   2.930   3.360   3.802
10149SOL    HW131346   2.985   3.301   3.742
10149SOL    HW231347   2.911   3.446   3.755
10150SOL     OW31348   5.572   4.592   0.657
10150SOL    HW131349   5.664   4.581   0.620
10150SOL    HW231350   5.546   4.508   0.706
10151SOL     OW31351   0.572   0.791   0.562
10151SOL    HW131352   0.616   0.878   0.539
10151SOL    HW231353   0.544   0.792   0.658
10152SOL     OW31354   3.457   6.345   3.756
10152SOL    HW131355   3.510   6.273   3.711
10152SOL    HW231356   3.362   6.340   3.726
10153SOL     OW31357   4.918   3.839   1.244
10153SOL    HW131358   4.857   3.896   1.299
10153SOL    HW231359   4.867   3.761   1.208
10154SOL     OW31360   4.783   5.747   5.472
10154SOL    HW131361   4.754   5.758   5.567
10154SOL    HW231362   4.786   5.836   5.428
10155SOL     OW31363   4.510   2.359   4.576
10155SOL    HW131364   4.463   2.304   4.645
10155SOL    HW231365   4.505   2.456   4.601
10156SOL     OW31366   3.207   1.833   6.530
10156SOL    HW131367   3.290   1.883   6.556
10156SOL    HW231368   3.133   1.856   6.593
10157SOL     OW31369   1.020   4.954   1.323
10157SOL    HW131370   0.966   4.894   1.264
10157SOL    HW231371   0.960   4.998   1.390
10158SOL     OW31372   5.889   4.986   6.517
10158SOL    HW131373   5.937   4.956   6.600
10158SOL    HW231374   5.904   4.919   6.445
10159SOL     OW31375   3.783   2.900   1.599
10159SOL    HW131376   3.684   2.898   1.589
10159SOL    HW231377   3.810   2.852   1.682
10160SOL     OW31378   6.981   4.169   2.245
10160SOL    HW131379   6.955   4.196   2.152
10160SOL    HW231380   7.003   4.071   2.246
10161SOL     OW31381   6.337   2.970   0.250
10161SOL    HW131382   6.436   2.982   0.253
10161SOL    HW231383   6.296   3.042   0.194
10162SOL     OW31384   2.520   2.511   2.410
10162SOL    HW131385   2.552   2.417   2.396
10162SOL    HW231386   2.537   2.564   2.327
10163SOL     OW31387   3.714   5.137   5.186
10163SOL    HW131388   3.709   5.080   5.269
10163SOL    HW231389   3.654   5.100   5.116
10164SOL     OW31390   0.241   0.640   4.068
10164SOL    HW131391   0.320   0.689   4.103
10164SOL    HW231392   0.270   0.552   4.030
10165SOL     OW31393   2.102   3.407   3.689
10165SOL    HW131394   2.063   3.470   3.755
10165SOL    HW231395   2.080   3.438   3.596
10166SOL     OW31396   2.943   6.258   3.036
10166SOL    HW131397   3.026   6.263   2.979
10166SOL    HW231398   2.881   6.190   2.997
10167SOL     OW31399   3.934   1.540   6.997
10167SOL    HW131400   3.965   1.554   6.903
10167SOL    HW231401   4.003   1.575   0.031
10168SOL     OW31402   0.895   0.931   6.316
10168SOL    HW131403   0.809   0.977   6.294
10168SOL    HW231404   0.936   0.975   6.396
10169SOL     OW31405   4.599   4.855   2.494
10169SOL    HW131406   4.601   4.776   2.432
10169SOL    HW231407   4.570   4.825   2.584
10170SOL     OW31408   4.922   6.550   6.972
10170SOL    HW131409   4.955   6.619   0.006
10170SOL    HW231410   4.822   6.544   6.978
10171SOL     OW31411   1.468   3.917   3.169
10171SOL    HW131412   1.438   3.990   3.108
10171SOL    HW231413   1.566   3.927   3.188
10172SOL     OW31414   0.836   1.242   3.041
10172SOL    HW131415   0.907   1.172   3.027
10172SOL    HW231416   0.879   1.329   3.062
10173SOL     OW31417   4.508   2.867   5.237
10173SOL    HW131418   4.425   2.918   5.258
10173SOL    HW231419   4.516   2.857   5.138
10174SOL     OW31420   4.993   4.812   1.334
10174SOL    HW131421   4.953   4.879   1.271
10174SOL    HW231422   4.922   4.781   1.398
10175SOL     OW31423   6.474   6.884   3.905
10175SOL    HW131424   6.460   6.946   3.828
10175SOL    HW231425   6.443   6.792   3.880
10176SOL     OW31426   6.902   1.450   5.216
10176SOL    HW131427   6.806   1.476   5.228
10176SOL    HW231428   6.916   1.357   5.249
10177SOL     OW31429   3.254   1.089   4.292
10177SOL    HW131430   3.301   1.059   4.209
10177SOL    HW231431   3.163   1.122   4.269
10178SOL     OW31432   6.795   1.616   2.282
10178SOL    HW131433   6.825   1.612   2.377
10178SOL    HW231434   6.845   1.548   2.228
10179SOL     OW31435   0.181   6.002   0.742
10179SOL    HW131436   0.265   6.034   0.786
10179SOL    HW231437   0.110   5.989   0.812
10180SOL     OW31438   2.627   0.244   6.319
10180SOL    HW131439   2.580   0.324   6.355
10180SOL    HW231440   2.638   0.176   6.392
10181SOL     OW31441   6.640   3.964   2.040
10181SOL    HW131442   6.650   3.901   2.117
10181SOL    HW231443   6.658   3.916   1.955
10182SOL     OW31444   3.881   0.137   6.843
10182SOL    HW131445   3.806   0.111   6.781
10182SOL    HW231446   3.944   0.061   6.854
10183SOL     OW31447   3.852   6.118   5.950
10183SOL    HW131448   3.949   6.134   5.934
10183SOL    HW231449   3.816   6.058   5.878
10184SOL     OW31450   5.158   2.344   4.462
10184SOL    HW131451   5.241   2.306   4.504
10184SOL    HW231452   5.085   2.347   4.530
10185SOL     OW31453   2.995   4.826   1.884
10185SOL    HW131454   2.962   4.734   1.903
10185SOL    HW231455   2.919   4.884   1.857
10186SOL     OW31456   3.325   3.065   1.591
10186SOL    HW131457   3.400   2.999   1.596
10186SOL    HW231458   3.350   3.147   1.642
10187SOL     OW31459   1.748   3.748   5.719
10187SOL    HW131460   1.802   3.722   5.800
10187SOL    HW231461   1.809   3.760   5.641
10188SOL     OW31462   2.281   0.383   6.760
10188SOL    HW131463   2.300   0.286   6.745
10188SOL    HW231464   2.185   0.402   6.740
10189SOL     OW31465   2.007   2.172   5.338
10189SOL    HW131466   2.067   2.106   5.292
10189SOL    HW231467   1.918   2.175   5.292
10190SOL     OW31468   3.473   4.061   0.212
10190SOL    HW131469   3.415   4.101   0.141
10190SOL    HW231470   3.534   3.993   0.171
10191SOL     OW31471   5.661   0.706   0.251
10191SOL    HW131472   5.740   0.751   0.291
10191SOL    HW231473   5.586   0.771   0.244
10192SOL     OW31474   2.445   0.250   4.166
10192SOL    HW131475   2.479   0.165   4.207
10192SOL    HW231476   2.387   0.298   4.231
10193SOL     OW31477   4.032   3.678   3.677
10193SOL    HW131478   4.033   3.606   3.608
10193SOL    HW231479   4.039   3.637   3.768
10194SOL     OW31480   2.718   5.737   3.623
10194SOL    HW131481   2.701   5.823   3.574
10194SOL    HW231482   2.817   5.720   3.626
10195SOL     OW31483   5.146   0.294   2.609
10195SOL    HW131484   5.218   0.353   2.576
10195SOL    HW231485   5.172   0.255   2.698
10196SOL     OW31486   4.766   4.684   3.857
10196SOL    HW131487   4.731   4.590   3.856
10196SOL    HW231488   4.849   4.688   3.913
10197SOL     OW31489   5.118   1.643   2.894
10197SOL    HW131490   5.185   1.584   2.939
10197SOL    HW231491   5.161   1.729   2.868
10198SOL     OW31492   3.042   1.802   1.852
10198SOL    HW131493   3.012   1.811   1.947
10198SOL    HW231494   3.048   1.706   1.827
10199SOL     OW31495   1.274   2.062   0.107
10199SOL    HW131496   1.214   2.125   0.154
10199SOL    HW231497   1.369   2.095   0.112
10200SOL     OW31498   6.004   6.964   3.670
10200SOL    HW131499   6.062   0.000   3.718
10200SOL    HW231500   6.011   6.875   3.715
10201SOL     OW31501   1.225   4.989   2.757
10201SOL    HW131502   1.275   4.902   2.762
10201SOL    HW231503   1.250   5.038   2.674
10202SOL     OW31504   1.098   2.204   3.407
10202SOL    HW131505   1.143   2.122   3.373
10202SOL    HW231506   1.159   2.253   3.469
10203SOL     OW31507   0.081   2.518   0.836
10203SOL    HW131508   0.008   2.488   0.775
10203SOL    HW231509   0.142   2.441   0.855
10204SOL     OW31510   1.982   6.004   4.299
10204SOL    HW131511   1.926   6.031   4.377
10204SOL    HW231512   1.924   5.995   4.218
10205SOL     OW31513   3.325   0.102   0.993
10205SOL    HW131514   3.337   0.201   1.000
10205SOL    HW231515   3.229   0.078   1.011
10206SOL     OW31516   5.962   6.411   0.105
10206SOL    HW131517   5.917   6.482   0.052
10206SOL    HW231518   6.061   6.424   0.099
10207SOL     OW31519   3.330   1.191   2.464
10207SOL    HW131520   3.261   1.255   2.433
10207SOL    HW231521   3.343   1.199   2.562
10208SOL     OW31522   6.922   2.622   6.066
10208SOL    HW131523   7.002   2.590   6.117
10208SOL    HW231524   6.884   2.702   6.111
10209SOL     OW31525   3.720   6.437   6.786
10209SOL    HW131526   3.667   6.429   6.871
10209SOL    HW231527   3.660   6.416   6.708
10210SOL     OW31528   4.707   6.263   6.527
10210SOL    HW131529   4.764   6.337   6.492
10210SOL    HW231530   4.685   6.279   6.624
10211SOL     OW31531   3.549   5.185   5.521
10211SOL    HW131532   3.481   5.147   5.458
10211SOL    HW231533   3.589   5.268   5.482
10212SOL     OW31534   6.348   6.143   5.759
10212SOL    HW131535   6.437   6.096   5.756
10212SOL    HW231536   6.316   6.158   5.665
10213SOL     OW31537   4.181   6.883   4.479
10213SOL    HW131538   4.196   6.883   4.380
10213SOL    HW231539   4.268   6.871   4.526
10214SOL     OW31540   0.216   0.693   0.186
10214SOL    HW131541   0.311   0.675   0.159
10214SOL    HW231542   0.184   0.777   0.143
10215SOL     OW31543   4.406   2.496   0.544
10215SOL    HW131544   4.339   2.433   0.584
10215SOL    HW231545   4.468   2.528   0.615
10216SOL     OW31546   4.835   0.784   2.624
10216SOL    HW131547   4.886   0.729   2.691
10216SOL    HW231548   4.776   0.725   2.569
10217SOL     OW31549   3.491   2.416   5.924
10217SOL    HW131550   3.583   2.433   5.959
10217SOL    HW231551   3.495   2.408   5.824
10218SOL     OW31552   4.101   0.832   6.415
10218SOL    HW131553   4.131   0.900   6.481
10218SOL    HW231554   4.006   0.808   6.432
10219SOL     OW31555   0.343   4.925   7.022
10219SOL    HW131556   0.277   4.906   6.949
10219SOL    HW231557   0.294   4.952   0.075
10220SOL     OW31558   4.335   2.234   6.754
10220SOL    HW131559   4.341   2.326   6.792
10220SOL    HW231560   4.240   2.214   6.729
10221SOL     OW31561   2.307   0.888   4.209
10221SOL    HW131562   2.387   0.829   4.198
10221SOL    HW231563   2.333   0.971   4.258
10222SOL     OW31564   2.219   4.647   5.287
10222SOL    HW131565   2.174   4.735   5.269
10222SOL    HW231566   2.152   4.573   5.281
10223SOL     OW31567   1.059   5.031   5.867
10223SOL    HW131568   1.077   5.112   5.923
10223SOL    HW231569   1.104   4.952   5.908
10224SOL     OW31570   2.838   6.219   5.502
10224SOL    HW131571   2.899   6.157   5.451
10224SOL    HW231572   2.758   6.239   5.446
10225SOL     OW31573   5.449   6.864   4.641
10225SOL    HW131574   5.462   6.868   4.542
10225SOL    HW231575   5.495   6.942   4.683
10226SOL     OW31576   0.146   2.317   6.191
10226SOL    HW131577   0.102   2.303   6.102
10226SOL    HW231578   0.081   2.363   6.252
10227SOL     OW31579   4.825   4.317   5.300
10227SOL    HW131580   4.874   4.253   5.242
10227SOL    HW231581   4.782   4.267   5.376
10228SOL     OW31582   0.795   2.996   1.642
10228SOL    HW131583   0.805   2.929   1.715
10228SOL    HW231584   0.767   3.084   1.682
10229SOL     OW31585   2.866   1.165   1.889
10229SOL    HW131586   2.947   1.143   1.943
10229SOL    HW231587   2.807   1.084   1.881
10230SOL     OW31588   5.236   6.538   3.465
10230SOL    HW131589   5.174   6.601   3.511
10230SOL    HW231590   5.307   6.590   3.418
10231SOL     OW31591   4.720   6.244   4.194
10231SOL    HW131592   4.693   6.282   4.105
10231SOL    HW231593   4.672   6.293   4.267
10232SOL     OW31594   4.394   2.465   3.068
10232SOL    HW131595   4.351   2.462   3.158
10232SOL    HW231596   4.344   2.406   3.005
10233SOL     OW31597   4.716   6.233   5.447
10233SOL    HW131598   4.728   6.321   5.494
10233SOL    HW231599   4.737   6.245   5.350
10234SOL     OW31600   4.044   4.780   1.406
10234SOL    HW131601   4.064   4.815   1.314
10234SOL    HW231602   3.998   4.851   1.460
10235SOL     OW31603   4.657   0.349   0.087
10235SOL    HW131604   4.730   0.414   0.107
10235SOL    HW231605   4.685   0.289   0.011
10236SOL     OW31606   1.667   5.457   1.182
10236SOL    HW131607   1.730   5.532   1.201
10236SOL    HW231608   1.705   5.399   1.109
10237SOL     OW31609   5.805   2.704   2.734
10237SOL    HW131610   5.738   2.738   2.800
10237SOL    HW231611   5.855   2.780   2.694
10238SOL     OW31612   4.867   5.564   6.337
10238SOL    HW131613   4.956   5.604   6.314
10238SOL    HW231614   4.795   5.622   6.298
10239SOL     OW31615   5.614   3.459   4.310
10239SOL    HW131616   5.661   3.537   4.269
10239SOL    HW231617   5.677   3.381   4.313
10240SOL     OW31618   4.804   3.927   3.006
10240SOL    HW131619   4.898   3.919   3.039
10240SOL    HW231620   4.759   3.838   3.012
10241SOL     OW31621   1.209   2.389   2.559
10241SOL    HW131622   1.185   2.481   2.588
10241SOL    HW231623   1.126   2.336   2.542
10242SOL     OW31624   1.446   5.091   6.517
10242SOL    HW131625   1.495   5.007   6.539
10242SOL    HW231626   1.371   5.070   6.454
10243SOL     OW31627   0.345   5.699   3.456
10243SOL    HW131628   0.266   5.646   3.428
10243SOL    HW231629   0.428   5.643   3.447
10244SOL     OW31630   2.260   5.981   6.749
10244SOL    HW131631   2.316   5.902   6.771
10244SOL    HW231632   2.177   5.951   6.703
10245SOL     OW31633   2.807   2.897   0.703
10245SOL    HW131634   2.788   2.987   0.742
10245SOL    HW231635   2.768   2.892   0.611
10246SOL     OW31636   3.759   4.195   4.844
10246SOL    HW131637   3.688   4.166   4.908
10246SOL    HW231638   3.757   4.294   4.835
10247SOL     OW31639   1.115   5.965   6.364
10247SOL    HW131640   1.178   5.907   6.415
10247SOL    HW231641   1.106   6.053   6.411
10248SOL     OW31642   5.938   0.724   3.493
10248SOL    HW131643   5.902   0.797   3.436
10248SOL    HW231644   6.016   0.681   3.447
10249SOL     OW31645   4.318   0.892   5.887
10249SOL    HW131646   4.362   0.803   5.871
10249SOL    HW231647   4.385   0.965   5.881
10250SOL     OW31648   4.350   5.670   0.965
10250SOL    HW131649   4.389   5.696   0.877
10250SOL    HW231650   4.392   5.725   1.037
10251SOL     OW31651   3.988   4.526   1.603
10251SOL    HW131652   4.044   4.511   1.522
10251SOL    HW231653   3.943   4.440   1.629
10252SOL     OW31654   0.269   3.793   1.102
10252SOL    HW131655   0.274   3.711   1.159
10252SOL    HW231656   0.337   3.860   1.133
10253SOL     OW31657   4.166   4.352   0.306
10253SOL    HW131658   4.130   4.277   0.251
10253SOL    HW231659   4.170   4.435   0.250
10254SOL     OW31660   2.648   2.014   5.173
10254SOL    HW131661   2.677   1.930   5.220
10254SOL    HW231662   2.727   2.055   5.127
10255SOL     OW31663   3.163   4.860   4.020
10255SOL    HW131664   3.155   4.895   4.113
10255SOL    HW231665   3.259   4.847   3.997
10256SOL     OW31666   4.934   6.289   0.448
10256SOL    HW131667   4.958   6.329   0.360
10256SOL    HW231668   4.944   6.190   0.444
10257SOL     OW31669   2.022   4.854   5.608
10257SOL    HW131670   1.959   4.780   5.634
10257SOL    HW231671   1.973   4.918   5.549
10258SOL     OW31672   4.147   0.926   2.555
10258SOL    HW131673   4.231   0.958   2.600
10258SOL    HW231674   4.083   1.002   2.546
10259SOL     OW31675   6.939   3.301   4.218
10259SOL    HW131676   6.949   3.381   4.159
10259SOL    HW231677   7.026   3.252   4.223
10260SOL     OW31678   7.002   5.551   2.008
10260SOL    HW131679   0.038   5.504   1.949
10260SOL    HW231680   6.970   5.488   2.078
10261SOL     OW31681   2.234   0.758   1.975
10261SOL    HW131682   2.295   0.691   1.931
10261SOL    HW231683   2.213   0.831   1.911
10262SOL     OW31684   0.505   6.246   3.966
10262SOL    HW131685   0.475   6.200   3.883
10262SOL    HW231686   0.426   6.280   4.017
10263SOL     OW31687   6.709   3.119   4.849
10263SOL    HW131688   6.756   3.066   4.778
10263SOL    HW231689   6.726   3.217   4.833
10264SOL     OW31690   0.568   0.090   0.553
10264SOL    HW131691   0.581   0.040   0.468
10264SOL    HW231692   0.477   0.131   0.554
10265SOL     OW31693   5.117   2.586   4.337
10265SOL    HW131694   5.140   2.669   4.388
10265SOL    HW231695   5.138   2.506   4.394
10266SOL     OW31696   3.442   3.661   6.917
10266SOL    HW131697   3.353   3.674   6.874
10266SOL    HW231698   3.466   3.564   6.915
10267SOL     OW31699   6.562   0.938   6.541
10267SOL    HW131700   6.643   0.918   6.597
10267SOL    HW231701   6.569   1.030   6.503
10268SOL     OW31702   6.834   3.795   0.351
10268SOL    HW131703   6.901   3.857   0.391
10268SOL    HW231704   6.753   3.847   0.322
10269SOL     OW31705   4.011   1.600   6.171
10269SOL    HW131706   4.090   1.571   6.225
10269SOL    HW231707   4.030   1.585   6.074
10270SOL     OW31708   3.627   5.717   2.629
10270SOL    HW131709   3.560   5.775   2.581
10270SOL    HW231710   3.719   5.755   2.614
10271SOL     OW31711   1.860   4.607   1.302
10271SOL    HW131712   1.903   4.643   1.385
10271SOL    HW231713   1.779   4.662   1.280
10272SOL     OW31714   1.831   2.294   4.197
10272SOL    HW131715   1.831   2.320   4.294
10272SOL    HW231716   1.846   2.376   4.141
10273SOL     OW31717   4.292   6.261   3.483
10273SOL    HW131718   4.195   6.269   3.458
10273SOL    HW231719   4.334   6.352   3.482
10274SOL     OW31720   2.400   4.360   6.668
10274SOL    HW131721   2.382   4.307   6.750
10274SOL    HW231722   2.437   4.300   6.597
10275SOL     OW31723   0.863   6.165   1.847
10275SOL    HW131724   0.824   6.168   1.939
10275SOL    HW231725   0.792   6.184   1.779
10276SOL     OW31726   1.123   6.811   0.827
10276SOL    HW131727   1.204   6.832   0.881
10276SOL    HW231728   1.045   6.862   0.864
10277SOL     OW31729   6.868   6.023   2.396
10277SOL    HW131730   6.847   5.988   2.487
10277SOL    HW231731   6.799   5.991   2.331
10278SOL     OW31732   6.133   1.118   5.363
10278SOL    HW131733   6.174   1.027   5.367
10278SOL    HW231734   6.052   1.115   5.305
10279SOL     OW31735   3.679   6.273   4.466
10279SOL    HW131736   3.611   6.325   4.415
10279SOL    HW231737   3.764   6.325   4.472
10280SOL     OW31738   2.448   2.517   0.233
10280SOL    HW131739   2.420   2.598   0.285
10280SOL    HW231740   2.408   2.436   0.275
10281SOL     OW31741   4.851   0.859   4.304
10281SOL    HW131742   4.926   0.811   4.258
10281SOL    HW231743   4.785   0.891   4.237
10282SOL     OW31744   1.539   3.040   4.022
10282SOL    HW131745   1.534   3.107   4.096
10282SOL    HW231746   1.611   2.974   4.043
10283SOL     OW31747   1.512   5.173   5.978
10283SOL    HW131748   1.451   5.179   5.900
10283SOL    HW231749   1.478   5.230   6.052
10284SOL     OW31750   5.185   3.074   6.808
10284SOL    HW131751   5.226   3.154   6.764
10284SOL    HW231752   5.089   3.092   6.829
10285SOL     OW31753   5.261   1.460   1.323
10285SOL    HW131754   5.262   1.559   1.337
10285SOL    HW231755   5.175   1.433   1.279
10286SOL     OW31756   3.837   0.264   3.877
10286SOL    HW131757   3.809   0.235   3.968
10286SOL    HW231758   3.906   0.200   3.841
10287SOL     OW31759   1.976   4.593   2.005
10287SOL    HW131760   1.927   4.582   1.919
10287SOL    HW231761   2.075   4.596   1.988
10288SOL     OW31762   3.870   6.086   4.216
10288SOL    HW131763   3.777   6.078   4.182
10288SOL    HW231764   3.912   6.169   4.179
10289SOL     OW31765   2.860   1.665   1.492
10289SOL    HW131766   2.812   1.720   1.560
10289SOL    HW231767   2.956   1.692   1.489
10290SOL     OW31768   3.242   3.007   3.464
10290SOL    HW131769   3.326   3.005   3.517
10290SOL    HW231770   3.163   3.009   3.525
10291SOL     OW31771   3.742   0.177   4.134
10291SOL    HW131772   3.813   0.130   4.188
10291SOL    HW231773   3.657   0.125   4.140
10292SOL     OW31774   6.720   2.444   4.063
10292SOL    HW131775   6.692   2.498   3.983
10292SOL    HW231776   6.646   2.443   4.130
10293SOL     OW31777   1.976   4.754   2.855
10293SOL    HW131778   1.977   4.706   2.944
10293SOL    HW231779   2.063   4.803   2.844
10294SOL     OW31780   5.764   0.907   3.312
10294SOL    HW131781   5.791   0.878   3.220
10294SOL    HW231782   5.666   0.892   3.325
10295SOL     OW31783   1.839   3.763   4.032
10295SOL    HW131784   1.791   3.700   4.094
10295SOL    HW231785   1.938   3.751   4.043
10296SOL     OW31786   6.165   3.436   1.472
10296SOL    HW131787   6.125   3.399   1.556
10296SOL    HW231788   6.094   3.481   1.419
10297SOL     OW31789   3.795   4.996   5.446
10297SOL    HW131790   3.735   4.980   5.524
10297SOL    HW231791   3.851   5.077   5.463
10298SOL     OW31792   6.166   2.967   2.631
10298SOL    HW131793   6.262   2.980   2.657
10298SOL    HW231794   6.108   3.018   2.694
10299SOL     OW31795   4.291   4.656   2.245
10299SOL    HW131796   4.384   4.658   2.208
10299SOL    HW231797   4.237   4.586   2.198
10300SOL     OW31798   0.776   6.110   2.103
10300SOL    HW131799   0.848   6.081   2.165
10300SOL    HW231800   0.687   6.097   2.146
10301SOL     OW31801   4.514   0.311   2.016
10301SOL    HW131802   4.521   0.246   2.093
10301SOL    HW231803   4.578   0.284   1.945
10302SOL     OW31804   1.232   4.181   3.518
10302SOL    HW131805   1.286   4.257   3.483
10302SOL    HW231806   1.231   4.107   3.451
10303SOL     OW31807   4.565   3.095   1.486
10303SOL    HW131808   4.565   3.024   1.416
10303SOL    HW231809   4.529   3.180   1.448
10304SOL     OW31810   5.670   5.613   3.479
10304SOL    HW131811   5.673   5.565   3.392
10304SOL    HW231812   5.578   5.647   3.496
10305SOL     OW31813   2.165   5.456   1.520
10305SOL    HW131814   2.238   5.400   1.561
10305SOL    HW231815   2.151   5.538   1.575
10306SOL     OW31816   4.406   4.171   0.112
10306SOL    HW131817   4.441   4.122   0.032
10306SOL    HW231818   4.340   4.113   0.161
10307SOL     OW31819   2.416   1.831   6.117
10307SOL    HW131820   2.475   1.807   6.194
10307SOL    HW231821   2.467   1.890   6.054
10308SOL     OW31822   2.914   5.123   4.279
10308SOL    HW131823   2.868   5.142   4.192
10308SOL    HW231824   2.869   5.046   4.324
10309SOL     OW31825   0.626   6.615   3.511
10309SOL    HW131826   0.598   6.667   3.592
10309SOL    HW231827   0.617   6.517   3.529
10310SOL     OW31828   3.608   4.201   4.486
10310SOL    HW131829   3.581   4.228   4.393
10310SOL    HW231830   3.692   4.146   4.482
10311SOL     OW31831   0.866   0.322   1.239
10311SOL    HW131832   0.818   0.292   1.322
10311SOL    HW231833   0.948   0.266   1.226
10312SOL     OW31834   2.981   4.955   0.661
10312SOL    HW131835   2.918   4.879   0.677
10312SOL    HW231836   3.047   4.929   0.590
10313SOL     OW31837   6.592   5.645   4.119
10313SOL    HW131838   6.557   5.567   4.170
10313SOL    HW231839   6.683   5.669   4.153
10314SOL     OW31840   6.855   5.779   5.392
10314SOL    HW131841   6.948   5.755   5.418
10314SOL    HW231842   6.842   5.878   5.400
10315SOL     OW31843   4.649   6.514   5.544
10315SOL    HW131844   4.680   6.581   5.477
10315SOL    HW231845   4.596   6.560   5.615
10316SOL     OW31846   0.574   3.832   3.846
10316SOL    HW131847   0.605   3.924   3.825
10316SOL    HW231848   0.652   3.769   3.841
10317SOL     OW31849   5.521   4.361   6.383
10317SOL    HW131850   5.517   4.335   6.479
10317SOL    HW231851   5.438   4.410   6.357
10318SOL     OW31852   5.511   4.608   2.615
10318SOL    HW131853   5.439   4.563   2.562
10318SOL    HW231854   5.524   4.701   2.580
10319SOL     OW31855   4.871   6.933   3.465
10319SOL    HW131856   4.828   6.847   3.435
10319SOL    HW231857   4.833   7.009   3.412
10320SOL     OW31858   3.847   6.404   1.927
10320SOL    HW131859   3.850   6.502   1.946
10320SOL    HW231860   3.866   6.388   1.831
10321SOL     OW31861   4.954   6.390   4.446
10321SOL    HW131862   4.949   6.490   4.448
10321SOL    HW231863   4.863   6.352   4.463
10322SOL     OW31864   6.895   1.626   6.981
10322SOL    HW131865   6.815   1.656   0.005
10322SOL    HW231866   6.968   1.694   6.990
10323SOL     OW31867   0.743   2.229   5.167
10323SOL    HW131868   0.753   2.296   5.240
10323SOL    HW231869   0.833   2.191   5.146
10324SOL     OW31870   3.225   2.988   4.276
10324SOL    HW131871   3.286   2.949   4.345
10324SOL    HW231872   3.166   3.057   4.318
10325SOL     OW31873   0.703   3.282   3.712
10325SOL    HW131874   0.624   3.240   3.669
10325SOL    HW231875   0.704   3.261   3.810
10326SOL     OW31876   5.733   1.841   1.591
10326SOL    HW131877   5.804   1.874   1.530
10326SOL    HW231878   5.776   1.803   1.673
10327SOL     OW31879   6.084   1.548   3.729
10327SOL    HW131880   5.997   1.575   3.686
10327SOL    HW231881   6.080   1.451   3.753
10328SOL     OW31882   6.602   3.831   2.288
10328SOL    HW131883   6.674   3.786   2.341
10328SOL    HW231884   6.621   3.929   2.283
10329SOL     OW31885   3.152   5.518   3.170
10329SOL    HW131886   3.239   5.478   3.140
10329SOL    HW231887   3.171   5.604   3.218
10330SOL     OW31888   3.037   3.942   0.904
10330SOL    HW131889   3.131   3.917   0.929
10330SOL    HW231890   2.996   3.995   0.978
10331SOL     OW31891   5.170   1.480   4.418
10331SOL    HW131892   5.209   1.404   4.366
10331SOL    HW231893   5.215   1.566   4.390
10332SOL     OW31894   1.411   2.555   6.803
10332SOL    HW131895   1.458   2.467   6.813
10332SOL    HW231896   1.355   2.553   6.720
10333SOL     OW31897   6.955   4.708   5.453
10333SOL    HW131898   6.938   4.610   5.437
10333SOL    HW231899   6.932   4.760   5.371
10334SOL     OW31900   0.567   5.037   5.312
10334SOL    HW131901   0.590   5.074   5.222
10334SOL    HW231902   0.470   5.010   5.313
10335SOL     OW31903   3.047   5.215   3.531
10335SOL    HW131904   2.955   5.232   3.498
10335SOL    HW231905   3.110   5.282   3.492
10336SOL     OW31906   4.665   6.993   2.848
10336SOL    HW131907   4.683   6.960   2.755
10336SOL    HW231908   4.605   0.044   2.843
10337SOL     OW31909   1.359   3.991   6.288
10337SOL    HW131910   1.435   3.980   6.353
10337SOL    HW231911   1.385   4.058   6.218
10338SOL     OW31912   2.641   4.643   2.552
10338SOL    HW131913   2.599   4.705   2.486
10338SOL    HW231914   2.737   4.627   2.526
10339SOL     OW31915   3.088   5.855   6.820
10339SOL    HW131916   3.068   5.759   6.838
10339SOL    HW231917   3.174   5.880   6.865
10340SOL     OW31918   1.719   6.545   0.969
10340SOL    HW131919   1.755   6.582   1.055
10340SOL    HW231920   1.662   6.465   0.988
10341SOL     OW31921   0.557   2.991   1.908
10341SOL    HW131922   0.582   2.895   1.901
10341SOL    HW231923   0.524   3.011   2.000
10342SOL     OW31924   2.849   5.516   4.242
10342SOL    HW131925   2.911   5.443   4.272
10342SOL    HW231926   2.834   5.580   4.317
10343SOL     OW31927   2.615   2.448   4.799
10343SOL    HW131928   2.652   2.484   4.885
10343SOL    HW231929   2.540   2.386   4.819
10344SOL     OW31930   4.610   3.658   1.332
10344SOL    HW131931   4.543   3.697   1.270
10344SOL    HW231932   4.608   3.707   1.419
10345SOL     OW31933   3.792   1.450   6.616
10345SOL    HW131934   3.712   1.475   6.562
10345SOL    HW231935   3.861   1.521   6.608
10346SOL     OW31936   6.252   5.561   0.448
10346SOL    HW131937   6.242   5.643   0.504
10346SOL    HW231938   6.170   5.549   0.392
10347SOL     OW31939   4.222   0.241   1.964
10347SOL    HW131940   4.312   0.282   1.978
10347SOL    HW231941   4.230   0.142   1.965
10348SOL     OW31942   6.874   4.090   5.426
10348SOL    HW131943   6.803   4.020   5.437
10348SOL    HW231944   6.963   4.050   5.448
10349SOL     OW31945   6.075   1.974   0.357
10349SOL    HW131946   6.023   1.899   0.398
10349SOL    HW231947   6.079   1.962   0.258
10350SOL     OW31948   2.038   4.889   4.124
10350SOL    HW131949   1.991   4.912   4.209
10350SOL    HW231950   1.994   4.936   4.047
10351SOL     OW31951   3.891   5.255   4.990
10351SOL    HW131952   3.830   5.265   5.069
10351SOL    HW231953   3.838   5.238   4.908
10352SOL     OW31954   0.160   1.204   1.494
10352SOL    HW131955   0.161   1.194   1.394
10352SOL    HW231956   0.224   1.275   1.521
10353SOL     OW31957   5.691   3.057   3.479
10353SOL    HW131958   5.720   2.961   3.490
10353SOL    HW231959   5.708   3.107   3.563
10354SOL     OW31960   6.890   3.082   1.277
10354SOL    HW131961   6.922   3.138   1.354
10354SOL    HW231962   6.927   3.118   1.192
10355SOL     OW31963   0.434   2.019   0.836
10355SOL    HW131964   0.337   2.043   0.833
10355SOL    HW231965   0.445   1.927   0.873
10356SOL     OW31966   6.042   2.289   6.841
10356SOL    HW131967   6.097   2.207   6.827
10356SOL    HW231968   5.997   2.286   6.930
10357SOL     OW31969   0.298   0.493   6.387
10357SOL    HW131970   0.290   0.546   6.472
10357SOL    HW231971   0.337   0.404   6.408
10358SOL     OW31972   0.786   2.678   3.916
10358SOL    HW131973   0.759   2.685   4.012
10358SOL    HW231974   0.844   2.598   3.902
10359SOL     OW31975   0.530   2.705   2.413
10359SOL    HW131976   0.615   2.655   2.396
10359SOL    HW231977   0.536   2.797   2.373
10360SOL     OW31978   5.945   4.410   0.957
10360SOL    HW131979   6.042   4.433   0.965
10360SOL    HW231980   5.934   4.337   0.889
10361SOL     OW31981   6.104   2.107   2.834
10361SOL    HW131982   6.063   2.145   2.917
10361SOL    HW231983   6.075   2.011   2.824
10362SOL     OW31984   0.449   6.215   1.326
10362SOL    HW131985   0.496   6.300   1.306
10362SOL    HW231986   0.506   6.158   1.385
10363SOL     OW31987   5.568   4.972   6.135
10363SOL    HW131988   5.604   4.879   6.125
10363SOL    HW231989   5.482   4.980   6.084
10364SOL     OW31990   5.968   4.937   1.843
10364SOL    HW131991   5.997   5.030   1.820
10364SOL    HW231992   5.948   4.887   1.758
10365SOL     OW31993   6.111   5.707   0.031
10365SOL    HW131994   6.098   5.614   7.028
10365SOL    HW231995   6.063   5.771   6.999
10366SOL     OW31996   3.143   0.121   3.087
10366SOL    HW131997   3.072   0.054   3.106
10366SOL    HW231998   3.109   0.189   3.023
10367SOL     OW31999   5.679   6.117   1.644
10367SOL    HW132000   5.767   6.148   1.681
10367SOL    HW232001   5.605   6.170   1.685
10368SOL     OW32002   1.199   5.976   1.564
10368SOL    HW132003   1.227   6.069   1.588
10368SOL    HW232004   1.279   5.925   1.530
10369SOL     OW32005   2.322   0.952   5.661
10369SOL    HW132006   2.323   1.002   5.747
10369SOL    HW232007   2.331   0.854   5.680
10370SOL     OW32008   1.457   1.828   6.072
10370SOL    HW132009   1.479   1.896   6.002
10370SOL    HW232010   1.463   1.736   6.033
10371SOL     OW32011   3.516   5.573   3.286
10371SOL    HW132012   3.614   5.581   3.272
10371SOL    HW232013   3.478   5.506   3.222
10372SOL     OW32014   1.735   6.000   0.528
10372SOL    HW132015   1.728   6.098   0.508
10372SOL    HW232016   1.674   5.949   0.467
10373SOL     OW32017   6.525   0.698   6.384
10373SOL    HW132018   6.522   0.779   6.442
10373SOL    HW232019   6.537   0.727   6.288
10374SOL     OW32020   2.853   4.808   3.221
10374SOL    HW132021   2.799   4.831   3.301
10374SOL    HW232022   2.793   4.770   3.150
10375SOL     OW32023   2.444   5.809   6.813
10375SOL    HW132024   2.419   5.720   6.775
10375SOL    HW232025   2.535   5.834   6.782
10376SOL     OW32026   2.242   5.078   4.246
10376SOL    HW132027   2.323   5.029   4.278
10376SOL    HW232028   2.189   5.018   4.186
10377SOL     OW32029   2.609   0.720   3.705
10377SOL    HW132030   2.517   0.710   3.742
10377SOL    HW232031   2.659   0.633   3.714
10378SOL     OW32032   0.457   6.799   5.725
10378SOL    HW132033   0.364   6.777   5.694
10378SOL    HW232034   0.453   6.834   5.818
10379SOL     OW32035   1.043   6.173   3.689
10379SOL    HW132036   1.069   6.131   3.602
10379SOL    HW232037   0.973   6.243   3.672
10380SOL     OW32038   2.870   1.093   3.633
10380SOL    HW132039   2.909   1.002   3.647
10380SOL    HW232040   2.935   1.162   3.666
10381SOL     OW32041   2.967   0.479   2.639
10381SOL    HW132042   2.985   0.386   2.607
10381SOL    HW232043   3.035   0.542   2.601
10382SOL     OW32044   4.281   5.595   1.967
10382SOL    HW132045   4.327   5.563   1.885
10382SOL    HW232046   4.334   5.569   2.048
10383SOL     OW32047   0.502   6.877   6.814
10383SOL    HW132048   0.540   6.808   6.875
10383SOL    HW232049   0.517   6.968   6.853
10384SOL     OW32050   4.768   5.082   0.689
10384SOL    HW132051   4.747   5.005   0.749
10384SOL    HW232052   4.762   5.167   0.740
10385SOL     OW32053   4.135   4.593   6.910
10385SOL    HW132054   4.154   4.682   6.866
10385SOL    HW232055   4.064   4.545   6.858
10386SOL     OW32056   0.360   0.169   2.202
10386SOL    HW132057   0.450   0.135   2.229
10386SOL    HW232058   0.370   0.260   2.161
10387SOL     OW32059   5.559   2.048   1.570
10387SOL    HW132060   5.621   1.970   1.579
10387SOL    HW232061   5.473   2.028   1.618
10388SOL     OW32062   1.250   0.362   5.060
10388SOL    HW132063   1.333   0.310   5.040
10388SOL    HW232064   1.274   0.449   5.102
10389SOL     OW32065   0.148   3.744   0.194
10389SOL    HW132066   0.067   3.692   0.220
10389SOL    HW232067   0.216   3.740   0.267
10390SOL     OW32068   2.042   1.828   2.366
10390SOL    HW132069   2.107   1.898   2.336
10390SOL    HW232070   2.051   1.747   2.309
10391SOL     OW32071   6.431   6.876   3.595
10391SOL    HW132072   6.415   6.784   3.632
10391SOL    HW232073   6.343   6.915   3.566
10392SOL     OW32074   6.643   3.638   4.175
10392SOL    HW132075   6.651   3.593   4.264
10392SOL    HW232076   6.692   3.586   4.107
10393SOL     OW32077   2.188   2.573   2.482
10393SOL    HW132078   2.174   2.555   2.580
10393SOL    HW232079   2.285   2.583   2.463
10394SOL     OW32080   3.166   6.315   3.728
10394SOL    HW132081   3.095   6.369   3.683
10394SOL    HW232082   3.133   6.221   3.742
10395SOL     OW32083   0.879   0.692   1.418
10395SOL    HW132084   0.927   0.642   1.346
10395SOL    HW232085   0.945   0.742   1.474
10396SOL     OW32086   3.488   2.235   5.212
10396SOL    HW132087   3.400   2.275   5.186
10396SOL    HW232088   3.521   2.175   5.139
10397SOL     OW32089   5.368   1.439   3.837
10397SOL    HW132090   5.339   1.379   3.911
10397SOL    HW232091   5.289   1.494   3.806
10398SOL     OW32092   5.544   2.627   2.579
10398SOL    HW132093   5.620   2.562   2.578
10398SOL    HW232094   5.530   2.664   2.487
10399SOL     OW32095   0.339   3.755   2.113
10399SOL    HW132096   0.297   3.691   2.178
10399SOL    HW232097   0.302   3.847   2.127
10400SOL     OW32098   1.975   6.484   0.873
10400SOL    HW132099   2.033   6.557   0.909
10400SOL    HW232100   1.879   6.511   0.884
10401SOL     OW32101   0.068   0.379   5.950
10401SOL    HW132102   7.017   0.388   5.892
10401SOL    HW232103   0.040   0.343   6.040
10402SOL     OW32104   6.879   4.474   4.856
10402SOL    HW132105   6.886   4.434   4.764
10402SOL    HW232106   6.835   4.563   4.849
10403SOL     OW32107   3.048   0.047   1.026
10403SOL    HW132108   3.009   0.044   1.117
10403SOL    HW232109   2.989   0.102   0.966
10404SOL     OW32110   0.208   6.054   5.933
10404SOL    HW132111   0.260   5.977   5.968
10404SOL    HW232112   0.263   6.104   5.866
10405SOL     OW32113   6.992   1.828   6.712
10405SOL    HW132114   6.923   1.899   6.695
10405SOL    HW232115   6.961   1.741   6.673
10406SOL     OW32116   1.611   5.299   0.790
10406SOL    HW132117   1.527   5.265   0.832
10406SOL    HW232118   1.595   5.319   0.694
10407SOL     OW32119   1.933   6.386   6.237
10407SOL    HW132120   1.857   6.336   6.195
10407SOL    HW232121   2.002   6.406   6.167
10408SOL     OW32122   4.823   1.030   0.151
10408SOL    HW132123   4.731   1.057   0.179
10408SOL    HW232124   4.817   0.964   0.077
10409SOL     OW32125   5.948   3.989   0.760
10409SOL    HW132126   5.865   3.941   0.791
10409SOL    HW232127   5.990   3.938   0.685
10410SOL     OW32128   4.236   6.995   0.636
10410SOL    HW132129   4.279   6.915   0.595
10410SOL    HW232130   4.307   0.031   0.662
10411SOL     OW32131   2.081   5.178   4.456
10411SOL    HW132132   2.011   5.217   4.397
10411SOL    HW232133   2.151   5.133   4.400
10412SOL     OW32134   5.173   6.923   1.744
10412SOL    HW132135   5.130   6.835   1.765
10412SOL    HW232136   5.181   6.977   1.827
10413SOL     OW32137   6.294   3.142   2.477
10413SOL    HW132138   6.248   3.220   2.435
10413SOL    HW232139   6.227   3.086   2.526
10414SOL     OW32140   5.468   3.102   4.652
10414SOL    HW132141   5.381   3.080   4.696
10414SOL    HW232142   5.450   3.142   4.562
10415SOL     OW32143   0.787   0.903   6.652
10415SOL    HW132144   0.721   0.834   6.678
10415SOL    HW232145   0.853   0.864   6.587
10416SOL     OW32146   5.173   3.087   4.062
10416SOL    HW132147   5.141   3.001   4.023
10416SOL    HW232148   5.222   3.139   3.993
10417SOL     OW32149   1.753   4.305   2.961
10417SOL    HW132150   1.762   4.234   3.032
10417SOL    HW232151   1.843   4.323   2.921
10418SOL     OW32152   1.626   5.613   6.005
10418SOL    HW132153   1.711   5.560   6.009
10418SOL    HW232154   1.618   5.669   6.088
10419SOL     OW32155   1.299   0.667   0.288
10419SOL    HW132156   1.277   0.634   0.195
10419SOL    HW232157   1.232   0.737   0.314
10420SOL     OW32158   0.117   2.491   2.783
10420SOL    HW132159   0.166   2.540   2.711
10420SOL    HW232160   0.106   2.395   2.756
10421SOL     OW32161   0.708   2.364   2.757
10421SOL    HW132162   0.626   2.392   2.806
10421SOL    HW232163   0.736   2.273   2.787
10422SOL     OW32164   5.355   3.283   6.678
10422SOL    HW132165   5.433   3.309   6.734
10422SOL    HW232166   5.371   3.310   6.583
10423SOL     OW32167   4.974   4.857   2.920
10423SOL    HW132168   4.890   4.830   2.965
10423SOL    HW232169   4.969   4.835   2.822
10424SOL     OW32170   4.802   1.645   6.331
10424SOL    HW132171   4.853   1.589   6.396
10424SOL    HW232172   4.705   1.645   6.355
10425SOL     OW32173   1.744   6.945   1.944
10425SOL    HW132174   1.799   6.991   1.874
10425SOL    HW232175   1.803   6.917   2.019
10426SOL     OW32176   6.205   4.174   0.204
10426SOL    HW132177   6.273   4.112   0.164
10426SOL    HW232178   6.192   4.151   0.301
10427SOL     OW32179   5.074   0.755   0.995
10427SOL    HW132180   4.994   0.696   0.984
10427SOL    HW232181   5.157   0.703   0.973
10428SOL     OW32182   4.793   1.094   3.641
10428SOL    HW132183   4.735   1.041   3.703
10428SOL    HW232184   4.857   1.149   3.694
10429SOL     OW32185   5.924   5.549   1.929
10429SOL    HW132186   5.993   5.566   1.859
10429SOL    HW232187   5.940   5.611   2.007
10430SOL     OW32188   4.129   6.165   3.107
10430SOL    HW132189   4.126   6.069   3.077
10430SOL    HW232190   4.057   6.216   3.059
10431SOL     OW32191   2.592   1.523   5.503
10431SOL    HW132192   2.523   1.502   5.434
10431SOL    HW232193   2.547   1.565   5.582
10432SOL     OW32194   4.511   0.908   4.585
10432SOL    HW132195   4.455   0.940   4.661
10432SOL    HW232196   4.480   0.951   4.500
10433SOL     OW32197   2.895   6.881   0.605
10433SOL    HW132198   2.990   6.850   0.606
10433SOL    HW232199   2.850   6.853   0.690
10434SOL     OW32200   2.803   1.949   4.875
10434SOL    HW132201   2.863   1.932   4.797
10434SOL    HW232202   2.850   1.921   4.959
10435SOL     OW32203   5.448   5.660   6.430
10435SOL    HW132204   5.532   5.709   6.405
10435SOL    HW232205   5.426   5.680   6.525
10436SOL     OW32206   0.655   0.669   2.706
10436SOL    HW132207   0.562   0.704   2.719
10436SOL    HW232208   0.659   0.572   2.731
10437SOL     OW32209   0.220   3.975   5.994
10437SOL    HW132210   0.187   4.065   5.964
10437SOL    HW232211   0.289   3.986   6.065
10438SOL     OW32212   3.481   6.737   5.875
10438SOL    HW132213   3.539   6.680   5.817
10438SOL    HW232214   3.404   6.683   5.908
10439SOL     OW32215   3.670   1.016   4.957
10439SOL    HW132216   3.592   1.010   5.019
10439SOL    HW232217   3.670   1.105   4.912
10440SOL     OW32218   1.333   5.373   0.547
10440SOL    HW132219   1.261   5.330   0.602
10440SOL    HW232220   1.376   5.304   0.489
10441SOL     OW32221   3.634   6.960   0.438
10441SOL    HW132222   3.711   6.959   0.374
10441SOL    HW232223   3.614   6.867   0.467
10442SOL     OW32224   4.705   6.172   5.046
10442SOL    HW132225   4.757   6.185   5.130
10442SOL    HW232226   4.760   6.123   4.980
10443SOL     OW32227   6.178   2.547   4.442
10443SOL    HW132228   6.107   2.476   4.445
10443SOL    HW232229   6.179   2.590   4.352
10444SOL     OW32230   3.582   4.937   4.957
10444SOL    HW132231   3.580   4.853   4.901
10444SOL    HW232232   3.497   4.944   5.009
10445SOL     OW32233   6.490   6.034   2.468
10445SOL    HW132234   6.451   6.126   2.457
10445SOL    HW232235   6.552   6.034   2.547
10446SOL     OW32236   1.027   6.159   6.797
10446SOL    HW132237   0.947   6.102   6.814
10446SOL    HW232238   1.002   6.256   6.806
10447SOL     OW32239   5.722   1.530   0.348
10447SOL    HW132240   5.626   1.560   0.346
10447SOL    HW232241   5.779   1.599   0.304
10448SOL     OW32242   3.378   3.795   2.528
10448SOL    HW132243   3.476   3.778   2.521
10448SOL    HW232244   3.361   3.893   2.519
10449SOL     OW32245   1.791   5.586   5.036
10449SOL    HW132246   1.693   5.574   5.022
10449SOL    HW232247   1.809   5.605   5.132
10450SOL     OW32248   0.123   3.460   1.043
10450SOL    HW132249   0.076   3.513   1.113
10450SOL    HW232250   0.163   3.378   1.084
10451SOL     OW32251   2.290   4.626   2.243
10451SOL    HW132252   2.209   4.681   2.220
10451SOL    HW232253   2.328   4.587   2.159
10452SOL     OW32254   1.428   2.773   5.542
10452SOL    HW132255   1.449   2.722   5.626
10452SOL    HW232256   1.417   2.870   5.563
10453SOL     OW32257   5.046   0.579   1.524
10453SOL    HW132258   5.037   0.597   1.622
10453SOL    HW232259   4.957   0.552   1.487
10454SOL     OW32260   5.170   3.555   1.918
10454SOL    HW132261   5.224   3.606   1.851
10454SOL    HW232262   5.073   3.576   1.905
10455SOL     OW32263   0.815   4.536   3.032
10455SOL    HW132264   0.781   4.476   3.105
10455SOL    HW232265   0.835   4.482   2.951
10456SOL     OW32266   3.564   6.356   1.418
10456SOL    HW132267   3.617   6.407   1.350
10456SOL    HW232268   3.590   6.385   1.510
10457SOL     OW32269   3.934   3.376   3.748
10457SOL    HW132270   3.886   3.289   3.736
10457SOL    HW232271   3.881   3.435   3.810
10458SOL     OW32272   0.229   6.199   1.739
10458SOL    HW132273   0.294   6.168   1.670
10458SOL    HW232274   0.238   6.142   1.821
10459SOL     OW32275   6.780   4.776   1.664
10459SOL    HW132276   6.682   4.754   1.661
10459SOL    HW232277   6.821   4.757   1.575
10460SOL     OW32278   1.433   4.472   1.828
10460SOL    HW132279   1.488   4.455   1.746
10460SOL    HW232280   1.474   4.547   1.880
10461SOL     OW32281   3.543   0.549   6.379
10461SOL    HW132282   3.469   0.483   6.391
10461SOL    HW232283   3.630   0.505   6.401
10462SOL     OW32284   5.331   6.898   1.110
10462SOL    HW132285   5.389   6.945   1.177
10462SOL    HW232286   5.282   6.967   1.056
10463SOL     OW32287   3.179   3.392   0.817
10463SOL    HW132288   3.275   3.374   0.842
10463SOL    HW232289   3.146   3.318   0.759
10464SOL     OW32290   5.677   6.505   1.773
10464SOL    HW132291   5.745   6.554   1.827
10464SOL    HW232292   5.721   6.458   1.697
10465SOL     OW32293   0.128   5.146   4.734
10465SOL    HW132294   0.075   5.185   4.810
10465SOL    HW232295   0.215   5.110   4.769
10466SOL     OW32296   5.142   6.459   5.463
10466SOL    HW132297   5.155   6.433   5.559
10466SOL    HW232298   5.149   6.378   5.405
10467SOL     OW32299   4.903   1.301   3.730
10467SOL    HW132300   4.985   1.319   3.675
10467SOL    HW232301   4.826   1.353   3.692
10468SOL     OW32302   2.826   5.185   3.754
10468SOL    HW132303   2.919   5.156   3.732
10468SOL    HW232304   2.787   5.123   3.822
10469SOL     OW32305   0.840   4.817   6.563
10469SOL    HW132306   0.776   4.888   6.593
10469SOL    HW232307   0.873   4.766   6.643
10470SOL     OW32308   2.982   1.888   4.669
10470SOL    HW132309   2.980   1.847   4.578
10470SOL    HW232310   3.076   1.893   4.701
10471SOL     OW32311   4.171   4.001   0.177
10471SOL    HW132312   4.150   3.977   0.271
10471SOL    HW232313   4.199   3.919   0.127
10472SOL     OW32314   4.185   1.159   3.508
10472SOL    HW132315   4.178   1.104   3.591
10472SOL    HW232316   4.105   1.142   3.450
10473SOL     OW32317   4.795   4.965   0.065
10473SOL    HW132318   4.796   4.878   0.016
10473SOL    HW232319   4.886   5.007   0.061
10474SOL     OW32320   5.213   0.976   3.570
10474SOL    HW132321   5.248   1.063   3.606
10474SOL    HW232322   5.271   0.901   3.603
10475SOL     OW32323   4.365   6.265   1.348
10475SOL    HW132324   4.331   6.176   1.377
10475SOL    HW232325   4.305   6.337   1.384
10476SOL     OW32326   0.155   4.983   6.592
10476SOL    HW132327   0.108   5.069   6.572
10476SOL    HW232328   0.154   4.966   6.691
10477SOL     OW32329   4.741   4.508   4.971
10477SOL    HW132330   4.813   4.578   4.975
10477SOL    HW232331   4.670   4.537   4.907
10478SOL     OW32332   0.176   6.358   3.144
10478SOL    HW132333   0.248   6.414   3.102
10478SOL    HW232334   0.208   6.264   3.153
10479SOL     OW32335   0.718   4.143   2.269
10479SOL    HW132336   0.675   4.189   2.191
10479SOL    HW232337   0.813   4.174   2.277
10480SOL     OW32338   5.140   1.077   0.838
10480SOL    HW132339   5.209   1.005   0.842
10480SOL    HW232340   5.127   1.107   0.744
10481SOL     OW32341   2.470   1.295   4.559
10481SOL    HW132342   2.558   1.260   4.591
10481SOL    HW232343   2.485   1.370   4.495
10482SOL     OW32344   0.787   6.014   6.878
10482SOL    HW132345   0.709   6.065   6.841
10482SOL    HW232346   0.784   5.920   6.845
10483SOL     OW32347   6.913   5.812   0.697
10483SOL    HW132348   6.896   5.865   0.780
10483SOL    HW232349   6.947   5.722   0.722
10484SOL     OW32350   6.803   1.749   1.833
10484SOL    HW132351   6.728   1.683   1.826
10484SOL    HW232352   6.864   1.738   1.755
10485SOL     OW32353   3.475   4.184   4.243
10485SOL    HW132354   3.482   4.091   4.208
10485SOL    HW232355   3.428   4.242   4.176
10486SOL     OW32356   6.352   5.694   5.821
10486SOL    HW132357   6.297   5.612   5.839
10486SOL    HW232358   6.447   5.677   5.847
10487SOL     OW32359   5.605   3.354   2.682
10487SOL    HW132360   5.629   3.276   2.624
10487SOL    HW232361   5.506   3.358   2.692
10488SOL     OW32362   0.367   2.001   5.040
10488SOL    HW132363   0.281   2.051   5.029
10488SOL    HW232364   0.353   1.925   5.104
10489SOL     OW32365   5.819   4.455   3.085
10489SOL    HW132366   5.835   4.491   2.993
10489SOL    HW232367   5.744   4.389   3.083
10490SOL     OW32368   5.323   6.497   6.551
10490SOL    HW132369   5.233   6.468   6.582
10490SOL    HW232370   5.373   6.539   6.627
10491SOL     OW32371   2.161   2.501   6.016
10491SOL    HW132372   2.080   2.445   5.996
10491SOL    HW232373   2.211   2.518   5.931
10492SOL     OW32374   2.629   6.182   0.579
10492SOL    HW132375   2.620   6.090   0.618
10492SOL    HW232376   2.693   6.178   0.501
10493SOL     OW32377   3.526   5.690   0.878
10493SOL    HW132378   3.569   5.634   0.807
10493SOL    HW232379   3.597   5.736   0.931
10494SOL     OW32380   0.301   4.854   4.117
10494SOL    HW132381   0.215   4.846   4.167
10494SOL    HW232382   0.303   4.786   4.043
10495SOL     OW32383   6.568   6.784   0.552
10495SOL    HW132384   6.631   6.722   0.505
10495SOL    HW232385   6.475   6.748   0.546
10496SOL     OW32386   0.560   4.787   6.146
10496SOL    HW132387   0.495   4.857   6.176
10496SOL    HW232388   0.510   4.710   6.106
10497SOL     OW32389   3.556   6.447   0.935
10497SOL    HW132390   3.531   6.430   0.840
10497SOL    HW232391   3.474   6.456   0.990
10498SOL     OW32392   3.702   3.352   6.825
10498SOL    HW132393   3.736   3.402   6.746
10498SOL    HW232394   3.608   3.380   6.845
10499SOL     OW32395   4.251   4.712   2.919
10499SOL    HW132396   4.261   4.618   2.886
10499SOL    HW232397   4.185   4.715   2.994
10500SOL     OW32398   1.875   2.716   4.750
10500SOL    HW132399   1.908   2.671   4.833
10500SOL    HW232400   1.947   2.715   4.681
10501SOL     OW32401   3.631   4.958   3.472
10501SOL    HW132402   3.607   5.053   3.454
10501SOL    HW232403   3.569   4.919   3.541
10502SOL     OW32404   2.867   3.481   2.718
10502SOL    HW132405   2.827   3.458   2.807
10502SOL    HW232406   2.915   3.401   2.682
10503SOL     OW32407   6.539   0.545   0.382
10503SOL    HW132408   6.492   0.622   0.424
10503SOL    HW232409   6.637   0.561   0.382
10504SOL     OW32410   1.296   3.208   5.426
10504SOL    HW132411   1.296   3.229   5.328
10504SOL    HW232412   1.357   3.272   5.474
10505SOL     OW32413   6.008   6.605   0.835
10505SOL    HW132414   5.921   6.617   0.883
10505SOL    HW232415   6.060   6.690   0.838
10506SOL     OW32416   1.479   4.801   5.008
10506SOL    HW132417   1.455   4.709   5.039
10506SOL    HW232418   1.567   4.827   5.047
10507SOL     OW32419   1.559   6.363   5.917
10507SOL    HW132420   1.590   6.428   5.848
10507SOL    HW232421   1.477   6.316   5.884
10508SOL     OW32422   1.731   5.870   0.812
10508SOL    HW132423   1.646   5.896   0.858
10508SOL    HW232424   1.735   5.916   0.723
10509SOL     OW32425   5.087   3.495   2.773
10509SOL    HW132426   5.083   3.580   2.826
10509SOL    HW232427   5.105   3.518   2.677
10510SOL     OW32428   5.483   5.682   3.103
10510SOL    HW132429   5.533   5.600   3.131
10510SOL    HW232430   5.395   5.686   3.152
10511SOL     OW32431   3.744   1.987   0.892
10511SOL    HW132432   3.769   1.891   0.875
10511SOL    HW232433   3.703   1.995   0.983
10512SOL     OW32434   4.141   1.056   5.202
10512SOL    HW132435   4.099   1.081   5.114
10512SOL    HW232436   4.092   0.977   5.240
10513SOL     OW32437   3.723   3.789   0.396
10513SOL    HW132438   3.702   3.697   0.428
10513SOL    HW232439   3.686   3.856   0.460
10514SOL     OW32440   1.233   5.651   1.227
10514SOL    HW132441   1.206   5.575   1.286
10514SOL    HW232442   1.153   5.704   1.201
10515SOL     OW32443   2.154   3.543   4.697
10515SOL    HW132444   2.137   3.638   4.672
10515SOL    HW232445   2.252   3.522   4.686
10516SOL     OW32446   5.523   1.610   2.143
10516SOL    HW132447   5.500   1.702   2.111
10516SOL    HW232448   5.442   1.567   2.183
10517SOL     OW32449   0.750   2.020   1.776
10517SOL    HW132450   0.775   2.064   1.690
10517SOL    HW232451   0.813   2.049   1.848
10518SOL     OW32452   1.006   6.045   2.274
10518SOL    HW132453   1.080   6.082   2.218
10518SOL    HW232454   1.025   5.949   2.296
10519SOL     OW32455   2.732   6.396   0.683
10519SOL    HW132456   2.679   6.318   0.650
10519SOL    HW232457   2.674   6.454   0.739
10520SOL     OW32458   2.258   2.642   6.241
10520SOL    HW132459   2.315   2.700   6.182
10520SOL    HW232460   2.214   2.572   6.185
10521SOL     OW32461   6.368   2.202   2.763
10521SOL    HW132462   6.399   2.168   2.675
10521SOL    HW232463   6.278   2.164   2.784
10522SOL     OW32464   5.152   1.586   3.779
10522SOL    HW132465   5.108   1.667   3.740
10522SOL    HW232466   5.123   1.505   3.728
10523SOL     OW32467   0.446   4.028   1.894
10523SOL    HW132468   0.538   3.995   1.875
10523SOL    HW232469   0.437   4.051   1.991
10524SOL     OW32470   6.043   6.194   4.776
10524SOL    HW132471   6.087   6.276   4.813
10524SOL    HW232472   5.960   6.220   4.726
10525SOL     OW32473   4.746   1.474   3.584
10525SOL    HW132474   4.782   1.551   3.531
10525SOL    HW232475   4.650   1.489   3.604
10526SOL     OW32476   1.230   5.809   5.726
10526SOL    HW132477   1.146   5.817   5.673
10526SOL    HW232478   1.309   5.810   5.665
10527SOL     OW32479   6.996   6.702   5.870
10527SOL    HW132480   0.047   6.687   5.927
10527SOL    HW232481   6.972   6.617   5.823
10528SOL     OW32482   2.056   5.258   5.549
10528SOL    HW132483   2.115   5.285   5.473
10528SOL    HW232484   2.106   5.196   5.610
10529SOL     OW32485   6.927   5.282   0.479
10529SOL    HW132486   6.877   5.356   0.525
10529SOL    HW232487   6.922   5.295   0.380
10530SOL     OW32488   6.560   0.384   1.216
10530SOL    HW132489   6.511   0.385   1.303
10530SOL    HW232490   6.545   0.470   1.168
10531SOL     OW32491   3.277   1.794   6.153
10531SOL    HW132492   3.210   1.829   6.219
10531SOL    HW232493   3.305   1.702   6.179
10532SOL     OW32494   4.750   5.800   5.764
10532SOL    HW132495   4.656   5.766   5.762
10532SOL    HW232496   4.749   5.900   5.773
10533SOL     OW32497   4.027   6.790   3.251
10533SOL    HW132498   4.077   6.743   3.178
10533SOL    HW232499   4.042   6.744   3.338
10534SOL     OW32500   1.128   6.710   3.991
10534SOL    HW132501   1.064   6.659   4.048
10534SOL    HW232502   1.206   6.740   4.047
10535SOL     OW32503   4.426   1.900   2.345
10535SOL    HW132504   4.409   1.802   2.359
10535SOL    HW232505   4.386   1.952   2.420
10536SOL     OW32506   6.056   3.723   4.337
10536SOL    HW132507   6.094   3.709   4.245
10536SOL    HW232508   6.078   3.815   4.368
10537SOL     OW32509   3.798   1.021   3.084
10537SOL    HW132510   3.795   0.921   3.085
10537SOL    HW232511   3.892   1.051   3.099
10538SOL     OW32512   6.075   2.771   3.535
10538SOL    HW132513   5.977   2.753   3.526
10538SOL    HW232514   6.114   2.711   3.605
10539SOL     OW32515   6.419   6.624   2.847
10539SOL    HW132516   6.380   6.542   2.888
10539SOL    HW232517   6.435   6.610   2.749
10540SOL     OW32518   1.400   3.694   6.507
10540SOL    HW132519   1.406   3.595   6.524
10540SOL    HW232520   1.443   3.743   6.582
10541SOL     OW32521   3.281   2.577   5.926
10541SOL    HW132522   3.364   2.521   5.924
10541SOL    HW232523   3.201   2.517   5.934
10542SOL     OW32524   4.225   6.407   2.170
10542SOL    HW132525   4.153   6.338   2.173
10542SOL    HW232526   4.186   6.497   2.188
10543SOL     OW32527   2.329   2.377   4.175
10543SOL    HW132528   2.325   2.375   4.075
10543SOL    HW232529   2.408   2.430   4.204
10544SOL     OW32530   2.856   2.183   2.517
10544SOL    HW132531   2.792   2.259   2.521
10544SOL    HW232532   2.850   2.139   2.427
10545SOL     OW32533   1.676   3.433   2.018
10545SOL    HW132534   1.730   3.350   2.004
10545SOL    HW232535   1.580   3.414   2.000
10546SOL     OW32536   2.252   0.181   5.693
10546SOL    HW132537   2.334   0.160   5.639
10546SOL    HW232538   2.231   0.104   5.753
10547SOL     OW32539   3.594   6.535   6.072
10547SOL    HW132540   3.512   6.543   6.128
10547SOL    HW232541   3.587   6.454   6.014
10548SOL     OW32542   0.807   5.579   3.213
10548SOL    HW132543   0.865   5.633   3.274
10548SOL    HW232544   0.814   5.615   3.120
10549SOL     OW32545   6.772   1.361   2.705
10549SOL    HW132546   6.695   1.338   2.765
10549SOL    HW232547   6.740   1.369   2.611
10550SOL     OW32548   5.579   5.937   3.141
10550SOL    HW132549   5.533   5.851   3.120
10550SOL    HW232550   5.675   5.931   3.113
10551SOL     OW32551   4.621   0.514   4.761
10551SOL    HW132552   4.569   0.525   4.845
10551SOL    HW232553   4.718   0.514   4.782
10552SOL     OW32554   2.503   6.386   3.676
10552SOL    HW132555   2.534   6.390   3.772
10552SOL    HW232556   2.476   6.292   3.655
10553SOL     OW32557   5.307   5.550   1.408
10553SOL    HW132558   5.347   5.628   1.456
10553SOL    HW232559   5.320   5.561   1.309
10554SOL     OW32560   6.142   5.582   1.714
10554SOL    HW132561   6.168   5.492   1.679
10554SOL    HW232562   6.094   5.633   1.643
10555SOL     OW32563   3.424   3.284   1.684
10555SOL    HW132564   3.509   3.314   1.728
10555SOL    HW232565   3.347   3.306   1.744
10556SOL     OW32566   2.639   2.247   1.943
10556SOL    HW132567   2.650   2.303   1.862
10556SOL    HW232568   2.726   2.241   1.992
10557SOL     OW32569   0.906   3.719   3.038
10557SOL    HW132570   0.867   3.628   3.046
10557SOL    HW232571   0.874   3.762   2.954
10558SOL     OW32572   4.337   4.721   4.294
10558SOL    HW132573   4.358   4.814   4.323
10558SOL    HW232574   4.410   4.688   4.233
10559SOL     OW32575   3.535   5.911   1.352
10559SOL    HW132576   3.613   5.932   1.412
10559SOL    HW232577   3.523   5.812   1.347
10560SOL     OW32578   5.722   6.990   3.594
10560SOL    HW132579   5.822   6.986   3.594
10560SOL    HW232580   5.693   0.054   3.571
10561SOL     OW32581   0.945   5.309   6.224
10561SOL    HW132582   0.900   5.220   6.229
10561SOL    HW232583   1.027   5.301   6.166
10562SOL     OW32584   3.633   6.440   2.597
10562SOL    HW132585   3.702   6.472   2.531
10562SOL    HW232586   3.641   6.341   2.607
10563SOL     OW32587   2.016   6.151   2.033
10563SOL    HW132588   2.040   6.054   2.034
10563SOL    HW232589   1.966   6.171   1.948
10564SOL     OW32590   5.235   4.611   3.519
10564SOL    HW132591   5.236   4.682   3.448
10564SOL    HW232592   5.293   4.534   3.491
10565SOL     OW32593   0.318   1.390   5.022
10565SOL    HW132594   0.362   1.449   5.090
10565SOL    HW232595   0.376   1.310   5.006
10566SOL     OW32596   4.067   2.029   0.961
10566SOL    HW132597   3.982   2.012   1.011
10566SOL    HW232598   4.048   2.033   0.863
10567SOL     OW32599   2.841   2.492   6.643
10567SOL    HW132600   2.770   2.446   6.590
10567SOL    HW232601   2.926   2.439   6.638
10568SOL     OW32602   5.389   2.302   5.810
10568SOL    HW132603   5.370   2.377   5.746
10568SOL    HW232604   5.439   2.338   5.889
10569SOL     OW32605   5.340   0.186   0.939
10569SOL    HW132606   5.293   0.235   0.867
10569SOL    HW232607   5.279   0.173   1.017
10570SOL     OW32608   1.581   3.940   2.871
10570SOL    HW132609   1.623   3.943   2.962
10570SOL    HW232610   1.612   3.857   2.824
10571SOL     OW32611   0.288   3.729   5.581
10571SOL    HW132612   0.342   3.757   5.660
10571SOL    HW232613   0.215   3.668   5.610
10572SOL     OW32614   6.205   4.451   0.866
10572SOL    HW132615   6.159   4.385   0.806
10572SOL    HW232616   6.304   4.439   0.860
10573SOL     OW32617   6.581   2.761   3.203
10573SOL    HW132618   6.533   2.710   3.275
10573SOL    HW232619   6.531   2.751   3.117
10574SOL     OW32620   5.738   2.433   2.683
10574SOL    HW132621   5.774   2.522   2.711
10574SOL    HW232622   5.799   2.393   2.615
10575SOL     OW32623   5.280   6.527   2.856
10575SOL    HW132624   5.258   6.538   2.759
10575SOL    HW232625   5.195   6.529   2.910
10576SOL     OW32626   1.813   2.978   4.473
10576SOL    HW132627   1.912   2.970   4.462
10576SOL    HW232628   1.783   2.921   4.550
10577SOL     OW32629   3.803   4.700   6.945
10577SOL    HW132630   3.846   4.644   7.016
10577SOL    HW232631   3.703   4.691   6.952
10578SOL     OW32632   1.164   3.643   2.415
10578SOL    HW132633   1.175   3.564   2.475
10578SOL    HW232634   1.072   3.643   2.376
10579SOL     OW32635   7.017   2.968   0.086
10579SOL    HW132636   0.028   2.947   7.026
10579SOL    HW232637   6.926   3.007   0.073
10580SOL     OW32638   5.641   6.137   0.061
10580SOL    HW132639   5.601   6.221   0.025
10580SOL    HW232640   5.707   6.159   0.132
10581SOL     OW32641   3.973   0.727   2.604
10581SOL    HW132642   4.008   0.820   2.590
10581SOL    HW232643   3.922   0.723   2.689
10582SOL     OW32644   6.800   3.321   6.755
10582SOL    HW132645   6.873   3.255   6.741
10582SOL    HW232646   6.808   3.359   6.848
10583SOL     OW32647   4.514   2.394   5.642
10583SOL    HW132648   4.550   2.332   5.573
10583SOL    HW232649   4.489   2.341   5.724
10584SOL     OW32650   6.368   0.940   3.922
10584SOL    HW132651   6.359   0.899   4.013
10584SOL    HW232652   6.462   0.970   3.909
10585SOL     OW32653   1.507   1.361   5.379
10585SOL    HW132654   1.562   1.297   5.324
10585SOL    HW232655   1.490   1.444   5.326
10586SOL     OW32656   4.323   3.789   6.006
10586SOL    HW132657   4.285   3.741   6.085
10586SOL    HW232658   4.339   3.885   6.029
10587SOL     OW32659   2.143   5.163   4.981
10587SOL    HW132660   2.172   5.220   5.058
10587SOL    HW232661   2.218   5.101   4.955
10588SOL     OW32662   1.367   4.064   4.058
10588SOL    HW132663   1.391   3.990   3.995
10588SOL    HW232664   1.310   4.131   4.011
10589SOL     OW32665   6.180   0.113   3.761
10589SOL    HW132666   6.224   0.116   3.671
10589SOL    HW232667   6.120   0.191   3.771
10590SOL     OW32668   0.857   5.630   2.409
10590SOL    HW132669   0.811   5.717   2.390
10590SOL    HW232670   0.907   5.636   2.495
10591SOL     OW32671   6.711   4.079   2.320
10591SOL    HW132672   6.655   4.161   2.307
10591SOL    HW232673   6.798   4.090   2.272
10592SOL     OW32674   6.830   2.967   4.645
10592SOL    HW132675   6.920   2.966   4.601
10592SOL    HW232676   6.774   2.895   4.607
10593SOL     OW32677   3.532   5.867   3.573
10593SOL    HW132678   3.609   5.891   3.514
10593SOL    HW232679   3.455   5.926   3.553
10594SOL     OW32680   3.469   5.859   3.865
10594SOL    HW132681   3.439   5.950   3.893
10594SOL    HW232682   3.504   5.863   3.772
10595SOL     OW32683   4.981   6.352   1.026
10595SOL    HW132684   4.939   6.341   0.936
10595SOL    HW232685   5.044   6.276   1.043
10596SOL     OW32686   5.590   3.661   0.089
10596SOL    HW132687   5.503   3.620   0.116
10596SOL    HW232688   5.593   3.670   7.019
10597SOL     OW32689   1.687   6.874   5.331
10597SOL    HW132690   1.625   6.826   5.269
10597SOL    HW232691   1.635   6.934   5.391
10598SOL     OW32692   3.703   1.206   0.852
10598SOL    HW132693   3.688   1.197   0.753
10598SOL    HW232694   3.619   1.236   0.896
10599SOL     OW32695   0.802   2.089   0.647
10599SOL    HW132696   0.827   2.001   0.605
10599SOL    HW232697   0.862   2.107   0.725
10600SOL     OW32698   4.442   1.375   1.659
10600SOL    HW132699   4.373   1.415   1.720
10600SOL    HW232700   4.450   1.277   1.677
10601SOL     OW32701   1.736   1.534   4.936
10601SOL    HW132702   1.740   1.612   4.999
10601SOL    HW232703   1.702   1.454   4.986
10602SOL     OW32704   6.721   6.467   1.602
10602SOL    HW132705   6.748   6.467   1.698
10602SOL    HW232706   6.655   6.394   1.585
10603SOL     OW32707   5.974   0.509   2.802
10603SOL    HW132708   6.041   0.518   2.729
10603SOL    HW232709   5.884   0.488   2.763
10604SOL     OW32710   5.498   2.093   5.362
10604SOL    HW132711   5.572   2.161   5.362
10604SOL    HW232712   5.424   2.125   5.302
10605SOL     OW32713   4.299   2.217   1.631
10605SOL    HW132714   4.249   2.132   1.613
10605SOL    HW232715   4.243   2.277   1.688
10606SOL     OW32716   6.057   1.661   0.786
10606SOL    HW132717   6.015   1.670   0.696
10606SOL    HW232718   6.098   1.570   0.794
10607SOL     OW32719   2.677   4.906   0.875
10607SOL    HW132720   2.750   4.864   0.820
10607SOL    HW232721   2.600   4.842   0.882
10608SOL     OW32722   5.774   3.771   2.819
10608SOL    HW132723   5.694   3.830   2.805
10608SOL    HW232724   5.833   3.812   2.889
10609SOL     OW32725   5.871   6.687   6.435
10609SOL    HW132726   5.921   6.723   6.514
10609SOL    HW232727   5.861   6.758   6.366
10610SOL     OW32728   0.426   1.754   2.865
10610SOL    HW132729   0.466   1.695   2.935
10610SOL    HW232730   0.499   1.789   2.806
10611SOL     OW32731   4.269   5.094   5.348
10611SOL    HW132732   4.170   5.084   5.333
10611SOL    HW232733   4.285   5.140   5.435
10612SOL     OW32734   5.553   2.679   3.640
10612SOL    HW132735   5.551   2.778   3.650
10612SOL    HW232736   5.493   2.637   3.708
10613SOL     OW32737   5.128   5.404   4.633
10613SOL    HW132738   5.125   5.504   4.639
10613SOL    HW232739   5.061   5.373   4.566
10614SOL     OW32740   4.055   2.200   6.694
10614SOL    HW132741   4.016   2.292   6.688
10614SOL    HW232742   4.036   2.150   6.609
10615SOL     OW32743   2.587   2.637   5.277
10615SOL    HW132744   2.574   2.690   5.193
10615SOL    HW232745   2.527   2.557   5.277
10616SOL     OW32746   1.499   5.653   0.137
10616SOL    HW132747   1.409   5.612   0.130
10616SOL    HW232748   1.550   5.610   0.211
10617SOL     OW32749   1.605   2.694   0.634
10617SOL    HW132750   1.614   2.785   0.594
10617SOL    HW232751   1.612   2.625   0.562
10618SOL     OW32752   0.431   5.025   4.335
10618SOL    HW132753   0.531   5.024   4.341
10618SOL    HW232754   0.402   4.993   4.245
10619SOL     OW32755   1.401   3.193   0.845
10619SOL    HW132756   1.368   3.105   0.880
10619SOL    HW232757   1.360   3.212   0.756
10620SOL     OW32758   3.418   0.772   5.368
10620SOL    HW132759   3.353   0.761   5.293
10620SOL    HW232760   3.408   0.863   5.408
10621SOL     OW32761   0.776   3.957   4.360
10621SOL    HW132762   0.703   4.015   4.325
10621SOL    HW232763   0.762   3.942   4.458
10622SOL     OW32764   4.153   2.192   5.809
10622SOL    HW132765   4.115   2.114   5.859
10622SOL    HW232766   4.119   2.190   5.715
10623SOL     OW32767   5.516   4.978   5.370
10623SOL    HW132768   5.465   5.041   5.312
10623SOL    HW232769   5.580   5.029   5.428
10624SOL     OW32770   6.893   1.546   6.289
10624SOL    HW132771   6.906   1.617   6.219
10624SOL    HW232772   6.972   1.485   6.290
10625SOL     OW32773   5.634   5.515   7.027
10625SOL    HW132774   5.638   5.456   0.077
10625SOL    HW232775   5.601   5.463   6.948
10626SOL     OW32776   5.602   3.130   2.137
10626SOL    HW132777   5.508   3.124   2.172
10626SOL    HW232778   5.631   3.039   2.106
10627SOL     OW32779   6.026   4.705   5.616
10627SOL    HW132780   5.963   4.693   5.540
10627SOL    HW232781   6.001   4.643   5.690
10628SOL     OW32782   2.473   5.830   1.506
10628SOL    HW132783   2.538   5.906   1.505
10628SOL    HW232784   2.384   5.862   1.473
10629SOL     OW32785   4.226   5.090   4.049
10629SOL    HW132786   4.225   5.088   3.949
10629SOL    HW232787   4.147   5.142   4.082
10630SOL     OW32788   3.859   0.987   1.531
10630SOL    HW132789   3.875   1.086   1.530
10630SOL    HW232790   3.927   0.941   1.473
10631SOL     OW32791   3.495   5.641   1.745
10631SOL    HW132792   3.590   5.643   1.776
10631SOL    HW232793   3.461   5.735   1.735
10632SOL     OW32794   5.751   6.652   4.345
10632SOL    HW132795   5.766   6.669   4.248
10632SOL    HW232796   5.670   6.702   4.376
10633SOL     OW32797   2.340   2.886   0.464
10633SOL    HW132798   2.258   2.867   0.517
10633SOL    HW232799   2.382   2.971   0.495
10634SOL     OW32800   0.986   4.700   0.187
10634SOL    HW132801   1.066   4.731   0.137
10634SOL    HW232802   1.014   4.654   0.271
10635SOL     OW32803   3.098   4.518   6.465
10635SOL    HW132804   3.082   4.609   6.503
10635SOL    HW232805   3.014   4.464   6.469
10636SOL     OW32806   6.283   3.216   0.597
10636SOL    HW132807   6.367   3.166   0.618
10636SOL    HW232808   6.220   3.209   0.674
10637SOL     OW32809   2.572   0.462   6.033
10637SOL    HW132810   2.655   0.503   6.070
10637SOL    HW232811   2.494   0.523   6.049
10638SOL     OW32812   5.667   5.029   6.927
10638SOL    HW132813   5.655   5.022   7.026
10638SOL    HW232814   5.612   5.104   6.892
10639SOL     OW32815   6.325   4.943   0.190
10639SOL    HW132816   6.389   4.884   0.142
10639SOL    HW232817   6.323   4.918   0.287
10640SOL     OW32818   3.691   6.262   3.975
10640SOL    HW132819   3.789   6.246   3.960
10640SOL    HW232820   3.642   6.250   3.889
10641SOL     OW32821   0.995   1.332   3.624
10641SOL    HW132822   0.978   1.270   3.701
10641SOL    HW232823   0.923   1.319   3.555
10642SOL     OW32824   0.290   2.170   6.392
10642SOL    HW132825   0.249   2.153   6.482
10642SOL    HW232826   0.229   2.228   6.338
10643SOL     OW32827   2.900   5.292   5.950
10643SOL    HW132828   2.933   5.225   6.016
10643SOL    HW232829   2.877   5.377   5.997
10644SOL     OW32830   0.179   3.550   3.339
10644SOL    HW132831   0.133   3.496   3.269
10644SOL    HW232832   0.278   3.543   3.328
10645SOL     OW32833   2.177   2.927   3.186
10645SOL    HW132834   2.197   2.976   3.101
10645SOL    HW232835   2.229   2.841   3.189
10646SOL     OW32836   5.112   0.772   3.143
10646SOL    HW132837   5.053   0.738   3.216
10646SOL    HW232838   5.179   0.837   3.181
10647SOL     OW32839   4.152   5.307   4.863
10647SOL    HW132840   4.062   5.286   4.901
10647SOL    HW232841   4.211   5.343   4.935
10648SOL     OW32842   4.742   4.080   5.470
10648SOL    HW132843   4.807   4.076   5.545
10648SOL    HW232844   4.673   4.149   5.489
10649SOL     OW32845   6.339   3.453   3.656
10649SOL    HW132846   6.329   3.524   3.587
10649SOL    HW232847   6.339   3.363   3.612
10650SOL     OW32848   0.665   6.821   2.769
10650SOL    HW132849   0.595   6.890   2.785
10650SOL    HW232850   0.696   6.827   2.674
10651SOL     OW32851   2.094   6.089   6.181
10651SOL    HW132852   2.051   6.132   6.260
10651SOL    HW232853   2.028   6.085   6.106
10652SOL     OW32854   2.596   0.775   6.923
10652SOL    HW132855   2.509   0.730   6.901
10652SOL    HW232856   2.640   0.728   6.999
10653SOL     OW32857   5.303   6.226   4.634
10653SOL    HW132858   5.206   6.216   4.610
10653SOL    HW232859   5.351   6.270   4.558
10654SOL     OW32860   6.677   1.612   4.060
10654SOL    HW132861   6.706   1.676   4.131
10654SOL    HW232862   6.577   1.608   4.058
10655SOL     OW32863   6.594   5.443   0.750
10655SOL    HW132864   6.568   5.358   0.704
10655SOL    HW232865   6.528   5.464   0.821
10656SOL     OW32866   6.031   1.149   5.814
10656SOL    HW132867   6.060   1.101   5.731
10656SOL    HW232868   5.966   1.093   5.865
10657SOL     OW32869   4.669   6.698   5.371
10657SOL    HW132870   4.579   6.741   5.365
10657SOL    HW232871   4.737   6.758   5.329
10658SOL     OW32872   0.643   1.295   5.858
10658SOL    HW132873   0.691   1.243   5.787
10658SOL    HW232874   0.574   1.236   5.901
10659SOL     OW32875   6.997   5.792   6.991
10659SOL    HW132876   0.047   5.807   0.019
10659SOL    HW232877   6.998   5.698   6.956
10660SOL     OW32878   5.982   2.752   6.611
10660SOL    HW132879   5.932   2.740   6.525
10660SOL    HW232880   6.004   2.662   6.649
10661SOL     OW32881   3.750   5.808   6.033
10661SOL    HW132882   3.718   5.834   6.124
10661SOL    HW232883   3.708   5.867   5.964
10662SOL     OW32884   2.945   1.019   0.887
10662SOL    HW132885   2.918   1.116   0.883
10662SOL    HW232886   3.014   1.007   0.958
10663SOL     OW32887   0.164   3.208   3.942
10663SOL    HW132888   0.197   3.298   3.915
10663SOL    HW232889   0.233   3.139   3.921
10664SOL     OW32890   0.962   6.526   4.781
10664SOL    HW132891   0.953   6.526   4.881
10664SOL    HW232892   0.984   6.434   4.749
10665SOL     OW32893   3.666   3.932   0.089
10665SOL    HW132894   3.683   3.859   0.156
10665SOL    HW232895   3.752   3.960   0.048
10666SOL     OW32896   4.315   3.480   1.032
10666SOL    HW132897   4.390   3.481   1.098
10666SOL    HW232898   4.257   3.401   1.048
10667SOL     OW32899   5.635   2.539   4.086
10667SOL    HW132900   5.719   2.559   4.136
10667SOL    HW232901   5.557   2.579   4.133
10668SOL     OW32902   3.299   3.357   6.149
10668SOL    HW132903   3.296   3.431   6.083
10668SOL    HW232904   3.392   3.320   6.153
10669SOL     OW32905   6.524   2.233   1.621
10669SOL    HW132906   6.427   2.208   1.618
10669SOL    HW232907   6.541   2.289   1.702
10670SOL     OW32908   4.700   4.813   3.626
10670SOL    HW132909   4.697   4.761   3.711
10670SOL    HW232910   4.655   4.901   3.639
10671SOL     OW32911   2.095   3.093   4.737
10671SOL    HW132912   2.084   3.152   4.816
10671SOL    HW232913   2.161   3.021   4.758
10672SOL     OW32914   6.246   4.313   1.532
10672SOL    HW132915   6.174   4.245   1.535
10672SOL    HW232916   6.209   4.403   1.553
10673SOL     OW32917   2.874   1.289   0.988
10673SOL    HW132918   2.829   1.313   1.074
10673SOL    HW232919   2.905   1.372   0.942
10674SOL     OW32920   3.876   3.449   4.518
10674SOL    HW132921   3.969   3.480   4.496
10674SOL    HW232922   3.845   3.387   4.446
10675SOL     OW32923   3.713   6.448   5.406
10675SOL    HW132924   3.800   6.462   5.454
10675SOL    HW232925   3.730   6.395   5.323
10676SOL     OW32926   1.589   1.084   4.906
10676SOL    HW132927   1.646   1.006   4.932
10676SOL    HW232928   1.620   1.120   4.818
10677SOL     OW32929   0.227   2.024   6.965
10677SOL    HW132930   0.287   2.069   0.002
10677SOL    HW232931   0.154   2.087   6.939
10678SOL     OW32932   3.937   5.165   2.528
10678SOL    HW132933   3.874   5.093   2.500
10678SOL    HW232934   3.903   5.253   2.496
10679SOL     OW32935   4.849   3.797   0.443
10679SOL    HW132936   4.795   3.754   0.371
10679SOL    HW232937   4.862   3.894   0.421
10680SOL     OW32938   4.631   1.014   5.616
10680SOL    HW132939   4.548   1.042   5.664
10680SOL    HW232940   4.609   0.947   5.546
10681SOL     OW32941   2.415   3.280   5.321
10681SOL    HW132942   2.479   3.327   5.382
10681SOL    HW232943   2.457   3.197   5.286
10682SOL     OW32944   5.118   3.417   6.180
10682SOL    HW132945   5.166   3.378   6.102
10682SOL    HW232946   5.152   3.510   6.197
10683SOL     OW32947   2.308   0.773   3.219
10683SOL    HW132948   2.235   0.713   3.185
10683SOL    HW232949   2.396   0.726   3.209
10684SOL     OW32950   4.848   4.415   1.515
10684SOL    HW132951   4.847   4.513   1.533
10684SOL    HW232952   4.761   4.374   1.545
10685SOL     OW32953   1.079   6.817   2.401
10685SOL    HW132954   0.979   6.819   2.393
10685SOL    HW232955   1.106   6.840   2.494
10686SOL     OW32956   2.569   1.192   6.589
10686SOL    HW132957   2.471   1.169   6.583
10686SOL    HW232958   2.600   1.178   6.683
10687SOL     OW32959   0.757   3.501   3.368
10687SOL    HW132960   0.679   3.476   3.425
10687SOL    HW232961   0.769   3.600   3.371
10688SOL     OW32962   5.117   1.371   3.578
10688SOL    HW132963   5.118   1.434   3.501
10688SOL    HW232964   5.182   1.297   3.561
10689SOL     OW32965   1.132   1.161   2.756
10689SOL    HW132966   1.112   1.098   2.831
10689SOL    HW232967   1.083   1.247   2.771
10690SOL     OW32968   1.137   6.749   4.816
10690SOL    HW132969   1.171   6.795   4.734
10690SOL    HW232970   1.085   6.668   4.790
10691SOL     OW32971   3.336   6.413   1.290
10691SOL    HW132972   3.419   6.376   1.332
10691SOL    HW232973   3.301   6.488   1.347
10692SOL     OW32974   2.829   1.673   4.253
10692SOL    HW132975   2.853   1.636   4.163
10692SOL    HW232976   2.733   1.701   4.253
10693SOL     OW32977   0.884   4.789   0.713
10693SOL    HW132978   0.864   4.692   0.699
10693SOL    HW232979   0.807   4.844   0.679
10694SOL     OW32980   4.455   0.581   5.044
10694SOL    HW132981   4.356   0.574   5.059
10694SOL    HW232982   4.503   0.560   5.129
10695SOL     OW32983   5.186   4.359   1.801
10695SOL    HW132984   5.265   4.384   1.745
10695SOL    HW232985   5.165   4.434   1.864
10696SOL     OW32986   6.267   4.299   4.568
10696SOL    HW132987   6.218   4.267   4.487
10696SOL    HW232988   6.201   4.334   4.634
10697SOL     OW32989   3.101   5.325   5.120
10697SOL    HW132990   3.197   5.326   5.094
10697SOL    HW232991   3.074   5.233   5.147
10698SOL     OW32992   3.951   3.789   0.006
10698SOL    HW132993   3.975   3.755   0.097
10698SOL    HW232994   3.874   3.736   7.000
10699SOL     OW32995   3.721   3.462   1.090
10699SOL    HW132996   3.685   3.407   1.014
10699SOL    HW232997   3.806   3.507   1.061
10700SOL     OW32998   4.818   0.484   1.410
10700SOL    HW132999   4.800   0.389   1.387
10700SOL    HW233000   4.758   0.543   1.356
10701SOL     OW33001   3.325   6.330   6.467
10701SOL    HW133002   3.242   6.357   6.417
10701SOL    HW233003   3.323   6.232   6.486
10702SOL     OW33004   5.900   1.448   1.939
10702SOL    HW133005   5.859   1.519   1.996
10702SOL    HW233006   5.864   1.359   1.967
10703SOL     OW33007   0.436   1.883   5.261
10703SOL    HW133008   0.534   1.897   5.243
10703SOL    HW233009   0.408   1.938   5.339
10704SOL     OW33010   5.398   6.778   2.246
10704SOL    HW133011   5.395   6.715   2.168
10704SOL    HW233012   5.491   6.782   2.282
10705SOL     OW33013   4.529   3.182   0.416
10705SOL    HW133014   4.628   3.178   0.403
10705SOL    HW233015   4.499   3.277   0.416
10706SOL     OW33016   3.626   0.815   1.432
10706SOL    HW133017   3.690   0.882   1.469
10706SOL    HW233018   3.653   0.790   1.339
10707SOL     OW33019   4.744   6.713   3.360
10707SOL    HW133020   4.711   6.701   3.266
10707SOL    HW233021   4.807   6.638   3.382
10708SOL     OW33022   4.204   1.022   1.842
10708SOL    HW133023   4.113   1.054   1.865
10708SOL    HW233024   4.197   0.942   1.781
10709SOL     OW33025   6.328   4.435   2.744
10709SOL    HW133026   6.418   4.393   2.755
10709SOL    HW233027   6.272   4.415   2.825
10710SOL     OW33028   4.544   1.954   3.564
10710SOL    HW133029   4.495   2.039   3.544
10710SOL    HW233030   4.527   1.927   3.659
10711SOL     OW33031   2.987   6.842   2.315
10711SOL    HW133032   3.071   6.789   2.318
10711SOL    HW233033   2.994   6.911   2.243
10712SOL     OW33034   5.205   0.382   3.555
10712SOL    HW133035   5.293   0.336   3.546
10712SOL    HW233036   5.166   0.361   3.645
10713SOL     OW33037   1.639   4.284   1.431
10713SOL    HW133038   1.576   4.360   1.445
10713SOL    HW233039   1.685   4.263   1.517
10714SOL     OW33040   2.977   4.030   5.053
10714SOL    HW133041   2.881   4.012   5.069
10714SOL    HW233042   3.003   3.996   4.963
10715SOL     OW33043   5.711   0.796   1.989
10715SOL    HW133044   5.665   0.744   2.061
10715SOL    HW233045   5.750   0.733   1.922
10716SOL     OW33046   5.282   0.975   3.197
10716SOL    HW133047   5.324   1.019   3.117
10716SOL    HW233048   5.228   1.042   3.248
10717SOL     OW33049   2.354   2.870   6.773
10717SOL    HW133050   2.289   2.943   6.793
10717SOL    HW233051   2.432   2.878   6.835
10718SOL     OW33052   1.606   5.014   6.192
10718SOL    HW133053   1.552   5.065   6.125
10718SOL    HW233054   1.690   5.064   6.212
10719SOL     OW33055   0.462   5.839   4.805
10719SOL    HW133056   0.480   5.750   4.764
10719SOL    HW233057   0.378   5.877   4.765
10720SOL     OW33058   0.368   5.053   3.151
10720SOL    HW133059   0.298   4.987   3.124
10720SOL    HW233060   0.382   5.120   3.078
10721SOL     OW33061   4.869   3.473   6.073
10721SOL    HW133062   4.951   3.442   6.121
10721SOL    HW233063   4.865   3.429   5.983
10722SOL     OW33064   6.938   3.502   5.547
10722SOL    HW133065   6.860   3.506   5.485
10722SOL    HW233066   6.956   3.407   5.572
10723SOL     OW33067   5.346   6.789   0.804
10723SOL    HW133068   5.417   6.806   0.736
10723SOL    HW233069   5.387   6.775   0.894
10724SOL     OW33070   0.330   6.305   6.732
10724SOL    HW133071   0.421   6.270   6.756
10724SOL    HW233072   0.305   6.378   6.794
10725SOL     OW33073   1.831   6.135   5.770
10725SOL    HW133074   1.908   6.105   5.713
10725SOL    HW233075   1.750   6.081   5.747
10726SOL     OW33076   4.366   1.185   3.990
10726SOL    HW133077   4.400   1.259   3.933
10726SOL    HW233078   4.429   1.170   4.067
10727SOL     OW33079   2.362   6.403   6.241
10727SOL    HW133080   2.294   6.461   6.286
10727SOL    HW233081   2.316   6.343   6.175
10728SOL     OW33082   5.557   5.845   0.730
10728SOL    HW133083   5.556   5.920   0.664
10728SOL    HW233084   5.474   5.790   0.719
10729SOL     OW33085   6.169   2.057   1.232
10729SOL    HW133086   6.175   1.968   1.187
10729SOL    HW233087   6.227   2.058   1.313
10730SOL     OW33088   4.355   0.247   2.623
10730SOL    HW133089   4.317   0.168   2.577
10730SOL    HW233090   4.406   0.303   2.558
10731SOL     OW33091   4.535   6.957   1.067
10731SOL    HW133092   4.533   6.860   1.042
10731SOL    HW233093   4.472   6.972   1.143
10732SOL     OW33094   0.947   3.337   5.671
10732SOL    HW133095   1.039   3.343   5.710
10732SOL    HW233096   0.954   3.306   5.576
10733SOL     OW33097   5.934   1.753   0.535
10733SOL    HW133098   5.876   1.681   0.498
10733SOL    HW233099   5.878   1.830   0.565
10734SOL     OW33100   6.638   3.022   1.736
10734SOL    HW133101   6.638   3.122   1.748
10734SOL    HW233102   6.699   2.998   1.661
10735SOL     OW33103   0.202   4.878   3.048
10735SOL    HW133104   0.124   4.844   3.099
10735SOL    HW233105   0.245   4.802   2.998
10736SOL     OW33106   2.392   0.587   3.839
10736SOL    HW133107   2.320   0.599   3.770
10736SOL    HW233108   2.379   0.500   3.886
10737SOL     OW33109   6.794   2.186   0.972
10737SOL    HW133110   6.878   2.169   0.922
10737SOL    HW233111   6.720   2.206   0.908
10738SOL     OW33112   4.314   0.137   3.535
10738SOL    HW133113   4.260   0.108   3.456
10738SOL    HW233114   4.394   0.077   3.544
10739SOL     OW33115   2.689   1.872   1.902
10739SOL    HW133116   2.734   1.880   1.991
10739SOL    HW233117   2.716   1.950   1.845
10740SOL     OW33118   4.352   5.277   3.091
10740SOL    HW133119   4.291   5.300   3.015
10740SOL    HW233120   4.417   5.207   3.061
10741SOL     OW33121   3.759   0.783   2.805
10741SOL    HW133122   3.677   0.754   2.855
10741SOL    HW233123   3.839   0.771   2.863
10742SOL     OW33124   6.805   5.519   0.558
10742SOL    HW133125   6.715   5.498   0.520
10742SOL    HW233126   6.808   5.492   0.654
10743SOL     OW33127   2.270   2.474   5.196
10743SOL    HW133128   2.301   2.542   5.129
10743SOL    HW233129   2.268   2.516   5.287
10744SOL     OW33130   5.243   2.020   0.627
10744SOL    HW133131   5.187   2.101   0.646
10744SOL    HW233132   5.315   2.013   0.696
10745SOL     OW33133   6.528   5.896   6.543
10745SOL    HW133134   6.609   5.891   6.484
10745SOL    HW233135   6.484   5.986   6.531
10746SOL     OW33136   1.013   4.233   6.073
10746SOL    HW133137   1.093   4.224   6.013
10746SOL    HW233138   0.952   4.156   6.059
10747SOL     OW33139   3.246   2.017   4.504
10747SOL    HW133140   3.183   2.070   4.447
10747SOL    HW233141   3.272   2.071   4.584
10748SOL     OW33142   4.975   1.758   2.123
10748SOL    HW133143   4.950   1.828   2.056
10748SOL    HW233144   5.038   1.693   2.081
10749SOL     OW33145   2.628   0.401   6.715
10749SOL    HW133146   2.713   0.355   6.689
10749SOL    HW233147   2.604   0.376   6.809
10750SOL     OW33148   4.144   0.154   6.457
10750SOL    HW133149   4.058   0.206   6.467
10750SOL    HW233150   4.138   0.070   6.511
10751SOL     OW33151   2.106   5.320   4.081
10751SOL    HW133152   2.169   5.343   4.155
10751SOL    HW233153   2.085   5.403   4.028
10752SOL     OW33154   5.329   4.579   3.946
10752SOL    HW133155   5.281   4.612   3.865
10752SOL    HW233156   5.267   4.583   4.025
10753SOL     OW33157   6.575   3.475   4.391
10753SOL    HW133158   6.591   3.379   4.369
10753SOL    HW233159   6.476   3.493   4.391
10754SOL     OW33160   1.129   0.049   2.632
10754SOL    HW133161   1.212   0.045   2.578
10754SOL    HW233162   1.150   0.026   2.727
10755SOL     OW33163   6.004   5.719   2.143
10755SOL    HW133164   6.003   5.677   2.233
10755SOL    HW233165   6.098   5.734   2.114
10756SOL     OW33166   0.830   7.021   5.197
10756SOL    HW133167   0.816   0.019   5.102
10756SOL    HW233168   0.787   0.058   5.258
10757SOL     OW33169   2.963   3.003   1.100
10757SOL    HW133170   2.876   2.956   1.114
10757SOL    HW233171   2.946   3.095   1.067
10758SOL     OW33172   0.706   5.149   4.101
10758SOL    HW133173   0.630   5.180   4.157
10758SOL    HW233174   0.762   5.084   4.153
10759SOL     OW33175   0.044   1.455   6.627
10759SOL    HW133176   0.060   1.434   6.723
10759SOL    HW233177   6.994   1.514   6.619
10760SOL     OW33178   5.623   1.291   4.626
10760SOL    HW133179   5.704   1.345   4.607
10760SOL    HW233180   5.541   1.344   4.602
10761SOL     OW33181   2.624   4.877   5.601
10761SOL    HW133182   2.592   4.782   5.593
10761SOL    HW233183   2.724   4.876   5.613
10762SOL     OW33184   2.998   1.464   4.860
10762SOL    HW133185   3.047   1.387   4.820
10762SOL    HW233186   3.001   1.458   4.960
10763SOL     OW33187   4.298   6.665   3.584
10763SOL    HW133188   4.330   6.688   3.676
10763SOL    HW233189   4.372   6.620   3.534
10764SOL     OW33190   4.818   0.191   4.694
10764SOL    HW133191   4.875   0.241   4.629
10764SOL    HW233192   4.840   0.220   4.787
10765SOL     OW33193   5.678   3.693   0.568
10765SOL    HW133194   5.776   3.671   0.562
10765SOL    HW233195   5.635   3.680   0.479
10766SOL     OW33196   3.502   3.701   1.559
10766SOL    HW133197   3.550   3.645   1.491
10766SOL    HW233198   3.569   3.758   1.607
10767SOL     OW33199   4.843   1.666   2.371
10767SOL    HW133200   4.782   1.745   2.375
10767SOL    HW233201   4.913   1.682   2.302
10768SOL     OW33202   5.912   4.669   0.027
10768SOL    HW133203   5.932   4.763   0.056
10768SOL    HW233204   5.938   4.657   6.961
10769SOL     OW33205   1.582   4.091   5.406
10769SOL    HW133206   1.546   4.165   5.463
10769SOL    HW233207   1.641   4.032   5.461
10770SOL     OW33208   3.737   5.991   3.831
10770SOL    HW133209   3.833   5.991   3.802
10770SOL    HW233210   3.725   5.921   3.902
10771SOL     OW33211   2.191   1.371   4.103
10771SOL    HW133212   2.193   1.470   4.119
10771SOL    HW233213   2.284   1.335   4.107
10772SOL     OW33214   5.391   5.400   3.301
10772SOL    HW133215   5.320   5.364   3.362
10772SOL    HW233216   5.375   5.368   3.208
10773SOL     OW33217   5.953   4.203   3.188
10773SOL    HW133218   5.884   4.162   3.248
10773SOL    HW233219   5.927   4.297   3.166
10774SOL     OW33220   0.396   0.171   3.034
10774SOL    HW133221   0.457   0.213   3.101
10774SOL    HW233222   0.306   0.214   3.039
10775SOL     OW33223   0.710   3.261   1.828
10775SOL    HW133224   0.799   3.216   1.825
10775SOL    HW233225   0.722   3.359   1.845
10776SOL     OW33226   1.429   0.563   6.334
10776SOL    HW133227   1.490   0.488   6.359
10776SOL    HW233228   1.483   0.640   6.300
10777SOL     OW33229   2.555   5.713   1.207
10777SOL    HW133230   2.471   5.704   1.261
10777SOL    HW233231   2.619   5.641   1.232
10778SOL     OW33232   5.932   5.527   2.315
10778SOL    HW133233   5.973   5.448   2.360
10778SOL    HW233234   5.848   5.498   2.268
10779SOL     OW33235   5.025   2.853   4.016
10779SOL    HW133236   5.029   2.796   4.098
10779SOL    HW233237   4.933   2.891   4.006
10780SOL     OW33238   6.489   0.331   2.770
10780SOL    HW133239   6.413   0.323   2.706
10780SOL    HW233240   6.488   0.422   2.813
10781SOL     OW33241   3.454   0.157   4.073
10781SOL    HW133242   3.497   0.182   3.987
10781SOL    HW233243   3.378   0.094   4.055
10782SOL     OW33244   6.127   5.245   3.976
10782SOL    HW133245   6.211   5.203   4.009
10782SOL    HW233246   6.146   5.339   3.947
10783SOL     OW33247   6.804   2.031   3.619
10783SOL    HW133248   6.894   1.999   3.588
10783SOL    HW233249   6.797   2.017   3.718
10784SOL     OW33250   2.765   1.549   4.484
10784SOL    HW133251   2.804   1.582   4.398
10784SOL    HW233252   2.726   1.625   4.535
10785SOL     OW33253   1.119   3.632   6.043
10785SOL    HW133254   1.149   3.538   6.022
10785SOL    HW233255   1.185   3.674   6.105
10786SOL     OW33256   0.411   4.612   3.660
10786SOL    HW133257   0.377   4.663   3.580
10786SOL    HW233258   0.422   4.516   3.636
10787SOL     OW33259   1.755   2.360   6.159
10787SOL    HW133260   1.690   2.310   6.215
10787SOL    HW233261   1.775   2.449   6.201
10788SOL     OW33262   5.899   3.857   6.009
10788SOL    HW133263   5.916   3.933   6.072
10788SOL    HW233264   5.985   3.829   5.967
10789SOL     OW33265   5.892   1.858   0.892
10789SOL    HW133266   5.949   1.788   0.850
10789SOL    HW233267   5.819   1.884   0.828
10790SOL     OW33268   6.940   6.429   3.083
10790SOL    HW133269   0.009   6.411   3.079
10790SOL    HW233270   6.909   6.419   3.178
10791SOL     OW33271   0.764   6.543   2.786
10791SOL    HW133272   0.697   6.585   2.847
10791SOL    HW233273   0.818   6.616   2.742
10792SOL     OW33274   3.843   4.108   5.574
10792SOL    HW133275   3.755   4.088   5.617
10792SOL    HW233276   3.832   4.180   5.506
10793SOL     OW33277   6.127   3.620   4.576
10793SOL    HW133278   6.064   3.570   4.635
10793SOL    HW233279   6.080   3.647   4.492
10794SOL     OW33280   3.324   4.142   3.657
10794SOL    HW133281   3.354   4.152   3.752
10794SOL    HW233282   3.224   4.138   3.654
10795SOL     OW33283   7.002   5.168   3.192
10795SOL    HW133284   6.919   5.218   3.167
10795SOL    HW233285   7.023   5.101   3.121
10796SOL     OW33286   1.544   6.143   5.271
10796SOL    HW133287   1.546   6.211   5.199
10796SOL    HW233288   1.459   6.152   5.323
10797SOL     OW33289   3.552   2.555   0.205
10797SOL    HW133290   3.564   2.600   0.116
10797SOL    HW233291   3.471   2.592   0.251
10798SOL     OW33292   6.681   1.393   1.111
10798SOL    HW133293   6.724   1.313   1.152
10798SOL    HW233294   6.751   1.462   1.092
10799SOL     OW33295   4.839   2.145   1.258
10799SOL    HW133296   4.739   2.150   1.252
10799SOL    HW233297   4.867   2.050   1.270
10800SOL     OW33298   0.248   6.720   1.770
10800SOL    HW133299   0.237   6.665   1.688
10800SOL    HW233300   0.309   6.672   1.834
10801SOL     OW33301   1.788   0.592   1.124
10801SOL    HW133302   1.873   0.568   1.076
10801SOL    HW233303   1.795   0.684   1.160
10802SOL     OW33304   6.273   1.118   3.435
10802SOL    HW133305   6.241   1.046   3.373
10802SOL    HW233306   6.265   1.087   3.530
10803SOL     OW33307   2.118   5.589   6.171
10803SOL    HW133308   2.187   5.626   6.232
10803SOL    HW233309   2.162   5.538   6.097
10804SOL     OW33310   0.007   2.958   4.447
10804SOL    HW133311   0.034   3.043   4.401
10804SOL    HW233312   0.087   2.917   4.490
10805SOL     OW33313   6.326   1.363   6.580
10805SOL    HW133314   6.298   1.311   6.660
10805SOL    HW233315   6.324   1.303   6.499
10806SOL     OW33316   1.579   5.098   0.036
10806SOL    HW133317   1.605   5.189   0.066
10806SOL    HW233318   1.630   5.074   6.982
10807SOL     OW33319   2.940   5.944   5.307
10807SOL    HW133320   3.031   5.956   5.348
10807SOL    HW233321   2.888   5.878   5.361
10808SOL     OW33322   1.019   3.012   6.257
10808SOL    HW133323   0.980   2.941   6.315
10808SOL    HW233324   0.961   3.094   6.262
10809SOL     OW33325   1.912   0.282   4.725
10809SOL    HW133326   2.004   0.262   4.759
10809SOL    HW233327   1.859   0.327   4.797
10810SOL     OW33328   6.425   0.398   3.987
10810SOL    HW133329   6.447   0.379   3.892
10810SOL    HW233330   6.326   0.407   3.998
10811SOL     OW33331   5.319   4.866   4.592
10811SOL    HW133332   5.378   4.844   4.670
10811SOL    HW233333   5.226   4.881   4.626
10812SOL     OW33334   6.401   3.354   0.353
10812SOL    HW133335   6.311   3.389   0.380
10812SOL    HW233336   6.408   3.257   0.378
10813SOL     OW33337   0.623   3.139   6.202
10813SOL    HW133338   0.709   3.170   6.162
10813SOL    HW233339   0.628   3.041   6.222
10814SOL     OW33340   3.202   1.352   0.873
10814SOL    HW133341   3.131   1.419   0.854
10814SOL    HW233342   3.178   1.299   0.954
10815SOL     OW33343   5.532   0.839   4.556
10815SOL    HW133344   5.596   0.913   4.539
10815SOL    HW233345   5.561   0.757   4.506
10816SOL     OW33346   3.451   2.991   4.839
10816SOL    HW133347   3.424   3.060   4.771
10816SOL    HW233348   3.376   2.974   4.901
10817SOL     OW33349   1.498   6.251   3.851
10817SOL    HW133350   1.589   6.256   3.809
10817SOL    HW233351   1.507   6.227   3.948
10818SOL     OW33352   3.952   4.457   6.745
10818SOL    HW133353   3.956   4.556   6.733
10818SOL    HW233354   3.880   4.419   6.687
10819SOL     OW33355   6.394   6.585   5.445
10819SOL    HW133356   6.444   6.546   5.368
10819SOL    HW233357   6.295   6.580   5.427
10820SOL     OW33358   2.655   4.281   6.001
10820SOL    HW133359   2.662   4.337   6.084
10820SOL    HW233360   2.596   4.202   6.019
10821SOL     OW33361   4.797   5.398   2.974
10821SOL    HW133362   4.735   5.476   2.969
10821SOL    HW233363   4.871   5.410   2.908
10822SOL     OW33364   5.611   1.018   2.098
10822SOL    HW133365   5.524   0.983   2.133
10822SOL    HW233366   5.661   0.945   2.053
10823SOL     OW33367   5.688   6.715   1.276
10823SOL    HW133368   5.599   6.745   1.242
10823SOL    HW233369   5.730   6.653   1.210
10824SOL     OW33370   1.107   2.783   4.007
10824SOL    HW133371   1.087   2.697   4.053
10824SOL    HW233372   1.203   2.808   4.024
10825SOL     OW33373   0.493   2.694   0.699
10825SOL    HW133374   0.583   2.657   0.723
10825SOL    HW233375   0.477   2.779   0.749
10826SOL     OW33376   0.229   3.690   3.016
10826SOL    HW133377   0.233   3.735   2.927
10826SOL    HW233378   0.140   3.645   3.027
10827SOL     OW33379   0.128   4.054   4.801
10827SOL    HW133380   0.161   3.962   4.782
10827SOL    HW233381   0.028   4.053   4.806
10828SOL     OW33382   6.608   4.502   5.282
10828SOL    HW133383   6.581   4.458   5.368
10828SOL    HW233384   6.680   4.449   5.238
10829SOL     OW33385   3.499   2.842   5.117
10829SOL    HW133386   3.418   2.841   5.059
10829SOL    HW233387   3.497   2.764   5.179
10830SOL     OW33388   5.047   2.228   3.198
10830SOL    HW133389   5.068   2.250   3.103
10830SOL    HW233390   4.964   2.174   3.203
10831SOL     OW33391   3.968   6.998   3.845
10831SOL    HW133392   3.960   6.967   3.750
10831SOL    HW233393   3.892   6.961   3.899
10832SOL     OW33394   6.648   2.684   0.002
10832SOL    HW133395   6.656   2.729   6.943
10832SOL    HW233396   6.552   2.684   0.031
10833SOL     OW33397   0.787   1.369   0.017
10833SOL    HW133398   0.796   1.286   6.992
10833SOL    HW233399   0.775   1.448   6.987
10834SOL     OW33400   6.234   6.370   1.855
10834SOL    HW133401   6.327   6.334   1.865
10834SOL    HW233402   6.227   6.457   1.904
10835SOL     OW33403   0.056   2.190   5.325
10835SOL    HW133404   0.037   2.196   5.423
10835SOL    HW233405   0.154   2.200   5.310
10836SOL     OW33406   0.078   1.209   3.339
10836SOL    HW133407   7.013   1.219   3.307
10836SOL    HW233408   0.140   1.211   3.260
10837SOL     OW33409   0.446   3.232   3.714
10837SOL    HW133410   0.449   3.313   3.773
10837SOL    HW233411   0.367   3.238   3.653
10838SOL     OW33412   0.556   6.109   2.256
10838SOL    HW133413   0.472   6.057   2.243
10838SOL    HW233414   0.589   6.096   2.349
10839SOL     OW33415   4.700   2.816   0.278
10839SOL    HW133416   4.725   2.783   0.187
10839SOL    HW233417   4.606   2.789   0.299
10840SOL     OW33418   2.369   0.353   1.664
10840SOL    HW133419   2.436   0.280   1.648
10840SOL    HW233420   2.317   0.370   1.580
10841SOL     OW33421   2.025   5.465   4.919
10841SOL    HW133422   1.943   5.513   4.953
10841SOL    HW233423   2.028   5.373   4.958
10842SOL     OW33424   5.697   4.688   2.335
10842SOL    HW133425   5.652   4.747   2.268
10842SOL    HW233426   5.670   4.716   2.427
10843SOL     OW33427   2.911   1.989   1.057
10843SOL    HW133428   2.928   2.024   1.149
10843SOL    HW233429   2.939   2.057   0.989
10844SOL     OW33430   1.396   5.163   5.286
10844SOL    HW133431   1.440   5.238   5.236
10844SOL    HW233432   1.372   5.090   5.222
10845SOL     OW33433   3.948   0.031   4.276
10845SOL    HW133434   4.013   0.098   4.242
10845SOL    HW233435   3.982   7.021   4.361
10846SOL     OW33436   5.655   0.229   6.239
10846SOL    HW133437   5.692   0.156   6.181
10846SOL    HW233438   5.605   0.188   6.315
10847SOL     OW33439   3.320   0.420   6.327
10847SOL    HW133440   3.241   0.476   6.351
10847SOL    HW233441   3.291   0.324   6.319
10848SOL     OW33442   1.704   4.470   1.751
10848SOL    HW133443   1.702   4.530   1.672
10848SOL    HW233444   1.798   4.459   1.783
10849SOL     OW33445   2.340   6.499   2.939
10849SOL    HW133446   2.367   6.480   3.034
10849SOL    HW233447   2.315   6.413   2.894
10850SOL     OW33448   4.192   4.354   0.810
10850SOL    HW133449   4.250   4.273   0.811
10850SOL    HW233450   4.153   4.366   0.718
10851SOL     OW33451   1.768   4.571   0.735
10851SOL    HW133452   1.753   4.669   0.751
10851SOL    HW233453   1.765   4.553   0.637
10852SOL     OW33454   2.533   2.108   2.515
10852SOL    HW133455   2.445   2.143   2.548
10852SOL    HW233456   2.574   2.176   2.453
10853SOL     OW33457   3.418   1.464   6.035
10853SOL    HW133458   3.392   1.528   5.962
10853SOL    HW233459   3.402   1.371   6.004
10854SOL     OW33460   2.898   6.199   5.777
10854SOL    HW133461   2.873   6.174   5.683
10854SOL    HW233462   2.823   6.248   5.820
10855SOL     OW33463   4.145   1.745   0.023
10855SOL    HW133464   4.220   1.680   0.034
10855SOL    HW233465   4.129   1.793   0.109
10856SOL     OW33466   0.996   1.234   0.507
10856SOL    HW133467   0.943   1.319   0.502
10856SOL    HW233468   0.944   1.164   0.555
10857SOL     OW33469   6.783   2.874   2.159
10857SOL    HW133470   6.864   2.919   2.197
10857SOL    HW233471   6.756   2.798   2.218
10858SOL     OW33472   2.814   6.431   2.325
10858SOL    HW133473   2.728   6.455   2.282
10858SOL    HW233474   2.885   6.422   2.255
10859SOL     OW33475   1.564   5.320   3.782
10859SOL    HW133476   1.579   5.408   3.826
10859SOL    HW233477   1.478   5.322   3.731
10860SOL     OW33478   6.848   4.337   3.651
10860SOL    HW133479   6.810   4.254   3.693
10860SOL    HW233480   6.905   4.385   3.718
10861SOL     OW33481   3.560   2.866   5.529
10861SOL    HW133482   3.462   2.872   5.545
10861SOL    HW233483   3.598   2.958   5.518
10862SOL     OW33484   0.893   0.554   5.198
10862SOL    HW133485   0.834   0.633   5.211
10862SOL    HW233486   0.903   0.536   5.100
10863SOL     OW33487   2.456   6.383   4.602
10863SOL    HW133488   2.505   6.308   4.647
10863SOL    HW233489   2.439   6.456   4.668
10864SOL     OW33490   3.707   6.228   2.911
10864SOL    HW133491   3.654   6.162   2.858
10864SOL    HW233492   3.677   6.321   2.890
10865SOL     OW33493   6.467   1.580   6.061
10865SOL    HW133494   6.397   1.509   6.049
10865SOL    HW233495   6.547   1.557   6.006
10866SOL     OW33496   5.227   5.015   6.997
10866SOL    HW133497   5.235   5.006   0.067
10866SOL    HW233498   5.295   5.081   6.965
10867SOL     OW33499   3.146   1.715   6.964
10867SOL    HW133500   3.081   1.757   7.027
10867SOL    HW233501   3.173   1.625   6.999
10868SOL     OW33502   2.704   2.188   3.347
10868SOL    HW133503   2.740   2.168   3.438
10868SOL    HW233504   2.698   2.103   3.295
10869NA      NA33505   6.404   2.407   5.651
10870NA      NA33506   4.379   4.587   5.276
10871NA      NA33507   2.197   3.526   1.729
10872NA      NA33508   4.814   3.732   5.298
10873NA      NA33509   4.210   2.442   5.341
10874NA      NA33510   3.742   4.822   1.724
10875NA      NA33511   6.628   5.976   4.492
10876NA      NA33512   3.579   3.474   4.831
10877NA      NA33513   4.720   6.642   6.431
10878NA      NA33514   2.935   0.345   5.016
10879NA      NA33515   0.545   4.831   2.507
10880NA      NA33516   2.760   0.590   2.701
10881NA      NA33517   3.504   4.314   1.265
10882NA      NA33518   3.520   3.043   2.874
   7.02965   7.02965   7.02965
