Generated by trjconv : CNT in water t= 530.00000
33518
    1C        C    1   2.839   2.764   4.749
    1C        C    2   2.895   2.713   4.868
    1C        C    3   2.842   2.770   4.985
    1C        C    4   2.847   2.771   4.260
    1C        C    5   2.900   2.726   4.383
    1C        C    6   2.846   2.770   4.506
    1C        C    7   3.014   2.642   4.626
    1C        C    8   2.897   2.721   4.628
    1C        C    9   3.076   2.604   4.747
    1C        C   10   3.011   2.633   4.869
    1C        C   11   3.181   2.488   4.972
    1C        C   12   3.062   2.561   4.978
    1C        C   13   2.843   2.765   3.772
    1C        C   14   2.897   2.717   3.894
    1C        C   15   2.847   2.769   4.016
    1C        C   16   3.017   2.643   4.139
    1C        C   17   2.903   2.726   4.138
    1C        C   18   3.079   2.612   4.262
    1C        C   19   3.018   2.649   4.385
    1C        C   20   3.209   2.551   4.503
    1C        C   21   3.078   2.606   4.505
    1C        C   22   3.279   2.533   4.624
    1C        C   23   3.207   2.550   4.745
    1C        C   24   3.414   2.488   4.864
    1C        C   25   3.271   2.500   4.862
    1C        C   26   3.492   2.476   4.979
    1C        C   27   2.849   2.763   3.281
    1C        C   28   2.900   2.720   3.406
    1C        C   29   2.849   2.766   3.529
    1C        C   30   3.013   2.632   3.651
    1C        C   31   2.899   2.716   3.652
    1C        C   32   3.073   2.596   3.773
    1C        C   33   3.011   2.635   3.895
    1C        C   34   3.206   2.548   4.017
    1C        C   35   3.076   2.603   4.017
    1C        C   36   3.275   2.528   4.138
    1C        C   37   3.206   2.551   4.259
    1C        C   38   3.414   2.503   4.379
    1C        C   39   3.275   2.527   4.380
    1C        C   40   3.486   2.500   4.501
    1C        C   41   3.418   2.507   4.624
    1C        C   42   3.632   2.485   4.745
    1C        C   43   3.490   2.487   4.744
    1C        C   44   3.707   2.486   4.864
    1C        C   45   3.631   2.476   4.982
    1C        C   46   2.832   2.746   2.794
    1C        C   47   2.888   2.701   2.915
    1C        C   48   2.838   2.752   3.036
    1C        C   49   3.015   2.634   3.160
    1C        C   50   2.897   2.712   3.158
    1C        C   51   3.074   2.601   3.284
    1C        C   52   3.015   2.638   3.407
    1C        C   53   3.205   2.545   3.525
    1C        C   54   3.074   2.598   3.528
    1C        C   55   3.271   2.526   3.649
    1C        C   56   3.206   2.548   3.772
    1C        C   57   3.414   2.509   3.894
    1C        C   58   3.274   2.529   3.894
    1C        C   59   3.485   2.507   4.016
    1C        C   60   3.415   2.507   4.138
    1C        C   61   3.629   2.505   4.257
    1C        C   62   3.488   2.498   4.258
    1C        C   63   3.698   2.512   4.380
    1C        C   64   3.627   2.502   4.502
    1C        C   65   3.837   2.537   4.622
    1C        C   66   3.701   2.498   4.622
    1C        C   67   3.907   2.556   4.742
    1C        C   68   3.843   2.522   4.863
    1C        C   69   4.049   2.588   4.980
    1C        C   70   3.922   2.531   4.979
    1C        C   71   2.823   2.732   2.308
    1C        C   72   2.881   2.688   2.429
    1C        C   73   2.827   2.739   2.549
    1C        C   74   3.001   2.620   2.671
    1C        C   75   2.884   2.698   2.671
    1C        C   76   3.068   2.590   2.792
    1C        C   77   3.009   2.627   2.915
    1C        C   78   3.206   2.547   3.038
    1C        C   79   3.074   2.599   3.037
    1C        C   80   3.271   2.524   3.161
    1C        C   81   3.204   2.546   3.283
    1C        C   82   3.415   2.501   3.403
    1C        C   83   3.276   2.526   3.404
    1C        C   84   3.484   2.499   3.526
    1C        C   85   3.411   2.503   3.647
    1C        C   86   3.622   2.509   3.770
    1C        C   87   3.481   2.502   3.770
    1C        C   88   3.696   2.516   3.890
    1C        C   89   3.627   2.512   4.013
    1C        C   90   3.836   2.551   4.135
    1C        C   91   3.698   2.520   4.135
    1C        C   92   3.900   2.574   4.258
    1C        C   93   3.834   2.549   4.381
    1C        C   94   4.028   2.638   4.500
    1C        C   95   3.904   2.570   4.502
    1C        C   96   4.089   2.674   4.623
    1C        C   97   4.031   2.627   4.743
    1C        C   98   4.200   2.758   4.864
    1C        C   99   4.098   2.657   4.864
    1C        C  100   4.210   2.842   4.976
    1C        C  101   2.820   2.729   2.072
    1C        C  102   2.990   2.590   2.188
    1C        C  103   2.875   2.675   2.189
    1C        C  104   3.063   2.570   2.308
    1C        C  105   3.000   2.612   2.428
    1C        C  106   3.198   2.538   2.551
    1C        C  107   3.065   2.585   2.550
    1C        C  108   3.269   2.525   2.672
    1C        C  109   3.200   2.540   2.795
    1C        C  110   3.411   2.501   2.913
    1C        C  111   3.271   2.522   2.915
    1C        C  112   3.480   2.497   3.036
    1C        C  113   3.411   2.503   3.159
    1C        C  114   3.624   2.511   3.279
    1C        C  115   3.484   2.498   3.280
    1C        C  116   3.693   2.518   3.402
    1C        C  117   3.625   2.507   3.526
    1C        C  118   3.831   2.549   3.647
    1C        C  119   3.694   2.515   3.648
    1C        C  120   3.900   2.571   3.769
    1C        C  121   3.834   2.544   3.891
    1C        C  122   4.026   2.640   4.015
    1C        C  123   3.902   2.572   4.012
    1C        C  124   4.086   2.679   4.137
    1C        C  125   4.024   2.641   4.258
    1C        C  126   4.197   2.767   4.378
    1C        C  127   4.088   2.677   4.379
    1C        C  128   4.245   2.819   4.500
    1C        C  129   4.194   2.767   4.621
    1C        C  130   4.329   2.932   4.743
    1C        C  131   4.247   2.815   4.743
    1C        C  132   4.356   3.003   4.862
    1C        C  133   4.287   2.958   4.975
    1C        C  134   3.174   2.468   2.078
    1C        C  135   3.040   2.508   2.082
    1C        C  136   3.258   2.474   2.190
    1C        C  137   3.196   2.520   2.308
    1C        C  138   3.406   2.489   2.426
    1C        C  139   3.266   2.508   2.430
    1C        C  140   3.478   2.487   2.548
    1C        C  141   3.407   2.497   2.670
    1C        C  142   3.622   2.499   2.791
    1C        C  143   3.481   2.493   2.790
    1C        C  144   3.692   2.505   2.914
    1C        C  145   3.622   2.498   3.036
    1C        C  146   3.832   2.544   3.155
    1C        C  147   3.695   2.511   3.156
    1C        C  148   3.899   2.565   3.278
    1C        C  149   3.831   2.547   3.400
    1C        C  150   4.025   2.629   3.523
    1C        C  151   3.896   2.570   3.523
    1C        C  152   4.084   2.672   3.644
    1C        C  153   4.026   2.635   3.767
    1C        C  154   4.191   2.766   3.889
    1C        C  155   4.083   2.674   3.890
    1C        C  156   4.245   2.811   4.011
    1C        C  157   4.199   2.764   4.135
    1C        C  158   4.344   2.920   4.254
    1C        C  159   4.254   2.811   4.256
    1C        C  160   4.378   2.983   4.376
    1C        C  161   4.333   2.930   4.499
    1C        C  162   4.438   3.113   4.614
    1C        C  163   4.372   2.989   4.621
    1C        C  164   4.467   3.182   4.734
    1C        C  165   4.433   3.121   4.856
    1C        C  166   4.510   3.321   4.974
    1C        C  167   4.479   3.185   4.972
    1C        C  168   3.480   2.440   2.075
    1C        C  169   3.398   2.457   2.187
    1C        C  170   3.617   2.470   2.307
    1C        C  171   3.475   2.466   2.305
    1C        C  172   3.690   2.493   2.425
    1C        C  173   3.619   2.493   2.547
    1C        C  174   3.829   2.542   2.664
    1C        C  175   3.691   2.509   2.668
    1C        C  176   3.894   2.562   2.788
    1C        C  177   3.829   2.541   2.911
    1C        C  178   4.026   2.624   3.033
    1C        C  179   3.898   2.565   3.032
    1C        C  180   4.086   2.662   3.155
    1C        C  181   4.027   2.625   3.277
    1C        C  182   4.195   2.751   3.399
    1C        C  183   4.087   2.660   3.400
    1C        C  184   4.246   2.803   3.520
    1C        C  185   4.194   2.760   3.644
    1C        C  186   4.340   2.914   3.765
    1C        C  187   4.247   2.808   3.766
    1C        C  188   4.383   2.974   3.886
    1C        C  189   4.341   2.915   4.008
    1C        C  190   4.440   3.104   4.127
    1C        C  191   4.379   2.976   4.129
    1C        C  192   4.465   3.173   4.247
    1C        C  193   4.440   3.110   4.371
    1C        C  194   4.502   3.316   4.492
    1C        C  195   4.463   3.180   4.492
    1C        C  196   4.518   3.388   4.612
    1C        C  197   4.505   3.319   4.735
    1C        C  198   4.550   3.534   4.852
    1C        C  199   4.525   3.393   4.855
    1C        C  200   4.575   3.617   4.966
    1C        C  201   3.619   2.418   2.075
    1C        C  202   3.829   2.511   2.183
    1C        C  203   3.694   2.463   2.188
    1C        C  204   3.899   2.539   2.303
    1C        C  205   3.829   2.515   2.424
    1C        C  206   4.022   2.620   2.544
    1C        C  207   3.899   2.551   2.542
    1C        C  208   4.084   2.656   2.665
    1C        C  209   4.021   2.624   2.787
    1C        C  210   4.196   2.746   2.907
    1C        C  211   4.083   2.662   2.909
    1C        C  212   4.249   2.796   3.028
    1C        C  213   4.198   2.749   3.151
    1C        C  214   4.333   2.908   3.271
    1C        C  215   4.241   2.801   3.275
    1C        C  216   4.374   2.965   3.394
    1C        C  217   4.335   2.912   3.519
    1C        C  218   4.433   3.100   3.637
    1C        C  219   4.375   2.971   3.641
    1C        C  220   4.461   3.167   3.759
    1C        C  221   4.444   3.101   3.883
    1C        C  222   4.506   3.303   4.002
    1C        C  223   4.474   3.165   4.005
    1C        C  224   4.512   3.377   4.122
    1C        C  225   4.500   3.310   4.246
    1C        C  226   4.515   3.523   4.366
    1C        C  227   4.512   3.382   4.367
    1C        C  228   4.512   3.595   4.487
    1C        C  229   4.530   3.528   4.610
    1C        C  230   4.495   3.740   4.727
    1C        C  231   4.537   3.604   4.729
    1C        C  232   4.489   3.816   4.846
    1C        C  233   4.534   3.751   4.961
    1C        C  234   4.015   2.614   2.062
    1C        C  235   3.896   2.543   2.064
    1C        C  236   4.087   2.645   2.178
    1C        C  237   4.025   2.605   2.299
    1C        C  238   4.199   2.731   2.421
    1C        C  239   4.083   2.649   2.420
    1C        C  240   4.254   2.784   2.539
    1C        C  241   4.194   2.745   2.661
    1C        C  242   4.339   2.900   2.784
    1C        C  243   4.248   2.791   2.783
    1C        C  244   4.381   2.960   2.904
    1C        C  245   4.338   2.906   3.027
    1C        C  246   4.442   3.091   3.146
    1C        C  247   4.376   2.966   3.149
    1C        C  248   4.461   3.159   3.268
    1C        C  249   4.435   3.093   3.391
    1C        C  250   4.488   3.299   3.516
    1C        C  251   4.456   3.161   3.512
    1C        C  252   4.503   3.371   3.636
    1C        C  253   4.499   3.303   3.760
    1C        C  254   4.516   3.516   3.877
    1C        C  255   4.515   3.375   3.880
    1C        C  256   4.506   3.586   4.000
    1C        C  257   4.510   3.518   4.123
    1C        C  258   4.485   3.732   4.242
    1C        C  259   4.509   3.593   4.243
    1C        C  260   4.462   3.801   4.363
    1C        C  261   4.482   3.733   4.485
    1C        C  262   4.422   3.940   4.604
    1C        C  263   4.471   3.807   4.605
    1C        C  264   4.399   4.010   4.724
    1C        C  265   4.438   3.948   4.845
    1C        C  266   4.320   4.131   4.955
    1C        C  267   4.391   4.012   4.960
    1C        C  268   4.262   2.773   2.063
    1C        C  269   4.201   2.728   2.181
    1C        C  270   4.347   2.889   2.295
    1C        C  271   4.256   2.779   2.301
    1C        C  272   4.380   2.954   2.416
    1C        C  273   4.337   2.898   2.539
    1C        C  274   4.449   3.079   2.661
    1C        C  275   4.375   2.958   2.661
    1C        C  276   4.478   3.149   2.780
    1C        C  277   4.450   3.083   2.902
    1C        C  278   4.502   3.291   3.025
    1C        C  279   4.473   3.153   3.023
    1C        C  280   4.507   3.362   3.147
    1C        C  281   4.491   3.297   3.271
    1C        C  282   4.508   3.509   3.390
    1C        C  283   4.502   3.368   3.393
    1C        C  284   4.505   3.581   3.511
    1C        C  285   4.511   3.512   3.634
    1C        C  286   4.491   3.725   3.751
    1C        C  287   4.510   3.586   3.754
    1C        C  288   4.472   3.793   3.874
    1C        C  289   4.479   3.725   3.997
    1C        C  290   4.422   3.931   4.114
    1C        C  291   4.471   3.798   4.118
    1C        C  292   4.395   3.997   4.235
    1C        C  293   4.421   3.936   4.360
    1C        C  294   4.330   4.130   4.477
    1C        C  295   4.395   4.004   4.481
    1C        C  296   4.284   4.187   4.598
    1C        C  297   4.327   4.132   4.720
    1C        C  298   4.203   4.316   4.834
    1C        C  299   4.286   4.200   4.838
    1C        C  300   4.168   4.398   4.947
    1C        C  301   4.356   2.876   2.060
    1C        C  302   4.473   3.067   2.176
    1C        C  303   4.395   2.946   2.175
    1C        C  304   4.489   3.140   2.297
    1C        C  305   4.449   3.077   2.417
    1C        C  306   4.510   3.281   2.538
    1C        C  307   4.477   3.144   2.539
    1C        C  308   4.517   3.357   2.657
    1C        C  309   4.509   3.287   2.779
    1C        C  310   4.520   3.499   2.899
    1C        C  311   4.517   3.358   2.901
    1C        C  312   4.514   3.571   3.020
    1C        C  313   4.512   3.503   3.144
    1C        C  314   4.486   3.714   3.262
    1C        C  315   4.512   3.575   3.265
    1C        C  316   4.471   3.785   3.384
    1C        C  317   4.492   3.722   3.509
    1C        C  318   4.428   3.928   3.625
    1C        C  319   4.476   3.795   3.629
    1C        C  320   4.395   3.991   3.747
    1C        C  321   4.425   3.926   3.869
    1C        C  322   4.322   4.114   3.990
    1C        C  323   4.396   3.994   3.990
    1C        C  324   4.280   4.174   4.111
    1C        C  325   4.324   4.120   4.234
    1C        C  326   4.186   4.283   4.354
    1C        C  327   4.286   4.183   4.354
    1C        C  328   4.132   4.334   4.474
    1C        C  329   4.190   4.293   4.596
    1C        C  330   4.024   4.438   4.713
    1C        C  331   4.138   4.353   4.713
    1C        C  332   3.969   4.495   4.830
    1C        C  333   4.052   4.476   4.942
    1C        C  334   4.546   3.266   2.062
    1C        C  335   4.534   3.126   2.061
    1C        C  336   4.535   3.349   2.174
    1C        C  337   4.522   3.278   2.295
    1C        C  338   4.523   3.492   2.411
    1C        C  339   4.523   3.351   2.416
    1C        C  340   4.520   3.568   2.530
    1C        C  341   4.521   3.498   2.654
    1C        C  342   4.496   3.708   2.775
    1C        C  343   4.518   3.569   2.776
    1C        C  344   4.480   3.780   2.895
    1C        C  345   4.495   3.711   3.018
    1C        C  346   4.420   3.913   3.137
    1C        C  347   4.468   3.780   3.139
    1C        C  348   4.395   3.981   3.259
    1C        C  349   4.427   3.919   3.381
    1C        C  350   4.324   4.108   3.499
    1C        C  351   4.398   3.988   3.501
    1C        C  352   4.280   4.167   3.620
    1C        C  353   4.320   4.111   3.743
    1C        C  354   4.179   4.267   3.865
    1C        C  355   4.280   4.168   3.866
    1C        C  356   4.124   4.316   3.986
    1C        C  357   4.179   4.273   4.108
    1C        C  358   4.015   4.403   4.228
    1C        C  359   4.132   4.326   4.231
    1C        C  360   3.951   4.438   4.349
    1C        C  361   4.015   4.414   4.472
    1C        C  362   3.824   4.511   4.589
    1C        C  363   3.956   4.461   4.592
    1C        C  364   3.760   4.543   4.711
    1C        C  365   3.836   4.540   4.830
    1C        C  366   3.626   4.595   4.945
    1C        C  367   3.764   4.577   4.944
    1C        C  368   4.508   3.562   2.052
    1C        C  369   4.518   3.490   2.172
    1C        C  370   4.499   3.706   2.288
    1C        C  371   4.515   3.565   2.291
    1C        C  372   4.483   3.777   2.409
    1C        C  373   4.502   3.708   2.531
    1C        C  374   4.422   3.905   2.649
    1C        C  375   4.480   3.777   2.652
    1C        C  376   4.390   3.971   2.770
    1C        C  377   4.427   3.911   2.892
    1C        C  378   4.323   4.098   3.010
    1C        C  379   4.393   3.975   3.014
    1C        C  380   4.278   4.154   3.131
    1C        C  381   4.317   4.098   3.255
    1C        C  382   4.178   4.260   3.377
    1C        C  383   4.275   4.158   3.376
    1C        C  384   4.125   4.310   3.498
    1C        C  385   4.177   4.264   3.621
    1C        C  386   4.004   4.387   3.742
    1C        C  387   4.122   4.308   3.743
    1C        C  388   3.944   4.425   3.863
    1C        C  389   4.003   4.389   3.986
    1C        C  390   3.815   4.486   4.107
    1C        C  391   3.945   4.430   4.108
    1C        C  392   3.749   4.512   4.229
    1C        C  393   3.820   4.492   4.350
    1C        C  394   3.612   4.551   4.471
    1C        C  395   3.751   4.526   4.468
    1C        C  396   3.542   4.561   4.593
    1C        C  397   3.620   4.563   4.710
    1C        C  398   3.409   4.553   4.838
    1C        C  399   3.548   4.570   4.831
    1C        C  400   3.341   4.513   4.954
    1C        C  401   4.502   3.701   2.052
    1C        C  402   4.453   3.914   2.167
    1C        C  403   4.495   3.780   2.168
    1C        C  404   4.412   3.976   2.287
    1C        C  405   4.435   3.909   2.409
    1C        C  406   4.329   4.098   2.524
    1C        C  407   4.399   3.976   2.529
    1C        C  408   4.281   4.152   2.646
    1C        C  409   4.318   4.093   2.769
    1C        C  410   4.174   4.251   2.888
    1C        C  411   4.278   4.156   2.889
    1C        C  412   4.121   4.296   3.011
    1C        C  413   4.175   4.251   3.133
    1C        C  414   4.002   4.374   3.250
    1C        C  415   4.124   4.304   3.254
    1C        C  416   3.940   4.411   3.372
    1C        C  417   4.004   4.384   3.495
    1C        C  418   3.813   4.472   3.620
    1C        C  419   3.942   4.414   3.618
    1C        C  420   3.744   4.497   3.741
    1C        C  421   3.813   4.478   3.864
    1C        C  422   3.608   4.533   3.985
    1C        C  423   3.746   4.504   3.986
    1C        C  424   3.537   4.536   4.108
    1C        C  425   3.610   4.541   4.229
    1C        C  426   3.399   4.551   4.355
    1C        C  427   3.540   4.560   4.350
    1C        C  428   3.330   4.541   4.478
    1C        C  429   3.401   4.551   4.599
    1C        C  430   3.189   4.524   4.720
    1C        C  431   3.330   4.545   4.721
    1C        C  432   3.123   4.498   4.843
    1C        C  433   3.203   4.494   4.958
    1C        C  434   4.377   4.117   2.052
    1C        C  435   4.445   3.995   2.052
    1C        C  436   4.299   4.160   2.163
    1C        C  437   4.334   4.095   2.285
    1C        C  438   4.181   4.252   2.402
    1C        C  439   4.284   4.155   2.403
    1C        C  440   4.127   4.299   2.523
    1C        C  441   4.183   4.253   2.645
    1C        C  442   4.006   4.376   2.765
    1C        C  443   4.122   4.297   2.765
    1C        C  444   3.942   4.409   2.887
    1C        C  445   4.003   4.374   3.010
    1C        C  446   3.808   4.468   3.133
    1C        C  447   3.936   4.408   3.130
    1C        C  448   3.743   4.492   3.256
    1C        C  449   3.811   4.469   3.377
    1C        C  450   3.607   4.529   3.496
    1C        C  451   3.745   4.496   3.499
    1C        C  452   3.538   4.542   3.618
    1C        C  453   3.608   4.533   3.741
    1C        C  454   3.397   4.541   3.863
    1C        C  455   3.538   4.543   3.863
    1C        C  456   3.329   4.531   3.986
    1C        C  457   3.396   4.536   4.110
    1C        C  458   3.190   4.505   4.236
    1C        C  459   3.328   4.534   4.234
    1C        C  460   3.125   4.483   4.359
    1C        C  461   3.192   4.514   4.480
    1C        C  462   2.994   4.431   4.603
    1C        C  463   3.121   4.493   4.600
    1C        C  464   2.931   4.396   4.725
    1C        C  465   2.992   4.439   4.846
    1C        C  466   2.801   4.340   4.961
    1C        C  467   2.906   4.432   4.960
    1C        C  468   4.121   4.285   2.040
    1C        C  469   4.183   4.243   2.159
    1C        C  470   4.006   4.369   2.278
    1C        C  471   4.128   4.295   2.279
    1C        C  472   3.943   4.399   2.400
    1C        C  473   4.005   4.372   2.524
    1C        C  474   3.810   4.460   2.642
    1C        C  475   3.942   4.411   2.644
    1C        C  476   3.744   4.488   2.764
    1C        C  477   3.813   4.467   2.885
    1C        C  478   3.607   4.513   3.008
    1C        C  479   3.747   4.489   3.007
    1C        C  480   3.535   4.524   3.129
    1C        C  481   3.604   4.519   3.252
    1C        C  482   3.394   4.536   3.377
    1C        C  483   3.535   4.531   3.375
    1C        C  484   3.323   4.533   3.499
    1C        C  485   3.397   4.539   3.619
    1C        C  486   3.187   4.503   3.745
    1C        C  487   3.326   4.532   3.741
    1C        C  488   3.124   4.476   3.869
    1C        C  489   3.192   4.495   3.991
    1C        C  490   2.999   4.413   4.115
    1C        C  491   3.123   4.479   4.113
    1C        C  492   2.935   4.387   4.238
    1C        C  493   2.997   4.423   4.360
    1C        C  494   2.822   4.307   4.482
    1C        C  495   2.931   4.396   4.482
    1C        C  496   2.772   4.257   4.605
    1C        C  497   2.819   4.309   4.727
    1C        C  498   2.664   4.164   4.845
    1C        C  499   2.755   4.272   4.848
    1C        C  500   2.600   4.114   4.959
    1C        C  501   3.998   4.348   2.039
    1C        C  502   3.813   4.460   2.157
    1C        C  503   3.938   4.395   2.157
    1C        C  504   3.740   4.468   2.277
    1C        C  505   3.811   4.450   2.398
    1C        C  506   3.603   4.497   2.519
    1C        C  507   3.742   4.474   2.519
    1C        C  508   3.534   4.506   2.642
    1C        C  509   3.604   4.510   2.764
    1C        C  510   3.393   4.520   2.887
    1C        C  511   3.535   4.516   2.887
    1C        C  512   3.322   4.517   3.009
    1C        C  513   3.394   4.524   3.131
    1C        C  514   3.187   4.495   3.255
    1C        C  515   3.325   4.526   3.254
    1C        C  516   3.120   4.468   3.377
    1C        C  517   3.187   4.494   3.498
    1C        C  518   2.997   4.411   3.624
    1C        C  519   3.122   4.478   3.623
    1C        C  520   2.936   4.377   3.746
    1C        C  521   2.997   4.414   3.868
    1C        C  522   2.832   4.284   3.994
    1C        C  523   2.942   4.373   3.992
    1C        C  524   2.784   4.238   4.118
    1C        C  525   2.828   4.295   4.240
    1C        C  526   2.689   4.137   4.365
    1C        C  527   2.774   4.250   4.362
    1C        C  528   2.651   4.077   4.487
    1C        C  529   2.688   4.143   4.606
    1C        C  530   2.584   3.959   4.732
    1C        C  531   2.638   4.091   4.728
    1C        C  532   2.542   3.898   4.853
    1C        C  533   2.533   3.992   4.961
    1C        C  534   3.613   4.556   2.041
    1C        C  535   3.744   4.508   2.044
    1C        C  536   3.530   4.532   2.156
    1C        C  537   3.601   4.501   2.275
    1C        C  538   3.390   4.517   2.400
    1C        C  539   3.531   4.508   2.398
    1C        C  540   3.321   4.509   2.523
    1C        C  541   3.393   4.517   2.644
    1C        C  542   3.182   4.490   2.766
    1C        C  543   3.321   4.514   2.766
    1C        C  544   3.114   4.473   2.889
    1C        C  545   3.183   4.491   3.011
    1C        C  546   2.993   4.403   3.135
    1C        C  547   3.117   4.471   3.135
    1C        C  548   2.932   4.370   3.258
    1C        C  549   2.990   4.412   3.380
    1C        C  550   2.828   4.279   3.503
    1C        C  551   2.934   4.372   3.504
    1C        C  552   2.780   4.230   3.627
    1C        C  553   2.829   4.284   3.747
    1C        C  554   2.697   4.123   3.875
    1C        C  555   2.782   4.236   3.871
    1C        C  556   2.664   4.063   3.998
    1C        C  557   2.699   4.125   4.120
    1C        C  558   2.599   3.943   4.245
    1C        C  559   2.658   4.071   4.244
    1C        C  560   2.567   3.880   4.368
    1C        C  561   2.593   3.949   4.489
    1C        C  562   2.527   3.751   4.618
    1C        C  563   2.565   3.887   4.612
    1C        C  564   2.515   3.679   4.739
    1C        C  565   2.515   3.757   4.857
    1C        C  566   2.528   3.544   4.979
    1C        C  567   2.529   3.683   4.975
    1C        C  568   3.325   4.475   2.038
    1C        C  569   3.389   4.513   2.157
    1C        C  570   3.179   4.478   2.281
    1C        C  571   3.317   4.512   2.279
    1C        C  572   3.111   4.464   2.404
    1C        C  573   3.182   4.487   2.524
    1C        C  574   2.985   4.404   2.647
    1C        C  575   3.112   4.467   2.646
    1C        C  576   2.929   4.363   2.770
    1C        C  577   2.991   4.404   2.890
    1C        C  578   2.822   4.279   3.015
    1C        C  579   2.931   4.369   3.013
    1C        C  580   2.777   4.226   3.138
    1C        C  581   2.827   4.277   3.260
    1C        C  582   2.686   4.118   3.385
    1C        C  583   2.777   4.226   3.382
    1C        C  584   2.648   4.060   3.508
    1C        C  585   2.691   4.120   3.628
    1C        C  586   2.592   3.939   3.756
    1C        C  587   2.653   4.066   3.753
    1C        C  588   2.569   3.874   3.880
    1C        C  589   2.596   3.939   4.002
    1C        C  590   2.541   3.735   4.129
    1C        C  591   2.572   3.873   4.125
    1C        C  592   2.529   3.671   4.254
    1C        C  593   2.530   3.744   4.374
    1C        C  594   2.513   3.536   4.498
    1C        C  595   2.520   3.677   4.498
    1C        C  596   2.518   3.464   4.619
    1C        C  597   2.516   3.536   4.741
    1C        C  598   2.540   3.325   4.862
    1C        C  599   2.528   3.466   4.862
    1C        C  600   2.537   3.244   4.976
    1C        C  601   3.193   4.437   2.043
    1C        C  602   2.982   4.390   2.161
    1C        C  603   3.115   4.442   2.160
    1C        C  604   2.922   4.358   2.286
    1C        C  605   2.987   4.396   2.405
    1C        C  606   2.815   4.273   2.527
    1C        C  607   2.923   4.364   2.527
    1C        C  608   2.768   4.221   2.649
    1C        C  609   2.821   4.272   2.769
    1C        C  610   2.689   4.111   2.896
    1C        C  611   2.772   4.226   2.894
    1C        C  612   2.652   4.052   3.019
    1C        C  613   2.693   4.113   3.140
    1C        C  614   2.593   3.927   3.268
    1C        C  615   2.652   4.056   3.262
    1C        C  616   2.571   3.861   3.391
    1C        C  617   2.594   3.930   3.512
    1C        C  618   2.535   3.730   3.637
    1C        C  619   2.569   3.868   3.636
    1C        C  620   2.527   3.664   3.761
    1C        C  621   2.538   3.736   3.882
    1C        C  622   2.520   3.527   4.009
    1C        C  623   2.531   3.667   4.005
    1C        C  624   2.522   3.458   4.133
    1C        C  625   2.523   3.530   4.254
    1C        C  626   2.543   3.322   4.380
    1C        C  627   2.518   3.461   4.378
    1C        C  628   2.556   3.253   4.502
    1C        C  629   2.535   3.324   4.623
    1C        C  630   2.593   3.114   4.744
    1C        C  631   2.558   3.252   4.742
    1C        C  632   2.614   3.044   4.866
    1C        C  633   2.557   3.106   4.983
    1C        C  634   2.783   4.301   2.048
    1C        C  635   2.889   4.393   2.052
    1C        C  636   2.746   4.232   2.164
    1C        C  637   2.807   4.274   2.284
    1C        C  638   2.677   4.109   2.411
    1C        C  639   2.756   4.226   2.407
    1C        C  640   2.640   4.048   2.533
    1C        C  641   2.684   4.107   2.653
    1C        C  642   2.588   3.921   2.780
    1C        C  643   2.645   4.050   2.777
    1C        C  644   2.565   3.855   2.902
    1C        C  645   2.591   3.925   3.023
    1C        C  646   2.529   3.724   3.147
    1C        C  647   2.569   3.860   3.146
    1C        C  648   2.517   3.655   3.270
    1C        C  649   2.539   3.724   3.391
    1C        C  650   2.518   3.517   3.519
    1C        C  651   2.525   3.658   3.516
    1C        C  652   2.522   3.451   3.644
    1C        C  653   2.515   3.523   3.765
    1C        C  654   2.541   3.316   3.891
    1C        C  655   2.516   3.454   3.888
    1C        C  656   2.557   3.249   4.015
    1C        C  657   2.541   3.318   4.137
    1C        C  658   2.604   3.116   4.258
    1C        C  659   2.557   3.249   4.260
    1C        C  660   2.634   3.055   4.381
    1C        C  661   2.604   3.120   4.503
    1C        C  662   2.707   2.933   4.624
    1C        C  663   2.628   3.050   4.623
    1C        C  664   2.748   2.874   4.746
    1C        C  665   2.701   2.931   4.867
    1C        C  666   2.743   2.867   4.984
    1C        C  667   2.685   4.023   2.056
    1C        C  668   2.682   4.106   2.168
    1C        C  669   2.592   3.912   2.291
    1C        C  670   2.647   4.043   2.290
    1C        C  671   2.562   3.849   2.414
    1C        C  672   2.582   3.919   2.535
    1C        C  673   2.520   3.719   2.658
    1C        C  674   2.557   3.855   2.658
    1C        C  675   2.511   3.648   2.780
    1C        C  676   2.529   3.719   2.901
    1C        C  677   2.513   3.512   3.032
    1C        C  678   2.522   3.653   3.026
    1C        C  679   2.509   3.441   3.154
    1C        C  680   2.509   3.514   3.275
    1C        C  681   2.539   3.306   3.400
    1C        C  682   2.513   3.444   3.398
    1C        C  683   2.558   3.240   3.524
    1C        C  684   2.539   3.310   3.645
    1C        C  685   2.601   3.111   3.771
    1C        C  686   2.555   3.245   3.769
    1C        C  687   2.639   3.050   3.893
    1C        C  688   2.607   3.117   4.013
    1C        C  689   2.714   2.935   4.140
    1C        C  690   2.636   3.053   4.135
    1C        C  691   2.754   2.877   4.262
    1C        C  692   2.709   2.935   4.383
    1C        C  693   2.752   2.875   4.503
    1C        C  694   2.632   3.893   2.056
    1C        C  695   2.531   3.703   2.176
    1C        C  696   2.581   3.835   2.173
    1C        C  697   2.508   3.637   2.298
    1C        C  698   2.521   3.714   2.416
    1C        C  699   2.496   3.504   2.543
    1C        C  700   2.508   3.645   2.538
    1C        C  701   2.509   3.435   2.666
    1C        C  702   2.506   3.507   2.787
    1C        C  703   2.533   3.299   2.911
    1C        C  704   2.514   3.439   2.911
    1C        C  705   2.554   3.232   3.033
    1C        C  706   2.539   3.303   3.154
    1C        C  707   2.599   3.102   3.278
    1C        C  708   2.555   3.237   3.278
    1C        C  709   2.634   3.043   3.401
    1C        C  710   2.610   3.109   3.524
    1C        C  711   2.713   2.930   3.649
    1C        C  712   2.635   3.048   3.649
    1C        C  713   2.756   2.875   3.772
    1C        C  714   2.713   2.930   3.895
    1C        C  715   2.755   2.876   4.018
    1C        C  716   2.451   3.499   2.063
    1C        C  717   2.497   3.632   2.061
    1C        C  718   2.464   3.422   2.183
    1C        C  719   2.482   3.497   2.303
    1C        C  720   2.519   3.289   2.423
    1C        C  721   2.491   3.427   2.425
    1C        C  722   2.537   3.223   2.546
    1C        C  723   2.531   3.296   2.667
    1C        C  724   2.598   3.095   2.789
    1C        C  725   2.547   3.227   2.790
    1C        C  726   2.625   3.031   2.912
    1C        C  727   2.600   3.098   3.033
    1C        C  728   2.708   2.918   3.158
    1C        C  729   2.631   3.037   3.157
    1C        C  730   2.753   2.867   3.282
    1C        C  731   2.712   2.925   3.404
    1C        C  732   2.754   2.871   3.527
    1C        C  733   2.498   3.198   2.071
    1C        C  734   2.490   3.282   2.183
    1C        C  735   2.579   3.082   2.303
    1C        C  736   2.526   3.214   2.303
    1C        C  737   2.614   3.022   2.426
    1C        C  738   2.585   3.090   2.546
    1C        C  739   2.689   2.903   2.668
    1C        C  740   2.622   3.028   2.667
    1C        C  741   2.737   2.851   2.790
    1C        C  742   2.704   2.914   2.912
    1C        C  743   2.746   2.860   3.036
    1C        C  744   2.540   3.065   2.071
    1C        C  745   2.682   2.894   2.186
    1C        C  746   2.603   3.011   2.184
    1C        C  747   2.727   2.837   2.307
    1C        C  748   2.683   2.899   2.426
    1C        C  749   2.733   2.845   2.547
    1C        C  750   2.728   2.833   2.068
    1C        C  751   3.664   2.315   1.979
    1C        O  752   3.711   2.206   2.021
    1C        O  753   3.608   2.298   1.852
    1C        C  754   4.619   3.057   1.961
    1C        O  755   4.582   3.049   1.841
    1C        O  756   4.720   2.971   2.006
    1C        C  757   4.424   4.226   1.963
    1C        O  758   4.543   4.266   1.971
    1C        O  759   4.399   4.215   1.826
    1C        C  760   3.581   4.648   1.929
    1C        O  761   3.637   4.757   1.903
    1C        O  762   3.542   4.598   1.805
    1C        C  763   2.865   4.518   1.977
    1C        O  764   2.860   4.502   1.852
    1C        O  765   2.827   4.646   2.020
    1C        C  766   2.345   3.468   1.964
    1C        O  767   2.364   3.484   1.841
    1C        O  768   2.210   3.498   1.985
    1C        C  769   4.698   3.601   5.047
    1C        O  770   4.701   3.634   5.168
    1C        O  771   4.823   3.595   4.985
    1C        C  772   4.275   4.444   5.039
    1C        O  773   4.267   4.414   5.161
    1C        O  774   4.320   4.576   5.027
    1C        C  775   4.145   2.521   5.071
    1C        O  776   4.227   2.432   5.036
    1C        O  777   4.197   2.595   5.178
    1C        C  778   2.884   4.557   5.036
    1C        O  779   2.841   4.658   4.973
    1C        O  780   2.907   4.566   5.174
    1C        C  781   2.478   3.041   5.090
    1C        O  782   2.364   2.993   5.063
    1C        O  783   2.526   3.000   5.213
    1C        C  784   2.425   3.995   5.062
    1C        O  785   2.302   3.997   5.033
    1C        O  786   2.456   4.003   5.199
    1C        C  787   2.941   2.450   1.988
    1C        O  788   2.941   2.491   1.868
    1C        O  789   2.884   2.328   2.020
    1C        C  790   3.156   2.357   5.036
    1C        O  791   3.099   2.266   4.970
    1C        O  792   3.256   2.305   5.120
    1C        H  793   4.315   2.990   5.073
    1C        H  794   4.147   2.827   5.061
    1C        H  795   4.517   3.131   5.056
    1C        H  796   4.536   3.367   5.067
    1C        H  797   4.571   3.816   5.039
    1C        H  798   4.387   3.963   5.056
    1C        H  799   4.315   4.187   5.046
    1C        H  800   4.022   4.525   5.032
    1C        H  801   3.814   4.631   5.022
    1C        H  802   3.587   4.667   5.014
    1C        H  803   3.400   4.457   5.025
    1C        H  804   3.156   4.494   5.054
    1C        H  805   3.904   2.469   5.065
    1C        H  806   3.682   2.458   5.074
    1C        H  807   3.023   2.583   5.075
    1C        H  808   3.444   2.445   5.070
    1C        H  809   2.882   2.745   5.081
    1C        H  810   2.732   2.922   5.076
    1C        H  811   2.509   3.291   5.068
    1C        H  812   2.477   3.502   5.063
    1C        H  813   2.593   3.728   5.048
    1C        H  814   2.614   4.163   5.054
    1C        H  815   2.755   4.321   5.056
    1C        H  816   2.712   2.881   1.974
    1C        H  817   2.883   2.732   1.985
    1C        H  818   3.202   2.399   2.001
    1C        H  819   3.434   2.456   1.979
    1C        H  820   3.902   2.462   1.994
    1C        H  821   4.044   2.654   1.967
    1C        H  822   4.257   2.708   1.979
    1C        H  823   4.351   2.932   1.969
    1C        H  824   4.546   3.315   1.967
    1C        H  825   4.481   3.517   1.959
    1C        H  826   4.543   3.744   1.963
    1C        H  827   3.805   4.555   1.970
    1C        H  828   3.931   4.315   1.962
    1C        H  829   4.168   4.266   1.945
    1C        H  830   4.502   3.970   1.965
    1C        H  831   2.670   3.831   1.977
    1C        H  832   2.728   4.051   1.962
    1C        H  833   2.718   4.298   1.963
    1C        H  834   3.381   4.449   1.950
    1C        H  835   3.151   4.385   1.959
    1C        H  836   2.515   3.002   1.988
    1C        H  837   2.478   3.241   1.975
    1C        H  838   2.475   3.688   1.973
    2V3OU   H29  839   2.806   3.543   5.814
    2V3OU   C27  840   2.781   3.508   5.918
    2V3OU   H27  841   2.719   3.574   5.984
    2V3OU   H28  842   2.735   3.406   5.912
    2V3OU   O11  843   2.906   3.477   5.980
    2V3OU   C15  844   2.916   3.397   6.092
    2V3OU   C13  845   3.045   3.372   6.145
    2V3OU   C14  846   3.073   3.268   6.235
    2V3OU   C16  847   2.970   3.186   6.279
    2V3OU    H6  848   2.990   3.110   6.355
    2V3OU   C12  849   3.212   3.229   6.269
    2V3OU    O2  850   3.234   3.132   6.343
    2V3OU   C10  851   3.327   3.304   6.216
    2V3OU    C8  852   3.458   3.268   6.244
    2V3OU   O10  853   3.489   3.157   6.317
    2V3OU   H26  854   3.407   3.105   6.327
    2V3OU    C6  855   3.566   3.351   6.199
    2V3OU    C5  856   3.538   3.470   6.133
    2V3OU    C4  857   3.704   3.295   6.194
    2V3OU    H4  858   3.725   3.231   6.285
    2V3OU    H5  859   3.706   3.227   6.104
    2V3OU    C2  860   3.814   3.401   6.183
    2V3OU    O6  861   3.810   3.474   6.306
    2V3OU   H21  862   3.763   3.553   6.275
    2V3OU    C3  863   3.782   3.498   6.069
    2V3OU    H2  864   3.864   3.573   6.062
    2V3OU    H3  865   3.787   3.441   5.973
    2V3OU   C25  866   3.949   3.332   6.166
    2V3OU    O7  867   4.001   3.300   6.059
    2V3OU   C26  868   4.029   3.292   6.288
    2V3OU   H22  869   4.073   3.376   6.348
    2V3OU   H23  870   4.113   3.224   6.259
    2V3OU    O8  871   3.957   3.209   6.376
    2V3OU   H24  872   3.932   3.262   6.454
    2V3OU    C1  873   3.646   3.564   6.088
    2V3OU    H1  874   3.624   3.621   5.994
    2V3OU    O3  875   3.658   3.655   6.198
    2V3OU   C19  876   3.618   3.792   6.189
    2V3OU    H9  877   3.517   3.791   6.138
    2V3OU    O4  878   3.713   3.849   6.102
    2V3OU   C20  879   3.843   3.875   6.155
    2V3OU   H10  880   3.893   3.775   6.172
    2V3OU   C24  881   3.611   3.859   6.327
    2V3OU   H16  882   3.547   3.797   6.395
    2V3OU   H17  883   3.570   3.962   6.315
    2V3OU   C23  884   3.751   3.876   6.386
    2V3OU   H15  885   3.797   3.773   6.401
    2V3OU    N1  886   3.740   3.959   6.504
    2V3OU   H19  887   3.800   3.919   6.574
    2V3OU   H20  888   3.648   3.940   6.536
    2V3OU   C21  889   3.851   3.948   6.289
    2V3OU   H11  890   3.954   3.926   6.330
    2V3OU    O5  891   3.828   4.088   6.287
    2V3OU   H18  892   3.781   4.107   6.370
    2V3OU   C22  893   3.914   3.946   6.041
    2V3OU   H12  894   3.864   4.044   6.021
    2V3OU   H13  895   3.910   3.885   5.947
    2V3OU   H14  896   4.023   3.954   6.065
    2V3OU   C11  897   3.156   3.466   6.128
    2V3OU    O1  898   3.134   3.584   6.091
    2V3OU    C9  899   3.296   3.419   6.139
    2V3OU    C7  900   3.402   3.500   6.101
    2V3OU    O9  901   3.386   3.622   6.039
    2V3OU   H25  902   3.290   3.625   6.031
    2V3OU   C17  903   2.818   3.312   6.146
    2V3OU    H7  904   2.714   3.335   6.123
    2V3OU   C18  905   2.839   3.208   6.235
    2V3OU    H8  906   2.760   3.149   6.284
    3SOL     OW  907   3.206   3.276   3.780
    3SOL    HW1  908   3.278   3.221   3.736
    3SOL    HW2  909   3.243   3.366   3.804
    4SOL     OW  910   6.479   6.361   1.489
    4SOL    HW1  911   6.545   6.363   1.564
    4SOL    HW2  912   6.525   6.386   1.404
    5SOL     OW  913   4.297   2.856   0.642
    5SOL    HW1  914   4.289   2.820   0.735
    5SOL    HW2  915   4.260   2.790   0.577
    6SOL     OW  916   4.430   1.750   1.892
    6SOL    HW1  917   4.504   1.761   1.957
    6SOL    HW2  918   4.383   1.837   1.878
    7SOL     OW  919   2.151   3.055   4.467
    7SOL    HW1  920   2.170   3.144   4.509
    7SOL    HW2  921   2.173   2.982   4.532
    8SOL     OW  922   1.045   2.482   5.471
    8SOL    HW1  923   1.114   2.547   5.440
    8SOL    HW2  924   0.954   2.517   5.447
    9SOL     OW  925   1.310   1.967   6.072
    9SOL    HW1  926   1.366   1.891   6.039
    9SOL    HW2  927   1.350   2.054   6.041
   10SOL     OW  928   5.437   5.024   1.635
   10SOL    HW1  929   5.449   4.942   1.690
   10SOL    HW2  930   5.428   5.104   1.695
   11SOL     OW  931   3.054   2.094   0.613
   11SOL    HW1  932   3.104   2.180   0.597
   11SOL    HW2  933   2.976   2.090   0.551
   12SOL     OW  934   4.939   4.990   1.920
   12SOL    HW1  935   4.882   5.055   1.871
   12SOL    HW2  936   4.888   4.953   1.998
   13SOL     OW  937   5.571   6.564   1.837
   13SOL    HW1  938   5.506   6.547   1.912
   13SOL    HW2  939   5.593   6.477   1.793
   14SOL     OW  940   4.576   6.436   0.039
   14SOL    HW1  941   4.531   6.516   7.022
   14SOL    HW2  942   4.518   6.355   0.028
   15SOL     OW  943   0.706   5.594   6.318
   15SOL    HW1  944   0.772   5.568   6.388
   15SOL    HW2  945   0.626   5.534   6.324
   16SOL     OW  946   2.197   5.898   4.557
   16SOL    HW1  947   2.184   5.802   4.584
   16SOL    HW2  948   2.123   5.953   4.595
   17SOL     OW  949   6.774   0.836   4.742
   17SOL    HW1  950   6.727   0.750   4.762
   17SOL    HW2  951   6.813   0.873   4.827
   18SOL     OW  952   2.663   0.767   5.784
   18SOL    HW1  953   2.694   0.861   5.768
   18SOL    HW2  954   2.691   0.739   5.876
   19SOL     OW  955   2.968   6.300   2.385
   19SOL    HW1  956   3.007   6.362   2.453
   19SOL    HW2  957   2.942   6.215   2.430
   20SOL     OW  958   0.162   1.701   5.857
   20SOL    HW1  959   0.258   1.702   5.886
   20SOL    HW2  960   0.139   1.790   5.817
   21SOL     OW  961   2.213   3.919   2.541
   21SOL    HW1  962   2.205   3.964   2.630
   21SOL    HW2  963   2.190   3.822   2.551
   22SOL     OW  964   0.807   1.238   0.354
   22SOL    HW1  965   0.710   1.253   0.333
   22SOL    HW2  966   0.827   1.140   0.349
   23SOL     OW  967   6.596   5.116   0.656
   23SOL    HW1  968   6.613   5.036   0.598
   23SOL    HW2  969   6.524   5.172   0.615
   24SOL     OW  970   4.988   1.559   0.244
   24SOL    HW1  971   5.040   1.570   0.159
   24SOL    HW2  972   4.892   1.583   0.228
   25SOL     OW  973   1.511   1.090   4.392
   25SOL    HW1  974   1.422   1.122   4.360
   25SOL    HW2  975   1.498   1.026   4.467
   26SOL     OW  976   1.678   1.136   6.543
   26SOL    HW1  977   1.768   1.142   6.586
   26SOL    HW2  978   1.643   1.042   6.550
   27SOL     OW  979   0.042   0.368   2.830
   27SOL    HW1  980   0.045   0.334   2.924
   27SOL    HW2  981   0.010   0.462   2.830
   28SOL     OW  982   1.396   0.873   5.869
   28SOL    HW1  983   1.340   0.821   5.933
   28SOL    HW2  984   1.343   0.949   5.832
   29SOL     OW  985   5.654   0.479   1.299
   29SOL    HW1  986   5.674   0.510   1.205
   29SOL    HW2  987   5.568   0.428   1.299
   30SOL     OW  988   5.059   0.298   5.330
   30SOL    HW1  989   5.048   0.292   5.429
   30SOL    HW2  990   5.154   0.282   5.306
   31SOL     OW  991   6.685   4.519   3.994
   31SOL    HW1  992   6.666   4.510   4.092
   31SOL    HW2  993   6.660   4.611   3.963
   32SOL     OW  994   2.455   1.283   0.785
   32SOL    HW1  995   2.496   1.194   0.806
   32SOL    HW2  996   2.527   1.351   0.774
   33SOL     OW  997   2.492   5.276   5.545
   33SOL    HW1  998   2.533   5.262   5.455
   33SOL    HW2  999   2.470   5.186   5.585
   34SOL     OW 1000   2.238   6.055   5.432
   34SOL    HW1 1001   2.168   6.000   5.388
   34SOL    HW2 1002   2.307   6.083   5.364
   35SOL     OW 1003   1.428   3.730   5.194
   35SOL    HW1 1004   1.329   3.737   5.178
   35SOL    HW2 1005   1.446   3.649   5.251
   36SOL     OW 1006   6.381   0.934   3.799
   36SOL    HW1 1007   6.319   1.012   3.810
   36SOL    HW2 1008   6.410   0.902   3.889
   37SOL     OW 1009   2.329   6.316   4.512
   37SOL    HW1 1010   2.414   6.355   4.476
   37SOL    HW2 1011   2.315   6.347   4.606
   38SOL     OW 1012   0.974   4.074   2.394
   38SOL    HW1 1013   1.002   4.011   2.465
   38SOL    HW2 1014   0.980   4.029   2.304
   39SOL     OW 1015   6.570   5.024   1.054
   39SOL    HW1 1016   6.502   5.074   1.001
   39SOL    HW2 1017   6.662   5.053   1.026
   40SOL     OW 1018   3.657   0.906   6.649
   40SOL    HW1 1019   3.568   0.917   6.603
   40SOL    HW2 1020   3.685   0.810   6.644
   41SOL     OW 1021   4.943   3.488   1.352
   41SOL    HW1 1022   4.882   3.414   1.381
   41SOL    HW2 1023   4.937   3.563   1.418
   42SOL     OW 1024   3.082   4.039   6.551
   42SOL    HW1 1025   3.013   4.095   6.506
   42SOL    HW2 1026   3.162   4.030   6.492
   43SOL     OW 1027   5.406   0.121   4.972
   43SOL    HW1 1028   5.401   0.122   4.872
   43SOL    HW2 1029   5.496   0.153   5.001
   44SOL     OW 1030   6.409   1.321   5.962
   44SOL    HW1 1031   6.325   1.353   6.005
   44SOL    HW2 1032   6.451   1.396   5.910
   45SOL     OW 1033   2.891   4.350   6.200
   45SOL    HW1 1034   2.874   4.299   6.285
   45SOL    HW2 1035   2.960   4.421   6.218
   46SOL     OW 1036   1.080   4.673   5.259
   46SOL    HW1 1037   1.077   4.637   5.352
   46SOL    HW2 1038   1.037   4.608   5.196
   47SOL     OW 1039   6.167   3.841   0.165
   47SOL    HW1 1040   6.239   3.782   0.127
   47SOL    HW2 1041   6.134   3.802   0.251
   48SOL     OW 1042   6.957   3.889   0.863
   48SOL    HW1 1043   6.988   3.936   0.780
   48SOL    HW2 1044   6.972   3.947   0.942
   49SOL     OW 1045   3.188   2.569   6.453
   49SOL    HW1 1046   3.243   2.587   6.371
   49SOL    HW2 1047   3.232   2.497   6.506
   50SOL     OW 1048   5.168   1.928   0.293
   50SOL    HW1 1049   5.109   1.924   0.213
   50SOL    HW2 1050   5.256   1.969   0.266
   51SOL     OW 1051   0.934   6.470   1.741
   51SOL    HW1 1052   0.991   6.485   1.822
   51SOL    HW2 1053   0.871   6.394   1.760
   52SOL     OW 1054   5.613   1.804   2.357
   52SOL    HW1 1055   5.647   1.895   2.332
   52SOL    HW2 1056   5.519   1.811   2.391
   53SOL     OW 1057   4.180   0.823   0.730
   53SOL    HW1 1058   4.099   0.864   0.773
   53SOL    HW2 1059   4.162   0.810   0.632
   54SOL     OW 1060   6.077   0.694   6.537
   54SOL    HW1 1061   6.159   0.639   6.522
   54SOL    HW2 1062   6.044   0.730   6.449
   55SOL     OW 1063   1.453   3.882   5.779
   55SOL    HW1 1064   1.511   3.915   5.704
   55SOL    HW2 1065   1.463   3.783   5.787
   56SOL     OW 1066   0.629   2.199   6.787
   56SOL    HW1 1067   0.675   2.122   6.742
   56SOL    HW2 1068   0.531   2.194   6.770
   57SOL     OW 1069   4.100   6.080   1.177
   57SOL    HW1 1070   4.089   6.176   1.151
   57SOL    HW2 1071   4.040   6.058   1.253
   58SOL     OW 1072   1.137   0.674   6.911
   58SOL    HW1 1073   1.212   0.680   6.977
   58SOL    HW2 1074   1.050   0.669   6.960
   59SOL     OW 1075   4.234   2.652   6.262
   59SOL    HW1 1076   4.328   2.666   6.292
   59SOL    HW2 1077   4.187   2.740   6.256
   60SOL     OW 1078   6.787   3.325   2.710
   60SOL    HW1 1079   6.805   3.421   2.732
   60SOL    HW2 1080   6.758   3.277   2.793
   61SOL     OW 1081   1.418   5.749   3.096
   61SOL    HW1 1082   1.502   5.733   3.045
   61SOL    HW2 1083   1.371   5.662   3.112
   62SOL     OW 1084   6.009   2.296   3.509
   62SOL    HW1 1085   6.033   2.267   3.602
   62SOL    HW2 1086   5.934   2.362   3.514
   63SOL     OW 1087   3.884   6.794   6.010
   63SOL    HW1 1088   3.923   6.723   6.068
   63SOL    HW2 1089   3.935   6.797   5.923
   64SOL     OW 1090   1.446   2.124   6.297
   64SOL    HW1 1091   1.408   2.164   6.213
   64SOL    HW2 1092   1.377   2.125   6.369
   65SOL     OW 1093   1.473   5.063   4.864
   65SOL    HW1 1094   1.544   5.132   4.879
   65SOL    HW2 1095   1.384   5.108   4.857
   66SOL     OW 1096   4.658   1.190   1.356
   66SOL    HW1 1097   4.705   1.104   1.374
   66SOL    HW2 1098   4.570   1.191   1.402
   67SOL     OW 1099   0.127   3.784   1.188
   67SOL    HW1 1100   0.059   3.839   1.139
   67SOL    HW2 1101   0.166   3.838   1.262
   68SOL     OW 1102   0.273   0.964   6.493
   68SOL    HW1 1103   0.282   1.037   6.425
   68SOL    HW2 1104   0.325   0.884   6.462
   69SOL     OW 1105   1.817   6.483   6.966
   69SOL    HW1 1106   1.832   6.389   6.995
   69SOL    HW2 1107   1.736   6.520   7.013
   70SOL     OW 1108   4.517   4.861   3.059
   70SOL    HW1 1109   4.567   4.939   3.096
   70SOL    HW2 1110   4.422   4.888   3.039
   71SOL     OW 1111   5.015   1.497   5.318
   71SOL    HW1 1112   5.050   1.419   5.267
   71SOL    HW2 1113   4.921   1.516   5.290
   72SOL     OW 1114   0.223   0.605   2.237
   72SOL    HW1 1115   0.256   0.513   2.214
   72SOL    HW2 1116   0.198   0.607   2.334
   73SOL     OW 1117   2.296   1.358   1.010
   73SOL    HW1 1118   2.340   1.444   1.035
   73SOL    HW2 1119   2.319   1.334   0.916
   74SOL     OW 1120   2.635   1.582   0.137
   74SOL    HW1 1121   2.652   1.597   0.040
   74SOL    HW2 1122   2.542   1.611   0.160
   75SOL     OW 1123   2.018   2.194   0.657
   75SOL    HW1 1124   1.944   2.262   0.662
   75SOL    HW2 1125   2.106   2.242   0.656
   76SOL     OW 1126   4.037   4.807   5.800
   76SOL    HW1 1127   4.078   4.892   5.833
   76SOL    HW2 1128   3.997   4.758   5.877
   77SOL     OW 1129   0.460   5.102   4.272
   77SOL    HW1 1130   0.553   5.065   4.277
   77SOL    HW2 1131   0.445   5.163   4.350
   78SOL     OW 1132   5.794   1.883   1.665
   78SOL    HW1 1133   5.720   1.867   1.601
   78SOL    HW2 1134   5.880   1.851   1.626
   79SOL     OW 1135   1.652   4.163   4.256
   79SOL    HW1 1136   1.612   4.072   4.271
   79SOL    HW2 1137   1.580   4.232   4.265
   80SOL     OW 1138   3.586   2.014   5.106
   80SOL    HW1 1139   3.508   2.062   5.067
   80SOL    HW2 1140   3.663   2.018   5.042
   81SOL     OW 1141   3.364   5.437   2.193
   81SOL    HW1 1142   3.390   5.523   2.149
   81SOL    HW2 1143   3.438   5.370   2.184
   82SOL     OW 1144   3.115   0.375   2.538
   82SOL    HW1 1145   3.150   0.456   2.491
   82SOL    HW2 1146   3.036   0.400   2.594
   83SOL     OW 1147   5.551   0.980   4.741
   83SOL    HW1 1148   5.603   0.922   4.679
   83SOL    HW2 1149   5.479   0.927   4.785
   84SOL     OW 1150   5.693   2.901   3.237
   84SOL    HW1 1151   5.782   2.923   3.277
   84SOL    HW2 1152   5.622   2.957   3.281
   85SOL     OW 1153   2.364   5.732   3.319
   85SOL    HW1 1154   2.295   5.675   3.364
   85SOL    HW2 1155   2.439   5.749   3.382
   86SOL     OW 1156   4.584   0.650   0.630
   86SOL    HW1 1157   4.657   0.582   0.618
   86SOL    HW2 1158   4.569   0.699   0.545
   87SOL     OW 1159   3.039   2.884   6.498
   87SOL    HW1 1160   3.009   2.810   6.558
   87SOL    HW2 1161   2.959   2.928   6.457
   88SOL     OW 1162   2.086   2.780   1.456
   88SOL    HW1 1163   2.107   2.684   1.471
   88SOL    HW2 1164   2.011   2.788   1.390
   89SOL     OW 1165   3.346   3.662   5.498
   89SOL    HW1 1166   3.330   3.599   5.421
   89SOL    HW2 1167   3.281   3.738   5.492
   90SOL     OW 1168   6.772   4.480   1.926
   90SOL    HW1 1169   6.705   4.550   1.901
   90SOL    HW2 1170   6.825   4.512   2.004
   91SOL     OW 1171   4.328   6.157   0.582
   91SOL    HW1 1172   4.385   6.099   0.640
   91SOL    HW2 1173   4.249   6.105   0.549
   92SOL     OW 1174   5.848   5.229   6.981
   92SOL    HW1 1175   5.837   5.300   6.911
   92SOL    HW2 1176   5.784   5.154   6.963
   93SOL     OW 1177   2.823   3.763   1.678
   93SOL    HW1 1178   2.838   3.683   1.735
   93SOL    HW2 1179   2.863   3.748   1.588
   94SOL     OW 1180   2.996   1.931   4.487
   94SOL    HW1 1181   3.017   1.914   4.391
   94SOL    HW2 1182   2.930   1.862   4.519
   95SOL     OW 1183   0.610   0.078   3.920
   95SOL    HW1 1184   0.526   0.085   3.866
   95SOL    HW2 1185   0.689   0.088   3.859
   96SOL     OW 1186   0.014   5.396   6.526
   96SOL    HW1 1187   0.063   5.326   6.577
   96SOL    HW2 1188   0.047   5.487   6.552
   97SOL     OW 1189   3.417   4.292   5.318
   97SOL    HW1 1190   3.320   4.272   5.329
   97SOL    HW2 1191   3.433   4.390   5.331
   98SOL     OW 1192   0.394   2.587   4.767
   98SOL    HW1 1193   0.447   2.669   4.748
   98SOL    HW2 1194   0.299   2.611   4.784
   99SOL     OW 1195   4.119   4.639   5.365
   99SOL    HW1 1196   4.035   4.661   5.316
   99SOL    HW2 1197   4.098   4.580   5.443
  100SOL     OW 1198   1.480   0.826   5.254
  100SOL    HW1 1199   1.382   0.841   5.265
  100SOL    HW2 1200   1.498   0.784   5.165
  101SOL     OW 1201   5.211   3.484   2.648
  101SOL    HW1 1202   5.124   3.503   2.693
  101SOL    HW2 1203   5.275   3.558   2.668
  102SOL     OW 1204   3.721   0.341   6.807
  102SOL    HW1 1205   3.775   0.330   6.891
  102SOL    HW2 1206   3.778   0.319   6.728
  103SOL     OW 1207   1.159   1.567   1.692
  103SOL    HW1 1208   1.236   1.520   1.735
  103SOL    HW2 1209   1.076   1.512   1.704
  104SOL     OW 1210   6.317   4.500   1.960
  104SOL    HW1 1211   6.295   4.507   1.862
  104SOL    HW2 1212   6.234   4.481   2.011
  105SOL     OW 1213   6.857   0.356   5.147
  105SOL    HW1 1214   6.897   0.420   5.081
  105SOL    HW2 1215   6.909   0.358   5.232
  106SOL     OW 1216   4.238   2.892   1.659
  106SOL    HW1 1217   4.241   2.981   1.705
  106SOL    HW2 1218   4.330   2.854   1.655
  107SOL     OW 1219   4.888   6.955   1.860
  107SOL    HW1 1220   4.834   0.015   1.845
  107SOL    HW2 1221   4.835   6.889   1.914
  108SOL     OW 1222   3.565   1.715   4.813
  108SOL    HW1 1223   3.478   1.761   4.831
  108SOL    HW2 1224   3.577   1.705   4.715
  109SOL     OW 1225   2.259   1.180   5.677
  109SOL    HW1 1226   2.164   1.149   5.680
  109SOL    HW2 1227   2.315   1.110   5.633
  110SOL     OW 1228   4.058   4.444   5.631
  110SOL    HW1 1229   4.125   4.409   5.696
  110SOL    HW2 1230   4.000   4.369   5.598
  111SOL     OW 1231   6.086   3.397   1.834
  111SOL    HW1 1232   6.170   3.421   1.785
  111SOL    HW2 1233   6.032   3.333   1.779
  112SOL     OW 1234   4.740   6.801   5.066
  112SOL    HW1 1235   4.777   6.817   4.974
  112SOL    HW2 1236   4.723   6.703   5.078
  113SOL     OW 1237   0.762   4.962   2.749
  113SOL    HW1 1238   0.755   5.031   2.821
  113SOL    HW2 1239   0.858   4.937   2.737
  114SOL     OW 1240   6.970   1.865   1.951
  114SOL    HW1 1241   0.007   1.788   1.972
  114SOL    HW2 1242   7.001   1.909   1.867
  115SOL     OW 1243   4.077   0.721   2.489
  115SOL    HW1 1244   4.049   0.817   2.495
  115SOL    HW2 1245   4.137   0.709   2.410
  116SOL     OW 1246   6.533   5.365   1.210
  116SOL    HW1 1247   6.546   5.303   1.132
  116SOL    HW2 1248   6.570   5.323   1.293
  117SOL     OW 1249   2.881   1.719   0.450
  117SOL    HW1 1250   2.888   1.693   0.354
  117SOL    HW2 1251   2.903   1.816   0.461
  118SOL     OW 1252   0.013   2.418   2.042
  118SOL    HW1 1253   6.943   2.413   2.081
  118SOL    HW2 1254   0.008   2.415   1.942
  119SOL     OW 1255   6.439   6.197   4.721
  119SOL    HW1 1256   6.395   6.168   4.807
  119SOL    HW2 1257   6.392   6.277   4.685
  120SOL     OW 1258   4.401   1.819   4.618
  120SOL    HW1 1259   4.456   1.900   4.638
  120SOL    HW2 1260   4.310   1.847   4.589
  121SOL     OW 1261   0.163   5.730   6.259
  121SOL    HW1 1262   0.241   5.732   6.196
  121SOL    HW2 1263   0.143   5.823   6.290
  122SOL     OW 1264   6.539   4.676   6.049
  122SOL    HW1 1265   6.535   4.766   6.005
  122SOL    HW2 1266   6.486   4.611   5.995
  123SOL     OW 1267   0.596   2.743   1.199
  123SOL    HW1 1268   0.516   2.785   1.242
  123SOL    HW2 1269   0.679   2.776   1.244
  124SOL     OW 1270   1.753   3.462   0.181
  124SOL    HW1 1271   1.712   3.515   0.107
  124SOL    HW2 1272   1.819   3.519   0.230
  125SOL     OW 1273   4.271   2.628   0.491
  125SOL    HW1 1274   4.199   2.573   0.533
  125SOL    HW2 1275   4.344   2.568   0.459
  126SOL     OW 1276   3.320   3.275   5.030
  126SOL    HW1 1277   3.414   3.260   5.060
  126SOL    HW2 1278   3.319   3.286   4.930
  127SOL     OW 1279   0.264   4.780   6.075
  127SOL    HW1 1280   0.290   4.873   6.101
  127SOL    HW2 1281   0.335   4.716   6.105
  128SOL     OW 1282   4.375   3.679   5.894
  128SOL    HW1 1283   4.473   3.694   5.878
  128SOL    HW2 1284   4.328   3.674   5.806
  129SOL     OW 1285   0.328   4.856   1.585
  129SOL    HW1 1286   0.242   4.807   1.592
  129SOL    HW2 1287   0.351   4.871   1.489
  130SOL     OW 1288   6.105   3.536   4.896
  130SOL    HW1 1289   6.005   3.527   4.893
  130SOL    HW2 1290   6.139   3.567   4.808
  131SOL     OW 1291   0.989   3.609   3.368
  131SOL    HW1 1292   0.936   3.607   3.453
  131SOL    HW2 1293   1.049   3.529   3.364
  132SOL     OW 1294   4.461   2.555   1.164
  132SOL    HW1 1295   4.541   2.549   1.224
  132SOL    HW2 1296   4.487   2.528   1.071
  133SOL     OW 1297   4.491   4.505   6.181
  133SOL    HW1 1298   4.469   4.422   6.129
  133SOL    HW2 1299   4.535   4.571   6.120
  134SOL     OW 1300   6.176   1.455   0.822
  134SOL    HW1 1301   6.206   1.366   0.789
  134SOL    HW2 1302   6.101   1.488   0.764
  135SOL     OW 1303   4.300   4.666   3.837
  135SOL    HW1 1304   4.209   4.691   3.802
  135SOL    HW2 1305   4.299   4.665   3.937
  136SOL     OW 1306   4.196   6.696   6.186
  136SOL    HW1 1307   4.194   6.790   6.219
  136SOL    HW2 1308   4.144   6.638   6.249
  137SOL     OW 1309   2.279   4.112   6.585
  137SOL    HW1 1310   2.266   4.153   6.675
  137SOL    HW2 1311   2.279   4.184   6.515
  138SOL     OW 1312   1.238   5.696   6.590
  138SOL    HW1 1313   1.268   5.647   6.672
  138SOL    HW2 1314   1.319   5.725   6.538
  139SOL     OW 1315   0.197   0.526   1.110
  139SOL    HW1 1316   0.290   0.489   1.114
  139SOL    HW2 1317   0.185   0.594   1.183
  140SOL     OW 1318   3.834   0.301   1.714
  140SOL    HW1 1319   3.762   0.326   1.649
  140SOL    HW2 1320   3.917   0.276   1.664
  141SOL     OW 1321   0.396   1.372   6.888
  141SOL    HW1 1322   0.405   1.440   6.962
  141SOL    HW2 1323   0.331   1.406   6.820
  142SOL     OW 1324   1.805   3.969   0.455
  142SOL    HW1 1325   1.755   4.055   0.453
  142SOL    HW2 1326   1.837   3.947   0.363
  143SOL     OW 1327   5.073   5.387   1.748
  143SOL    HW1 1328   5.116   5.477   1.740
  143SOL    HW2 1329   5.076   5.357   1.843
  144SOL     OW 1330   3.567   5.520   2.889
  144SOL    HW1 1331   3.521   5.433   2.905
  144SOL    HW2 1332   3.519   5.571   2.817
  145SOL     OW 1333   0.427   5.591   3.325
  145SOL    HW1 1334   0.484   5.674   3.323
  145SOL    HW2 1335   0.407   5.562   3.231
  146SOL     OW 1336   6.597   0.897   5.758
  146SOL    HW1 1337   6.577   0.803   5.730
  146SOL    HW2 1338   6.558   0.914   5.848
  147SOL     OW 1339   6.045   1.144   5.304
  147SOL    HW1 1340   5.950   1.140   5.272
  147SOL    HW2 1341   6.101   1.192   5.237
  148SOL     OW 1342   1.824   6.518   1.490
  148SOL    HW1 1343   1.834   6.455   1.413
  148SOL    HW2 1344   1.892   6.495   1.560
  149SOL     OW 1345   1.207   3.489   4.658
  149SOL    HW1 1346   1.216   3.389   4.656
  149SOL    HW2 1347   1.277   3.527   4.718
  150SOL     OW 1348   4.621   2.325   5.543
  150SOL    HW1 1349   4.636   2.228   5.524
  150SOL    HW2 1350   4.599   2.337   5.640
  151SOL     OW 1351   6.217   2.700   1.145
  151SOL    HW1 1352   6.264   2.787   1.163
  151SOL    HW2 1353   6.247   2.633   1.213
  152SOL     OW 1354   6.998   2.708   1.172
  152SOL    HW1 1355   0.064   2.677   1.206
  152SOL    HW2 1356   6.962   2.640   1.107
  153SOL     OW 1357   1.732   1.785   3.336
  153SOL    HW1 1358   1.654   1.757   3.280
  153SOL    HW2 1359   1.757   1.710   3.398
  154SOL     OW 1360   0.233   1.448   3.964
  154SOL    HW1 1361   0.175   1.419   3.888
  154SOL    HW2 1362   0.277   1.535   3.941
  155SOL     OW 1363   5.554   4.900   3.787
  155SOL    HW1 1364   5.580   4.807   3.811
  155SOL    HW2 1365   5.532   4.905   3.689
  156SOL     OW 1366   4.808   0.964   1.407
  156SOL    HW1 1367   4.884   0.916   1.449
  156SOL    HW2 1368   4.750   0.899   1.357
  157SOL     OW 1369   4.864   0.341   1.183
  157SOL    HW1 1370   4.865   0.432   1.225
  157SOL    HW2 1371   4.780   0.331   1.130
  158SOL     OW 1372   0.724   3.007   4.351
  158SOL    HW1 1373   0.783   2.932   4.321
  158SOL    HW2 1374   0.693   3.059   4.272
  159SOL     OW 1375   6.249   5.216   0.054
  159SOL    HW1 1376   6.203   5.300   0.082
  159SOL    HW2 1377   6.275   5.163   0.135
  160SOL     OW 1378   4.213   0.825   1.053
  160SOL    HW1 1379   4.142   0.755   1.064
  160SOL    HW2 1380   4.267   0.805   0.972
  161SOL     OW 1381   0.054   6.560   0.226
  161SOL    HW1 1382   0.147   6.558   0.263
  161SOL    HW2 1383   0.034   6.652   0.191
  162SOL     OW 1384   4.396   0.218   5.629
  162SOL    HW1 1385   4.382   0.119   5.628
  162SOL    HW2 1386   4.493   0.238   5.643
  163SOL     OW 1387   0.906   3.795   2.845
  163SOL    HW1 1388   0.813   3.826   2.864
  163SOL    HW2 1389   0.927   3.716   2.903
  164SOL     OW 1390   1.698   2.125   2.316
  164SOL    HW1 1391   1.771   2.187   2.287
  164SOL    HW2 1392   1.629   2.177   2.366
  165SOL     OW 1393   0.193   6.786   3.729
  165SOL    HW1 1394   0.098   6.758   3.718
  165SOL    HW2 1395   0.251   6.705   3.740
  166SOL     OW 1396   0.484   4.522   3.762
  166SOL    HW1 1397   0.568   4.474   3.787
  166SOL    HW2 1398   0.422   4.459   3.715
  167SOL     OW 1399   1.356   1.407   3.810
  167SOL    HW1 1400   1.389   1.428   3.902
  167SOL    HW2 1401   1.368   1.488   3.752
  168SOL     OW 1402   3.338   3.906   2.908
  168SOL    HW1 1403   3.261   3.893   2.970
  168SOL    HW2 1404   3.319   3.984   2.848
  169SOL     OW 1405   5.125   2.422   0.172
  169SOL    HW1 1406   5.098   2.423   0.076
  169SOL    HW2 1407   5.215   2.378   0.181
  170SOL     OW 1408   0.176   5.581   1.358
  170SOL    HW1 1409   0.179   5.517   1.281
  170SOL    HW2 1410   0.134   5.536   1.437
  171SOL     OW 1411   3.007   2.625   0.837
  171SOL    HW1 1412   3.003   2.718   0.800
  171SOL    HW2 1413   2.936   2.614   0.906
  172SOL     OW 1414   1.243   0.991   0.107
  172SOL    HW1 1415   1.303   0.946   0.041
  172SOL    HW2 1416   1.196   1.068   0.062
  173SOL     OW 1417   5.892   1.202   4.740
  173SOL    HW1 1418   5.834   1.261   4.684
  173SOL    HW2 1419   5.840   1.173   4.821
  174SOL     OW 1420   5.813   4.197   4.999
  174SOL    HW1 1421   5.727   4.241   5.025
  174SOL    HW2 1422   5.818   4.105   5.038
  175SOL     OW 1423   0.624   6.733   2.930
  175SOL    HW1 1424   0.671   6.788   2.862
  175SOL    HW2 1425   0.599   6.644   2.891
  176SOL     OW 1426   6.559   3.936   0.786
  176SOL    HW1 1427   6.538   4.003   0.715
  176SOL    HW2 1428   6.639   3.883   0.760
  177SOL     OW 1429   6.465   1.987   3.753
  177SOL    HW1 1430   6.453   1.977   3.852
  177SOL    HW2 1431   6.412   1.916   3.706
  178SOL     OW 1432   2.515   5.630   4.798
  178SOL    HW1 1433   2.575   5.666   4.726
  178SOL    HW2 1434   2.496   5.533   4.780
  179SOL     OW 1435   3.830   4.146   1.765
  179SOL    HW1 1436   3.876   4.081   1.825
  179SOL    HW2 1437   3.783   4.215   1.819
  180SOL     OW 1438   4.632   1.739   6.344
  180SOL    HW1 1439   4.558   1.680   6.312
  180SOL    HW2 1440   4.670   1.789   6.266
  181SOL     OW 1441   3.589   0.850   5.810
  181SOL    HW1 1442   3.623   0.761   5.778
  181SOL    HW2 1443   3.591   0.915   5.735
  182SOL     OW 1444   2.836   2.869   5.677
  182SOL    HW1 1445   2.909   2.920   5.631
  182SOL    HW2 1446   2.840   2.774   5.649
  183SOL     OW 1447   3.221   0.919   3.276
  183SOL    HW1 1448   3.281   0.868   3.338
  183SOL    HW2 1449   3.244   1.016   3.281
  184SOL     OW 1450   4.933   5.483   3.292
  184SOL    HW1 1451   4.889   5.561   3.336
  184SOL    HW2 1452   4.878   5.401   3.305
  185SOL     OW 1453   0.589   6.604   4.812
  185SOL    HW1 1454   0.653   6.529   4.828
  185SOL    HW2 1455   0.569   6.650   4.899
  186SOL     OW 1456   2.964   5.897   5.272
  186SOL    HW1 1457   2.980   5.991   5.242
  186SOL    HW2 1458   3.040   5.839   5.241
  187SOL     OW 1459   3.942   5.966   0.951
  187SOL    HW1 1460   4.005   5.957   1.028
  187SOL    HW2 1461   3.889   6.050   0.960
  188SOL     OW 1462   1.452   3.485   3.248
  188SOL    HW1 1463   1.447   3.585   3.249
  188SOL    HW2 1464   1.501   3.455   3.166
  189SOL     OW 1465   5.662   4.555   5.989
  189SOL    HW1 1466   5.604   4.636   6.000
  189SOL    HW2 1467   5.757   4.578   6.009
  190SOL     OW 1468   6.098   6.353   0.770
  190SOL    HW1 1469   6.125   6.365   0.866
  190SOL    HW2 1470   6.147   6.418   0.713
  191SOL     OW 1471   1.671   2.528   5.276
  191SOL    HW1 1472   1.639   2.504   5.184
  191SOL    HW2 1473   1.756   2.478   5.295
  192SOL     OW 1474   0.115   6.193   1.519
  192SOL    HW1 1475   0.196   6.207   1.462
  192SOL    HW2 1476   0.033   6.201   1.464
  193SOL     OW 1477   2.837   0.731   2.126
  193SOL    HW1 1478   2.905   0.781   2.180
  193SOL    HW2 1479   2.822   0.779   2.039
  194SOL     OW 1480   4.264   6.352   2.794
  194SOL    HW1 1481   4.288   6.369   2.890
  194SOL    HW2 1482   4.176   6.395   2.774
  195SOL     OW 1483   3.154   0.634   1.035
  195SOL    HW1 1484   3.227   0.622   0.967
  195SOL    HW2 1485   3.066   0.613   0.993
  196SOL     OW 1486   3.959   2.515   1.148
  196SOL    HW1 1487   3.904   2.478   1.223
  196SOL    HW2 1488   3.905   2.513   1.064
  197SOL     OW 1489   1.919   6.116   0.349
  197SOL    HW1 1490   2.011   6.077   0.354
  197SOL    HW2 1491   1.912   6.193   0.413
  198SOL     OW 1492   4.514   6.819   6.491
  198SOL    HW1 1493   4.594   6.861   6.448
  198SOL    HW2 1494   4.500   6.728   6.453
  199SOL     OW 1495   1.757   0.757   2.576
  199SOL    HW1 1496   1.673   0.799   2.542
  199SOL    HW2 1497   1.735   0.675   2.628
  200SOL     OW 1498   0.852   3.245   4.147
  200SOL    HW1 1499   0.885   3.334   4.115
  200SOL    HW2 1500   0.929   3.182   4.157
  201SOL     OW 1501   4.183   1.849   6.369
  201SOL    HW1 1502   4.201   1.767   6.423
  201SOL    HW2 1503   4.088   1.851   6.340
  202SOL     OW 1504   3.680   0.763   2.800
  202SOL    HW1 1505   3.656   0.826   2.726
  202SOL    HW2 1506   3.780   0.752   2.802
  203SOL     OW 1507   6.011   2.662   0.179
  203SOL    HW1 1508   6.021   2.682   0.276
  203SOL    HW2 1509   6.075   2.590   0.153
  204SOL     OW 1510   2.159   6.111   1.114
  204SOL    HW1 1511   2.153   6.200   1.161
  204SOL    HW2 1512   2.255   6.083   1.108
  205SOL     OW 1513   5.884   0.428   1.453
  205SOL    HW1 1514   5.835   0.432   1.367
  205SOL    HW2 1515   5.857   0.505   1.511
  206SOL     OW 1516   6.587   5.956   1.350
  206SOL    HW1 1517   6.641   6.015   1.410
  206SOL    HW2 1518   6.517   6.011   1.304
  207SOL     OW 1519   6.166   2.111   6.099
  207SOL    HW1 1520   6.093   2.129   6.165
  207SOL    HW2 1521   6.208   2.197   6.071
  208SOL     OW 1522   4.247   4.415   6.934
  208SOL    HW1 1523   4.292   4.419   6.845
  208SOL    HW2 1524   4.211   4.506   6.957
  209SOL     OW 1525   0.071   5.858   3.771
  209SOL    HW1 1526   0.029   5.882   3.684
  209SOL    HW2 1527   0.145   5.921   3.791
  210SOL     OW 1528   3.975   2.343   0.875
  210SOL    HW1 1529   4.065   2.363   0.914
  210SOL    HW2 1530   3.947   2.251   0.902
  211SOL     OW 1531   0.930   3.147   1.546
  211SOL    HW1 1532   0.846   3.132   1.496
  211SOL    HW2 1533   0.918   3.121   1.642
  212SOL     OW 1534   0.500   5.197   4.633
  212SOL    HW1 1535   0.542   5.107   4.643
  212SOL    HW2 1536   0.502   5.245   4.721
  213SOL     OW 1537   3.722   2.176   6.692
  213SOL    HW1 1538   3.635   2.136   6.662
  213SOL    HW2 1539   3.716   2.275   6.686
  214SOL     OW 1540   1.578   6.499   3.116
  214SOL    HW1 1541   1.672   6.466   3.105
  214SOL    HW2 1542   1.571   6.553   3.200
  215SOL     OW 1543   3.635   4.083   2.881
  215SOL    HW1 1544   3.568   4.030   2.931
  215SOL    HW2 1545   3.727   4.051   2.903
  216SOL     OW 1546   2.740   7.011   5.721
  216SOL    HW1 1547   2.812   6.948   5.693
  216SOL    HW2 1548   2.731   7.009   5.821
  217SOL     OW 1549   6.746   2.171   4.909
  217SOL    HW1 1550   6.678   2.113   4.866
  217SOL    HW2 1551   6.834   2.161   4.861
  218SOL     OW 1552   2.576   3.880   5.531
  218SOL    HW1 1553   2.487   3.874   5.486
  218SOL    HW2 1554   2.573   3.950   5.602
  219SOL     OW 1555   3.568   5.153   0.019
  219SOL    HW1 1556   3.540   5.081   6.978
  219SOL    HW2 1557   3.594   5.235   6.991
  220SOL     OW 1558   1.713   4.212   0.420
  220SOL    HW1 1559   1.723   4.270   0.501
  220SOL    HW2 1560   1.621   4.222   0.383
  221SOL     OW 1561   6.022   2.584   4.340
  221SOL    HW1 1562   6.026   2.576   4.241
  221SOL    HW2 1563   5.983   2.673   4.365
  222SOL     OW 1564   1.826   6.357   4.625
  222SOL    HW1 1565   1.920   6.332   4.648
  222SOL    HW2 1566   1.806   6.448   4.660
  223SOL     OW 1567   5.930   4.880   2.377
  223SOL    HW1 1568   5.943   4.918   2.469
  223SOL    HW2 1569   5.896   4.952   2.316
  224SOL     OW 1570   4.223   2.294   2.554
  224SOL    HW1 1571   4.145   2.269   2.498
  224SOL    HW2 1572   4.295   2.333   2.496
  225SOL     OW 1573   4.939   6.757   1.120
  225SOL    HW1 1574   4.884   6.745   1.203
  225SOL    HW2 1575   4.897   6.709   1.044
  226SOL     OW 1576   0.423   5.519   2.571
  226SOL    HW1 1577   0.371   5.598   2.538
  226SOL    HW2 1578   0.476   5.546   2.652
  227SOL     OW 1579   1.171   3.460   2.922
  227SOL    HW1 1580   1.206   3.370   2.894
  227SOL    HW2 1581   1.228   3.532   2.885
  228SOL     OW 1582   4.067   6.557   2.464
  228SOL    HW1 1583   4.047   6.539   2.368
  228SOL    HW2 1584   4.166   6.555   2.478
  229SOL     OW 1585   6.342   5.178   2.782
  229SOL    HW1 1586   6.351   5.194   2.684
  229SOL    HW2 1587   6.246   5.161   2.805
  230SOL     OW 1588   0.769   4.211   6.199
  230SOL    HW1 1589   0.816   4.155   6.267
  230SOL    HW2 1590   0.836   4.260   6.143
  231SOL     OW 1591   0.318   1.767   6.948
  231SOL    HW1 1592   0.298   1.823   0.006
  231SOL    HW2 1593   0.369   1.685   6.977
  232SOL     OW 1594   1.223   3.827   6.124
  232SOL    HW1 1595   1.289   3.891   6.086
  232SOL    HW2 1596   1.134   3.841   6.080
  233SOL     OW 1597   3.324   6.502   6.631
  233SOL    HW1 1598   3.277   6.455   6.707
  233SOL    HW2 1599   3.377   6.436   6.579
  234SOL     OW 1600   2.776   4.675   5.972
  234SOL    HW1 1601   2.812   4.758   6.015
  234SOL    HW2 1602   2.700   4.640   6.026
  235SOL     OW 1603   3.121   3.542   5.638
  235SOL    HW1 1604   3.167   3.583   5.559
  235SOL    HW2 1605   3.079   3.614   5.693
  236SOL     OW 1606   0.277   2.004   6.224
  236SOL    HW1 1607   0.377   1.998   6.220
  236SOL    HW2 1608   0.243   1.939   6.292
  237SOL     OW 1609   6.630   6.417   1.702
  237SOL    HW1 1610   6.564   6.371   1.761
  237SOL    HW2 1611   6.684   6.482   1.756
  238SOL     OW 1612   0.041   1.938   2.480
  238SOL    HW1 1613   7.002   1.965   2.406
  238SOL    HW2 1614   0.074   1.845   2.464
  239SOL     OW 1615   6.634   5.493   0.612
  239SOL    HW1 1616   6.564   5.422   0.614
  239SOL    HW2 1617   6.604   5.571   0.668
  240SOL     OW 1618   0.440   2.286   5.787
  240SOL    HW1 1619   0.439   2.203   5.842
  240SOL    HW2 1620   0.444   2.366   5.847
  241SOL     OW 1621   5.923   2.379   4.480
  241SOL    HW1 1622   5.978   2.452   4.440
  241SOL    HW2 1623   5.982   2.318   4.534
  242SOL     OW 1624   2.740   2.304   3.991
  242SOL    HW1 1625   2.732   2.348   3.901
  242SOL    HW2 1626   2.657   2.320   4.044
  243SOL     OW 1627   4.632   1.575   6.866
  243SOL    HW1 1628   4.574   1.609   6.791
  243SOL    HW2 1629   4.617   1.477   6.878
  244SOL     OW 1630   0.586   1.494   5.777
  244SOL    HW1 1631   0.632   1.460   5.694
  244SOL    HW2 1632   0.493   1.457   5.781
  245SOL     OW 1633   4.958   2.490   3.632
  245SOL    HW1 1634   4.928   2.397   3.607
  245SOL    HW2 1635   5.010   2.486   3.717
  246SOL     OW 1636   4.832   3.114   3.586
  246SOL    HW1 1637   4.819   3.197   3.641
  246SOL    HW2 1638   4.923   3.076   3.605
  247SOL     OW 1639   2.788   0.534   3.033
  247SOL    HW1 1640   2.878   0.490   3.030
  247SOL    HW2 1641   2.799   0.631   3.053
  248SOL     OW 1642   6.868   1.361   2.625
  248SOL    HW1 1643   6.786   1.307   2.610
  248SOL    HW2 1644   6.846   1.458   2.617
  249SOL     OW 1645   1.976   5.229   4.959
  249SOL    HW1 1646   2.011   5.302   5.017
  249SOL    HW2 1647   1.948   5.151   5.015
  250SOL     OW 1648   5.588   2.472   0.122
  250SOL    HW1 1649   5.676   2.518   0.133
  250SOL    HW2 1650   5.586   2.423   0.035
  251SOL     OW 1651   1.597   1.651   0.836
  251SOL    HW1 1652   1.603   1.552   0.818
  251SOL    HW2 1653   1.530   1.691   0.773
  252SOL     OW 1654   0.397   1.588   0.331
  252SOL    HW1 1655   0.479   1.597   0.388
  252SOL    HW2 1656   0.342   1.671   0.338
  253SOL     OW 1657   1.706   4.563   6.219
  253SOL    HW1 1658   1.702   4.637   6.152
  253SOL    HW2 1659   1.801   4.533   6.229
  254SOL     OW 1660   4.840   3.787   5.957
  254SOL    HW1 1661   4.892   3.796   5.872
  254SOL    HW2 1662   4.900   3.805   6.035
  255SOL     OW 1663   4.059   2.154   2.360
  255SOL    HW1 1664   4.130   2.127   2.296
  255SOL    HW2 1665   3.969   2.134   2.321
  256SOL     OW 1666   6.575   5.278   1.487
  256SOL    HW1 1667   6.668   5.260   1.518
  256SOL    HW2 1668   6.544   5.366   1.524
  257SOL     OW 1669   2.545   5.883   6.008
  257SOL    HW1 1670   2.600   5.966   6.007
  257SOL    HW2 1671   2.602   5.805   5.982
  258SOL     OW 1672   4.200   4.691   4.083
  258SOL    HW1 1673   4.119   4.745   4.058
  258SOL    HW2 1674   4.200   4.675   4.182
  259SOL     OW 1675   0.754   2.007   2.742
  259SOL    HW1 1676   0.707   2.049   2.664
  259SOL    HW2 1677   0.821   2.072   2.779
  260SOL     OW 1678   0.008   6.598   5.655
  260SOL    HW1 1679   0.097   6.640   5.673
  260SOL    HW2 1680   6.988   6.572   5.742
  261SOL     OW 1681   0.513   1.295   3.872
  261SOL    HW1 1682   0.478   1.299   3.966
  261SOL    HW2 1683   0.521   1.388   3.836
  262SOL     OW 1684   1.061   4.520   2.113
  262SOL    HW1 1685   1.095   4.501   2.205
  262SOL    HW2 1686   1.139   4.541   2.053
  263SOL     OW 1687   0.449   3.778   4.220
  263SOL    HW1 1688   0.530   3.831   4.193
  263SOL    HW2 1689   0.408   3.736   4.139
  264SOL     OW 1690   3.310   4.323   0.170
  264SOL    HW1 1691   3.350   4.261   0.238
  264SOL    HW2 1692   3.258   4.270   0.103
  265SOL     OW 1693   4.561   5.686   3.252
  265SOL    HW1 1694   4.543   5.678   3.154
  265SOL    HW2 1695   4.583   5.596   3.289
  266SOL     OW 1696   4.177   3.413   6.758
  266SOL    HW1 1697   4.116   3.334   6.763
  266SOL    HW2 1698   4.139   3.487   6.813
  267SOL     OW 1699   1.992   2.487   6.108
  267SOL    HW1 1700   2.072   2.507   6.053
  267SOL    HW2 1701   1.909   2.516   6.060
  268SOL     OW 1702   2.562   4.580   3.651
  268SOL    HW1 1703   2.466   4.600   3.671
  268SOL    HW2 1704   2.592   4.504   3.709
  269SOL     OW 1705   2.022   2.126   5.093
  269SOL    HW1 1706   1.933   2.173   5.095
  269SOL    HW2 1707   2.094   2.194   5.080
  270SOL     OW 1708   5.013   6.399   4.832
  270SOL    HW1 1709   4.951   6.333   4.872
  270SOL    HW2 1710   4.966   6.449   4.759
  271SOL     OW 1711   1.988   1.923   0.254
  271SOL    HW1 1712   2.050   1.861   0.302
  271SOL    HW2 1713   1.917   1.954   0.317
  272SOL     OW 1714   4.480   5.327   0.172
  272SOL    HW1 1715   4.431   5.377   0.101
  272SOL    HW2 1716   4.579   5.334   0.156
  273SOL     OW 1717   1.945   6.236   4.035
  273SOL    HW1 1718   2.011   6.172   4.076
  273SOL    HW2 1719   1.860   6.187   4.014
  274SOL     OW 1720   5.674   2.147   1.209
  274SOL    HW1 1721   5.725   2.147   1.123
  274SOL    HW2 1722   5.703   2.225   1.265
  275SOL     OW 1723   5.161   6.092   5.710
  275SOL    HW1 1724   5.147   6.005   5.662
  275SOL    HW2 1725   5.190   6.073   5.804
  276SOL     OW 1726   0.124   6.921   4.415
  276SOL    HW1 1727   0.222   6.920   4.391
  276SOL    HW2 1728   0.111   6.979   4.495
  277SOL     OW 1729   4.512   2.908   5.680
  277SOL    HW1 1730   4.582   2.928   5.612
  277SOL    HW2 1731   4.429   2.959   5.660
  278SOL     OW 1732   5.713   4.411   3.243
  278SOL    HW1 1733   5.625   4.415   3.292
  278SOL    HW2 1734   5.738   4.315   3.229
  279SOL     OW 1735   6.819   3.572   3.696
  279SOL    HW1 1736   6.893   3.517   3.734
  279SOL    HW2 1737   6.821   3.663   3.738
  280SOL     OW 1738   4.088   1.671   3.653
  280SOL    HW1 1739   4.109   1.578   3.682
  280SOL    HW2 1740   4.168   1.711   3.607
  281SOL     OW 1741   4.881   6.193   5.049
  281SOL    HW1 1742   4.859   6.156   5.139
  281SOL    HW2 1743   4.981   6.192   5.036
  282SOL     OW 1744   0.589   2.650   0.421
  282SOL    HW1 1745   0.510   2.702   0.390
  282SOL    HW2 1746   0.647   2.629   0.342
  283SOL     OW 1747   6.237   3.567   3.796
  283SOL    HW1 1748   6.236   3.607   3.704
  283SOL    HW2 1749   6.328   3.530   3.815
  284SOL     OW 1750   5.144   6.996   2.405
  284SOL    HW1 1751   5.054   6.959   2.427
  284SOL    HW2 1752   5.141   0.019   2.317
  285SOL     OW 1753   4.007   6.449   5.752
  285SOL    HW1 1754   4.033   6.355   5.730
  285SOL    HW2 1755   4.036   6.510   5.678
  286SOL     OW 1756   2.705   4.728   5.429
  286SOL    HW1 1757   2.673   4.765   5.342
  286SOL    HW2 1758   2.632   4.732   5.496
  287SOL     OW 1759   3.648   5.820   6.913
  287SOL    HW1 1760   3.732   5.826   6.860
  287SOL    HW2 1761   3.646   5.894   6.981
  288SOL     OW 1762   4.237   1.542   0.458
  288SOL    HW1 1763   4.257   1.449   0.426
  288SOL    HW2 1764   4.227   1.541   0.557
  289SOL     OW 1765   5.736   4.886   4.751
  289SOL    HW1 1766   5.701   4.815   4.812
  289SOL    HW2 1767   5.671   4.962   4.747
  290SOL     OW 1768   3.096   0.067   5.841
  290SOL    HW1 1769   3.118   0.097   5.748
  290SOL    HW2 1770   3.020   0.122   5.876
  291SOL     OW 1771   4.819   0.862   5.375
  291SOL    HW1 1772   4.876   0.905   5.305
  291SOL    HW2 1773   4.878   0.814   5.440
  292SOL     OW 1774   3.693   0.396   4.189
  292SOL    HW1 1775   3.766   0.461   4.168
  292SOL    HW2 1776   3.725   0.303   4.168
  293SOL     OW 1777   4.961   0.447   2.870
  293SOL    HW1 1778   4.863   0.456   2.855
  293SOL    HW2 1779   5.006   0.414   2.787
  294SOL     OW 1780   6.704   1.264   6.723
  294SOL    HW1 1781   6.786   1.216   6.695
  294SOL    HW2 1782   6.653   1.295   6.642
  295SOL     OW 1783   0.264   0.611   4.815
  295SOL    HW1 1784   0.245   0.610   4.717
  295SOL    HW2 1785   0.216   0.535   4.859
  296SOL     OW 1786   0.592   1.898   1.386
  296SOL    HW1 1787   0.597   1.966   1.312
  296SOL    HW2 1788   0.679   1.850   1.393
  297SOL     OW 1789   5.333   3.182   3.187
  297SOL    HW1 1790   5.265   3.110   3.177
  297SOL    HW2 1791   5.409   3.149   3.243
  298SOL     OW 1792   4.330   1.199   6.147
  298SOL    HW1 1793   4.354   1.194   6.244
  298SOL    HW2 1794   4.236   1.233   6.137
  299SOL     OW 1795   0.541   1.145   6.299
  299SOL    HW1 1796   0.479   1.186   6.366
  299SOL    HW2 1797   0.600   1.078   6.345
  300SOL     OW 1798   4.394   6.218   3.352
  300SOL    HW1 1799   4.486   6.179   3.360
  300SOL    HW2 1800   4.390   6.279   3.273
  301SOL     OW 1801   7.015   5.625   5.753
  301SOL    HW1 1802   7.021   5.620   5.853
  301SOL    HW2 1803   0.052   5.555   5.712
  302SOL     OW 1804   6.942   6.834   2.599
  302SOL    HW1 1805   6.977   6.894   2.671
  302SOL    HW2 1806   6.937   6.885   2.513
  303SOL     OW 1807   5.594   5.960   2.629
  303SOL    HW1 1808   5.617   5.893   2.558
  303SOL    HW2 1809   5.500   5.991   2.615
  304SOL     OW 1810   1.912   0.041   4.579
  304SOL    HW1 1811   1.879   0.127   4.619
  304SOL    HW2 1812   1.838   6.996   4.581
  305SOL     OW 1813   0.870   2.184   1.143
  305SOL    HW1 1814   0.956   2.198   1.093
  305SOL    HW2 1815   0.793   2.209   1.085
  306SOL     OW 1816   0.266   6.956   2.858
  306SOL    HW1 1817   0.294   6.907   2.941
  306SOL    HW2 1818   0.345   7.008   2.823
  307SOL     OW 1819   4.061   3.627   3.360
  307SOL    HW1 1820   3.976   3.657   3.317
  307SOL    HW2 1821   4.040   3.566   3.436
  308SOL     OW 1822   6.757   1.782   2.293
  308SOL    HW1 1823   6.829   1.851   2.301
  308SOL    HW2 1824   6.671   1.827   2.269
  309SOL     OW 1825   1.902   4.971   0.424
  309SOL    HW1 1826   1.939   4.998   0.512
  309SOL    HW2 1827   1.969   4.990   0.352
  310SOL     OW 1828   5.291   6.583   5.093
  310SOL    HW1 1829   5.203   6.581   5.045
  310SOL    HW2 1830   5.334   6.493   5.087
  311SOL     OW 1831   1.317   6.091   1.874
  311SOL    HW1 1832   1.339   6.005   1.920
  311SOL    HW2 1833   1.401   6.144   1.861
  312SOL     OW 1834   3.363   0.642   4.149
  312SOL    HW1 1835   3.336   0.587   4.069
  312SOL    HW2 1836   3.283   0.657   4.207
  313SOL     OW 1837   3.007   3.123   2.827
  313SOL    HW1 1838   3.018   3.038   2.775
  313SOL    HW2 1839   2.980   3.197   2.766
  314SOL     OW 1840   2.885   5.670   6.384
  314SOL    HW1 1841   2.883   5.761   6.424
  314SOL    HW2 1842   2.808   5.659   6.321
  315SOL     OW 1843   5.592   0.601   4.579
  315SOL    HW1 1844   5.499   0.637   4.573
  315SOL    HW2 1845   5.656   0.676   4.595
  316SOL     OW 1846   3.535   1.134   6.333
  316SOL    HW1 1847   3.631   1.137   6.362
  316SOL    HW2 1848   3.499   1.227   6.325
  317SOL     OW 1849   0.415   2.163   1.193
  317SOL    HW1 1850   0.386   2.253   1.163
  317SOL    HW2 1851   0.396   2.096   1.120
  318SOL     OW 1852   0.967   0.259   3.644
  318SOL    HW1 1853   0.987   0.305   3.557
  318SOL    HW2 1854   1.052   0.242   3.693
  319SOL     OW 1855   0.196   0.850   3.118
  319SOL    HW1 1856   0.264   0.914   3.082
  319SOL    HW2 1857   0.193   0.769   3.061
  320SOL     OW 1858   4.767   1.694   0.488
  320SOL    HW1 1859   4.773   1.596   0.506
  320SOL    HW2 1860   4.753   1.710   0.391
  321SOL     OW 1861   4.525   2.841   0.987
  321SOL    HW1 1862   4.584   2.817   0.909
  321SOL    HW2 1863   4.442   2.785   0.984
  322SOL     OW 1864   3.481   2.648   6.444
  322SOL    HW1 1865   3.432   2.716   6.389
  322SOL    HW2 1866   3.420   2.613   6.516
  323SOL     OW 1867   1.417   3.745   2.493
  323SOL    HW1 1868   1.455   3.745   2.400
  323SOL    HW2 1869   1.350   3.670   2.502
  324SOL     OW 1870   0.318   0.121   3.539
  324SOL    HW1 1871   0.298   0.030   3.505
  324SOL    HW2 1872   0.407   0.151   3.503
  325SOL     OW 1873   6.394   3.896   0.519
  325SOL    HW1 1874   6.351   3.982   0.546
  325SOL    HW2 1875   6.336   3.819   0.543
  326SOL     OW 1876   0.024   5.802   0.136
  326SOL    HW1 1877   7.003   5.892   0.134
  326SOL    HW2 1878   0.093   5.800   0.209
  327SOL     OW 1879   4.167   6.139   6.286
  327SOL    HW1 1880   4.202   6.210   6.224
  327SOL    HW2 1881   4.068   6.148   6.293
  328SOL     OW 1882   1.373   4.767   3.531
  328SOL    HW1 1883   1.316   4.845   3.507
  328SOL    HW2 1884   1.349   4.689   3.474
  329SOL     OW 1885   3.256   3.144   2.215
  329SOL    HW1 1886   3.246   3.243   2.201
  329SOL    HW2 1887   3.218   3.096   2.135
  330SOL     OW 1888   2.533   3.235   0.086
  330SOL    HW1 1889   2.538   3.158   0.023
  330SOL    HW2 1890   2.615   3.236   0.145
  331SOL     OW 1891   5.627   4.650   4.863
  331SOL    HW1 1892   5.533   4.639   4.897
  331SOL    HW2 1893   5.690   4.603   4.925
  332SOL     OW 1894   6.010   2.140   3.291
  332SOL    HW1 1895   6.055   2.191   3.217
  332SOL    HW2 1896   6.005   2.199   3.372
  333SOL     OW 1897   3.798   6.996   4.417
  333SOL    HW1 1898   3.812   0.032   4.497
  333SOL    HW2 1899   3.880   6.999   4.359
  334SOL     OW 1900   3.533   3.533   3.733
  334SOL    HW1 1901   3.602   3.466   3.707
  334SOL    HW2 1902   3.505   3.586   3.653
  335SOL     OW 1903   3.230   0.871   1.384
  335SOL    HW1 1904   3.233   0.950   1.445
  335SOL    HW2 1905   3.201   0.790   1.436
  336SOL     OW 1906   4.552   2.150   5.210
  336SOL    HW1 1907   4.518   2.059   5.185
  336SOL    HW2 1908   4.642   2.164   5.170
  337SOL     OW 1909   6.925   0.918   5.251
  337SOL    HW1 1910   6.996   0.848   5.255
  337SOL    HW2 1911   6.930   0.976   5.332
  338SOL     OW 1912   4.245   1.480   1.442
  338SOL    HW1 1913   4.244   1.572   1.481
  338SOL    HW2 1914   4.176   1.424   1.489
  339SOL     OW 1915   4.367   5.296   5.825
  339SOL    HW1 1916   4.274   5.326   5.850
  339SOL    HW2 1917   4.408   5.363   5.763
  340SOL     OW 1918   5.505   2.980   4.815
  340SOL    HW1 1919   5.602   3.006   4.819
  340SOL    HW2 1920   5.490   2.898   4.870
  341SOL     OW 1921   6.997   6.952   2.360
  341SOL    HW1 1922   0.032   6.874   2.338
  341SOL    HW2 1923   0.027   0.014   2.346
  342SOL     OW 1924   4.415   1.993   2.494
  342SOL    HW1 1925   4.366   1.964   2.412
  342SOL    HW2 1926   4.466   2.077   2.475
  343SOL     OW 1927   5.434   7.020   1.045
  343SOL    HW1 1928   5.521   6.971   1.052
  343SOL    HW2 1929   5.359   6.955   1.048
  344SOL     OW 1930   6.913   3.163   1.929
  344SOL    HW1 1931   6.996   3.136   1.879
  344SOL    HW2 1932   6.868   3.238   1.880
  345SOL     OW 1933   6.898   2.635   4.400
  345SOL    HW1 1934   6.817   2.607   4.349
  345SOL    HW2 1935   6.892   2.732   4.423
  346SOL     OW 1936   2.331   6.362   3.284
  346SOL    HW1 1937   2.300   6.436   3.224
  346SOL    HW2 1938   2.272   6.282   3.272
  347SOL     OW 1939   2.417   4.775   0.732
  347SOL    HW1 1940   2.350   4.818   0.792
  347SOL    HW2 1941   2.500   4.831   0.729
  348SOL     OW 1942   4.483   4.953   1.730
  348SOL    HW1 1943   4.501   4.954   1.631
  348SOL    HW2 1944   4.387   4.973   1.746
  349SOL     OW 1945   5.341   4.111   0.524
  349SOL    HW1 1946   5.386   4.181   0.468
  349SOL    HW2 1947   5.384   4.109   0.615
  350SOL     OW 1948   2.256   1.551   0.003
  350SOL    HW1 1949   2.327   1.590   6.967
  350SOL    HW2 1950   2.236   1.458   6.997
  351SOL     OW 1951   3.493   4.123   0.905
  351SOL    HW1 1952   3.456   4.213   0.884
  351SOL    HW2 1953   3.498   4.068   0.821
  352SOL     OW 1954   4.299   0.073   2.357
  352SOL    HW1 1955   4.354   7.011   2.349
  352SOL    HW2 1956   4.307   0.108   2.451
  353SOL     OW 1957   2.171   6.568   0.479
  353SOL    HW1 1958   2.259   6.598   0.442
  353SOL    HW2 1959   2.107   6.552   0.404
  354SOL     OW 1960   1.077   2.364   0.633
  354SOL    HW1 1961   1.100   2.290   0.570
  354SOL    HW2 1962   1.003   2.335   0.693
  355SOL     OW 1963   0.494   3.136   3.738
  355SOL    HW1 1964   0.506   3.231   3.708
  355SOL    HW2 1965   0.557   3.077   3.688
  356SOL     OW 1966   2.733   0.490   5.171
  356SOL    HW1 1967   2.745   0.410   5.230
  356SOL    HW2 1968   2.795   0.563   5.199
  357SOL     OW 1969   6.028   6.433   4.535
  357SOL    HW1 1970   5.970   6.498   4.486
  357SOL    HW2 1971   5.976   6.349   4.552
  358SOL     OW 1972   3.433   5.914   6.360
  358SOL    HW1 1973   3.363   5.847   6.387
  358SOL    HW2 1974   3.523   5.880   6.387
  359SOL     OW 1975   1.449   2.147   1.775
  359SOL    HW1 1976   1.443   2.196   1.862
  359SOL    HW2 1977   1.505   2.065   1.786
  360SOL     OW 1978   2.069   4.445   3.589
  360SOL    HW1 1979   2.053   4.349   3.612
  360SOL    HW2 1980   2.154   4.453   3.536
  361SOL     OW 1981   0.138   1.728   2.120
  361SOL    HW1 1982   0.048   1.684   2.127
  361SOL    HW2 1983   0.200   1.668   2.069
  362SOL     OW 1984   3.640   3.803   2.224
  362SOL    HW1 1985   3.579   3.872   2.186
  362SOL    HW2 1986   3.729   3.844   2.244
  363SOL     OW 1987   4.567   5.225   1.404
  363SOL    HW1 1988   4.665   5.227   1.419
  363SOL    HW2 1989   4.531   5.319   1.402
  364SOL     OW 1990   0.952   0.587   0.488
  364SOL    HW1 1991   0.936   0.492   0.515
  364SOL    HW2 1992   0.975   0.590   0.391
  365SOL     OW 1993   5.640   0.663   3.983
  365SOL    HW1 1994   5.698   0.602   4.037
  365SOL    HW2 1995   5.695   0.735   3.942
  366SOL     OW 1996   5.617   1.653   7.013
  366SOL    HW1 1997   5.530   1.658   6.963
  366SOL    HW2 1998   5.612   1.582   0.060
  367SOL     OW 1999   5.094   0.963   6.734
  367SOL    HW1 2000   5.012   0.982   6.788
  367SOL    HW2 2001   5.121   0.868   6.746
  368SOL     OW 2002   1.410   1.834   5.196
  368SOL    HW1 2003   1.424   1.825   5.098
  368SOL    HW2 2004   1.351   1.759   5.228
  369SOL     OW 2005   5.737   4.514   0.285
  369SOL    HW1 2006   5.785   4.510   0.198
  369SOL    HW2 2007   5.788   4.574   0.348
  370SOL     OW 2008   2.387   2.655   3.095
  370SOL    HW1 2009   2.412   2.571   3.046
  370SOL    HW2 2010   2.289   2.672   3.083
  371SOL     OW 2011   1.420   6.205   6.768
  371SOL    HW1 2012   1.434   6.244   6.677
  371SOL    HW2 2013   1.397   6.279   6.832
  372SOL     OW 2014   2.639   5.401   5.768
  372SOL    HW1 2015   2.571   5.352   5.823
  372SOL    HW2 2016   2.602   5.416   5.676
  373SOL     OW 2017   6.112   4.503   3.006
  373SOL    HW1 2018   6.084   4.518   2.911
  373SOL    HW2 2019   6.210   4.482   3.009
  374SOL     OW 2020   2.931   1.513   2.639
  374SOL    HW1 2021   2.975   1.440   2.693
  374SOL    HW2 2022   2.984   1.597   2.647
  375SOL     OW 2023   1.339   5.735   3.946
  375SOL    HW1 2024   1.315   5.828   3.918
  375SOL    HW2 2025   1.256   5.679   3.950
  376SOL     OW 2026   3.715   0.527   3.511
  376SOL    HW1 2027   3.617   0.508   3.514
  376SOL    HW2 2028   3.756   0.508   3.600
  377SOL     OW 2029   2.056   2.086   6.591
  377SOL    HW1 2030   2.034   2.004   6.538
  377SOL    HW2 2031   2.152   2.110   6.578
  378SOL     OW 2032   4.324   1.205   1.915
  378SOL    HW1 2033   4.239   1.212   1.863
  378SOL    HW2 2034   4.317   1.260   1.998
  379SOL     OW 2035   4.292   2.286   5.964
  379SOL    HW1 2036   4.266   2.199   6.006
  379SOL    HW2 2037   4.235   2.359   6.003
  380SOL     OW 2038   3.985   2.217   0.424
  380SOL    HW1 2039   4.034   2.142   0.471
  380SOL    HW2 2040   3.896   2.184   0.393
  381SOL     OW 2041   2.114   3.960   3.030
  381SOL    HW1 2042   2.021   3.996   3.030
  381SOL    HW2 2043   2.113   3.864   3.059
  382SOL     OW 2044   5.680   0.327   6.730
  382SOL    HW1 2045   5.585   0.352   6.712
  382SOL    HW2 2046   5.704   0.246   6.677
  383SOL     OW 2047   4.650   2.741   0.764
  383SOL    HW1 2048   4.716   2.709   0.697
  383SOL    HW2 2049   4.608   2.662   0.809
  384SOL     OW 2050   0.148   3.963   5.058
  384SOL    HW1 2051   0.191   4.017   5.130
  384SOL    HW2 2052   0.218   3.911   5.010
  385SOL     OW 2053   4.433   3.093   0.241
  385SOL    HW1 2054   4.468   3.005   0.271
  385SOL    HW2 2055   4.359   3.123   0.301
  386SOL     OW 2056   4.339   6.605   4.820
  386SOL    HW1 2057   4.357   6.520   4.869
  386SOL    HW2 2058   4.342   6.588   4.721
  387SOL     OW 2059   2.893   5.807   3.992
  387SOL    HW1 2060   2.811   5.764   3.955
  387SOL    HW2 2061   2.952   5.736   4.032
  388SOL     OW 2062   1.211   5.139   6.361
  388SOL    HW1 2063   1.183   5.047   6.336
  388SOL    HW2 2064   1.268   5.135   6.443
  389SOL     OW 2065   3.166   2.870   1.750
  389SOL    HW1 2066   3.176   2.770   1.746
  389SOL    HW2 2067   3.111   2.901   1.672
  390SOL     OW 2068   2.363   1.173   4.525
  390SOL    HW1 2069   2.264   1.168   4.543
  390SOL    HW2 2070   2.384   1.259   4.479
  391SOL     OW 2071   1.358   2.365   0.109
  391SOL    HW1 2072   1.412   2.303   0.165
  391SOL    HW2 2073   1.408   2.390   0.026
  392SOL     OW 2074   3.553   5.861   3.774
  392SOL    HW1 2075   3.488   5.882   3.847
  392SOL    HW2 2076   3.544   5.928   3.700
  393SOL     OW 2077   6.032   3.838   5.235
  393SOL    HW1 2078   5.974   3.884   5.168
  393SOL    HW2 2079   6.089   3.771   5.188
  394SOL     OW 2080   2.252   1.199   6.296
  394SOL    HW1 2081   2.345   1.164   6.297
  394SOL    HW2 2082   2.209   1.177   6.209
  395SOL     OW 2083   6.506   3.485   1.158
  395SOL    HW1 2084   6.545   3.461   1.069
  395SOL    HW2 2085   6.445   3.563   1.148
  396SOL     OW 2086   3.411   2.944   5.273
  396SOL    HW1 2087   3.417   2.894   5.359
  396SOL    HW2 2088   3.503   2.966   5.241
  397SOL     OW 2089   3.468   1.572   6.769
  397SOL    HW1 2090   3.372   1.545   6.759
  397SOL    HW2 2091   3.483   1.658   6.721
  398SOL     OW 2092   1.205   4.943   2.764
  398SOL    HW1 2093   1.137   5.001   2.718
  398SOL    HW2 2094   1.160   4.889   2.835
  399SOL     OW 2095   5.276   4.609   2.347
  399SOL    HW1 2096   5.346   4.540   2.365
  399SOL    HW2 2097   5.280   4.679   2.419
  400SOL     OW 2098   2.514   5.018   4.589
  400SOL    HW1 2099   2.568   4.998   4.671
  400SOL    HW2 2100   2.572   5.066   4.523
  401SOL     OW 2101   5.452   1.421   0.273
  401SOL    HW1 2102   5.403   1.355   0.330
  401SOL    HW2 2103   5.395   1.502   0.260
  402SOL     OW 2104   6.600   4.473   1.251
  402SOL    HW1 2105   6.511   4.453   1.210
  402SOL    HW2 2106   6.627   4.566   1.227
  403SOL     OW 2107   5.156   4.325   0.331
  403SOL    HW1 2108   5.201   4.270   0.402
  403SOL    HW2 2109   5.175   4.422   0.347
  404SOL     OW 2110   0.524   6.409   4.621
  404SOL    HW1 2111   0.566   6.420   4.531
  404SOL    HW2 2112   0.556   6.480   4.682
  405SOL     OW 2113   0.800   2.892   0.990
  405SOL    HW1 2114   0.844   2.922   1.075
  405SOL    HW2 2115   0.856   2.919   0.912
  406SOL     OW 2116   0.720   2.540   3.048
  406SOL    HW1 2117   0.811   2.568   3.077
  406SOL    HW2 2118   0.652   2.605   3.084
  407SOL     OW 2119   2.877   1.668   3.677
  407SOL    HW1 2120   2.904   1.642   3.584
  407SOL    HW2 2121   2.878   1.768   3.686
  408SOL     OW 2122   1.774   0.816   3.034
  408SOL    HW1 2123   1.796   0.826   2.937
  408SOL    HW2 2124   1.801   0.900   3.082
  409SOL     OW 2125   6.257   3.567   4.099
  409SOL    HW1 2126   6.333   3.524   4.148
  409SOL    HW2 2127   6.252   3.529   4.007
  410SOL     OW 2128   2.933   6.785   6.686
  410SOL    HW1 2129   3.015   6.783   6.743
  410SOL    HW2 2130   2.945   6.852   6.613
  411SOL     OW 2131   0.442   3.507   4.788
  411SOL    HW1 2132   0.446   3.408   4.774
  411SOL    HW2 2133   0.405   3.526   4.879
  412SOL     OW 2134   4.061   0.685   2.115
  412SOL    HW1 2135   3.964   0.660   2.114
  412SOL    HW2 2136   4.116   0.603   2.132
  413SOL     OW 2137   2.528   0.735   2.425
  413SOL    HW1 2138   2.429   0.734   2.410
  413SOL    HW2 2139   2.557   0.826   2.454
  414SOL     OW 2140   4.964   3.502   0.312
  414SOL    HW1 2141   5.012   3.441   0.248
  414SOL    HW2 2142   4.910   3.568   0.261
  415SOL     OW 2143   3.910   6.263   2.396
  415SOL    HW1 2144   3.917   6.239   2.299
  415SOL    HW2 2145   3.997   6.302   2.426
  416SOL     OW 2146   3.604   5.697   6.145
  416SOL    HW1 2147   3.652   5.782   6.163
  416SOL    HW2 2148   3.610   5.637   6.224
  417SOL     OW 2149   4.872   4.790   0.952
  417SOL    HW1 2150   4.838   4.856   0.884
  417SOL    HW2 2151   4.836   4.815   1.042
  418SOL     OW 2152   6.167   4.742   0.332
  418SOL    HW1 2153   6.248   4.778   0.378
  418SOL    HW2 2154   6.187   4.652   0.294
  419SOL     OW 2155   5.770   6.154   0.932
  419SOL    HW1 2156   5.822   6.227   0.978
  419SOL    HW2 2157   5.673   6.166   0.952
  420SOL     OW 2158   4.651   3.878   6.857
  420SOL    HW1 2159   4.707   3.871   6.939
  420SOL    HW2 2160   4.710   3.881   6.776
  421SOL     OW 2161   1.460   6.031   6.445
  421SOL    HW1 2162   1.413   6.024   6.357
  421SOL    HW2 2163   1.459   6.126   6.476
  422SOL     OW 2164   5.421   3.942   6.744
  422SOL    HW1 2165   5.346   3.930   6.679
  422SOL    HW2 2166   5.505   3.903   6.707
  423SOL     OW 2167   1.039   3.325   5.961
  423SOL    HW1 2168   0.948   3.363   5.943
  423SOL    HW2 2169   1.106   3.399   5.963
  424SOL     OW 2170   1.987   3.799   0.521
  424SOL    HW1 2171   2.015   3.797   0.618
  424SOL    HW2 2172   1.933   3.881   0.504
  425SOL     OW 2173   3.248   0.326   1.019
  425SOL    HW1 2174   3.175   0.286   0.962
  425SOL    HW2 2175   3.312   0.376   0.960
  426SOL     OW 2176   6.113   4.125   5.347
  426SOL    HW1 2177   6.088   4.166   5.260
  426SOL    HW2 2178   6.095   4.026   5.344
  427SOL     OW 2179   4.746   3.107   0.961
  427SOL    HW1 2180   4.840   3.140   0.951
  427SOL    HW2 2181   4.687   3.154   0.895
  428SOL     OW 2182   3.379   1.659   5.426
  428SOL    HW1 2183   3.416   1.620   5.343
  428SOL    HW2 2184   3.445   1.647   5.501
  429SOL     OW 2185   2.647   5.468   6.892
  429SOL    HW1 2186   2.726   5.467   6.831
  429SOL    HW2 2187   2.585   5.542   6.865
  430SOL     OW 2188   2.142   6.789   4.916
  430SOL    HW1 2189   2.079   6.722   4.955
  430SOL    HW2 2190   2.131   6.876   4.962
  431SOL     OW 2191   2.788   1.671   6.623
  431SOL    HW1 2192   2.860   1.604   6.603
  431SOL    HW2 2193   2.704   1.623   6.650
  432SOL     OW 2194   6.981   1.409   1.397
  432SOL    HW1 2195   0.046   1.400   1.445
  432SOL    HW2 2196   6.931   1.487   1.433
  433SOL     OW 2197   2.956   6.053   4.691
  433SOL    HW1 2198   2.954   5.971   4.633
  433SOL    HW2 2199   2.901   6.036   4.773
  434SOL     OW 2200   6.244   3.692   1.219
  434SOL    HW1 2201   6.151   3.691   1.183
  434SOL    HW2 2202   6.241   3.686   1.319
  435SOL     OW 2203   3.840   3.606   0.918
  435SOL    HW1 2204   3.884   3.583   1.005
  435SOL    HW2 2205   3.744   3.575   0.920
  436SOL     OW 2206   2.530   0.271   0.316
  436SOL    HW1 2207   2.491   0.185   0.350
  436SOL    HW2 2208   2.461   0.321   0.263
  437SOL     OW 2209   6.955   6.932   6.197
  437SOL    HW1 2210   6.985   6.934   6.102
  437SOL    HW2 2211   7.022   6.882   6.252
  438SOL     OW 2212   1.884   3.220   1.678
  438SOL    HW1 2213   1.983   3.222   1.672
  438SOL    HW2 2214   1.854   3.254   1.767
  439SOL     OW 2215   6.031   4.409   2.356
  439SOL    HW1 2216   5.959   4.346   2.329
  439SOL    HW2 2217   6.108   4.358   2.395
  440SOL     OW 2218   1.234   2.868   3.666
  440SOL    HW1 2219   1.265   2.913   3.583
  440SOL    HW2 2220   1.145   2.825   3.649
  441SOL     OW 2221   0.992   1.085   3.406
  441SOL    HW1 2222   1.058   1.149   3.367
  441SOL    HW2 2223   0.919   1.136   3.453
  442SOL     OW 2224   0.224   4.534   6.925
  442SOL    HW1 2225   0.195   4.484   7.007
  442SOL    HW2 2226   0.251   4.468   6.854
  443SOL     OW 2227   1.057   4.401   5.915
  443SOL    HW1 2228   1.034   4.308   5.886
  443SOL    HW2 2229   1.023   4.466   5.847
  444SOL     OW 2230   4.668   3.089   6.498
  444SOL    HW1 2231   4.625   3.167   6.453
  444SOL    HW2 2232   4.617   3.006   6.476
  445SOL     OW 2233   2.086   4.349   3.214
  445SOL    HW1 2234   2.119   4.443   3.211
  445SOL    HW2 2235   2.001   4.345   3.267
  446SOL     OW 2236   4.227   5.630   4.043
  446SOL    HW1 2237   4.278   5.707   4.004
  446SOL    HW2 2238   4.275   5.596   4.124
  447SOL     OW 2239   0.349   5.839   0.135
  447SOL    HW1 2240   0.315   5.778   0.207
  447SOL    HW2 2241   0.299   5.820   0.050
  448SOL     OW 2242   4.217   0.987   5.744
  448SOL    HW1 2243   4.166   0.903   5.723
  448SOL    HW2 2244   4.285   0.968   5.814
  449SOL     OW 2245   5.830   6.852   4.450
  449SOL    HW1 2246   5.882   6.813   4.374
  449SOL    HW2 2247   5.849   6.802   4.534
  450SOL     OW 2248   0.000   5.905   3.512
  450SOL    HW1 2249   0.051   5.821   3.491
  450SOL    HW2 2250   0.043   5.982   3.466
  451SOL     OW 2251   6.214   2.215   3.915
  451SOL    HW1 2252   6.215   2.208   4.015
  451SOL    HW2 2253   6.129   2.257   3.885
  452SOL     OW 2254   0.016   4.578   6.563
  452SOL    HW1 2255   6.985   4.496   6.546
  452SOL    HW2 2256   0.038   4.622   6.475
  453SOL     OW 2257   2.729   0.362   5.750
  453SOL    HW1 2258   2.751   0.293   5.680
  453SOL    HW2 2259   2.638   0.345   5.786
  454SOL     OW 2260   1.076   6.090   0.098
  454SOL    HW1 2261   1.162   6.119   0.140
  454SOL    HW2 2262   1.075   5.991   0.088
  455SOL     OW 2263   4.835   0.809   5.784
  455SOL    HW1 2264   4.811   0.713   5.769
  455SOL    HW2 2265   4.822   0.831   5.880
  456SOL     OW 2266   4.755   5.374   0.131
  456SOL    HW1 2267   4.809   5.293   0.112
  456SOL    HW2 2268   4.798   5.426   0.205
  457SOL     OW 2269   0.607   5.180   2.217
  457SOL    HW1 2270   0.688   5.161   2.161
  457SOL    HW2 2271   0.593   5.104   2.281
  458SOL     OW 2272   6.886   6.258   5.967
  458SOL    HW1 2273   6.899   6.303   6.055
  458SOL    HW2 2274   6.950   6.181   5.959
  459SOL     OW 2275   1.928   0.255   3.147
  459SOL    HW1 2276   1.863   0.236   3.074
  459SOL    HW2 2277   1.927   0.353   3.168
  460SOL     OW 2278   0.098   1.425   3.741
  460SOL    HW1 2279   0.118   1.381   3.653
  460SOL    HW2 2280   0.034   1.370   3.793
  461SOL     OW 2281   4.897   6.322   5.592
  461SOL    HW1 2282   4.799   6.316   5.571
  461SOL    HW2 2283   4.943   6.240   5.558
  462SOL     OW 2284   3.108   2.676   6.970
  462SOL    HW1 2285   3.118   2.610   6.896
  462SOL    HW2 2286   3.013   2.709   6.974
  463SOL     OW 2287   6.908   5.633   1.738
  463SOL    HW1 2288   6.874   5.724   1.714
  463SOL    HW2 2289   6.976   5.604   1.670
  464SOL     OW 2290   1.786   1.093   5.890
  464SOL    HW1 2291   1.838   1.176   5.910
  464SOL    HW2 2292   1.810   1.061   5.798
  465SOL     OW 2293   6.918   3.301   5.323
  465SOL    HW1 2294   6.853   3.264   5.257
  465SOL    HW2 2295   6.873   3.369   5.381
  466SOL     OW 2296   1.922   0.546   3.155
  466SOL    HW1 2297   1.875   0.599   3.084
  466SOL    HW2 2298   2.019   0.540   3.133
  467SOL     OW 2299   1.751   1.108   4.721
  467SOL    HW1 2300   1.762   1.053   4.639
  467SOL    HW2 2301   1.841   1.127   4.761
  468SOL     OW 2302   3.669   4.039   1.540
  468SOL    HW1 2303   3.709   4.061   1.629
  468SOL    HW2 2304   3.682   4.117   1.477
  469SOL     OW 2305   2.401   4.636   6.891
  469SOL    HW1 2306   2.327   4.694   6.858
  469SOL    HW2 2307   2.438   4.675   6.976
  470SOL     OW 2308   3.615   1.193   2.574
  470SOL    HW1 2309   3.542   1.209   2.507
  470SOL    HW2 2310   3.676   1.273   2.577
  471SOL     OW 2311   2.573   1.727   4.746
  471SOL    HW1 2312   2.539   1.634   4.735
  471SOL    HW2 2313   2.640   1.730   4.820
  472SOL     OW 2314   4.100   4.278   5.302
  472SOL    HW1 2315   4.073   4.194   5.255
  472SOL    HW2 2316   4.153   4.336   5.240
  473SOL     OW 2317   1.284   4.397   2.999
  473SOL    HW1 2318   1.336   4.447   3.068
  473SOL    HW2 2319   1.266   4.304   3.032
  474SOL     OW 2320   4.235   5.044   4.745
  474SOL    HW1 2321   4.161   4.981   4.722
  474SOL    HW2 2322   4.297   5.000   4.810
  475SOL     OW 2323   0.612   6.724   5.998
  475SOL    HW1 2324   0.569   6.747   6.085
  475SOL    HW2 2325   0.695   6.671   6.014
  476SOL     OW 2326   0.066   5.243   2.395
  476SOL    HW1 2327   6.989   5.235   2.388
  476SOL    HW2 2328   0.109   5.157   2.367
  477SOL     OW 2329   1.233   5.610   4.589
  477SOL    HW1 2330   1.265   5.525   4.547
  477SOL    HW2 2331   1.284   5.627   4.673
  478SOL     OW 2332   1.791   5.282   3.331
  478SOL    HW1 2333   1.738   5.365   3.313
  478SOL    HW2 2334   1.879   5.306   3.370
  479SOL     OW 2335   3.286   1.688   1.134
  479SOL    HW1 2336   3.272   1.771   1.082
  479SOL    HW2 2337   3.370   1.696   1.188
  480SOL     OW 2338   1.286   6.798   2.717
  480SOL    HW1 2339   1.229   6.863   2.666
  480SOL    HW2 2340   1.320   6.727   2.655
  481SOL     OW 2341   3.009   6.800   1.563
  481SOL    HW1 2342   2.925   6.806   1.617
  481SOL    HW2 2343   3.064   6.724   1.595
  482SOL     OW 2344   5.704   4.906   1.584
  482SOL    HW1 2345   5.749   4.869   1.503
  482SOL    HW2 2346   5.610   4.933   1.562
  483SOL     OW 2347   5.844   1.609   1.250
  483SOL    HW1 2348   5.860   1.692   1.303
  483SOL    HW2 2349   5.928   1.581   1.205
  484SOL     OW 2350   7.011   2.124   5.451
  484SOL    HW1 2351   6.955   2.156   5.374
  484SOL    HW2 2352   0.003   2.025   5.442
  485SOL     OW 2353   3.899   5.465   1.971
  485SOL    HW1 2354   3.964   5.393   1.995
  485SOL    HW2 2355   3.825   5.467   2.038
  486SOL     OW 2356   0.048   0.482   0.301
  486SOL    HW1 2357   0.060   0.400   0.245
  486SOL    HW2 2358   0.129   0.495   0.359
  487SOL     OW 2359   6.535   2.745   6.635
  487SOL    HW1 2360   6.478   2.678   6.586
  487SOL    HW2 2361   6.539   2.830   6.582
  488SOL     OW 2362   0.297   2.909   2.781
  488SOL    HW1 2363   0.268   2.814   2.769
  488SOL    HW2 2364   0.377   2.926   2.724
  489SOL     OW 2365   3.212   6.131   5.814
  489SOL    HW1 2366   3.300   6.178   5.809
  489SOL    HW2 2367   3.184   6.102   5.722
  490SOL     OW 2368   5.249   6.265   4.389
  490SOL    HW1 2369   5.304   6.237   4.468
  490SOL    HW2 2370   5.305   6.318   4.326
  491SOL     OW 2371   0.251   2.562   3.372
  491SOL    HW1 2372   0.266   2.564   3.471
  491SOL    HW2 2373   0.249   2.656   3.337
  492SOL     OW 2374   2.041   1.102   4.768
  492SOL    HW1 2375   2.090   1.184   4.738
  492SOL    HW2 2376   2.058   1.088   4.865
  493SOL     OW 2377   6.116   4.105   3.909
  493SOL    HW1 2378   6.083   4.015   3.935
  493SOL    HW2 2379   6.041   4.172   3.918
  494SOL     OW 2380   6.477   1.074   0.223
  494SOL    HW1 2381   6.542   1.060   0.298
  494SOL    HW2 2382   6.490   1.003   0.154
  495SOL     OW 2383   4.170   4.585   1.365
  495SOL    HW1 2384   4.221   4.660   1.408
  495SOL    HW2 2385   4.217   4.498   1.384
  496SOL     OW 2386   6.044   3.380   3.782
  496SOL    HW1 2387   6.132   3.427   3.787
  496SOL    HW2 2388   5.992   3.397   3.865
  497SOL     OW 2389   4.290   0.471   3.976
  497SOL    HW1 2390   4.356   0.473   4.052
  497SOL    HW2 2391   4.324   0.530   3.903
  498SOL     OW 2392   1.149   2.979   2.846
  498SOL    HW1 2393   1.174   2.907   2.780
  498SOL    HW2 2394   1.069   3.028   2.812
  499SOL     OW 2395   3.486   1.549   5.198
  499SOL    HW1 2396   3.447   1.621   5.140
  499SOL    HW2 2397   3.583   1.565   5.211
  500SOL     OW 2398   1.228   4.067   2.893
  500SOL    HW1 2399   1.146   4.097   2.941
  500SOL    HW2 2400   1.237   4.118   2.807
  501SOL     OW 2401   0.477   4.642   6.167
  501SOL    HW1 2402   0.539   4.700   6.220
  501SOL    HW2 2403   0.524   4.609   6.085
  502SOL     OW 2404   2.962   5.432   6.306
  502SOL    HW1 2405   2.895   5.358   6.302
  502SOL    HW2 2406   2.931   5.501   6.372
  503SOL     OW 2407   5.411   5.379   5.083
  503SOL    HW1 2408   5.416   5.281   5.102
  503SOL    HW2 2409   5.503   5.415   5.067
  504SOL     OW 2410   2.019   5.863   4.000
  504SOL    HW1 2411   2.054   5.928   4.067
  504SOL    HW2 2412   2.089   5.795   3.980
  505SOL     OW 2413   4.250   7.017   5.365
  505SOL    HW1 2414   4.206   6.974   5.444
  505SOL    HW2 2415   4.253   0.094   5.380
  506SOL     OW 2416   2.359   3.806   6.977
  506SOL    HW1 2417   2.337   3.903   6.973
  506SOL    HW2 2418   2.436   3.792   0.017
  507SOL     OW 2419   3.039   1.569   4.322
  507SOL    HW1 2420   3.043   1.558   4.223
  507SOL    HW2 2421   2.990   1.653   4.344
  508SOL     OW 2422   6.276   4.379   3.529
  508SOL    HW1 2423   6.307   4.390   3.623
  508SOL    HW2 2424   6.298   4.462   3.477
  509SOL     OW 2425   4.597   2.416   1.919
  509SOL    HW1 2426   4.633   2.509   1.915
  509SOL    HW2 2427   4.505   2.414   1.879
  510SOL     OW 2428   0.351   4.153   4.176
  510SOL    HW1 2429   0.323   4.185   4.086
  510SOL    HW2 2430   0.450   4.139   4.178
  511SOL     OW 2431   0.666   6.437   0.926
  511SOL    HW1 2432   0.589   6.374   0.922
  511SOL    HW2 2433   0.635   6.527   0.955
  512SOL     OW 2434   0.483   3.706   6.660
  512SOL    HW1 2435   0.489   3.613   6.696
  512SOL    HW2 2436   0.540   3.766   6.717
  513SOL     OW 2437   6.965   5.501   4.544
  513SOL    HW1 2438   0.005   5.475   4.470
  513SOL    HW2 2439   6.889   5.553   4.506
  514SOL     OW 2440   5.961   1.517   3.821
  514SOL    HW1 2441   5.956   1.459   3.740
  514SOL    HW2 2442   6.042   1.493   3.874
  515SOL     OW 2443   2.383   6.476   0.250
  515SOL    HW1 2444   2.367   6.383   0.285
  515SOL    HW2 2445   2.438   6.527   0.316
  516SOL     OW 2446   1.462   5.215   2.413
  516SOL    HW1 2447   1.547   5.231   2.364
  516SOL    HW2 2448   1.415   5.135   2.375
  517SOL     OW 2449   4.861   0.700   0.259
  517SOL    HW1 2450   4.933   0.659   0.314
  517SOL    HW2 2451   4.856   0.653   0.170
  518SOL     OW 2452   2.459   2.018   0.245
  518SOL    HW1 2453   2.369   2.029   0.202
  518SOL    HW2 2454   2.523   1.978   0.180
  519SOL     OW 2455   0.285   6.491   0.639
  519SOL    HW1 2456   0.348   6.566   0.661
  519SOL    HW2 2457   0.277   6.482   0.540
  520SOL     OW 2458   6.124   4.483   4.749
  520SOL    HW1 2459   6.143   4.572   4.707
  520SOL    HW2 2460   6.031   4.454   4.725
  521SOL     OW 2461   7.017   0.988   0.923
  521SOL    HW1 2462   6.998   1.017   1.017
  521SOL    HW2 2463   6.975   0.898   0.907
  522SOL     OW 2464   3.572   3.523   5.075
  522SOL    HW1 2465   3.487   3.556   5.115
  522SOL    HW2 2466   3.642   3.594   5.083
  523SOL     OW 2467   6.892   6.265   4.975
  523SOL    HW1 2468   6.837   6.343   4.945
  523SOL    HW2 2469   6.833   6.185   4.985
  524SOL     OW 2470   3.478   1.334   5.565
  524SOL    HW1 2471   3.481   1.411   5.502
  524SOL    HW2 2472   3.567   1.324   5.611
  525SOL     OW 2473   2.597   3.157   6.710
  525SOL    HW1 2474   2.529   3.230   6.722
  525SOL    HW2 2475   2.580   3.085   6.777
  526SOL     OW 2476   3.991   6.138   4.868
  526SOL    HW1 2477   4.080   6.168   4.835
  526SOL    HW2 2478   3.991   6.039   4.878
  527SOL     OW 2479   0.996   2.071   6.393
  527SOL    HW1 2480   0.971   2.150   6.337
  527SOL    HW2 2481   0.958   1.988   6.352
  528SOL     OW 2482   2.407   0.540   5.347
  528SOL    HW1 2483   2.490   0.502   5.308
  528SOL    HW2 2484   2.395   0.506   5.440
  529SOL     OW 2485   0.070   4.494   4.435
  529SOL    HW1 2486   0.070   4.525   4.530
  529SOL    HW2 2487   7.006   4.449   4.414
  530SOL     OW 2488   1.640   3.130   5.520
  530SOL    HW1 2489   1.731   3.166   5.540
  530SOL    HW2 2490   1.608   3.077   5.598
  531SOL     OW 2491   6.821   0.343   0.518
  531SOL    HW1 2492   6.840   0.429   0.472
  531SOL    HW2 2493   6.784   0.361   0.609
  532SOL     OW 2494   1.702   0.866   5.390
  532SOL    HW1 2495   1.699   0.782   5.444
  532SOL    HW2 2496   1.629   0.866   5.323
  533SOL     OW 2497   5.305   6.641   4.302
  533SOL    HW1 2498   5.338   6.689   4.384
  533SOL    HW2 2499   5.215   6.602   4.319
  534SOL     OW 2500   4.080   6.125   1.782
  534SOL    HW1 2501   3.990   6.148   1.820
  534SOL    HW2 2502   4.127   6.061   1.843
  535SOL     OW 2503   6.961   3.809   3.183
  535SOL    HW1 2504   6.896   3.758   3.239
  535SOL    HW2 2505   0.032   3.789   3.213
  536SOL     OW 2506   1.366   5.516   0.778
  536SOL    HW1 2507   1.303   5.583   0.818
  536SOL    HW2 2508   1.354   5.428   0.823
  537SOL     OW 2509   2.500   0.383   2.716
  537SOL    HW1 2510   2.513   0.401   2.618
  537SOL    HW2 2511   2.402   0.383   2.736
  538SOL     OW 2512   1.360   4.447   3.832
  538SOL    HW1 2513   1.382   4.540   3.803
  538SOL    HW2 2514   1.263   4.429   3.815
  539SOL     OW 2515   1.280   4.766   1.392
  539SOL    HW1 2516   1.276   4.675   1.352
  539SOL    HW2 2517   1.198   4.817   1.368
  540SOL     OW 2518   1.225   2.677   1.652
  540SOL    HW1 2519   1.145   2.625   1.683
  540SOL    HW2 2520   1.217   2.695   1.554
  541SOL     OW 2521   3.904   5.446   4.943
  541SOL    HW1 2522   3.903   5.347   4.932
  541SOL    HW2 2523   3.985   5.483   4.897
  542SOL     OW 2524   6.156   5.962   6.933
  542SOL    HW1 2525   6.197   6.038   6.882
  542SOL    HW2 2526   6.137   5.886   6.871
  543SOL     OW 2527   6.989   6.127   0.130
  543SOL    HW1 2528   6.973   6.205   0.069
  543SOL    HW2 2529   0.064   6.121   0.151
  544SOL     OW 2530   1.060   5.557   6.933
  544SOL    HW1 2531   0.996   5.584   6.861
  544SOL    HW2 2532   1.011   5.504   7.002
  545SOL     OW 2533   3.518   2.160   3.948
  545SOL    HW1 2534   3.544   2.067   3.922
  545SOL    HW2 2535   3.422   2.176   3.922
  546SOL     OW 2536   1.442   3.705   0.295
  546SOL    HW1 2537   1.434   3.747   0.205
  546SOL    HW2 2538   1.493   3.766   0.356
  547SOL     OW 2539   3.110   2.495   0.232
  547SOL    HW1 2540   3.027   2.527   0.186
  547SOL    HW2 2541   3.109   2.524   0.327
  548SOL     OW 2542   3.321   3.312   4.738
  548SOL    HW1 2543   3.230   3.290   4.702
  548SOL    HW2 2544   3.389   3.252   4.695
  549SOL     OW 2545   6.609   3.661   1.506
  549SOL    HW1 2546   6.567   3.577   1.537
  549SOL    HW2 2547   6.704   3.643   1.479
  550SOL     OW 2548   6.627   3.795   1.241
  550SOL    HW1 2549   6.657   3.709   1.282
  550SOL    HW2 2550   6.555   3.836   1.297
  551SOL     OW 2551   0.088   1.914   6.629
  551SOL    HW1 2552   0.025   1.991   6.643
  551SOL    HW2 2553   0.090   1.857   6.712
  552SOL     OW 2554   4.736   5.857   0.831
  552SOL    HW1 2555   4.704   5.933   0.775
  552SOL    HW2 2556   4.704   5.771   0.793
  553SOL     OW 2557   1.223   1.933   1.670
  553SOL    HW1 2558   1.214   2.024   1.628
  553SOL    HW2 2559   1.132   1.891   1.678
  554SOL     OW 2560   5.215   5.589   5.055
  554SOL    HW1 2561   5.121   5.574   5.085
  554SOL    HW2 2562   5.257   5.502   5.031
  555SOL     OW 2563   1.964   4.153   4.557
  555SOL    HW1 2564   1.874   4.186   4.587
  555SOL    HW2 2565   2.035   4.202   4.606
  556SOL     OW 2566   5.639   3.352   3.181
  556SOL    HW1 2567   5.560   3.330   3.125
  556SOL    HW2 2568   5.705   3.405   3.127
  557SOL     OW 2569   0.129   5.213   6.295
  557SOL    HW1 2570   0.143   5.240   6.391
  557SOL    HW2 2571   0.210   5.165   6.262
  558SOL     OW 2572   4.604   4.027   5.381
  558SOL    HW1 2573   4.614   4.126   5.380
  558SOL    HW2 2574   4.507   4.003   5.389
  559SOL     OW 2575   5.823   6.115   6.082
  559SOL    HW1 2576   5.904   6.173   6.069
  559SOL    HW2 2577   5.753   6.141   6.015
  560SOL     OW 2578   4.188   6.632   6.812
  560SOL    HW1 2579   4.128   6.712   6.809
  560SOL    HW2 2580   4.134   6.549   6.808
  561SOL     OW 2581   5.458   6.447   1.014
  561SOL    HW1 2582   5.406   6.420   0.934
  561SOL    HW2 2583   5.510   6.530   0.993
  562SOL     OW 2584   6.418   0.942   6.254
  562SOL    HW1 2585   6.400   0.852   6.214
  562SOL    HW2 2586   6.347   1.006   6.225
  563SOL     OW 2587   3.318   0.243   5.131
  563SOL    HW1 2588   3.403   0.222   5.178
  563SOL    HW2 2589   3.334   0.315   5.063
  564SOL     OW 2590   0.064   1.769   6.852
  564SOL    HW1 2591   0.026   1.728   6.935
  564SOL    HW2 2592   0.163   1.779   6.863
  565SOL     OW 2593   4.615   4.322   5.077
  565SOL    HW1 2594   4.540   4.287   5.133
  565SOL    HW2 2595   4.582   4.339   4.984
  566SOL     OW 2596   5.167   5.031   2.201
  566SOL    HW1 2597   5.128   5.003   2.288
  566SOL    HW2 2598   5.185   5.129   2.202
  567SOL     OW 2599   4.063   3.505   4.656
  567SOL    HW1 2600   4.084   3.597   4.622
  567SOL    HW2 2601   3.972   3.478   4.626
  568SOL     OW 2602   2.047   1.431   6.180
  568SOL    HW1 2603   1.985   1.383   6.242
  568SOL    HW2 2604   2.073   1.519   6.219
  569SOL     OW 2605   2.346   3.597   0.368
  569SOL    HW1 2606   2.318   3.692   0.385
  569SOL    HW2 2607   2.380   3.588   0.275
  570SOL     OW 2608   0.646   6.144   1.103
  570SOL    HW1 2609   0.717   6.104   1.045
  570SOL    HW2 2610   0.627   6.082   1.179
  571SOL     OW 2611   4.207   5.510   2.619
  571SOL    HW1 2612   4.188   5.522   2.522
  571SOL    HW2 2613   4.154   5.432   2.654
  572SOL     OW 2614   1.914   4.045   4.854
  572SOL    HW1 2615   1.831   4.001   4.820
  572SOL    HW2 2616   1.891   4.133   4.897
  573SOL     OW 2617   3.882   2.510   6.244
  573SOL    HW1 2618   3.951   2.439   6.229
  573SOL    HW2 2619   3.899   2.554   6.333
  574SOL     OW 2620   2.657   1.516   4.334
  574SOL    HW1 2621   2.698   1.606   4.350
  574SOL    HW2 2622   2.724   1.457   4.288
  575SOL     OW 2623   5.058   2.325   6.530
  575SOL    HW1 2624   5.155   2.343   6.517
  575SOL    HW2 2625   5.021   2.387   6.599
  576SOL     OW 2626   0.900   1.942   2.424
  576SOL    HW1 2627   0.884   1.876   2.498
  576SOL    HW2 2628   0.844   2.023   2.440
  577SOL     OW 2629   3.142   2.174   4.259
  577SOL    HW1 2630   3.111   2.222   4.340
  577SOL    HW2 2631   3.241   2.161   4.263
  578SOL     OW 2632   0.138   3.150   4.674
  578SOL    HW1 2633   0.119   3.248   4.674
  578SOL    HW2 2634   0.180   3.124   4.587
  579SOL     OW 2635   3.586   3.250   0.651
  579SOL    HW1 2636   3.617   3.274   0.743
  579SOL    HW2 2637   3.651   3.186   0.610
  580SOL     OW 2638   0.301   6.108   6.682
  580SOL    HW1 2639   0.239   6.175   6.641
  580SOL    HW2 2640   0.292   6.111   6.781
  581SOL     OW 2641   3.571   3.748   2.478
  581SOL    HW1 2642   3.611   3.751   2.387
  581SOL    HW2 2643   3.597   3.830   2.529
  582SOL     OW 2644   6.207   4.118   2.424
  582SOL    HW1 2645   6.305   4.099   2.432
  582SOL    HW2 2646   6.162   4.093   2.509
  583SOL     OW 2647   2.406   5.577   6.610
  583SOL    HW1 2648   2.373   5.485   6.587
  583SOL    HW2 2649   2.328   5.636   6.631
  584SOL     OW 2650   0.764   4.988   4.855
  584SOL    HW1 2651   0.859   4.977   4.823
  584SOL    HW2 2652   0.701   4.960   4.783
  585SOL     OW 2653   6.536   1.502   5.770
  585SOL    HW1 2654   6.446   1.545   5.760
  585SOL    HW2 2655   6.603   1.552   5.715
  586SOL     OW 2656   2.405   6.070   0.574
  586SOL    HW1 2657   2.415   6.128   0.493
  586SOL    HW2 2658   2.348   5.991   0.550
  587SOL     OW 2659   1.216   3.557   5.837
  587SOL    HW1 2660   1.234   3.625   5.908
  587SOL    HW2 2661   1.178   3.602   5.756
  588SOL     OW 2662   2.503   0.110   1.337
  588SOL    HW1 2663   2.405   0.096   1.320
  588SOL    HW2 2664   2.532   0.056   1.416
  589SOL     OW 2665   4.696   5.204   1.892
  589SOL    HW1 2666   4.685   5.131   1.959
  589SOL    HW2 2667   4.720   5.289   1.939
  590SOL     OW 2668   6.326   2.147   1.753
  590SOL    HW1 2669   6.287   2.237   1.736
  590SOL    HW2 2670   6.252   2.079   1.756
  591SOL     OW 2671   3.366   6.719   2.797
  591SOL    HW1 2672   3.406   6.700   2.887
  591SOL    HW2 2673   3.296   6.651   2.776
  592SOL     OW 2674   5.171   0.752   6.934
  592SOL    HW1 2675   5.195   0.788   0.002
  592SOL    HW2 2676   5.148   0.655   6.942
  593SOL     OW 2677   6.011   1.051   4.270
  593SOL    HW1 2678   6.086   1.003   4.316
  593SOL    HW2 2679   5.984   1.131   4.325
  594SOL     OW 2680   5.189   2.977   1.781
  594SOL    HW1 2681   5.104   2.929   1.801
  594SOL    HW2 2682   5.195   2.994   1.683
  595SOL     OW 2683   4.168   0.241   4.064
  595SOL    HW1 2684   4.209   0.296   4.136
  595SOL    HW2 2685   4.237   0.217   3.995
  596SOL     OW 2686   0.781   4.251   2.490
  596SOL    HW1 2687   0.854   4.191   2.457
  596SOL    HW2 2688   0.806   4.346   2.471
  597SOL     OW 2689   3.974   2.250   5.889
  597SOL    HW1 2690   3.979   2.198   5.974
  597SOL    HW2 2691   3.993   2.346   5.907
  598SOL     OW 2692   3.109   3.983   1.533
  598SOL    HW1 2693   3.057   4.032   1.463
  598SOL    HW2 2694   3.200   3.962   1.498
  599SOL     OW 2695   0.023   6.541   3.191
  599SOL    HW1 2696   0.073   6.514   3.109
  599SOL    HW2 2697   6.953   6.569   3.166
  600SOL     OW 2698   2.190   0.831   1.023
  600SOL    HW1 2699   2.230   0.871   1.105
  600SOL    HW2 2700   2.252   0.845   0.946
  601SOL     OW 2701   2.694   4.829   3.732
  601SOL    HW1 2702   2.656   4.738   3.714
  601SOL    HW2 2703   2.677   4.888   3.654
  602SOL     OW 2704   0.424   0.555   1.988
  602SOL    HW1 2705   0.390   0.636   1.941
  602SOL    HW2 2706   0.522   0.546   1.972
  603SOL     OW 2707   4.236   2.041   3.074
  603SOL    HW1 2708   4.146   2.015   3.108
  603SOL    HW2 2709   4.226   2.115   3.008
  604SOL     OW 2710   0.758   4.308   5.595
  604SOL    HW1 2711   0.693   4.319   5.521
  604SOL    HW2 2712   0.820   4.232   5.575
  605SOL     OW 2713   5.893   6.713   4.689
  605SOL    HW1 2714   5.992   6.725   4.699
  605SOL    HW2 2715   5.856   6.669   4.771
  606SOL     OW 2716   3.455   0.175   3.118
  606SOL    HW1 2717   3.450   0.274   3.108
  606SOL    HW2 2718   3.380   0.132   3.067
  607SOL     OW 2719   4.175   0.877   3.749
  607SOL    HW1 2720   4.164   0.831   3.837
  607SOL    HW2 2721   4.136   0.969   3.755
  608SOL     OW 2722   4.855   1.804   1.683
  608SOL    HW1 2723   4.858   1.892   1.731
  608SOL    HW2 2724   4.907   1.812   1.598
  609SOL     OW 2725   2.874   3.397   4.191
  609SOL    HW1 2726   2.903   3.467   4.255
  609SOL    HW2 2727   2.862   3.310   4.238
  610SOL     OW 2728   5.729   1.430   4.565
  610SOL    HW1 2729   5.811   1.487   4.564
  610SOL    HW2 2730   5.702   1.410   4.471
  611SOL     OW 2731   6.036   0.399   0.289
  611SOL    HW1 2732   6.132   0.398   0.261
  611SOL    HW2 2733   6.029   0.368   0.384
  612SOL     OW 2734   3.265   5.216   5.554
  612SOL    HW1 2735   3.173   5.193   5.523
  612SOL    HW2 2736   3.259   5.278   5.633
  613SOL     OW 2737   3.342   1.941   6.816
  613SOL    HW1 2738   3.383   1.908   6.901
  613SOL    HW2 2739   3.386   1.896   6.739
  614SOL     OW 2740   5.524   3.825   0.807
  614SOL    HW1 2741   5.470   3.768   0.745
  614SOL    HW2 2742   5.603   3.773   0.840
  615SOL     OW 2743   5.172   6.915   1.081
  615SOL    HW1 2744   5.181   6.974   1.161
  615SOL    HW2 2745   5.136   6.826   1.109
  616SOL     OW 2746   5.488   0.734   4.869
  616SOL    HW1 2747   5.585   0.729   4.894
  616SOL    HW2 2748   5.457   0.644   4.840
  617SOL     OW 2749   6.965   5.726   5.485
  617SOL    HW1 2750   6.924   5.808   5.525
  617SOL    HW2 2751   6.963   5.651   5.551
  618SOL     OW 2752   5.948   4.726   6.896
  618SOL    HW1 2753   6.028   4.786   6.897
  618SOL    HW2 2754   5.868   4.776   6.930
  619SOL     OW 2755   2.667   6.707   5.960
  619SOL    HW1 2756   2.737   6.656   5.910
  619SOL    HW2 2757   2.580   6.700   5.912
  620SOL     OW 2758   5.009   1.675   2.455
  620SOL    HW1 2759   4.957   1.591   2.471
  620SOL    HW2 2760   5.033   1.717   2.542
  621SOL     OW 2761   2.767   0.318   6.687
  621SOL    HW1 2762   2.862   0.306   6.714
  621SOL    HW2 2763   2.708   0.320   6.768
  622SOL     OW 2764   0.523   2.831   5.701
  622SOL    HW1 2765   0.454   2.888   5.746
  622SOL    HW2 2766   0.588   2.798   5.769
  623SOL     OW 2767   6.400   0.038   3.420
  623SOL    HW1 2768   6.448   0.116   3.460
  623SOL    HW2 2769   6.309   0.068   3.389
  624SOL     OW 2770   6.975   0.705   6.149
  624SOL    HW1 2771   0.019   0.757   6.096
  624SOL    HW2 2772   6.928   0.766   6.213
  625SOL     OW 2773   3.397   1.299   1.183
  625SOL    HW1 2774   3.425   1.389   1.148
  625SOL    HW2 2775   3.430   1.228   1.121
  626SOL     OW 2776   6.710   5.746   3.540
  626SOL    HW1 2777   6.743   5.816   3.477
  626SOL    HW2 2778   6.713   5.781   3.634
  627SOL     OW 2779   6.640   6.129   0.409
  627SOL    HW1 2780   6.728   6.088   0.435
  627SOL    HW2 2781   6.587   6.064   0.356
  628SOL     OW 2782   3.815   4.959   6.036
  628SOL    HW1 2783   3.794   4.977   5.940
  628SOL    HW2 2784   3.852   4.866   6.045
  629SOL     OW 2785   1.264   6.621   0.020
  629SOL    HW1 2786   1.238   6.714   0.045
  629SOL    HW2 2787   1.255   6.561   0.100
  630SOL     OW 2788   6.232   1.297   1.325
  630SOL    HW1 2789   6.138   1.264   1.320
  630SOL    HW2 2790   6.256   1.316   1.421
  631SOL     OW 2791   1.759   2.635   3.772
  631SOL    HW1 2792   1.795   2.725   3.747
  631SOL    HW2 2793   1.745   2.582   3.688
  632SOL     OW 2794   3.098   4.252   0.717
  632SOL    HW1 2795   3.063   4.305   0.640
  632SOL    HW2 2796   3.125   4.314   0.791
  633SOL     OW 2797   1.703   5.371   0.530
  633SOL    HW1 2798   1.663   5.313   0.601
  633SOL    HW2 2799   1.630   5.406   0.472
  634SOL     OW 2800   3.104   3.148   4.644
  634SOL    HW1 2801   3.139   3.083   4.712
  634SOL    HW2 2802   3.042   3.212   4.688
  635SOL     OW 2803   5.942   6.988   6.442
  635SOL    HW1 2804   5.921   0.024   6.521
  635SOL    HW2 2805   6.032   7.012   6.406
  636SOL     OW 2806   2.886   0.609   5.676
  636SOL    HW1 2807   2.825   0.689   5.678
  636SOL    HW2 2808   2.839   0.531   5.716
  637SOL     OW 2809   0.315   1.269   2.911
  637SOL    HW1 2810   0.364   1.344   2.867
  637SOL    HW2 2811   0.217   1.278   2.895
  638SOL     OW 2812   6.645   3.245   5.229
  638SOL    HW1 2813   6.569   3.269   5.169
  638SOL    HW2 2814   6.626   3.277   5.322
  639SOL     OW 2815   5.823   4.168   2.310
  639SOL    HW1 2816   5.801   4.073   2.332
  639SOL    HW2 2817   5.779   4.194   2.224
  640SOL     OW 2818   0.094   3.097   2.741
  640SOL    HW1 2819   0.011   3.048   2.716
  640SOL    HW2 2820   0.171   3.034   2.745
  641SOL     OW 2821   2.647   5.367   4.577
  641SOL    HW1 2822   2.601   5.412   4.501
  641SOL    HW2 2823   2.683   5.279   4.546
  642SOL     OW 2824   0.351   5.082   4.917
  642SOL    HW1 2825   0.413   5.154   4.886
  642SOL    HW2 2826   0.277   5.123   4.970
  643SOL     OW 2827   4.006   5.179   0.639
  643SOL    HW1 2828   4.026   5.130   0.724
  643SOL    HW2 2829   3.941   5.126   0.585
  644SOL     OW 2830   6.962   6.417   5.474
  644SOL    HW1 2831   6.989   6.427   5.379
  644SOL    HW2 2832   6.993   6.496   5.527
  645SOL     OW 2833   4.065   5.571   2.384
  645SOL    HW1 2834   4.123   5.634   2.334
  645SOL    HW2 2835   3.972   5.608   2.389
  646SOL     OW 2836   3.634   2.122   4.639
  646SOL    HW1 2837   3.640   2.060   4.718
  646SOL    HW2 2838   3.543   2.163   4.635
  647SOL     OW 2839   3.948   2.724   6.056
  647SOL    HW1 2840   3.986   2.676   6.135
  647SOL    HW2 2841   3.882   2.792   6.088
  648SOL     OW 2842   6.226   1.224   3.576
  648SOL    HW1 2843   6.234   1.183   3.485
  648SOL    HW2 2844   6.317   1.235   3.616
  649SOL     OW 2845   2.932   5.342   0.184
  649SOL    HW1 2846   2.868   5.413   0.154
  649SOL    HW2 2847   2.989   5.377   0.258
  650SOL     OW 2848   0.133   3.589   0.963
  650SOL    HW1 2849   0.164   3.645   1.039
  650SOL    HW2 2850   0.176   3.499   0.968
  651SOL     OW 2851   0.681   0.360   3.678
  651SOL    HW1 2852   0.781   0.352   3.683
  651SOL    HW2 2853   0.657   0.455   3.657
  652SOL     OW 2854   4.190   5.545   0.906
  652SOL    HW1 2855   4.106   5.597   0.918
  652SOL    HW2 2856   4.235   5.574   0.822
  653SOL     OW 2857   1.659   6.353   2.214
  653SOL    HW1 2858   1.723   6.424   2.185
  653SOL    HW2 2859   1.700   6.263   2.197
  654SOL     OW 2860   0.672   0.049   5.637
  654SOL    HW1 2861   0.669   6.978   5.674
  654SOL    HW2 2862   0.586   0.096   5.659
  655SOL     OW 2863   0.478   3.653   1.539
  655SOL    HW1 2864   0.571   3.617   1.549
  655SOL    HW2 2865   0.429   3.599   1.470
  656SOL     OW 2866   2.849   5.934   6.806
  656SOL    HW1 2867   2.798   5.852   6.780
  656SOL    HW2 2868   2.790   6.014   6.797
  657SOL     OW 2869   3.791   3.658   3.286
  657SOL    HW1 2870   3.753   3.644   3.377
  657SOL    HW2 2871   3.718   3.683   3.222
  658SOL     OW 2872   1.002   1.718   3.963
  658SOL    HW1 2873   1.026   1.632   4.008
  658SOL    HW2 2874   0.971   1.783   4.032
  659SOL     OW 2875   2.133   5.654   6.630
  659SOL    HW1 2876   2.106   5.577   6.687
  659SOL    HW2 2877   2.100   5.639   6.537
  660SOL     OW 2878   5.296   4.588   2.884
  660SOL    HW1 2879   5.255   4.533   2.813
  660SOL    HW2 2880   5.395   4.572   2.886
  661SOL     OW 2881   4.270   5.395   3.802
  661SOL    HW1 2882   4.246   5.311   3.754
  661SOL    HW2 2883   4.369   5.408   3.798
  662SOL     OW 2884   4.898   3.448   6.947
  662SOL    HW1 2885   4.963   3.498   6.889
  662SOL    HW2 2886   4.948   3.383   7.004
  663SOL     OW 2887   6.783   3.971   0.125
  663SOL    HW1 2888   6.851   4.038   0.153
  663SOL    HW2 2889   6.722   4.011   0.057
  664SOL     OW 2890   1.472   0.027   6.277
  664SOL    HW1 2891   1.541   0.069   6.218
  664SOL    HW2 2892   1.518   6.999   6.350
  665SOL     OW 2893   3.332   4.864   2.734
  665SOL    HW1 2894   3.344   4.906   2.644
  665SOL    HW2 2895   3.234   4.849   2.750
  666SOL     OW 2896   3.334   0.971   6.768
  666SOL    HW1 2897   3.297   0.891   6.816
  666SOL    HW2 2898   3.372   0.942   6.679
  667SOL     OW 2899   1.553   3.497   2.258
  667SOL    HW1 2900   1.561   3.477   2.160
  667SOL    HW2 2901   1.609   3.577   2.280
  668SOL     OW 2902   5.360   0.252   0.541
  668SOL    HW1 2903   5.311   0.338   0.528
  668SOL    HW2 2904   5.351   0.195   0.459
  669SOL     OW 2905   0.978   6.019   2.643
  669SOL    HW1 2906   0.955   5.928   2.676
  669SOL    HW2 2907   0.925   6.039   2.560
  670SOL     OW 2908   3.551   3.525   3.094
  670SOL    HW1 2909   3.649   3.515   3.079
  670SOL    HW2 2910   3.520   3.610   3.050
  671SOL     OW 2911   1.957   6.990   6.364
  671SOL    HW1 2912   2.007   0.049   6.390
  671SOL    HW2 2913   2.021   6.914   6.350
  672SOL     OW 2914   0.943   2.198   2.882
  672SOL    HW1 2915   0.923   2.288   2.843
  672SOL    HW2 2916   1.031   2.166   2.848
  673SOL     OW 2917   4.809   0.362   0.112
  673SOL    HW1 2918   4.889   0.337   0.166
  673SOL    HW2 2919   4.738   0.397   0.172
  674SOL     OW 2920   6.951   2.151   4.729
  674SOL    HW1 2921   0.027   2.163   4.741
  674SOL    HW2 2922   6.912   2.232   4.685
  675SOL     OW 2923   6.284   6.888   3.841
  675SOL    HW1 2924   6.298   6.824   3.917
  675SOL    HW2 2925   6.250   6.975   3.878
  676SOL     OW 2926   2.449   5.325   4.122
  676SOL    HW1 2927   2.452   5.236   4.167
  676SOL    HW2 2928   2.363   5.371   4.145
  677SOL     OW 2929   4.876   7.007   0.933
  677SOL    HW1 2930   4.914   6.949   1.005
  677SOL    HW2 2931   4.865   6.953   0.849
  678SOL     OW 2932   2.429   0.949   6.141
  678SOL    HW1 2933   2.529   0.955   6.130
  678SOL    HW2 2934   2.397   0.863   6.101
  679SOL     OW 2935   6.313   0.284   2.221
  679SOL    HW1 2936   6.374   0.320   2.291
  679SOL    HW2 2937   6.340   0.190   2.199
  680SOL     OW 2938   5.856   4.451   4.700
  680SOL    HW1 2939   5.843   4.536   4.648
  680SOL    HW2 2940   5.850   4.373   4.637
  681SOL     OW 2941   1.488   6.874   2.438
  681SOL    HW1 2942   1.576   6.913   2.409
  681SOL    HW2 2943   1.472   6.788   2.390
  682SOL     OW 2944   0.156   0.175   6.423
  682SOL    HW1 2945   0.105   0.104   6.373
  682SOL    HW2 2946   0.147   0.262   6.375
  683SOL     OW 2947   5.248   1.843   0.717
  683SOL    HW1 2948   5.186   1.830   0.640
  683SOL    HW2 2949   5.343   1.837   0.684
  684SOL     OW 2950   0.379   5.738   6.094
  684SOL    HW1 2951   0.396   5.820   6.040
  684SOL    HW2 2952   0.442   5.736   6.171
  685SOL     OW 2953   6.254   1.251   6.324
  685SOL    HW1 2954   6.312   1.327   6.296
  685SOL    HW2 2955   6.272   1.228   6.420
  686SOL     OW 2956   5.739   4.834   3.159
  686SOL    HW1 2957   5.735   4.897   3.237
  686SOL    HW2 2958   5.798   4.757   3.182
  687SOL     OW 2959   6.003   2.441   5.554
  687SOL    HW1 2960   5.907   2.469   5.555
  687SOL    HW2 2961   6.051   2.488   5.480
  688SOL     OW 2962   6.944   3.443   4.864
  688SOL    HW1 2963   6.864   3.432   4.805
  688SOL    HW2 2964   0.005   3.435   4.809
  689SOL     OW 2965   5.974   3.891   4.920
  689SOL    HW1 2966   5.974   3.900   4.820
  689SOL    HW2 2967   6.060   3.848   4.948
  690SOL     OW 2968   0.302   3.417   4.019
  690SOL    HW1 2969   0.323   3.323   3.992
  690SOL    HW2 2970   0.212   3.420   4.062
  691SOL     OW 2971   6.874   2.895   6.861
  691SOL    HW1 2972   6.842   2.953   6.787
  691SOL    HW2 2973   6.797   2.846   6.902
  692SOL     OW 2974   2.659   6.902   3.203
  692SOL    HW1 2975   2.732   6.948   3.253
  692SOL    HW2 2976   2.634   6.818   3.251
  693SOL     OW 2977   6.525   1.459   2.217
  693SOL    HW1 2978   6.617   1.448   2.255
  693SOL    HW2 2979   6.494   1.553   2.233
  694SOL     OW 2980   1.671   0.407   2.199
  694SOL    HW1 2981   1.691   0.482   2.262
  694SOL    HW2 2982   1.721   0.421   2.113
  695SOL     OW 2983   4.467   5.573   6.283
  695SOL    HW1 2984   4.449   5.604   6.376
  695SOL    HW2 2985   4.381   5.540   6.243
  696SOL     OW 2986   5.206   6.492   2.388
  696SOL    HW1 2987   5.150   6.413   2.412
  696SOL    HW2 2988   5.259   6.521   2.468
  697SOL     OW 2989   1.397   4.002   3.696
  697SOL    HW1 2990   1.484   4.047   3.675
  697SOL    HW2 2991   1.412   3.926   3.758
  698SOL     OW 2992   4.920   5.843   4.084
  698SOL    HW1 2993   5.016   5.841   4.057
  698SOL    HW2 2994   4.892   5.937   4.101
  699SOL     OW 2995   1.170   3.955   6.948
  699SOL    HW1 2996   1.120   3.883   6.899
  699SOL    HW2 2997   1.132   4.044   6.923
  700SOL     OW 2998   2.061   1.447   4.337
  700SOL    HW1 2999   2.099   1.355   4.329
  700SOL    HW2 3000   2.126   1.505   4.386
  701SOL     OW 3001   1.028   4.659   6.132
  701SOL    HW1 3002   1.026   4.752   6.169
  701SOL    HW2 3003   1.123   4.630   6.119
  702SOL     OW 3004   5.398   5.979   5.074
  702SOL    HW1 3005   5.406   5.884   5.044
  702SOL    HW2 3006   5.401   5.984   5.173
  703SOL     OW 3007   4.413   3.949   6.936
  703SOL    HW1 3008   4.505   3.916   6.914
  703SOL    HW2 3009   4.391   3.926   0.009
  704SOL     OW 3010   2.481   0.667   1.453
  704SOL    HW1 3011   2.423   0.667   1.371
  704SOL    HW2 3012   2.507   0.572   1.474
  705SOL     OW 3013   6.767   2.010   3.816
  705SOL    HW1 3014   6.679   2.033   3.777
  705SOL    HW2 3015   6.829   1.977   3.744
  706SOL     OW 3016   4.961   2.392   4.069
  706SOL    HW1 3017   4.878   2.341   4.045
  706SOL    HW2 3018   4.990   2.446   3.991
  707SOL     OW 3019   4.777   2.051   2.354
  707SOL    HW1 3020   4.755   2.148   2.350
  707SOL    HW2 3021   4.713   2.000   2.297
  708SOL     OW 3022   4.227   0.467   2.181
  708SOL    HW1 3023   4.238   0.387   2.122
  708SOL    HW2 3024   4.202   0.438   2.273
  709SOL     OW 3025   0.706   5.330   0.017
  709SOL    HW1 3026   0.650   5.411   0.034
  709SOL    HW2 3027   0.684   5.260   0.085
  710SOL     OW 3028   2.907   3.322   2.674
  710SOL    HW1 3029   2.954   3.347   2.589
  710SOL    HW2 3030   2.835   3.257   2.654
  711SOL     OW 3031   1.198   1.132   4.611
  711SOL    HW1 3032   1.262   1.208   4.606
  711SOL    HW2 3033   1.152   1.132   4.700
  712SOL     OW 3034   1.076   3.947   1.879
  712SOL    HW1 3035   1.175   3.942   1.872
  712SOL    HW2 3036   1.038   3.855   1.873
  713SOL     OW 3037   3.669   3.819   3.716
  713SOL    HW1 3038   3.700   3.909   3.747
  713SOL    HW2 3039   3.571   3.811   3.731
  714SOL     OW 3040   4.970   4.986   5.583
  714SOL    HW1 3041   5.050   4.938   5.618
  714SOL    HW2 3042   4.939   5.053   5.651
  715SOL     OW 3043   4.702   1.044   6.700
  715SOL    HW1 3044   4.668   1.105   6.771
  715SOL    HW2 3045   4.707   0.951   6.735
  716SOL     OW 3046   6.901   5.183   1.866
  716SOL    HW1 3047   6.995   5.199   1.836
  716SOL    HW2 3048   6.862   5.268   1.901
  717SOL     OW 3049   5.993   3.057   6.729
  717SOL    HW1 3050   5.988   3.061   6.829
  717SOL    HW2 3051   5.917   3.001   6.695
  718SOL     OW 3052   2.134   3.571   0.153
  718SOL    HW1 3053   2.090   3.596   0.067
  718SOL    HW2 3054   2.229   3.545   0.135
  719SOL     OW 3055   5.159   5.300   0.414
  719SOL    HW1 3056   5.186   5.205   0.426
  719SOL    HW2 3057   5.240   5.354   0.390
  720SOL     OW 3058   2.588   0.772   6.410
  720SOL    HW1 3059   2.675   0.802   6.451
  720SOL    HW2 3060   2.512   0.805   6.465
  721SOL     OW 3061   1.550   6.252   5.544
  721SOL    HW1 3062   1.599   6.306   5.475
  721SOL    HW2 3063   1.476   6.307   5.583
  722SOL     OW 3064   4.390   6.777   5.726
  722SOL    HW1 3065   4.349   6.868   5.733
  722SOL    HW2 3066   4.331   6.710   5.770
  723SOL     OW 3067   1.736   3.316   1.908
  723SOL    HW1 3068   1.653   3.365   1.881
  723SOL    HW2 3069   1.793   3.376   1.964
  724SOL     OW 3070   6.217   0.540   4.588
  724SOL    HW1 3071   6.200   0.442   4.599
  724SOL    HW2 3072   6.231   0.582   4.678
  725SOL     OW 3073   2.805   4.822   1.087
  725SOL    HW1 3074   2.752   4.819   1.172
  725SOL    HW2 3075   2.849   4.734   1.072
  726SOL     OW 3076   4.460   6.781   6.102
  726SOL    HW1 3077   4.455   6.786   6.002
  726SOL    HW2 3078   4.367   6.783   6.140
  727SOL     OW 3079   2.509   4.595   3.950
  727SOL    HW1 3080   2.465   4.672   3.904
  727SOL    HW2 3081   2.461   4.510   3.927
  728SOL     OW 3082   0.081   3.000   5.177
  728SOL    HW1 3083   0.084   3.095   5.148
  728SOL    HW2 3084   0.151   2.948   5.129
  729SOL     OW 3085   3.310   0.770   0.767
  729SOL    HW1 3086   3.279   0.861   0.793
  729SOL    HW2 3087   3.278   0.749   0.674
  730SOL     OW 3088   5.562   1.245   5.185
  730SOL    HW1 3089   5.535   1.341   5.178
  730SOL    HW2 3090   5.480   1.188   5.190
  731SOL     OW 3091   6.459   3.234   4.142
  731SOL    HW1 3092   6.481   3.301   4.212
  731SOL    HW2 3093   6.528   3.162   4.141
  732SOL     OW 3094   6.617   2.928   3.103
  732SOL    HW1 3095   6.632   2.910   3.200
  732SOL    HW2 3096   6.585   2.845   3.058
  733SOL     OW 3097   4.463   4.974   4.358
  733SOL    HW1 3098   4.537   4.931   4.410
  733SOL    HW2 3099   4.452   5.068   4.388
  734SOL     OW 3100   0.719   4.530   0.030
  734SOL    HW1 3101   0.712   4.478   0.114
  734SOL    HW2 3102   0.628   4.548   7.016
  735SOL     OW 3103   2.409   4.851   6.665
  735SOL    HW1 3104   2.488   4.840   6.725
  735SOL    HW2 3105   2.329   4.876   6.720
  736SOL     OW 3106   5.641   0.832   2.857
  736SOL    HW1 3107   5.638   0.793   2.949
  736SOL    HW2 3108   5.677   0.764   2.793
  737SOL     OW 3109   5.638   3.859   0.436
  737SOL    HW1 3110   5.544   3.845   0.465
  737SOL    HW2 3111   5.640   3.913   0.352
  738SOL     OW 3112   0.776   4.744   3.143
  738SOL    HW1 3113   0.798   4.825   3.088
  738SOL    HW2 3114   0.677   4.731   3.146
  739SOL     OW 3115   4.649   6.138   6.834
  739SOL    HW1 3116   4.584   6.173   6.901
  739SOL    HW2 3117   4.665   6.207   6.763
  740SOL     OW 3118   5.631   0.215   0.669
  740SOL    HW1 3119   5.598   0.286   0.607
  740SOL    HW2 3120   5.622   0.247   0.764
  741SOL     OW 3121   2.551   0.485   3.931
  741SOL    HW1 3122   2.575   0.452   4.022
  741SOL    HW2 3123   2.512   0.411   3.877
  742SOL     OW 3124   1.878   0.162   2.453
  742SOL    HW1 3125   1.869   0.127   2.547
  742SOL    HW2 3126   1.820   0.108   2.392
  743SOL     OW 3127   2.172   3.346   4.309
  743SOL    HW1 3128   2.225   3.267   4.280
  743SOL    HW2 3129   2.155   3.340   4.408
  744SOL     OW 3130   0.453   5.773   1.046
  744SOL    HW1 3131   0.479   5.718   1.126
  744SOL    HW2 3132   0.361   5.808   1.058
  745SOL     OW 3133   1.723   5.715   3.135
  745SOL    HW1 3134   1.743   5.673   3.046
  745SOL    HW2 3135   1.768   5.804   3.141
  746SOL     OW 3136   2.622   0.427   4.195
  746SOL    HW1 3137   2.525   0.423   4.174
  746SOL    HW2 3138   2.643   0.513   4.241
  747SOL     OW 3139   6.278   4.517   1.677
  747SOL    HW1 3140   6.352   4.546   1.615
  747SOL    HW2 3141   6.249   4.424   1.652
  748SOL     OW 3142   3.603   3.219   2.339
  748SOL    HW1 3143   3.596   3.121   2.322
  748SOL    HW2 3144   3.694   3.251   2.314
  749SOL     OW 3145   6.972   1.386   5.261
  749SOL    HW1 3146   6.902   1.356   5.325
  749SOL    HW2 3147   0.034   1.408   5.311
  750SOL     OW 3148   2.958   4.087   1.324
  750SOL    HW1 3149   2.875   4.121   1.279
  750SOL    HW2 3150   2.969   3.990   1.305
  751SOL     OW 3151   4.709   1.431   0.541
  751SOL    HW1 3152   4.611   1.423   0.525
  751SOL    HW2 3153   4.742   1.350   0.590
  752SOL     OW 3154   4.690   1.095   1.688
  752SOL    HW1 3155   4.723   1.172   1.741
  752SOL    HW2 3156   4.752   1.078   1.611
  753SOL     OW 3157   2.748   1.368   2.491
  753SOL    HW1 3158   2.822   1.422   2.531
  753SOL    HW2 3159   2.663   1.384   2.541
  754SOL     OW 3160   5.019   5.797   0.046
  754SOL    HW1 3161   5.044   5.894   0.040
  754SOL    HW2 3162   5.076   5.753   0.115
  755SOL     OW 3163   0.190   6.464   2.963
  755SOL    HW1 3164   0.207   6.376   2.919
  755SOL    HW2 3165   0.163   6.531   2.895
  756SOL     OW 3166   3.578   6.626   3.732
  756SOL    HW1 3167   3.613   6.533   3.734
  756SOL    HW2 3168   3.650   6.688   3.700
  757SOL     OW 3169   6.476   1.014   5.117
  757SOL    HW1 3170   6.566   1.048   5.140
  757SOL    HW2 3171   6.446   1.052   5.029
  758SOL     OW 3172   4.466   2.041   1.813
  758SOL    HW1 3173   4.410   2.108   1.765
  758SOL    HW2 3174   4.497   2.079   1.900
  759SOL     OW 3175   1.764   1.040   0.469
  759SOL    HW1 3176   1.796   0.951   0.502
  759SOL    HW2 3177   1.829   1.075   0.401
  760SOL     OW 3178   4.512   2.348   5.790
  760SOL    HW1 3179   4.441   2.305   5.845
  760SOL    HW2 3180   4.550   2.425   5.840
  761SOL     OW 3181   5.728   2.058   6.929
  761SOL    HW1 3182   5.825   2.032   6.929
  761SOL    HW2 3183   5.685   2.025   6.846
  762SOL     OW 3184   2.132   5.382   4.248
  762SOL    HW1 3185   2.050   5.325   4.247
  762SOL    HW2 3186   2.112   5.470   4.290
  763SOL     OW 3187   5.715   5.349   6.773
  763SOL    HW1 3188   5.666   5.263   6.756
  763SOL    HW2 3189   5.687   5.417   6.706
  764SOL     OW 3190   4.411   1.148   2.584
  764SOL    HW1 3191   4.385   1.101   2.499
  764SOL    HW2 3192   4.429   1.080   2.655
  765SOL     OW 3193   6.975   6.351   3.878
  765SOL    HW1 3194   6.958   6.252   3.879
  765SOL    HW2 3195   0.045   6.369   3.913
  766SOL     OW 3196   0.196   6.147   6.945
  766SOL    HW1 3197   0.221   6.113   0.013
  766SOL    HW2 3198   0.197   6.247   6.944
  767SOL     OW 3199   6.207   6.849   1.832
  767SOL    HW1 3200   6.129   6.894   1.876
  767SOL    HW2 3201   6.184   6.831   1.736
  768SOL     OW 3202   3.214   6.141   3.421
  768SOL    HW1 3203   3.161   6.057   3.411
  768SOL    HW2 3204   3.312   6.119   3.419
  769SOL     OW 3205   3.149   0.524   6.849
  769SOL    HW1 3206   3.153   0.476   6.762
  769SOL    HW2 3207   3.062   0.505   6.895
  770SOL     OW 3208   3.291   4.939   3.569
  770SOL    HW1 3209   3.311   4.913   3.475
  770SOL    HW2 3210   3.376   4.943   3.622
  771SOL     OW 3211   0.118   5.416   4.334
  771SOL    HW1 3212   0.210   5.455   4.330
  771SOL    HW2 3213   0.083   5.402   4.241
  772SOL     OW 3214   6.487   4.475   4.845
  772SOL    HW1 3215   6.442   4.561   4.872
  772SOL    HW2 3216   6.562   4.456   4.908
  773SOL     OW 3217   0.186   3.583   1.578
  773SOL    HW1 3218   0.217   3.565   1.485
  773SOL    HW2 3219   0.171   3.496   1.625
  774SOL     OW 3220   1.553   0.835   1.250
  774SOL    HW1 3221   1.526   0.898   1.323
  774SOL    HW2 3222   1.643   0.860   1.216
  775SOL     OW 3223   1.304   2.236   4.185
  775SOL    HW1 3224   1.282   2.268   4.277
  775SOL    HW2 3225   1.223   2.194   4.145
  776SOL     OW 3226   2.355   0.460   5.880
  776SOL    HW1 3227   2.291   0.393   5.842
  776SOL    HW2 3228   2.427   0.412   5.932
  777SOL     OW 3229   4.017   0.477   0.508
  777SOL    HW1 3230   4.116   0.473   0.525
  777SOL    HW2 3231   3.989   0.573   0.502
  778SOL     OW 3232   4.184   6.380   3.917
  778SOL    HW1 3233   4.247   6.318   3.870
  778SOL    HW2 3234   4.236   6.438   3.979
  779SOL     OW 3235   1.035   1.212   2.210
  779SOL    HW1 3236   1.077   1.303   2.219
  779SOL    HW2 3237   0.977   1.195   2.289
  780SOL     OW 3238   5.142   3.499   4.930
  780SOL    HW1 3239   5.134   3.455   5.020
  780SOL    HW2 3240   5.063   3.474   4.874
  781SOL     OW 3241   0.929   1.829   6.322
  781SOL    HW1 3242   0.833   1.806   6.307
  781SOL    HW2 3243   0.983   1.745   6.329
  782SOL     OW 3244   0.205   4.226   0.550
  782SOL    HW1 3245   0.294   4.184   0.529
  782SOL    HW2 3246   0.159   4.173   0.621
  783SOL     OW 3247   2.670   4.071   0.684
  783SOL    HW1 3248   2.673   4.011   0.605
  783SOL    HW2 3249   2.591   4.048   0.741
  784SOL     OW 3250   4.944   6.574   3.690
  784SOL    HW1 3251   4.905   6.484   3.670
  784SOL    HW2 3252   4.975   6.577   3.785
  785SOL     OW 3253   6.186   2.249   4.179
  785SOL    HW1 3254   6.128   2.170   4.202
  785SOL    HW2 3255   6.264   2.253   4.242
  786SOL     OW 3256   6.556   0.087   0.092
  786SOL    HW1 3257   6.460   0.113   0.107
  786SOL    HW2 3258   6.578   0.007   0.149
  787SOL     OW 3259   3.895   1.520   6.925
  787SOL    HW1 3260   3.945   1.530   6.839
  787SOL    HW2 3261   3.802   1.487   6.907
  788SOL     OW 3262   1.100   4.413   3.764
  788SOL    HW1 3263   1.004   4.441   3.766
  788SOL    HW2 3264   1.106   4.314   3.757
  789SOL     OW 3265   6.009   3.461   1.271
  789SOL    HW1 3266   6.030   3.422   1.181
  789SOL    HW2 3267   5.926   3.419   1.307
  790SOL     OW 3268   3.305   1.202   4.533
  790SOL    HW1 3269   3.364   1.281   4.519
  790SOL    HW2 3270   3.212   1.225   4.506
  791SOL     OW 3271   3.743   2.160   4.387
  791SOL    HW1 3272   3.703   2.150   4.478
  791SOL    HW2 3273   3.732   2.255   4.357
  792SOL     OW 3274   5.701   0.144   3.388
  792SOL    HW1 3275   5.603   0.151   3.407
  792SOL    HW2 3276   5.724   0.049   3.367
  793SOL     OW 3277   6.595   6.967   5.971
  793SOL    HW1 3278   6.553   0.008   6.035
  793SOL    HW2 3279   6.556   6.876   5.984
  794SOL     OW 3280   3.422   5.421   4.858
  794SOL    HW1 3281   3.432   5.325   4.831
  794SOL    HW2 3282   3.482   5.478   4.803
  795SOL     OW 3283   4.911   4.476   6.175
  795SOL    HW1 3284   4.961   4.497   6.259
  795SOL    HW2 3285   4.972   4.488   6.096
  796SOL     OW 3286   0.892   2.211   6.173
  796SOL    HW1 3287   0.794   2.224   6.183
  796SOL    HW2 3288   0.915   2.201   6.076
  797SOL     OW 3289   6.459   2.253   4.854
  797SOL    HW1 3290   6.391   2.279   4.786
  797SOL    HW2 3291   6.515   2.177   4.820
  798SOL     OW 3292   6.229   0.721   5.511
  798SOL    HW1 3293   6.283   0.656   5.456
  798SOL    HW2 3294   6.155   0.758   5.455
  799SOL     OW 3295   6.772   3.675   3.350
  799SOL    HW1 3296   6.691   3.645   3.299
  799SOL    HW2 3297   6.763   3.647   3.446
  800SOL     OW 3298   6.789   1.345   2.277
  800SOL    HW1 3299   6.855   1.308   2.343
  800SOL    HW2 3300   6.762   1.273   2.213
  801SOL     OW 3301   0.387   2.171   3.785
  801SOL    HW1 3302   0.466   2.110   3.789
  801SOL    HW2 3303   0.336   2.165   3.871
  802SOL     OW 3304   5.681   1.241   1.088
  802SOL    HW1 3305   5.590   1.209   1.114
  802SOL    HW2 3306   5.688   1.339   1.103
  803SOL     OW 3307   1.556   0.139   4.561
  803SOL    HW1 3308   1.491   0.204   4.522
  803SOL    HW2 3309   1.545   0.050   4.516
  804SOL     OW 3310   6.121   6.725   1.080
  804SOL    HW1 3311   6.022   6.739   1.087
  804SOL    HW2 3312   6.141   6.668   1.000
  805SOL     OW 3313   1.672   3.416   6.055
  805SOL    HW1 3314   1.609   3.341   6.076
  805SOL    HW2 3315   1.729   3.434   6.135
  806SOL     OW 3316   4.880   0.730   0.969
  806SOL    HW1 3317   4.865   0.635   0.998
  806SOL    HW2 3318   4.954   0.770   1.022
  807SOL     OW 3319   1.431   0.466   2.876
  807SOL    HW1 3320   1.446   0.372   2.908
  807SOL    HW2 3321   1.381   0.517   2.946
  808SOL     OW 3322   6.158   3.203   5.163
  808SOL    HW1 3323   6.225   3.239   5.228
  808SOL    HW2 3324   6.131   3.275   5.099
  809SOL     OW 3325   0.605   5.211   6.225
  809SOL    HW1 3326   0.655   5.147   6.284
  809SOL    HW2 3327   0.666   5.244   6.153
  810SOL     OW 3328   6.616   4.632   6.670
  810SOL    HW1 3329   6.629   4.595   6.579
  810SOL    HW2 3330   6.519   4.651   6.685
  811SOL     OW 3331   4.552   5.271   3.643
  811SOL    HW1 3332   4.589   5.316   3.725
  811SOL    HW2 3333   4.609   5.294   3.565
  812SOL     OW 3334   0.821   0.190   2.622
  812SOL    HW1 3335   0.913   0.216   2.648
  812SOL    HW2 3336   0.755   0.249   2.668
  813SOL     OW 3337   5.814   5.570   2.063
  813SOL    HW1 3338   5.886   5.501   2.069
  813SOL    HW2 3339   5.851   5.660   2.089
  814SOL     OW 3340   5.829   5.522   1.728
  814SOL    HW1 3341   5.871   5.514   1.819
  814SOL    HW2 3342   5.782   5.437   1.705
  815SOL     OW 3343   0.560   2.330   0.276
  815SOL    HW1 3344   0.624   2.336   0.353
  815SOL    HW2 3345   0.599   2.270   0.206
  816SOL     OW 3346   6.071   0.358   1.106
  816SOL    HW1 3347   6.032   0.450   1.101
  816SOL    HW2 3348   6.072   0.328   1.201
  817SOL     OW 3349   0.954   1.951   1.936
  817SOL    HW1 3350   1.045   1.989   1.947
  817SOL    HW2 3351   0.931   1.894   2.016
  818SOL     OW 3352   6.673   1.326   1.914
  818SOL    HW1 3353   6.763   1.367   1.898
  818SOL    HW2 3354   6.602   1.396   1.902
  819SOL     OW 3355   0.497   4.522   3.199
  819SOL    HW1 3356   0.491   4.528   3.299
  819SOL    HW2 3357   0.413   4.558   3.159
  820SOL     OW 3358   1.261   3.207   4.657
  820SOL    HW1 3359   1.220   3.135   4.602
  820SOL    HW2 3360   1.266   3.178   4.753
  821SOL     OW 3361   1.242   3.425   0.958
  821SOL    HW1 3362   1.241   3.325   0.950
  821SOL    HW2 3363   1.172   3.455   1.023
  822SOL     OW 3364   1.558   3.705   4.942
  822SOL    HW1 3365   1.587   3.610   4.944
  822SOL    HW2 3366   1.518   3.730   5.030
  823SOL     OW 3367   3.041   3.247   0.734
  823SOL    HW1 3368   3.041   3.282   0.828
  823SOL    HW2 3369   3.130   3.207   0.714
  824SOL     OW 3370   6.041   2.431   5.950
  824SOL    HW1 3371   6.102   2.401   6.023
  824SOL    HW2 3372   6.024   2.529   5.959
  825SOL     OW 3373   1.372   4.231   1.709
  825SOL    HW1 3374   1.424   4.256   1.628
  825SOL    HW2 3375   1.321   4.311   1.741
  826SOL     OW 3376   0.872   4.635   5.891
  826SOL    HW1 3377   0.938   4.645   5.817
  826SOL    HW2 3378   0.920   4.629   5.979
  827SOL     OW 3379   3.841   5.999   0.620
  827SOL    HW1 3380   3.846   5.900   0.623
  827SOL    HW2 3381   3.744   6.027   0.618
  828SOL     OW 3382   6.082   6.805   5.873
  828SOL    HW1 3383   6.053   6.872   5.942
  828SOL    HW2 3384   6.004   6.782   5.814
  829SOL     OW 3385   3.895   3.010   4.723
  829SOL    HW1 3386   3.837   3.062   4.661
  829SOL    HW2 3387   3.958   3.072   4.770
  830SOL     OW 3388   5.029   3.815   5.767
  830SOL    HW1 3389   4.960   3.843   5.701
  830SOL    HW2 3390   5.072   3.730   5.736
  831SOL     OW 3391   6.639   6.743   4.875
  831SOL    HW1 3392   6.694   6.818   4.911
  831SOL    HW2 3393   6.592   6.773   4.792
  832SOL     OW 3394   2.283   1.091   5.954
  832SOL    HW1 3395   2.329   1.034   6.022
  832SOL    HW2 3396   2.246   1.033   5.881
  833SOL     OW 3397   1.056   6.758   5.578
  833SOL    HW1 3398   0.971   6.706   5.566
  833SOL    HW2 3399   1.034   6.852   5.604
  834SOL     OW 3400   3.520   4.660   5.533
  834SOL    HW1 3401   3.484   4.592   5.597
  834SOL    HW2 3402   3.617   4.676   5.552
  835SOL     OW 3403   4.292   0.982   3.260
  835SOL    HW1 3404   4.382   1.007   3.224
  835SOL    HW2 3405   4.299   0.962   3.357
  836SOL     OW 3406   2.156   0.600   0.040
  836SOL    HW1 3407   2.156   0.609   0.139
  836SOL    HW2 3408   2.116   0.682   7.021
  837SOL     OW 3409   3.719   0.714   5.045
  837SOL    HW1 3410   3.767   0.772   5.111
  837SOL    HW2 3411   3.663   0.646   5.095
  838SOL     OW 3412   1.447   4.584   2.643
  838SOL    HW1 3413   1.362   4.566   2.691
  838SOL    HW2 3414   1.513   4.511   2.662
  839SOL     OW 3415   3.423   0.969   1.765
  839SOL    HW1 3416   3.471   0.957   1.678
  839SOL    HW2 3417   3.338   1.018   1.749
  840SOL     OW 3418   0.667   1.795   6.233
  840SOL    HW1 3419   0.649   1.883   6.190
  840SOL    HW2 3420   0.608   1.725   6.192
  841SOL     OW 3421   0.307   3.551   0.743
  841SOL    HW1 3422   0.250   3.586   0.817
  841SOL    HW2 3423   0.307   3.616   0.667
  842SOL     OW 3424   3.600   5.298   3.660
  842SOL    HW1 3425   3.669   5.226   3.664
  842SOL    HW2 3426   3.569   5.309   3.566
  843SOL     OW 3427   6.476   4.080   2.440
  843SOL    HW1 3428   6.550   4.015   2.421
  843SOL    HW2 3429   6.482   4.110   2.535
  844SOL     OW 3430   5.370   5.630   0.486
  844SOL    HW1 3431   5.410   5.547   0.526
  844SOL    HW2 3432   5.362   5.619   0.387
  845SOL     OW 3433   1.783   5.365   4.278
  845SOL    HW1 3434   1.686   5.360   4.302
  845SOL    HW2 3435   1.829   5.280   4.304
  846SOL     OW 3436   5.288   2.949   0.069
  846SOL    HW1 3437   5.296   2.849   0.070
  846SOL    HW2 3438   5.315   2.985   0.158
  847SOL     OW 3439   5.381   3.768   2.057
  847SOL    HW1 3440   5.322   3.849   2.059
  847SOL    HW2 3441   5.474   3.795   2.030
  848SOL     OW 3442   6.417   0.044   5.503
  848SOL    HW1 3443   6.507   0.022   5.466
  848SOL    HW2 3444   6.415   0.022   5.601
  849SOL     OW 3445   1.017   5.216   4.445
  849SOL    HW1 3446   0.965   5.188   4.364
  849SOL    HW2 3447   0.978   5.172   4.526
  850SOL     OW 3448   3.710   0.765   3.377
  850SOL    HW1 3449   3.714   0.673   3.415
  850SOL    HW2 3450   3.735   0.763   3.281
  851SOL     OW 3451   0.452   0.516   5.029
  851SOL    HW1 3452   0.401   0.514   4.943
  851SOL    HW2 3453   0.483   0.609   5.048
  852SOL     OW 3454   3.011   4.193   5.857
  852SOL    HW1 3455   2.923   4.232   5.830
  852SOL    HW2 3456   3.061   4.258   5.915
  853SOL     OW 3457   1.507   3.687   1.134
  853SOL    HW1 3458   1.457   3.622   1.191
  853SOL    HW2 3459   1.484   3.672   1.038
  854SOL     OW 3460   6.349   5.142   1.929
  854SOL    HW1 3461   6.397   5.222   1.965
  854SOL    HW2 3462   6.307   5.164   1.841
  855SOL     OW 3463   5.193   0.172   1.358
  855SOL    HW1 3464   5.245   0.095   1.396
  855SOL    HW2 3465   5.145   0.143   1.276
  856SOL     OW 3466   1.551   1.034   4.907
  856SOL    HW1 3467   1.583   1.072   4.994
  856SOL    HW2 3468   1.617   1.054   4.835
  857SOL     OW 3469   6.244   3.768   1.482
  857SOL    HW1 3470   6.162   3.824   1.494
  857SOL    HW2 3471   6.316   3.823   1.439
  858SOL     OW 3472   3.500   3.746   1.168
  858SOL    HW1 3473   3.549   3.777   1.086
  858SOL    HW2 3474   3.559   3.754   1.248
  859SOL     OW 3475   6.886   4.822   0.439
  859SOL    HW1 3476   6.949   4.758   0.394
  859SOL    HW2 3477   6.933   4.869   0.513
  860SOL     OW 3478   1.958   4.986   0.882
  860SOL    HW1 3479   1.960   4.983   0.982
  860SOL    HW2 3480   1.894   4.916   0.848
  861SOL     OW 3481   3.682   4.938   6.280
  861SOL    HW1 3482   3.737   4.977   6.207
  861SOL    HW2 3483   3.671   4.839   6.266
  862SOL     OW 3484   4.684   4.314   3.772
  862SOL    HW1 3485   4.707   4.294   3.868
  862SOL    HW2 3486   4.610   4.381   3.769
  863SOL     OW 3487   5.783   1.406   0.607
  863SOL    HW1 3488   5.824   1.421   0.517
  863SOL    HW2 3489   5.690   1.373   0.596
  864SOL     OW 3490   6.627   4.314   2.441
  864SOL    HW1 3491   6.709   4.259   2.458
  864SOL    HW2 3492   6.550   4.254   2.420
  865SOL     OW 3493   1.632   0.853   3.769
  865SOL    HW1 3494   1.573   0.831   3.692
  865SOL    HW2 3495   1.657   0.770   3.818
  866SOL     OW 3496   3.492   1.123   0.992
  866SOL    HW1 3497   3.511   1.193   0.923
  866SOL    HW2 3498   3.486   1.034   0.949
  867SOL     OW 3499   1.676   1.628   6.107
  867SOL    HW1 3500   1.733   1.707   6.128
  867SOL    HW2 3501   1.646   1.584   6.191
  868SOL     OW 3502   5.938   2.924   3.410
  868SOL    HW1 3503   5.911   2.869   3.489
  868SOL    HW2 3504   6.016   2.880   3.364
  869SOL     OW 3505   6.807   3.949   1.802
  869SOL    HW1 3506   6.877   4.021   1.800
  869SOL    HW2 3507   6.851   3.860   1.793
  870SOL     OW 3508   6.730   2.517   0.610
  870SOL    HW1 3509   6.645   2.526   0.558
  870SOL    HW2 3510   6.715   2.456   0.687
  871SOL     OW 3511   5.958   4.376   0.748
  871SOL    HW1 3512   5.987   4.282   0.763
  871SOL    HW2 3513   5.990   4.407   0.658
  872SOL     OW 3514   5.955   1.904   2.338
  872SOL    HW1 3515   6.008   1.891   2.421
  872SOL    HW2 3516   5.872   1.957   2.358
  873SOL     OW 3517   4.150   6.955   5.130
  873SOL    HW1 3518   4.212   6.881   5.105
  873SOL    HW2 3519   4.169   6.984   5.224
  874SOL     OW 3520   0.345   3.529   6.274
  874SOL    HW1 3521   0.389   3.498   6.190
  874SOL    HW2 3522   0.393   3.609   6.310
  875SOL     OW 3523   5.802   5.057   6.411
  875SOL    HW1 3524   5.875   5.004   6.456
  875SOL    HW2 3525   5.815   5.154   6.430
  876SOL     OW 3526   0.974   1.814   0.881
  876SOL    HW1 3527   1.036   1.873   0.829
  876SOL    HW2 3528   0.880   1.835   0.856
  877SOL     OW 3529   6.024   6.268   0.240
  877SOL    HW1 3530   5.946   6.253   0.300
  877SOL    HW2 3531   6.005   6.228   0.150
  878SOL     OW 3532   3.511   2.280   0.053
  878SOL    HW1 3533   3.515   2.343   0.130
  878SOL    HW2 3534   3.599   2.277   0.007
  879SOL     OW 3535   3.960   2.118   2.606
  879SOL    HW1 3536   4.037   2.059   2.628
  879SOL    HW2 3537   3.961   2.140   2.508
  880SOL     OW 3538   4.381   5.740   1.653
  880SOL    HW1 3539   4.364   5.819   1.712
  880SOL    HW2 3540   4.479   5.725   1.645
  881SOL     OW 3541   4.585   5.365   4.107
  881SOL    HW1 3542   4.637   5.324   4.182
  881SOL    HW2 3543   4.593   5.465   4.112
  882SOL     OW 3544   0.955   2.346   4.150
  882SOL    HW1 3545   0.870   2.312   4.111
  882SOL    HW2 3546   0.989   2.282   4.218
  883SOL     OW 3547   4.030   4.002   6.945
  883SOL    HW1 3548   4.108   4.041   6.896
  883SOL    HW2 3549   3.962   4.073   6.963
  884SOL     OW 3550   4.176   3.830   1.804
  884SOL    HW1 3551   4.093   3.828   1.748
  884SOL    HW2 3552   4.153   3.810   1.899
  885SOL     OW 3553   4.532   6.107   6.318
  885SOL    HW1 3554   4.471   6.179   6.283
  885SOL    HW2 3555   4.494   6.072   6.404
  886SOL     OW 3556   3.957   1.781   6.677
  886SOL    HW1 3557   4.021   1.818   6.745
  886SOL    HW2 3558   3.865   1.817   6.694
  887SOL     OW 3559   5.327   6.991   6.051
  887SOL    HW1 3560   5.344   0.013   5.963
  887SOL    HW2 3561   5.407   7.001   6.110
  888SOL     OW 3562   6.767   5.969   3.329
  888SOL    HW1 3563   6.860   5.950   3.360
  888SOL    HW2 3564   6.737   6.057   3.366
  889SOL     OW 3565   1.246   6.992   4.457
  889SOL    HW1 3566   1.248   0.069   4.446
  889SOL    HW2 3567   1.338   6.955   4.444
  890SOL     OW 3568   1.646   4.347   2.242
  890SOL    HW1 3569   1.735   4.347   2.196
  890SOL    HW2 3570   1.614   4.441   2.252
  891SOL     OW 3571   5.668   3.786   6.210
  891SOL    HW1 3572   5.642   3.846   6.285
  891SOL    HW2 3573   5.718   3.707   6.246
  892SOL     OW 3574   2.202   5.330   1.545
  892SOL    HW1 3575   2.217   5.390   1.624
  892SOL    HW2 3576   2.283   5.274   1.529
  893SOL     OW 3577   1.715   6.809   1.530
  893SOL    HW1 3578   1.765   6.887   1.493
  893SOL    HW2 3579   1.773   6.727   1.527
  894SOL     OW 3580   1.259   5.287   4.023
  894SOL    HW1 3581   1.200   5.367   4.017
  894SOL    HW2 3582   1.305   5.285   4.112
  895SOL     OW 3583   2.359   0.887   4.652
  895SOL    HW1 3584   2.312   0.970   4.624
  895SOL    HW2 3585   2.294   0.811   4.653
  896SOL     OW 3586   5.435   6.850   3.676
  896SOL    HW1 3587   5.390   6.924   3.626
  896SOL    HW2 3588   5.519   6.823   3.627
  897SOL     OW 3589   4.745   2.235   6.217
  897SOL    HW1 3590   4.760   2.303   6.289
  897SOL    HW2 3591   4.653   2.198   6.225
  898SOL     OW 3592   5.495   5.743   3.806
  898SOL    HW1 3593   5.469   5.828   3.852
  898SOL    HW2 3594   5.415   5.684   3.797
  899SOL     OW 3595   1.274   4.478   0.090
  899SOL    HW1 3596   1.200   4.540   0.061
  899SOL    HW2 3597   1.288   4.408   0.019
  900SOL     OW 3598   0.606   5.814   3.551
  900SOL    HW1 3599   0.685   5.853   3.598
  900SOL    HW2 3600   0.529   5.877   3.559
  901SOL     OW 3601   5.780   1.616   3.488
  901SOL    HW1 3602   5.703   1.674   3.461
  901SOL    HW2 3603   5.836   1.665   3.554
  902SOL     OW 3604   1.016   6.188   6.865
  902SOL    HW1 3605   1.013   6.167   6.963
  902SOL    HW2 3606   1.067   6.117   6.817
  903SOL     OW 3607   0.700   5.055   6.422
  903SOL    HW1 3608   0.617   4.999   6.416
  903SOL    HW2 3609   0.771   5.002   6.469
  904SOL     OW 3610   1.547   1.106   3.843
  904SOL    HW1 3611   1.603   1.024   3.831
  904SOL    HW2 3612   1.453   1.079   3.865
  905SOL     OW 3613   6.168   1.743   5.410
  905SOL    HW1 3614   6.170   1.647   5.381
  905SOL    HW2 3615   6.213   1.799   5.340
  906SOL     OW 3616   6.703   4.176   5.493
  906SOL    HW1 3617   6.642   4.098   5.486
  906SOL    HW2 3618   6.676   4.233   5.571
  907SOL     OW 3619   0.207   3.326   1.688
  907SOL    HW1 3620   0.250   3.352   1.774
  907SOL    HW2 3621   0.140   3.254   1.705
  908SOL     OW 3622   2.141   0.767   3.183
  908SOL    HW1 3623   2.239   0.779   3.197
  908SOL    HW2 3624   2.091   0.811   3.258
  909SOL     OW 3625   4.355   0.051   1.049
  909SOL    HW1 3626   4.402   0.109   1.115
  909SOL    HW2 3627   4.407   6.989   1.034
  910SOL     OW 3628   2.022   1.754   1.683
  910SOL    HW1 3629   1.987   1.814   1.611
  910SOL    HW2 3630   1.954   1.747   1.756
  911SOL     OW 3631   0.423   3.997   0.657
  911SOL    HW1 3632   0.363   3.961   0.729
  911SOL    HW2 3633   0.518   3.984   0.683
  912SOL     OW 3634   0.985   0.708   6.233
  912SOL    HW1 3635   0.930   0.656   6.298
  912SOL    HW2 3636   1.081   0.703   6.260
  913SOL     OW 3637   1.979   1.203   1.760
  913SOL    HW1 3638   1.970   1.155   1.847
  913SOL    HW2 3639   1.960   1.301   1.774
  914SOL     OW 3640   2.894   6.064   2.515
  914SOL    HW1 3641   2.867   6.027   2.426
  914SOL    HW2 3642   2.828   6.036   2.585
  915SOL     OW 3643   1.494   2.626   0.417
  915SOL    HW1 3644   1.483   2.700   0.484
  915SOL    HW2 3645   1.467   2.539   0.459
  916SOL     OW 3646   1.599   3.162   2.113
  916SOL    HW1 3647   1.628   3.240   2.057
  916SOL    HW2 3648   1.514   3.125   2.078
  917SOL     OW 3649   3.178   1.790   6.525
  917SOL    HW1 3650   3.157   1.874   6.574
  917SOL    HW2 3651   3.133   1.792   6.435
  918SOL     OW 3652   0.458   0.975   5.272
  918SOL    HW1 3653   0.383   1.015   5.219
  918SOL    HW2 3654   0.428   0.962   5.367
  919SOL     OW 3655   1.882   6.723   1.072
  919SOL    HW1 3656   1.899   6.625   1.076
  919SOL    HW2 3657   1.808   6.742   1.007
  920SOL     OW 3658   1.634   1.204   3.580
  920SOL    HW1 3659   1.732   1.214   3.562
  920SOL    HW2 3660   1.620   1.185   3.677
  921SOL     OW 3661   4.254   4.357   0.410
  921SOL    HW1 3662   4.267   4.357   0.311
  921SOL    HW2 3663   4.164   4.319   0.432
  922SOL     OW 3664   1.972   5.014   6.275
  922SOL    HW1 3665   2.069   4.991   6.268
  922SOL    HW2 3666   1.960   5.095   6.332
  923SOL     OW 3667   3.792   1.428   6.660
  923SOL    HW1 3668   3.722   1.475   6.713
  923SOL    HW2 3669   3.757   1.410   6.568
  924SOL     OW 3670   6.936   4.394   2.559
  924SOL    HW1 3671   7.004   4.426   2.492
  924SOL    HW2 3672   6.895   4.309   2.525
  925SOL     OW 3673   6.977   1.877   3.239
  925SOL    HW1 3674   6.883   1.855   3.215
  925SOL    HW2 3675   6.988   1.976   3.243
  926SOL     OW 3676   5.220   6.460   0.362
  926SOL    HW1 3677   5.199   6.378   0.308
  926SOL    HW2 3678   5.314   6.490   0.343
  927SOL     OW 3679   4.678   5.731   4.585
  927SOL    HW1 3680   4.669   5.741   4.486
  927SOL    HW2 3681   4.757   5.783   4.617
  928SOL     OW 3682   0.643   1.275   1.376
  928SOL    HW1 3683   0.634   1.222   1.292
  928SOL    HW2 3684   0.554   1.314   1.400
  929SOL     OW 3685   0.003   2.629   2.538
  929SOL    HW1 3686   0.037   2.628   2.632
  929SOL    HW2 3687   0.080   2.619   2.475
  930SOL     OW 3688   5.365   5.330   2.617
  930SOL    HW1 3689   5.424   5.251   2.604
  930SOL    HW2 3690   5.378   5.366   2.710
  931SOL     OW 3691   1.684   3.009   1.856
  931SOL    HW1 3692   1.713   3.104   1.852
  931SOL    HW2 3693   1.596   3.002   1.904
  932SOL     OW 3694   4.659   6.361   1.338
  932SOL    HW1 3695   4.660   6.292   1.265
  932SOL    HW2 3696   4.641   6.315   1.425
  933SOL     OW 3697   1.409   6.320   4.200
  933SOL    HW1 3698   1.404   6.249   4.129
  933SOL    HW2 3699   1.340   6.390   4.182
  934SOL     OW 3700   3.066   0.852   5.523
  934SOL    HW1 3701   3.032   0.796   5.599
  934SOL    HW2 3702   3.039   0.809   5.436
  935SOL     OW 3703   1.635   3.617   5.580
  935SOL    HW1 3704   1.632   3.547   5.508
  935SOL    HW2 3705   1.592   3.581   5.663
  936SOL     OW 3706   0.311   1.864   1.628
  936SOL    HW1 3707   0.362   1.779   1.615
  936SOL    HW2 3708   0.375   1.939   1.641
  937SOL     OW 3709   5.213   2.239   3.192
  937SOL    HW1 3710   5.293   2.285   3.230
  937SOL    HW2 3711   5.157   2.304   3.141
  938SOL     OW 3712   6.673   1.119   6.968
  938SOL    HW1 3713   6.612   1.180   7.018
  938SOL    HW2 3714   6.698   1.161   6.880
  939SOL     OW 3715   6.366   0.590   5.318
  939SOL    HW1 3716   6.466   0.588   5.316
  939SOL    HW2 3717   6.331   0.497   5.331
  940SOL     OW 3718   0.152   0.563   4.088
  940SOL    HW1 3719   0.250   0.564   4.105
  940SOL    HW2 3720   0.126   0.644   4.035
  941SOL     OW 3721   5.739   2.521   5.496
  941SOL    HW1 3722   5.735   2.606   5.443
  941SOL    HW2 3723   5.648   2.482   5.503
  942SOL     OW 3724   4.574   0.533   5.526
  942SOL    HW1 3725   4.553   0.462   5.458
  942SOL    HW2 3726   4.581   0.622   5.480
  943SOL     OW 3727   5.635   1.887   0.129
  943SOL    HW1 3728   5.660   1.949   0.055
  943SOL    HW2 3729   5.628   1.794   0.094
  944SOL     OW 3730   5.061   4.133   4.924
  944SOL    HW1 3731   4.968   4.097   4.910
  944SOL    HW2 3732   5.061   4.198   5.000
  945SOL     OW 3733   5.546   3.483   6.111
  945SOL    HW1 3734   5.633   3.505   6.067
  945SOL    HW2 3735   5.475   3.474   6.041
  946SOL     OW 3736   5.756   3.631   6.429
  946SOL    HW1 3737   5.748   3.714   6.483
  946SOL    HW2 3738   5.669   3.581   6.431
  947SOL     OW 3739   1.060   2.892   5.174
  947SOL    HW1 3740   1.029   2.971   5.121
  947SOL    HW2 3741   1.023   2.808   5.132
  948SOL     OW 3742   3.960   1.926   0.605
  948SOL    HW1 3743   4.057   1.902   0.598
  948SOL    HW2 3744   3.946   1.984   0.686
  949SOL     OW 3745   5.677   5.902   6.429
  949SOL    HW1 3746   5.604   5.928   6.366
  949SOL    HW2 3747   5.699   5.980   6.487
  950SOL     OW 3748   3.952   5.430   0.700
  950SOL    HW1 3749   3.985   5.339   0.674
  950SOL    HW2 3750   4.026   5.481   0.743
  951SOL     OW 3751   0.394   2.762   4.232
  951SOL    HW1 3752   0.392   2.862   4.234
  951SOL    HW2 3753   0.316   2.726   4.283
  952SOL     OW 3754   5.105   1.341   1.262
  952SOL    HW1 3755   5.012   1.376   1.277
  952SOL    HW2 3756   5.169   1.417   1.257
  953SOL     OW 3757   3.559   6.720   5.962
  953SOL    HW1 3758   3.569   6.751   6.057
  953SOL    HW2 3759   3.494   6.779   5.914
  954SOL     OW 3760   6.726   6.968   1.612
  954SOL    HW1 3761   6.717   6.873   1.584
  954SOL    HW2 3762   6.739   0.003   1.531
  955SOL     OW 3763   0.456   7.013   1.869
  955SOL    HW1 3764   0.392   0.015   1.941
  955SOL    HW2 3765   0.425   0.030   1.782
  956SOL     OW 3766   1.218   2.821   0.632
  956SOL    HW1 3767   1.315   2.807   0.612
  956SOL    HW2 3768   1.174   2.864   0.553
  957SOL     OW 3769   1.954   6.624   5.010
  957SOL    HW1 3770   1.930   6.690   5.081
  957SOL    HW2 3771   1.961   6.532   5.050
  958SOL     OW 3772   5.066   2.385   0.522
  958SOL    HW1 3773   5.030   2.332   0.599
  958SOL    HW2 3774   5.011   2.365   0.440
  959SOL     OW 3775   1.652   3.606   1.725
  959SOL    HW1 3776   1.604   3.527   1.687
  959SOL    HW2 3777   1.627   3.617   1.821
  960SOL     OW 3778   1.646   5.274   5.497
  960SOL    HW1 3779   1.742   5.296   5.486
  960SOL    HW2 3780   1.621   5.280   5.593
  961SOL     OW 3781   3.650   0.255   0.313
  961SOL    HW1 3782   3.618   0.314   0.388
  961SOL    HW2 3783   3.580   0.187   0.292
  962SOL     OW 3784   1.237   6.471   3.860
  962SOL    HW1 3785   1.176   6.541   3.897
  962SOL    HW2 3786   1.185   6.389   3.837
  963SOL     OW 3787   6.106   6.914   2.082
  963SOL    HW1 3788   6.040   6.986   2.060
  963SOL    HW2 3789   6.155   6.938   2.166
  964SOL     OW 3790   5.436   3.380   1.164
  964SOL    HW1 3791   5.353   3.354   1.113
  964SOL    HW2 3792   5.456   3.310   1.232
  965SOL     OW 3793   1.246   1.723   0.088
  965SOL    HW1 3794   1.203   1.808   0.057
  965SOL    HW2 3795   1.315   1.695   0.022
  966SOL     OW 3796   6.803   2.725   1.843
  966SOL    HW1 3797   6.884   2.729   1.901
  966SOL    HW2 3798   6.755   2.639   1.859
  967SOL     OW 3799   0.827   6.278   2.199
  967SOL    HW1 3800   0.900   6.242   2.140
  967SOL    HW2 3801   0.847   6.255   2.294
  968SOL     OW 3802   6.885   4.378   1.308
  968SOL    HW1 3803   6.788   4.395   1.291
  968SOL    HW2 3804   6.895   4.311   1.382
  969SOL     OW 3805   3.987   6.404   6.782
  969SOL    HW1 3806   3.969   6.435   6.688
  969SOL    HW2 3807   4.075   6.357   6.785
  970SOL     OW 3808   4.689   2.681   5.608
  970SOL    HW1 3809   4.651   2.613   5.546
  970SOL    HW2 3810   4.632   2.687   5.690
  971SOL     OW 3811   6.970   2.643   0.519
  971SOL    HW1 3812   6.873   2.637   0.545
  971SOL    HW2 3813   6.996   2.739   0.508
  972SOL     OW 3814   5.888   6.618   0.344
  972SOL    HW1 3815   5.891   6.717   0.354
  972SOL    HW2 3816   5.867   6.576   0.432
  973SOL     OW 3817   5.359   3.563   5.535
  973SOL    HW1 3818   5.435   3.498   5.541
  973SOL    HW2 3819   5.393   3.650   5.500
  974SOL     OW 3820   2.774   1.113   4.753
  974SOL    HW1 3821   2.784   1.064   4.840
  974SOL    HW2 3822   2.691   1.170   4.756
  975SOL     OW 3823   3.183   6.852   5.551
  975SOL    HW1 3824   3.209   6.761   5.584
  975SOL    HW2 3825   3.264   6.911   5.549
  976SOL     OW 3826   0.039   5.431   3.365
  976SOL    HW1 3827   0.029   5.516   3.313
  976SOL    HW2 3828   0.073   5.451   3.456
  977SOL     OW 3829   0.916   2.832   1.643
  977SOL    HW1 3830   0.975   2.874   1.574
  977SOL    HW2 3831   0.958   2.746   1.674
  978SOL     OW 3832   5.736   3.293   4.799
  978SOL    HW1 3833   5.640   3.287   4.770
  978SOL    HW2 3834   5.794   3.302   4.718
  979SOL     OW 3835   6.118   1.548   3.415
  979SOL    HW1 3836   6.047   1.522   3.480
  979SOL    HW2 3837   6.205   1.560   3.464
  980SOL     OW 3838   6.485   0.339   4.516
  980SOL    HW1 3839   6.392   0.367   4.539
  980SOL    HW2 3840   6.537   0.418   4.485
  981SOL     OW 3841   6.925   3.406   5.752
  981SOL    HW1 3842   6.996   3.336   5.760
  981SOL    HW2 3843   6.959   3.481   5.695
  982SOL     OW 3844   1.525   3.387   1.635
  982SOL    HW1 3845   1.580   3.304   1.627
  982SOL    HW2 3846   1.430   3.362   1.651
  983SOL     OW 3847   5.735   1.994   2.680
  983SOL    HW1 3848   5.765   1.907   2.641
  983SOL    HW2 3849   5.797   2.066   2.651
  984SOL     OW 3850   4.921   2.246   5.428
  984SOL    HW1 3851   4.847   2.193   5.468
  984SOL    HW2 3852   4.966   2.193   5.357
  985SOL     OW 3853   2.642   4.913   0.735
  985SOL    HW1 3854   2.656   4.967   0.818
  985SOL    HW2 3855   2.701   4.947   0.662
  986SOL     OW 3856   4.016   4.656   0.237
  986SOL    HW1 3857   4.078   4.618   0.305
  986SOL    HW2 3858   4.059   4.734   0.192
  987SOL     OW 3859   3.545   6.826   2.529
  987SOL    HW1 3860   3.480   6.787   2.464
  987SOL    HW2 3861   3.566   6.759   2.600
  988SOL     OW 3862   3.628   3.401   1.619
  988SOL    HW1 3863   3.703   3.354   1.571
  988SOL    HW2 3864   3.577   3.457   1.554
  989SOL     OW 3865   0.266   0.203   4.730
  989SOL    HW1 3866   0.366   0.201   4.744
  989SOL    HW2 3867   0.245   0.252   4.645
  990SOL     OW 3868   5.068   6.310   2.534
  990SOL    HW1 3869   4.968   6.307   2.541
  990SOL    HW2 3870   5.108   6.302   2.625
  991SOL     OW 3871   6.186   1.262   5.103
  991SOL    HW1 3872   6.278   1.300   5.092
  991SOL    HW2 3873   6.144   1.250   5.014
  992SOL     OW 3874   6.977   3.031   1.460
  992SOL    HW1 3875   6.902   3.070   1.407
  992SOL    HW2 3876   0.041   3.071   1.430
  993SOL     OW 3877   3.634   5.877   4.275
  993SOL    HW1 3878   3.673   5.859   4.365
  993SOL    HW2 3879   3.591   5.793   4.240
  994SOL     OW 3880   2.987   3.592   1.974
  994SOL    HW1 3881   3.071   3.541   1.956
  994SOL    HW2 3882   2.917   3.566   1.907
  995SOL     OW 3883   0.647   1.226   4.963
  995SOL    HW1 3884   0.688   1.224   4.872
  995SOL    HW2 3885   0.568   1.288   4.963
  996SOL     OW 3886   0.947   3.531   0.984
  996SOL    HW1 3887   0.954   3.610   1.044
  996SOL    HW2 3888   0.871   3.473   1.013
  997SOL     OW 3889   0.399   0.955   1.041
  997SOL    HW1 3890   0.485   0.907   1.056
  997SOL    HW2 3891   0.393   0.984   0.946
  998SOL     OW 3892   4.762   0.087   3.727
  998SOL    HW1 3893   4.767   7.009   3.735
  998SOL    HW2 3894   4.836   0.120   3.670
  999SOL     OW 3895   6.698   5.460   1.862
  999SOL    HW1 3896   6.782   5.511   1.842
  999SOL    HW2 3897   6.623   5.496   1.807
 1000SOL     OW 3898   4.266   2.326   4.456
 1000SOL    HW1 3899   4.197   2.261   4.424
 1000SOL    HW2 3900   4.234   2.372   4.539
 1001SOL     OW 3901   3.839   1.094   5.874
 1001SOL    HW1 3902   3.761   1.054   5.923
 1001SOL    HW2 3903   3.895   1.147   5.938
 1002SOL     OW 3904   0.203   1.192   0.265
 1002SOL    HW1 3905   0.204   1.288   0.292
 1002SOL    HW2 3906   0.128   1.145   0.312
 1003SOL     OW 3907   4.803   4.753   3.173
 1003SOL    HW1 3908   4.847   4.675   3.129
 1003SOL    HW2 3909   4.760   4.811   3.104
 1004SOL     OW 3910   5.968   5.655   0.604
 1004SOL    HW1 3911   6.040   5.695   0.661
 1004SOL    HW2 3912   5.906   5.727   0.573
 1005SOL     OW 3913   6.784   5.458   3.402
 1005SOL    HW1 3914   6.743   5.547   3.384
 1005SOL    HW2 3915   6.876   5.455   3.364
 1006SOL     OW 3916   2.324   4.552   0.512
 1006SOL    HW1 3917   2.422   4.560   0.491
 1006SOL    HW2 3918   2.304   4.603   0.595
 1007SOL     OW 3919   1.182   0.904   3.363
 1007SOL    HW1 3920   1.104   0.965   3.356
 1007SOL    HW2 3921   1.248   0.941   3.429
 1008SOL     OW 3922   2.782   2.327   4.352
 1008SOL    HW1 3923   2.777   2.237   4.309
 1008SOL    HW2 3924   2.867   2.334   4.405
 1009SOL     OW 3925   2.718   5.810   5.236
 1009SOL    HW1 3926   2.813   5.830   5.259
 1009SOL    HW2 3927   2.713   5.773   5.144
 1010SOL     OW 3928   4.286   0.892   6.389
 1010SOL    HW1 3929   4.385   0.886   6.399
 1010SOL    HW2 3930   4.263   0.977   6.341
 1011SOL     OW 3931   3.644   5.614   3.863
 1011SOL    HW1 3932   3.637   5.547   3.788
 1011SOL    HW2 3933   3.603   5.700   3.834
 1012SOL     OW 3934   3.774   5.383   6.942
 1012SOL    HW1 3935   3.695   5.431   6.981
 1012SOL    HW2 3936   3.845   5.449   6.919
 1013SOL     OW 3937   0.343   0.826   0.389
 1013SOL    HW1 3938   0.318   0.778   0.474
 1013SOL    HW2 3939   0.267   0.818   0.324
 1014SOL     OW 3940   4.860   0.669   6.472
 1014SOL    HW1 3941   4.836   0.605   6.399
 1014SOL    HW2 3942   4.886   0.757   6.432
 1015SOL     OW 3943   3.580   6.700   4.780
 1015SOL    HW1 3944   3.675   6.728   4.766
 1015SOL    HW2 3945   3.566   6.680   4.877
 1016SOL     OW 3946   4.429   2.428   2.373
 1016SOL    HW1 3947   4.401   2.478   2.291
 1016SOL    HW2 3948   4.507   2.475   2.415
 1017SOL     OW 3949   4.969   1.447   6.920
 1017SOL    HW1 3950   5.025   1.438   7.002
 1017SOL    HW2 3951   4.935   1.541   6.913
 1018SOL     OW 3952   1.354   2.924   1.731
 1018SOL    HW1 3953   1.299   2.841   1.717
 1018SOL    HW2 3954   1.323   2.995   1.668
 1019SOL     OW 3955   5.664   1.024   0.407
 1019SOL    HW1 3956   5.725   1.080   0.350
 1019SOL    HW2 3957   5.607   1.083   0.463
 1020SOL     OW 3958   3.229   2.135   1.166
 1020SOL    HW1 3959   3.206   2.063   1.101
 1020SOL    HW2 3960   3.151   2.152   1.226
 1021SOL     OW 3961   6.476   1.089   0.878
 1021SOL    HW1 3962   6.415   1.120   0.805
 1021SOL    HW2 3963   6.569   1.122   0.860
 1022SOL     OW 3964   3.083   2.189   6.873
 1022SOL    HW1 3965   3.116   2.282   6.889
 1022SOL    HW2 3966   3.062   2.146   6.961
 1023SOL     OW 3967   5.760   0.825   4.574
 1023SOL    HW1 3968   5.711   0.865   4.497
 1023SOL    HW2 3969   5.847   0.786   4.543
 1024SOL     OW 3970   6.218   1.341   4.228
 1024SOL    HW1 3971   6.285   1.288   4.177
 1024SOL    HW2 3972   6.163   1.280   4.285
 1025SOL     OW 3973   3.456   4.273   1.457
 1025SOL    HW1 3974   3.526   4.330   1.500
 1025SOL    HW2 3975   3.405   4.224   1.527
 1026SOL     OW 3976   0.923   3.159   6.499
 1026SOL    HW1 3977   0.981   3.237   6.520
 1026SOL    HW2 3978   0.902   3.109   6.583
 1027SOL     OW 3979   2.521   4.957   1.892
 1027SOL    HW1 3980   2.487   4.889   1.957
 1027SOL    HW2 3981   2.604   4.999   1.927
 1028SOL     OW 3982   0.861   6.282   0.525
 1028SOL    HW1 3983   0.823   6.348   0.590
 1028SOL    HW2 3984   0.787   6.229   0.484
 1029SOL     OW 3985   3.192   0.902   5.097
 1029SOL    HW1 3986   3.247   0.872   5.019
 1029SOL    HW2 3987   3.241   0.974   5.146
 1030SOL     OW 3988   3.814   4.442   5.415
 1030SOL    HW1 3989   3.860   4.354   5.407
 1030SOL    HW2 3990   3.828   4.479   5.507
 1031SOL     OW 3991   1.870   5.318   0.799
 1031SOL    HW1 3992   1.907   5.344   0.888
 1031SOL    HW2 3993   1.943   5.311   0.732
 1032SOL     OW 3994   1.708   1.376   4.663
 1032SOL    HW1 3995   1.720   1.280   4.688
 1032SOL    HW2 3996   1.797   1.417   4.644
 1033SOL     OW 3997   2.601   6.196   3.296
 1033SOL    HW1 3998   2.508   6.232   3.289
 1033SOL    HW2 3999   2.666   6.263   3.262
 1034SOL     OW 4000   1.285   6.730   1.993
 1034SOL    HW1 4001   1.354   6.690   1.933
 1034SOL    HW2 4002   1.313   6.822   2.019
 1035SOL     OW 4003   2.979   0.521   4.175
 1035SOL    HW1 4004   2.997   0.522   4.077
 1035SOL    HW2 4005   2.894   0.570   4.194
 1036SOL     OW 4006   4.212   6.954   6.259
 1036SOL    HW1 4007   4.303   6.988   6.283
 1036SOL    HW2 4008   4.147   0.007   6.259
 1037SOL     OW 4009   2.583   1.930   6.373
 1037SOL    HW1 4010   2.631   1.988   6.307
 1037SOL    HW2 4011   2.616   1.951   6.466
 1038SOL     OW 4012   2.365   1.287   5.449
 1038SOL    HW1 4013   2.342   1.266   5.544
 1038SOL    HW2 4014   2.329   1.216   5.389
 1039SOL     OW 4015   4.326   2.241   3.417
 1039SOL    HW1 4016   4.232   2.208   3.410
 1039SOL    HW2 4017   4.380   2.205   3.341
 1040SOL     OW 4018   5.751   3.616   4.153
 1040SOL    HW1 4019   5.685   3.632   4.079
 1040SOL    HW2 4020   5.718   3.660   4.237
 1041SOL     OW 4021   1.704   6.902   4.270
 1041SOL    HW1 4022   1.678   6.885   4.175
 1041SOL    HW2 4023   1.804   6.903   4.278
 1042SOL     OW 4024   4.923   3.848   0.963
 1042SOL    HW1 4025   4.885   3.921   1.019
 1042SOL    HW2 4026   4.999   3.883   0.908
 1043SOL     OW 4027   3.461   7.012   6.746
 1043SOL    HW1 4028   3.425   6.925   6.781
 1043SOL    HW2 4029   3.502   0.041   6.821
 1044SOL     OW 4030   3.899   3.930   1.933
 1044SOL    HW1 4031   3.841   3.994   1.983
 1044SOL    HW2 4032   3.970   3.895   1.994
 1045SOL     OW 4033   4.076   1.395   3.635
 1045SOL    HW1 4034   4.128   1.337   3.698
 1045SOL    HW2 4035   4.093   1.366   3.541
 1046SOL     OW 4036   3.674   1.491   2.236
 1046SOL    HW1 4037   3.622   1.577   2.237
 1046SOL    HW2 4038   3.742   1.494   2.164
 1047SOL     OW 4039   0.738   5.457   1.835
 1047SOL    HW1 4040   0.745   5.521   1.758
 1047SOL    HW2 4041   0.715   5.508   1.918
 1048SOL     OW 4042   6.466   4.581   5.182
 1048SOL    HW1 4043   6.442   4.650   5.114
 1048SOL    HW2 4044   6.545   4.529   5.150
 1049SOL     OW 4045   0.685   3.361   4.543
 1049SOL    HW1 4046   0.753   3.289   4.527
 1049SOL    HW2 4047   0.687   3.426   4.467
 1050SOL     OW 4048   2.926   0.777   0.335
 1050SOL    HW1 4049   2.839   0.791   0.383
 1050SOL    HW2 4050   2.966   0.865   0.313
 1051SOL     OW 4051   4.823   4.663   2.671
 1051SOL    HW1 4052   4.765   4.597   2.719
 1051SOL    HW2 4053   4.891   4.613   2.616
 1052SOL     OW 4054   3.854   0.674   4.477
 1052SOL    HW1 4055   3.836   0.723   4.392
 1052SOL    HW2 4056   3.938   0.708   4.518
 1053SOL     OW 4057   3.804   5.140   3.546
 1053SOL    HW1 4058   3.882   5.173   3.599
 1053SOL    HW2 4059   3.837   5.089   3.466
 1054SOL     OW 4060   4.137   6.100   4.216
 1054SOL    HW1 4061   4.083   6.125   4.297
 1054SOL    HW2 4062   4.075   6.087   4.138
 1055SOL     OW 4063   4.149   5.606   3.651
 1055SOL    HW1 4064   4.178   5.535   3.716
 1055SOL    HW2 4065   4.082   5.567   3.587
 1056SOL     OW 4066   1.981   5.597   6.066
 1056SOL    HW1 4067   1.973   5.668   6.136
 1056SOL    HW2 4068   1.893   5.548   6.059
 1057SOL     OW 4069   3.880   4.036   1.154
 1057SOL    HW1 4070   3.917   4.120   1.194
 1057SOL    HW2 4071   3.911   3.957   1.207
 1058SOL     OW 4072   3.096   6.871   1.853
 1058SOL    HW1 4073   3.074   6.965   1.879
 1058SOL    HW2 4074   3.196   6.859   1.855
 1059SOL     OW 4075   3.499   0.824   0.443
 1059SOL    HW1 4076   3.400   0.816   0.453
 1059SOL    HW2 4077   3.520   0.883   0.365
 1060SOL     OW 4078   2.214   1.628   4.482
 1060SOL    HW1 4079   2.123   1.657   4.513
 1060SOL    HW2 4080   2.267   1.708   4.457
 1061SOL     OW 4081   3.073   5.831   1.137
 1061SOL    HW1 4082   3.090   5.903   1.204
 1061SOL    HW2 4083   2.977   5.803   1.140
 1062SOL     OW 4084   5.060   4.904   5.123
 1062SOL    HW1 4085   5.085   4.996   5.151
 1062SOL    HW2 4086   4.992   4.909   5.049
 1063SOL     OW 4087   2.611   3.081   5.986
 1063SOL    HW1 4088   2.557   3.153   6.029
 1063SOL    HW2 4089   2.564   2.993   5.998
 1064SOL     OW 4090   0.302   3.663   1.822
 1064SOL    HW1 4091   0.262   3.654   1.732
 1064SOL    HW2 4092   0.252   3.606   1.887
 1065SOL     OW 4093   4.418   4.836   5.343
 1065SOL    HW1 4094   4.501   4.869   5.388
 1065SOL    HW2 4095   4.393   4.898   5.269
 1066SOL     OW 4096   4.091   7.022   3.301
 1066SOL    HW1 4097   4.150   6.971   3.364
 1066SOL    HW2 4098   4.014   6.964   3.275
 1067SOL     OW 4099   2.629   3.348   0.815
 1067SOL    HW1 4100   2.613   3.404   0.734
 1067SOL    HW2 4101   2.693   3.275   0.792
 1068SOL     OW 4102   0.340   4.306   0.815
 1068SOL    HW1 4103   0.301   4.347   0.732
 1068SOL    HW2 4104   0.421   4.252   0.791
 1069SOL     OW 4105   3.525   3.495   1.838
 1069SOL    HW1 4106   3.587   3.465   1.766
 1069SOL    HW2 4107   3.568   3.481   1.927
 1070SOL     OW 4108   2.620   6.863   0.782
 1070SOL    HW1 4109   2.603   6.785   0.842
 1070SOL    HW2 4110   2.665   6.832   0.699
 1071SOL     OW 4111   4.636   6.030   3.677
 1071SOL    HW1 4112   4.590   5.994   3.758
 1071SOL    HW2 4113   4.592   5.994   3.595
 1072SOL     OW 4114   3.300   5.566   2.748
 1072SOL    HW1 4115   3.334   5.572   2.654
 1072SOL    HW2 4116   3.236   5.642   2.764
 1073SOL     OW 4117   2.626   5.484   2.830
 1073SOL    HW1 4118   2.657   5.487   2.735
 1073SOL    HW2 4119   2.702   5.456   2.888
 1074SOL     OW 4120   1.197   5.224   2.250
 1074SOL    HW1 4121   1.170   5.284   2.175
 1074SOL    HW2 4122   1.280   5.261   2.293
 1075SOL     OW 4123   0.759   4.076   2.803
 1075SOL    HW1 4124   0.744   3.990   2.852
 1075SOL    HW2 4125   0.761   4.058   2.705
 1076SOL     OW 4126   0.037   4.186   2.761
 1076SOL    HW1 4127   0.006   4.278   2.740
 1076SOL    HW2 4128   0.133   4.189   2.790
 1077SOL     OW 4129   5.435   0.967   1.391
 1077SOL    HW1 4130   5.511   1.013   1.437
 1077SOL    HW2 4131   5.468   0.919   1.310
 1078SOL     OW 4132   0.670   3.379   1.598
 1078SOL    HW1 4133   0.624   3.372   1.509
 1078SOL    HW2 4134   0.752   3.435   1.589
 1079SOL     OW 4135   2.443   5.662   2.858
 1079SOL    HW1 4136   2.501   5.582   2.865
 1079SOL    HW2 4137   2.449   5.716   2.941
 1080SOL     OW 4138   1.650   5.958   3.839
 1080SOL    HW1 4139   1.622   5.894   3.768
 1080SOL    HW2 4140   1.678   5.908   3.921
 1081SOL     OW 4141   1.686   1.508   0.453
 1081SOL    HW1 4142   1.608   1.446   0.460
 1081SOL    HW2 4143   1.749   1.474   0.383
 1082SOL     OW 4144   2.199   6.687   0.751
 1082SOL    HW1 4145   2.202   6.638   0.663
 1082SOL    HW2 4146   2.117   6.743   0.755
 1083SOL     OW 4147   3.428   2.399   1.702
 1083SOL    HW1 4148   3.372   2.318   1.680
 1083SOL    HW2 4149   3.507   2.371   1.755
 1084SOL     OW 4150   6.230   3.139   1.050
 1084SOL    HW1 4151   6.167   3.183   0.986
 1084SOL    HW2 4152   6.249   3.200   1.126
 1085SOL     OW 4153   1.080   4.803   3.265
 1085SOL    HW1 4154   1.023   4.849   3.332
 1085SOL    HW2 4155   1.070   4.704   3.275
 1086SOL     OW 4156   4.145   4.981   2.166
 1086SOL    HW1 4157   4.050   4.966   2.193
 1086SOL    HW2 4158   4.168   4.921   2.090
 1087SOL     OW 4159   4.045   3.725   4.879
 1087SOL    HW1 4160   4.089   3.717   4.968
 1087SOL    HW2 4161   4.090   3.664   4.813
 1088SOL     OW 4162   5.887   4.486   2.700
 1088SOL    HW1 4163   5.978   4.528   2.694
 1088SOL    HW2 4164   5.859   4.455   2.609
 1089SOL     OW 4165   6.605   6.898   3.436
 1089SOL    HW1 4166   6.522   6.951   3.456
 1089SOL    HW2 4167   6.642   6.861   3.522
 1090SOL     OW 4168   1.661   1.931   6.340
 1090SOL    HW1 4169   1.634   2.023   6.312
 1090SOL    HW2 4170   1.581   1.881   6.373
 1091SOL     OW 4171   1.242   2.900   5.391
 1091SOL    HW1 4172   1.167   2.941   5.338
 1091SOL    HW2 4173   1.221   2.907   5.488
 1092SOL     OW 4174   1.826   4.526   1.216
 1092SOL    HW1 4175   1.747   4.586   1.226
 1092SOL    HW2 4176   1.822   4.453   1.285
 1093SOL     OW 4177   0.248   2.316   1.830
 1093SOL    HW1 4178   0.208   2.366   1.754
 1093SOL    HW2 4179   0.185   2.315   1.907
 1094SOL     OW 4180   0.891   6.860   1.946
 1094SOL    HW1 4181   0.823   6.846   1.874
 1094SOL    HW2 4182   0.870   6.946   1.994
 1095SOL     OW 4183   6.592   3.545   5.647
 1095SOL    HW1 4184   6.555   3.513   5.735
 1095SOL    HW2 4185   6.623   3.639   5.657
 1096SOL     OW 4186   3.884   3.498   1.876
 1096SOL    HW1 4187   3.804   3.551   1.847
 1096SOL    HW2 4188   3.933   3.465   1.795
 1097SOL     OW 4189   2.282   4.212   5.569
 1097SOL    HW1 4190   2.358   4.220   5.505
 1097SOL    HW2 4191   2.238   4.302   5.580
 1098SOL     OW 4192   3.979   0.830   3.000
 1098SOL    HW1 4193   4.072   0.865   3.012
 1098SOL    HW2 4194   3.966   0.800   2.906
 1099SOL     OW 4195   3.696   1.142   2.846
 1099SOL    HW1 4196   3.639   1.159   2.766
 1099SOL    HW2 4197   3.659   1.064   2.897
 1100SOL     OW 4198   6.480   0.605   6.882
 1100SOL    HW1 4199   6.406   0.539   6.891
 1100SOL    HW2 4200   6.472   0.652   6.794
 1101SOL     OW 4201   5.831   3.106   1.068
 1101SOL    HW1 4202   5.802   3.032   1.009
 1101SOL    HW2 4203   5.767   3.182   1.061
 1102SOL     OW 4204   0.054   4.193   3.642
 1102SOL    HW1 4205   0.065   4.258   3.717
 1102SOL    HW2 4206   6.984   4.155   3.644
 1103SOL     OW 4207   0.452   3.323   0.651
 1103SOL    HW1 4208   0.390   3.377   0.707
 1103SOL    HW2 4209   0.426   3.331   0.555
 1104SOL     OW 4210   2.870   4.893   6.094
 1104SOL    HW1 4211   2.955   4.902   6.145
 1104SOL    HW2 4212   2.869   4.960   6.019
 1105SOL     OW 4213   4.273   5.287   0.867
 1105SOL    HW1 4214   4.326   5.266   0.785
 1105SOL    HW2 4215   4.273   5.386   0.882
 1106SOL     OW 4216   1.200   1.215   6.514
 1106SOL    HW1 4217   1.153   1.282   6.573
 1106SOL    HW2 4218   1.151   1.128   6.516
 1107SOL     OW 4219   6.765   6.881   1.021
 1107SOL    HW1 4220   6.717   6.967   1.030
 1107SOL    HW2 4221   6.790   6.867   0.925
 1108SOL     OW 4222   0.519   1.010   7.012
 1108SOL    HW1 4223   0.584   0.986   0.061
 1108SOL    HW2 4224   0.528   0.947   6.935
 1109SOL     OW 4225   5.021   0.885   3.819
 1109SOL    HW1 4226   5.033   0.813   3.750
 1109SOL    HW2 4227   5.110   0.908   3.858
 1110SOL     OW 4228   3.268   2.929   2.008
 1110SOL    HW1 4229   3.352   2.966   1.970
 1110SOL    HW2 4230   3.200   2.918   1.935
 1111SOL     OW 4231   4.405   0.230   6.549
 1111SOL    HW1 4232   4.499   0.261   6.535
 1111SOL    HW2 4233   4.392   0.204   6.644
 1112SOL     OW 4234   0.928   1.293   2.647
 1112SOL    HW1 4235   0.989   1.217   2.626
 1112SOL    HW2 4236   0.834   1.268   2.624
 1113SOL     OW 4237   5.776   4.295   2.038
 1113SOL    HW1 4238   5.867   4.284   2.000
 1113SOL    HW2 4239   5.708   4.264   1.972
 1114SOL     OW 4240   5.822   0.976   5.662
 1114SOL    HW1 4241   5.761   0.945   5.735
 1114SOL    HW2 4242   5.914   0.940   5.678
 1115SOL     OW 4243   3.378   4.382   0.834
 1115SOL    HW1 4244   3.361   4.384   0.736
 1115SOL    HW2 4245   3.298   4.417   0.883
 1116SOL     OW 4246   3.610   6.461   6.056
 1116SOL    HW1 4247   3.602   6.544   6.001
 1116SOL    HW2 4248   3.690   6.408   6.026
 1117SOL     OW 4249   2.313   2.528   1.013
 1117SOL    HW1 4250   2.323   2.561   1.107
 1117SOL    HW2 4251   2.319   2.606   0.950
 1118SOL     OW 4252   1.743   3.151   2.655
 1118SOL    HW1 4253   1.821   3.199   2.696
 1118SOL    HW2 4254   1.757   3.143   2.557
 1119SOL     OW 4255   2.937   3.773   2.897
 1119SOL    HW1 4256   2.849   3.818   2.880
 1119SOL    HW2 4257   2.965   3.723   2.816
 1120SOL     OW 4258   5.144   1.391   4.266
 1120SOL    HW1 4259   5.114   1.390   4.361
 1120SOL    HW2 4260   5.237   1.428   4.261
 1121SOL     OW 4261   5.350   3.217   2.661
 1121SOL    HW1 4262   5.448   3.233   2.654
 1121SOL    HW2 4263   5.303   3.304   2.673
 1122SOL     OW 4264   4.317   4.914   0.224
 1122SOL    HW1 4265   4.349   4.862   0.303
 1122SOL    HW2 4266   4.280   5.001   0.254
 1123SOL     OW 4267   3.923   1.082   2.000
 1123SOL    HW1 4268   3.833   1.070   1.959
 1123SOL    HW2 4269   3.932   1.023   2.080
 1124SOL     OW 4270   0.947   4.838   4.433
 1124SOL    HW1 4271   1.010   4.915   4.441
 1124SOL    HW2 4272   0.965   4.772   4.507
 1125SOL     OW 4273   2.987   3.387   4.705
 1125SOL    HW1 4274   3.046   3.468   4.703
 1125SOL    HW2 4275   2.943   3.381   4.794
 1126SOL     OW 4276   6.420   0.297   2.507
 1126SOL    HW1 4277   6.449   0.205   2.479
 1126SOL    HW2 4278   6.348   0.290   2.576
 1127SOL     OW 4279   1.918   5.336   6.345
 1127SOL    HW1 4280   1.943   5.330   6.441
 1127SOL    HW2 4281   1.820   5.320   6.334
 1128SOL     OW 4282   2.376   1.621   3.759
 1128SOL    HW1 4283   2.431   1.704   3.768
 1128SOL    HW2 4284   2.335   1.618   3.668
 1129SOL     OW 4285   4.456   0.105   6.242
 1129SOL    HW1 4286   4.437   0.189   6.191
 1129SOL    HW2 4287   4.507   0.127   6.325
 1130SOL     OW 4288   0.022   5.500   6.264
 1130SOL    HW1 4289   0.066   5.590   6.265
 1130SOL    HW2 4290   0.030   5.458   6.354
 1131SOL     OW 4291   0.757   4.930   5.302
 1131SOL    HW1 4292   0.697   4.921   5.222
 1131SOL    HW2 4293   0.852   4.916   5.275
 1132SOL     OW 4294   5.304   0.239   5.207
 1132SOL    HW1 4295   5.323   0.188   5.123
 1132SOL    HW2 4296   5.320   0.180   5.286
 1133SOL     OW 4297   7.015   2.528   6.967
 1133SOL    HW1 4298   0.008   2.559   0.039
 1133SOL    HW2 4299   0.079   2.533   6.916
 1134SOL     OW 4300   6.474   2.493   5.726
 1134SOL    HW1 4301   6.387   2.512   5.771
 1134SOL    HW2 4302   6.527   2.578   5.718
 1135SOL     OW 4303   6.250   1.608   4.189
 1135SOL    HW1 4304   6.175   1.638   4.131
 1135SOL    HW2 4305   6.232   1.515   4.222
 1136SOL     OW 4306   3.689   5.242   3.966
 1136SOL    HW1 4307   3.755   5.282   3.903
 1136SOL    HW2 4308   3.612   5.305   3.979
 1137SOL     OW 4309   1.245   0.921   6.180
 1137SOL    HW1 4310   1.216   0.864   6.103
 1137SOL    HW2 4311   1.267   0.862   6.258
 1138SOL     OW 4312   0.408   4.270   5.826
 1138SOL    HW1 4313   0.506   4.266   5.847
 1138SOL    HW2 4314   0.383   4.365   5.804
 1139SOL     OW 4315   0.928   6.600   1.201
 1139SOL    HW1 4316   1.011   6.628   1.250
 1139SOL    HW2 4317   0.947   6.517   1.148
 1140SOL     OW 4318   3.817   1.561   3.858
 1140SOL    HW1 4319   3.859   1.621   3.791
 1140SOL    HW2 4320   3.875   1.482   3.874
 1141SOL     OW 4321   6.895   5.967   5.573
 1141SOL    HW1 4322   6.941   5.954   5.660
 1141SOL    HW2 4323   6.852   6.058   5.571
 1142SOL     OW 4324   6.185   0.751   4.146
 1142SOL    HW1 4325   6.097   0.711   4.121
 1142SOL    HW2 4326   6.211   0.718   4.237
 1143SOL     OW 4327   4.646   1.721   2.074
 1143SOL    HW1 4328   4.609   1.634   2.107
 1143SOL    HW2 4329   4.729   1.704   2.021
 1144SOL     OW 4330   1.292   0.143   5.454
 1144SOL    HW1 4331   1.238   0.069   5.413
 1144SOL    HW2 4332   1.349   0.106   5.527
 1145SOL     OW 4333   1.835   4.991   4.704
 1145SOL    HW1 4334   1.901   4.966   4.775
 1145SOL    HW2 4335   1.744   4.958   4.729
 1146SOL     OW 4336   6.330   1.784   1.081
 1146SOL    HW1 4337   6.375   1.704   1.042
 1146SOL    HW2 4338   6.278   1.831   1.009
 1147SOL     OW 4339   6.903   3.275   2.180
 1147SOL    HW1 4340   6.897   3.232   2.090
 1147SOL    HW2 4341   6.818   3.323   2.200
 1148SOL     OW 4342   4.915   0.992   6.935
 1148SOL    HW1 4343   4.984   1.017   7.003
 1148SOL    HW2 4344   4.852   1.068   6.922
 1149SOL     OW 4345   6.189   2.668   3.563
 1149SOL    HW1 4346   6.237   2.604   3.503
 1149SOL    HW2 4347   6.192   2.635   3.657
 1150SOL     OW 4348   0.926   5.179   5.697
 1150SOL    HW1 4349   1.010   5.185   5.643
 1150SOL    HW2 4350   0.947   5.139   5.786
 1151SOL     OW 4351   3.870   5.167   6.788
 1151SOL    HW1 4352   3.853   5.249   6.841
 1151SOL    HW2 4353   3.788   5.141   6.738
 1152SOL     OW 4354   0.411   1.416   4.627
 1152SOL    HW1 4355   0.415   1.326   4.672
 1152SOL    HW2 4356   0.327   1.462   4.653
 1153SOL     OW 4357   2.557   4.654   2.971
 1153SOL    HW1 4358   2.543   4.555   2.964
 1153SOL    HW2 4359   2.586   4.690   2.883
 1154SOL     OW 4360   2.016   4.119   2.236
 1154SOL    HW1 4361   1.973   4.029   2.228
 1154SOL    HW2 4362   2.079   4.134   2.159
 1155SOL     OW 4363   4.004   6.840   2.523
 1155SOL    HW1 4364   3.913   6.883   2.520
 1155SOL    HW2 4365   3.995   6.742   2.510
 1156SOL     OW 4366   1.237   1.708   3.527
 1156SOL    HW1 4367   1.187   1.795   3.532
 1156SOL    HW2 4368   1.201   1.645   3.595
 1157SOL     OW 4369   1.021   3.463   4.450
 1157SOL    HW1 4370   1.013   3.363   4.454
 1157SOL    HW2 4371   1.098   3.492   4.507
 1158SOL     OW 4372   4.541   5.991   6.582
 1158SOL    HW1 4373   4.594   6.001   6.667
 1158SOL    HW2 4374   4.587   5.925   6.522
 1159SOL     OW 4375   5.284   5.048   2.633
 1159SOL    HW1 4376   5.208   5.102   2.597
 1159SOL    HW2 4377   5.370   5.080   2.592
 1160SOL     OW 4378   2.516   2.412   0.733
 1160SOL    HW1 4379   2.505   2.419   0.832
 1160SOL    HW2 4380   2.512   2.503   0.693
 1161SOL     OW 4381   4.147   0.808   4.522
 1161SOL    HW1 4382   4.122   0.781   4.615
 1161SOL    HW2 4383   4.246   0.801   4.511
 1162SOL     OW 4384   4.033   4.677   1.778
 1162SOL    HW1 4385   4.025   4.579   1.795
 1162SOL    HW2 4386   4.094   4.692   1.700
 1163SOL     OW 4387   5.159   1.372   2.257
 1163SOL    HW1 4388   5.063   1.398   2.257
 1163SOL    HW2 4389   5.168   1.278   2.222
 1164SOL     OW 4390   6.015   3.496   4.175
 1164SOL    HW1 4391   6.105   3.531   4.149
 1164SOL    HW2 4392   5.950   3.573   4.180
 1165SOL     OW 4393   1.572   4.608   2.307
 1165SOL    HW1 4394   1.628   4.644   2.381
 1165SOL    HW2 4395   1.481   4.587   2.341
 1166SOL     OW 4396   3.359   2.438   6.620
 1166SOL    HW1 4397   3.273   2.404   6.657
 1166SOL    HW2 4398   3.425   2.363   6.615
 1167SOL     OW 4399   4.233   1.905   5.014
 1167SOL    HW1 4400   4.197   1.843   4.944
 1167SOL    HW2 4401   4.174   1.985   5.021
 1168SOL     OW 4402   6.024   6.493   3.283
 1168SOL    HW1 4403   6.072   6.531   3.362
 1168SOL    HW2 4404   6.073   6.412   3.250
 1169SOL     OW 4405   0.950   3.962   1.257
 1169SOL    HW1 4406   0.862   3.987   1.296
 1169SOL    HW2 4407   0.992   4.042   1.214
 1170SOL     OW 4408   3.191   0.540   1.291
 1170SOL    HW1 4409   3.118   0.576   1.349
 1170SOL    HW2 4410   3.167   0.555   1.195
 1171SOL     OW 4411   2.913   0.341   0.465
 1171SOL    HW1 4412   2.850   0.411   0.432
 1171SOL    HW2 4413   2.947   0.288   0.388
 1172SOL     OW 4414   2.899   3.519   4.436
 1172SOL    HW1 4415   2.890   3.590   4.506
 1172SOL    HW2 4416   2.911   3.430   4.480
 1173SOL     OW 4417   4.761   0.980   6.436
 1173SOL    HW1 4418   4.860   0.976   6.428
 1173SOL    HW2 4419   4.736   1.026   6.521
 1174SOL     OW 4420   3.278   6.064   6.942
 1174SOL    HW1 4421   3.332   6.069   0.004
 1174SOL    HW2 4422   3.302   5.981   6.892
 1175SOL     OW 4423   0.230   5.278   4.574
 1175SOL    HW1 4424   0.324   5.312   4.580
 1175SOL    HW2 4425   0.188   5.310   4.489
 1176SOL     OW 4426   6.265   3.322   1.239
 1176SOL    HW1 4427   6.359   3.358   1.243
 1176SOL    HW2 4428   6.203   3.387   1.283
 1177SOL     OW 4429   5.858   3.257   7.021
 1177SOL    HW1 4430   5.823   3.206   0.078
 1177SOL    HW2 4431   5.784   3.275   6.957
 1178SOL     OW 4432   5.173   3.935   2.075
 1178SOL    HW1 4433   5.183   3.975   1.984
 1178SOL    HW2 4434   5.154   4.007   2.141
 1179SOL     OW 4435   2.366   5.672   5.756
 1179SOL    HW1 4436   2.336   5.760   5.792
 1179SOL    HW2 4437   2.465   5.674   5.740
 1180SOL     OW 4438   1.801   1.485   3.754
 1180SOL    HW1 4439   1.750   1.439   3.828
 1180SOL    HW2 4440   1.891   1.511   3.787
 1181SOL     OW 4441   1.916   4.297   2.863
 1181SOL    HW1 4442   1.965   4.372   2.908
 1181SOL    HW2 4443   1.917   4.217   2.923
 1182SOL     OW 4444   1.641   4.070   3.348
 1182SOL    HW1 4445   1.669   4.009   3.422
 1182SOL    HW2 4446   1.596   4.016   3.276
 1183SOL     OW 4447   4.572   5.996   0.650
 1183SOL    HW1 4448   4.615   6.068   0.595
 1183SOL    HW2 4449   4.548   5.919   0.590
 1184SOL     OW 4450   3.546   3.361   5.818
 1184SOL    HW1 4451   3.564   3.288   5.883
 1184SOL    HW2 4452   3.463   3.340   5.766
 1185SOL     OW 4453   2.476   1.717   6.871
 1185SOL    HW1 4454   2.483   1.692   6.774
 1185SOL    HW2 4455   2.423   1.801   6.879
 1186SOL     OW 4456   2.806   0.914   5.203
 1186SOL    HW1 4457   2.836   0.952   5.116
 1186SOL    HW2 4458   2.716   0.951   5.227
 1187SOL     OW 4459   0.735   1.586   5.303
 1187SOL    HW1 4460   0.657   1.582   5.241
 1187SOL    HW2 4461   0.802   1.516   5.278
 1188SOL     OW 4462   1.861   0.495   4.799
 1188SOL    HW1 4463   1.776   0.521   4.845
 1188SOL    HW2 4464   1.873   0.552   4.718
 1189SOL     OW 4465   0.074   0.694   0.913
 1189SOL    HW1 4466   0.150   0.698   0.848
 1189SOL    HW2 4467   0.092   0.622   0.980
 1190SOL     OW 4468   4.000   4.825   2.472
 1190SOL    HW1 4469   4.099   4.838   2.466
 1190SOL    HW2 4470   3.975   4.808   2.568
 1191SOL     OW 4471   2.893   4.698   0.539
 1191SOL    HW1 4472   2.912   4.738   0.629
 1191SOL    HW2 4473   2.928   4.759   0.468
 1192SOL     OW 4474   4.552   4.818   2.247
 1192SOL    HW1 4475   4.483   4.762   2.201
 1192SOL    HW2 4476   4.591   4.767   2.323
 1193SOL     OW 4477   4.092   6.940   3.914
 1193SOL    HW1 4478   4.005   6.891   3.917
 1193SOL    HW2 4479   4.075   0.014   3.890
 1194SOL     OW 4480   6.602   0.974   1.364
 1194SOL    HW1 4481   6.574   1.028   1.284
 1194SOL    HW2 4482   6.654   0.894   1.334
 1195SOL     OW 4483   3.610   6.504   6.869
 1195SOL    HW1 4484   3.679   6.575   6.851
 1195SOL    HW2 4485   3.533   6.517   6.806
 1196SOL     OW 4486   0.892   5.531   3.200
 1196SOL    HW1 4487   0.842   5.484   3.128
 1196SOL    HW2 4488   0.944   5.464   3.254
 1197SOL     OW 4489   3.237   5.080   6.516
 1197SOL    HW1 4490   3.306   5.052   6.450
 1197SOL    HW2 4491   3.263   5.168   6.556
 1198SOL     OW 4492   3.776   1.411   2.505
 1198SOL    HW1 4493   3.739   1.397   2.414
 1198SOL    HW2 4494   3.834   1.493   2.505
 1199SOL     OW 4495   3.127   3.718   3.829
 1199SOL    HW1 4496   3.058   3.738   3.760
 1199SOL    HW2 4497   3.091   3.650   3.893
 1200SOL     OW 4498   4.156   3.491   0.963
 1200SOL    HW1 4499   4.232   3.444   1.007
 1200SOL    HW2 4500   4.077   3.430   0.960
 1201SOL     OW 4501   0.861   0.961   4.701
 1201SOL    HW1 4502   0.854   0.888   4.770
 1201SOL    HW2 4503   0.920   0.930   4.627
 1202SOL     OW 4504   5.882   0.038   4.844
 1202SOL    HW1 4505   5.901   6.998   4.768
 1202SOL    HW2 4506   5.839   7.010   4.919
 1203SOL     OW 4507   6.216   6.280   1.729
 1203SOL    HW1 4508   6.142   6.318   1.784
 1203SOL    HW2 4509   6.225   6.332   1.645
 1204SOL     OW 4510   1.454   6.680   6.865
 1204SOL    HW1 4511   1.418   6.770   6.841
 1204SOL    HW2 4512   1.389   6.635   6.927
 1205SOL     OW 4513   0.908   3.114   5.035
 1205SOL    HW1 4514   0.816   3.079   5.050
 1205SOL    HW2 4515   0.917   3.143   4.939
 1206SOL     OW 4516   0.204   2.205   4.774
 1206SOL    HW1 4517   0.270   2.266   4.818
 1206SOL    HW2 4518   0.238   2.111   4.778
 1207SOL     OW 4519   5.715   6.092   6.623
 1207SOL    HW1 4520   5.695   6.132   6.713
 1207SOL    HW2 4521   5.777   6.153   6.573
 1208SOL     OW 4522   3.557   3.757   2.838
 1208SOL    HW1 4523   3.469   3.804   2.842
 1208SOL    HW2 4524   3.616   3.790   2.911
 1209SOL     OW 4525   0.036   4.087   4.578
 1209SOL    HW1 4526   0.081   3.998   4.568
 1209SOL    HW2 4527   7.007   4.107   4.495
 1210SOL     OW 4528   2.961   6.893   2.530
 1210SOL    HW1 4529   2.909   6.978   2.539
 1210SOL    HW2 4530   3.030   6.904   2.459
 1211SOL     OW 4531   1.327   2.980   3.428
 1211SOL    HW1 4532   1.405   2.990   3.366
 1211SOL    HW2 4533   1.315   3.064   3.481
 1212SOL     OW 4534   1.585   3.509   3.741
 1212SOL    HW1 4535   1.582   3.459   3.654
 1212SOL    HW2 4536   1.491   3.523   3.774
 1213SOL     OW 4537   5.717   2.805   5.022
 1213SOL    HW1 4538   5.776   2.755   5.085
 1213SOL    HW2 4539   5.623   2.772   5.031
 1214SOL     OW 4540   1.455   2.536   2.347
 1214SOL    HW1 4541   1.358   2.531   2.320
 1214SOL    HW2 4542   1.504   2.596   2.284
 1215SOL     OW 4543   0.240   5.507   2.065
 1215SOL    HW1 4544   0.250   5.593   2.115
 1215SOL    HW2 4545   0.315   5.446   2.090
 1216SOL     OW 4546   2.896   0.635   1.420
 1216SOL    HW1 4547   2.920   0.550   1.466
 1216SOL    HW2 4548   2.878   0.706   1.489
 1217SOL     OW 4549   2.000   1.774   2.459
 1217SOL    HW1 4550   1.900   1.774   2.456
 1217SOL    HW2 4551   2.033   1.866   2.435
 1218SOL     OW 4552   0.220   3.303   3.320
 1218SOL    HW1 4553   0.254   3.378   3.376
 1218SOL    HW2 4554   0.124   3.285   3.342
 1219SOL     OW 4555   2.422   5.998   3.895
 1219SOL    HW1 4556   2.367   6.061   3.949
 1219SOL    HW2 4557   2.477   6.049   3.830
 1220SOL     OW 4558   5.876   4.298   2.897
 1220SOL    HW1 4559   5.901   4.321   2.991
 1220SOL    HW2 4560   5.844   4.380   2.850
 1221SOL     OW 4561   5.027   3.758   6.215
 1221SOL    HW1 4562   5.081   3.678   6.188
 1221SOL    HW2 4563   5.084   3.840   6.210
 1222SOL     OW 4564   6.146   4.732   1.779
 1222SOL    HW1 4565   6.191   4.653   1.737
 1222SOL    HW2 4566   6.077   4.769   1.715
 1223SOL     OW 4567   6.387   5.003   5.089
 1223SOL    HW1 4568   6.351   4.984   4.997
 1223SOL    HW2 4569   6.482   4.974   5.094
 1224SOL     OW 4570   4.725   4.851   1.192
 1224SOL    HW1 4571   4.641   4.800   1.213
 1224SOL    HW2 4572   4.782   4.857   1.275
 1225SOL     OW 4573   3.735   1.911   6.766
 1225SOL    HW1 4574   3.724   2.010   6.762
 1225SOL    HW2 4575   3.727   1.880   6.860
 1226SOL     OW 4576   5.314   5.647   0.867
 1226SOL    HW1 4577   5.322   5.570   0.803
 1226SOL    HW2 4578   5.397   5.702   0.863
 1227SOL     OW 4579   4.861   4.505   6.569
 1227SOL    HW1 4580   4.830   4.410   6.563
 1227SOL    HW2 4581   4.878   4.528   6.665
 1228SOL     OW 4582   3.752   4.139   4.510
 1228SOL    HW1 4583   3.816   4.135   4.586
 1228SOL    HW2 4584   3.663   4.104   4.539
 1229SOL     OW 4585   2.462   6.106   2.961
 1229SOL    HW1 4586   2.459   6.125   2.863
 1229SOL    HW2 4587   2.512   6.179   3.007
 1230SOL     OW 4588   5.808   5.425   1.336
 1230SOL    HW1 4589   5.776   5.352   1.274
 1230SOL    HW2 4590   5.748   5.430   1.415
 1231SOL     OW 4591   2.265   1.522   6.725
 1231SOL    HW1 4592   2.194   1.588   6.702
 1231SOL    HW2 4593   2.266   1.449   6.657
 1232SOL     OW 4594   2.901   1.563   5.137
 1232SOL    HW1 4595   2.878   1.571   5.235
 1232SOL    HW2 4596   2.986   1.611   5.118
 1233SOL     OW 4597   6.850   5.049   4.709
 1233SOL    HW1 4598   6.892   4.968   4.669
 1233SOL    HW2 4599   6.918   5.123   4.715
 1234SOL     OW 4600   6.277   4.458   6.930
 1234SOL    HW1 4601   6.213   4.470   7.006
 1234SOL    HW2 4602   6.347   4.530   6.935
 1235SOL     OW 4603   6.220   4.641   0.891
 1235SOL    HW1 4604   6.274   4.560   0.912
 1235SOL    HW2 4605   6.123   4.622   0.909
 1236SOL     OW 4606   1.539   1.217   2.177
 1236SOL    HW1 4607   1.500   1.154   2.245
 1236SOL    HW2 4608   1.522   1.181   2.086
 1237SOL     OW 4609   0.957   0.186   4.405
 1237SOL    HW1 4610   1.015   0.138   4.340
 1237SOL    HW2 4611   0.988   0.281   4.414
 1238SOL     OW 4612   0.559   0.461   4.708
 1238SOL    HW1 4613   0.569   0.383   4.769
 1238SOL    HW2 4614   0.584   0.545   4.756
 1239SOL     OW 4615   4.941   5.180   4.054
 1239SOL    HW1 4616   5.039   5.176   4.037
 1239SOL    HW2 4617   4.899   5.244   3.990
 1240SOL     OW 4618   0.497   3.684   1.171
 1240SOL    HW1 4619   0.489   3.683   1.071
 1240SOL    HW2 4620   0.593   3.672   1.197
 1241SOL     OW 4621   4.097   5.026   5.942
 1241SOL    HW1 4622   4.027   5.092   5.916
 1241SOL    HW2 4623   4.121   5.039   6.038
 1242SOL     OW 4624   2.468   5.127   0.696
 1242SOL    HW1 4625   2.567   5.121   0.706
 1242SOL    HW2 4626   2.436   5.057   0.633
 1243SOL     OW 4627   0.942   3.281   3.704
 1243SOL    HW1 4628   0.864   3.273   3.642
 1243SOL    HW2 4629   1.015   3.333   3.659
 1244SOL     OW 4630   6.357   6.971   5.161
 1244SOL    HW1 4631   6.339   6.989   5.257
 1244SOL    HW2 4632   6.455   6.959   5.147
 1245SOL     OW 4633   4.873   6.441   1.022
 1245SOL    HW1 4634   4.897   6.344   1.017
 1245SOL    HW2 4635   4.903   6.478   1.110
 1246SOL     OW 4636   5.524   1.772   1.001
 1246SOL    HW1 4637   5.455   1.844   0.994
 1246SOL    HW2 4638   5.611   1.806   0.966
 1247SOL     OW 4639   6.136   6.573   2.878
 1247SOL    HW1 4640   6.065   6.538   2.816
 1247SOL    HW2 4641   6.194   6.637   2.829
 1248SOL     OW 4642   0.681   6.479   4.341
 1248SOL    HW1 4643   0.677   6.524   4.251
 1248SOL    HW2 4644   0.728   6.539   4.406
 1249SOL     OW 4645   5.833   5.832   6.161
 1249SOL    HW1 4646   5.817   5.930   6.148
 1249SOL    HW2 4647   5.847   5.814   6.258
 1250SOL     OW 4648   0.872   4.370   4.876
 1250SOL    HW1 4649   0.779   4.399   4.853
 1250SOL    HW2 4650   0.917   4.334   4.795
 1251SOL     OW 4651   2.960   0.090   2.785
 1251SOL    HW1 4652   3.023   0.012   2.781
 1251SOL    HW2 4653   2.894   0.083   2.709
 1252SOL     OW 4654   2.409   5.164   6.749
 1252SOL    HW1 4655   2.417   5.075   6.704
 1252SOL    HW2 4656   2.498   5.191   6.786
 1253SOL     OW 4657   2.857   6.471   6.878
 1253SOL    HW1 4658   2.928   6.523   6.927
 1253SOL    HW2 4659   2.886   6.457   6.783
 1254SOL     OW 4660   6.608   1.558   3.211
 1254SOL    HW1 4661   6.544   1.519   3.277
 1254SOL    HW2 4662   6.584   1.527   3.119
 1255SOL     OW 4663   5.947   1.970   5.946
 1255SOL    HW1 4664   5.907   2.022   5.870
 1255SOL    HW2 4665   6.021   2.023   5.987
 1256SOL     OW 4666   0.370   5.518   4.341
 1256SOL    HW1 4667   0.432   5.439   4.346
 1256SOL    HW2 4668   0.422   5.600   4.317
 1257SOL     OW 4669   0.202   6.277   3.644
 1257SOL    HW1 4670   0.177   6.237   3.732
 1257SOL    HW2 4671   0.158   6.226   3.570
 1258SOL     OW 4672   4.655   5.804   6.381
 1258SOL    HW1 4673   4.678   5.714   6.417
 1258SOL    HW2 4674   4.739   5.855   6.361
 1259SOL     OW 4675   5.444   0.223   5.629
 1259SOL    HW1 4676   5.378   0.166   5.580
 1259SOL    HW2 4677   5.536   0.190   5.610
 1260SOL     OW 4678   3.041   1.074   1.181
 1260SOL    HW1 4679   3.108   1.018   1.231
 1260SOL    HW2 4680   2.954   1.074   1.230
 1261SOL     OW 4681   0.256   4.500   4.988
 1261SOL    HW1 4682   0.171   4.547   5.009
 1261SOL    HW2 4683   0.288   4.528   4.897
 1262SOL     OW 4684   4.662   5.774   1.608
 1262SOL    HW1 4685   4.707   5.784   1.697
 1262SOL    HW2 4686   4.663   5.862   1.560
 1263SOL     OW 4687   6.399   1.680   0.657
 1263SOL    HW1 4688   6.362   1.725   0.738
 1263SOL    HW2 4689   6.424   1.586   0.679
 1264SOL     OW 4690   6.515   2.533   4.732
 1264SOL    HW1 4691   6.487   2.446   4.774
 1264SOL    HW2 4692   6.612   2.529   4.708
 1265SOL     OW 4693   6.565   5.697   4.886
 1265SOL    HW1 4694   6.552   5.690   4.787
 1265SOL    HW2 4695   6.485   5.658   4.932
 1266SOL     OW 4696   2.578   0.734   3.845
 1266SOL    HW1 4697   2.575   0.641   3.880
 1266SOL    HW2 4698   2.636   0.790   3.904
 1267SOL     OW 4699   0.057   4.707   2.985
 1267SOL    HW1 4700   0.076   4.758   2.901
 1267SOL    HW2 4701   6.988   4.666   2.978
 1268SOL     OW 4702   5.903   4.503   0.077
 1268SOL    HW1 4703   5.940   4.577   0.021
 1268SOL    HW2 4704   5.884   4.424   0.020
 1269SOL     OW 4705   6.740   4.792   6.255
 1269SOL    HW1 4706   6.707   4.765   6.165
 1269SOL    HW2 4707   6.827   4.841   6.245
 1270SOL     OW 4708   1.511   2.094   4.702
 1270SOL    HW1 4709   1.424   2.046   4.713
 1270SOL    HW2 4710   1.576   2.062   4.770
 1271SOL     OW 4711   5.086   2.593   3.287
 1271SOL    HW1 4712   5.073   2.538   3.205
 1271SOL    HW2 4713   4.998   2.609   3.331
 1272SOL     OW 4714   6.439   6.916   1.612
 1272SOL    HW1 4715   6.392   6.828   1.624
 1272SOL    HW2 4716   6.534   6.899   1.586
 1273SOL     OW 4717   2.706   6.248   6.202
 1273SOL    HW1 4718   2.695   6.191   6.120
 1273SOL    HW2 4719   2.619   6.291   6.224
 1274SOL     OW 4720   5.367   2.099   2.138
 1274SOL    HW1 4721   5.424   2.039   2.083
 1274SOL    HW2 4722   5.396   2.194   2.126
 1275SOL     OW 4723   3.992   1.369   3.985
 1275SOL    HW1 4724   4.007   1.329   4.075
 1275SOL    HW2 4725   4.078   1.403   3.948
 1276SOL     OW 4726   6.017   0.130   3.101
 1276SOL    HW1 4727   5.921   0.120   3.074
 1276SOL    HW2 4728   6.063   0.191   3.036
 1277SOL     OW 4729   0.514   1.609   5.092
 1277SOL    HW1 4730   0.587   1.631   5.028
 1277SOL    HW2 4731   0.460   1.691   5.111
 1278SOL     OW 4732   2.573   1.509   5.928
 1278SOL    HW1 4733   2.514   1.495   6.007
 1278SOL    HW2 4734   2.591   1.606   5.917
 1279SOL     OW 4735   2.320   4.927   0.528
 1279SOL    HW1 4736   2.365   4.856   0.582
 1279SOL    HW2 4737   2.237   4.958   0.576
 1280SOL     OW 4738   2.047   6.171   2.932
 1280SOL    HW1 4739   2.110   6.097   2.910
 1280SOL    HW2 4740   1.959   6.154   2.887
 1281SOL     OW 4741   0.632   6.630   4.101
 1281SOL    HW1 4742   0.548   6.669   4.063
 1281SOL    HW2 4743   0.681   6.700   4.153
 1282SOL     OW 4744   1.242   0.240   2.488
 1282SOL    HW1 4745   1.170   0.180   2.453
 1282SOL    HW2 4746   1.289   0.195   2.564
 1283SOL     OW 4747   4.948   4.489   4.770
 1283SOL    HW1 4748   4.935   4.481   4.869
 1283SOL    HW2 4749   5.019   4.425   4.740
 1284SOL     OW 4750   2.842   1.951   2.730
 1284SOL    HW1 4751   2.745   1.965   2.751
 1284SOL    HW2 4752   2.861   1.986   2.638
 1285SOL     OW 4753   6.061   2.423   6.416
 1285SOL    HW1 4754   6.025   2.336   6.381
 1285SOL    HW2 4755   6.155   2.408   6.449
 1286SOL     OW 4756   6.017   6.105   1.639
 1286SOL    HW1 4757   6.091   6.157   1.682
 1286SOL    HW2 4758   5.940   6.099   1.703
 1287SOL     OW 4759   6.159   4.884   6.251
 1287SOL    HW1 4760   6.197   4.806   6.201
 1287SOL    HW2 4761   6.063   4.897   6.224
 1288SOL     OW 4762   6.654   2.487   3.422
 1288SOL    HW1 4763   6.653   2.424   3.344
 1288SOL    HW2 4764   6.663   2.435   3.507
 1289SOL     OW 4765   6.807   5.326   2.400
 1289SOL    HW1 4766   6.790   5.346   2.496
 1289SOL    HW2 4767   6.851   5.405   2.356
 1290SOL     OW 4768   0.312   6.533   1.257
 1290SOL    HW1 4769   0.377   6.459   1.243
 1290SOL    HW2 4770   0.325   6.572   1.348
 1291SOL     OW 4771   1.580   6.749   0.676
 1291SOL    HW1 4772   1.667   6.741   0.628
 1291SOL    HW2 4773   1.512   6.790   0.616
 1292SOL     OW 4774   0.828   6.454   6.293
 1292SOL    HW1 4775   0.831   6.554   6.303
 1292SOL    HW2 4776   0.898   6.425   6.228
 1293SOL     OW 4777   6.645   2.720   5.741
 1293SOL    HW1 4778   6.665   2.767   5.827
 1293SOL    HW2 4779   6.670   2.780   5.664
 1294SOL     OW 4780   0.273   1.871   2.813
 1294SOL    HW1 4781   0.265   1.858   2.912
 1294SOL    HW2 4782   0.360   1.916   2.793
 1295SOL     OW 4783   4.798   3.333   1.585
 1295SOL    HW1 4784   4.816   3.348   1.682
 1295SOL    HW2 4785   4.717   3.384   1.557
 1296SOL     OW 4786   3.227   2.437   6.907
 1296SOL    HW1 4787   3.285   2.366   6.865
 1296SOL    HW2 4788   3.284   2.498   6.961
 1297SOL     OW 4789   6.418   1.255   6.808
 1297SOL    HW1 4790   6.441   1.291   6.898
 1297SOL    HW2 4791   6.486   1.286   6.742
 1298SOL     OW 4792   6.162   3.085   3.576
 1298SOL    HW1 4793   6.123   3.068   3.485
 1298SOL    HW2 4794   6.088   3.092   3.643
 1299SOL     OW 4795   1.246   3.776   4.517
 1299SOL    HW1 4796   1.249   3.697   4.455
 1299SOL    HW2 4797   1.206   3.747   4.605
 1300SOL     OW 4798   3.278   3.297   1.447
 1300SOL    HW1 4799   3.286   3.271   1.543
 1300SOL    HW2 4800   3.226   3.381   1.439
 1301SOL     OW 4801   0.230   0.609   2.997
 1301SOL    HW1 4802   0.165   0.544   3.036
 1301SOL    HW2 4803   0.320   0.596   3.039
 1302SOL     OW 4804   2.841   5.886   5.511
 1302SOL    HW1 4805   2.902   5.885   5.432
 1302SOL    HW2 4806   2.887   5.844   5.589
 1303SOL     OW 4807   3.866   0.252   1.241
 1303SOL    HW1 4808   3.893   0.158   1.260
 1303SOL    HW2 4809   3.928   0.315   1.289
 1304SOL     OW 4810   3.066   0.413   6.036
 1304SOL    HW1 4811   3.025   0.347   5.974
 1304SOL    HW2 4812   3.116   0.482   5.983
 1305SOL     OW 4813   6.086   6.414   4.135
 1305SOL    HW1 4814   6.127   6.345   4.195
 1305SOL    HW2 4815   6.119   6.504   4.162
 1306SOL     OW 4816   1.215   4.956   4.368
 1306SOL    HW1 4817   1.270   5.011   4.431
 1306SOL    HW2 4818   1.241   4.860   4.377
 1307SOL     OW 4819   1.776   1.876   4.564
 1307SOL    HW1 4820   1.792   1.889   4.466
 1307SOL    HW2 4821   1.773   1.965   4.610
 1308SOL     OW 4822   4.793   6.247   2.989
 1308SOL    HW1 4823   4.768   6.268   3.084
 1308SOL    HW2 4824   4.710   6.232   2.935
 1309SOL     OW 4825   5.809   2.957   4.820
 1309SOL    HW1 4826   5.773   2.910   4.901
 1309SOL    HW2 4827   5.884   3.018   4.848
 1310SOL     OW 4828   5.203   3.540   5.238
 1310SOL    HW1 4829   5.251   3.464   5.281
 1310SOL    HW2 4830   5.227   3.625   5.285
 1311SOL     OW 4831   5.544   5.416   5.426
 1311SOL    HW1 4832   5.622   5.442   5.481
 1311SOL    HW2 4833   5.568   5.336   5.370
 1312SOL     OW 4834   6.270   0.006   2.286
 1312SOL    HW1 4835   6.268   6.967   2.364
 1312SOL    HW2 4836   6.358   7.020   2.239
 1313SOL     OW 4837   3.306   4.906   5.100
 1313SOL    HW1 4838   3.220   4.866   5.070
 1313SOL    HW2 4839   3.317   4.893   5.199
 1314SOL     OW 4840   5.476   1.518   5.225
 1314SOL    HW1 4841   5.574   1.533   5.231
 1314SOL    HW2 4842   5.431   1.560   5.304
 1315SOL     OW 4843   2.088   0.582   3.482
 1315SOL    HW1 4844   2.118   0.553   3.392
 1315SOL    HW2 4845   2.055   0.503   3.534
 1316SOL     OW 4846   3.014   6.609   2.252
 1316SOL    HW1 4847   3.049   6.655   2.170
 1316SOL    HW2 4848   3.083   6.544   2.285
 1317SOL     OW 4849   6.975   4.491   3.967
 1317SOL    HW1 4850   6.881   4.508   3.999
 1317SOL    HW2 4851   0.012   4.476   4.046
 1318SOL     OW 4852   0.580   5.947   1.304
 1318SOL    HW1 4853   0.522   5.865   1.302
 1318SOL    HW2 4854   0.661   5.929   1.360
 1319SOL     OW 4855   6.147   0.883   0.233
 1319SOL    HW1 4856   6.129   0.973   0.272
 1319SOL    HW2 4857   6.156   0.890   0.134
 1320SOL     OW 4858   5.573   5.901   5.486
 1320SOL    HW1 4859   5.556   5.977   5.423
 1320SOL    HW2 4860   5.610   5.824   5.435
 1321SOL     OW 4861   2.989   1.687   6.925
 1321SOL    HW1 4862   3.049   1.625   6.874
 1321SOL    HW2 4863   3.042   1.735   6.994
 1322SOL     OW 4864   5.493   1.387   5.746
 1322SOL    HW1 4865   5.575   1.444   5.748
 1322SOL    HW2 4866   5.466   1.371   5.651
 1323SOL     OW 4867   6.004   0.792   3.655
 1323SOL    HW1 4868   5.917   0.744   3.651
 1323SOL    HW2 4869   6.034   0.800   3.750
 1324SOL     OW 4870   1.217   3.574   0.429
 1324SOL    HW1 4871   1.305   3.613   0.402
 1324SOL    HW2 4872   1.226   3.533   0.520
 1325SOL     OW 4873   3.509   5.345   3.399
 1325SOL    HW1 4874   3.435   5.407   3.373
 1325SOL    HW2 4875   3.526   5.280   3.326
 1326SOL     OW 4876   4.758   4.194   4.438
 1326SOL    HW1 4877   4.759   4.140   4.522
 1326SOL    HW2 4878   4.794   4.286   4.458
 1327SOL     OW 4879   3.021   6.171   3.215
 1327SOL    HW1 4880   3.047   6.200   3.307
 1327SOL    HW2 4881   3.103   6.150   3.162
 1328SOL     OW 4882   1.866   1.878   7.018
 1328SOL    HW1 4883   1.912   1.891   0.083
 1328SOL    HW2 4884   1.781   1.826   0.010
 1329SOL     OW 4885   0.947   0.456   1.641
 1329SOL    HW1 4886   0.928   0.540   1.691
 1329SOL    HW2 4887   1.046   0.441   1.638
 1330SOL     OW 4888   5.183   6.657   0.656
 1330SOL    HW1 4889   5.229   6.686   0.572
 1330SOL    HW2 4890   5.235   6.583   0.699
 1331SOL     OW 4891   0.084   1.415   2.778
 1331SOL    HW1 4892   0.032   1.365   2.709
 1331SOL    HW2 4893   0.092   1.511   2.751
 1332SOL     OW 4894   3.669   1.437   1.129
 1332SOL    HW1 4895   3.668   1.403   1.223
 1332SOL    HW2 4896   3.711   1.368   1.069
 1333SOL     OW 4897   3.769   3.209   4.533
 1333SOL    HW1 4898   3.752   3.173   4.442
 1333SOL    HW2 4899   3.817   3.296   4.527
 1334SOL     OW 4900   0.542   4.445   3.467
 1334SOL    HW1 4901   0.547   4.369   3.402
 1334SOL    HW2 4902   0.634   4.469   3.497
 1335SOL     OW 4903   2.566   5.386   1.961
 1335SOL    HW1 4904   2.652   5.428   1.991
 1335SOL    HW2 4905   2.553   5.299   2.007
 1336SOL     OW 4906   0.209   0.382   4.484
 1336SOL    HW1 4907   0.115   0.389   4.450
 1336SOL    HW2 4908   0.245   0.473   4.500
 1337SOL     OW 4909   2.861   0.558   6.896
 1337SOL    HW1 4910   2.786   0.509   6.851
 1337SOL    HW2 4911   2.881   0.514   6.984
 1338SOL     OW 4912   3.646   5.897   0.872
 1338SOL    HW1 4913   3.746   5.897   0.875
 1338SOL    HW2 4914   3.615   5.957   0.798
 1339SOL     OW 4915   0.058   4.777   5.440
 1339SOL    HW1 4916   0.048   4.829   5.524
 1339SOL    HW2 4917   0.153   4.777   5.411
 1340SOL     OW 4918   1.871   1.257   6.344
 1340SOL    HW1 4919   1.794   1.218   6.395
 1340SOL    HW2 4920   1.914   1.185   6.289
 1341SOL     OW 4921   5.764   1.905   3.991
 1341SOL    HW1 4922   5.836   1.953   3.940
 1341SOL    HW2 4923   5.694   1.873   3.927
 1342SOL     OW 4924   0.383   6.324   1.634
 1342SOL    HW1 4925   0.360   6.266   1.712
 1342SOL    HW2 4926   0.367   6.273   1.549
 1343SOL     OW 4927   3.372   4.912   3.280
 1343SOL    HW1 4928   3.446   4.875   3.224
 1343SOL    HW2 4929   3.379   5.012   3.284
 1344SOL     OW 4930   5.638   1.427   3.028
 1344SOL    HW1 4931   5.552   1.403   3.073
 1344SOL    HW2 4932   5.619   1.459   2.935
 1345SOL     OW 4933   1.373   6.877   3.654
 1345SOL    HW1 4934   1.441   6.877   3.580
 1345SOL    HW2 4935   1.403   6.939   3.727
 1346SOL     OW 4936   0.291   0.934   3.994
 1346SOL    HW1 4937   0.251   0.973   4.076
 1346SOL    HW2 4938   0.387   0.909   4.011
 1347SOL     OW 4939   5.097   0.665   3.623
 1347SOL    HW1 4940   5.194   0.661   3.599
 1347SOL    HW2 4941   5.046   0.705   3.547
 1348SOL     OW 4942   4.406   5.963   4.514
 1348SOL    HW1 4943   4.416   6.058   4.544
 1348SOL    HW2 4944   4.362   5.960   4.425
 1349SOL     OW 4945   4.788   2.575   0.170
 1349SOL    HW1 4946   4.760   2.528   0.254
 1349SOL    HW2 4947   4.870   2.630   0.188
 1350SOL     OW 4948   3.625   0.183   5.205
 1350SOL    HW1 4949   3.655   0.278   5.192
 1350SOL    HW2 4950   3.574   0.176   5.291
 1351SOL     OW 4951   1.102   1.481   4.613
 1351SOL    HW1 4952   1.171   1.428   4.664
 1351SOL    HW2 4953   1.102   1.575   4.646
 1352SOL     OW 4954   0.727   6.599   3.842
 1352SOL    HW1 4955   0.683   6.682   3.808
 1352SOL    HW2 4956   0.727   6.601   3.942
 1353SOL     OW 4957   1.791   2.493   4.334
 1353SOL    HW1 4958   1.838   2.477   4.248
 1353SOL    HW2 4959   1.833   2.569   4.382
 1354SOL     OW 4960   0.385   6.580   0.118
 1354SOL    HW1 4961   0.482   6.577   0.095
 1354SOL    HW2 4962   0.355   6.675   0.126
 1355SOL     OW 4963   4.122   3.296   0.077
 1355SOL    HW1 4964   4.094   3.210   0.036
 1355SOL    HW2 4965   4.063   3.316   0.156
 1356SOL     OW 4966   3.215   3.187   1.731
 1356SOL    HW1 4967   3.206   3.238   1.816
 1356SOL    HW2 4968   3.275   3.109   1.744
 1357SOL     OW 4969   2.946   3.018   5.989
 1357SOL    HW1 4970   2.959   3.000   6.087
 1357SOL    HW2 4971   2.859   3.065   5.975
 1358SOL     OW 4972   2.110   3.615   6.104
 1358SOL    HW1 4973   2.139   3.684   6.038
 1358SOL    HW2 4974   2.190   3.563   6.135
 1359SOL     OW 4975   6.736   0.907   0.139
 1359SOL    HW1 4976   6.729   0.935   0.235
 1359SOL    HW2 4977   6.751   0.988   0.082
 1360SOL     OW 4978   3.483   3.143   4.224
 1360SOL    HW1 4979   3.416   3.153   4.297
 1360SOL    HW2 4980   3.565   3.196   4.246
 1361SOL     OW 4981   0.991   6.181   1.185
 1361SOL    HW1 4982   0.973   6.255   1.121
 1361SOL    HW2 4983   1.090   6.169   1.196
 1362SOL     OW 4984   2.813   2.215   5.994
 1362SOL    HW1 4985   2.863   2.212   5.907
 1362SOL    HW2 4986   2.858   2.280   6.056
 1363SOL     OW 4987   6.955   6.652   1.546
 1363SOL    HW1 4988   6.995   6.718   1.483
 1363SOL    HW2 4989   0.003   6.589   1.578
 1364SOL     OW 4990   1.037   4.239   0.720
 1364SOL    HW1 4991   1.087   4.313   0.675
 1364SOL    HW2 4992   0.939   4.259   0.720
 1365SOL     OW 4993   0.611   3.777   5.287
 1365SOL    HW1 4994   0.515   3.757   5.266
 1365SOL    HW2 4995   0.628   3.874   5.272
 1366SOL     OW 4996   4.305   0.625   0.848
 1366SOL    HW1 4997   4.249   0.701   0.815
 1366SOL    HW2 4998   4.247   0.545   0.864
 1367SOL     OW 4999   1.515   6.896   4.455
 1367SOL    HW1 5000   1.592   6.900   4.391
 1367SOL    HW2 5001   1.538   6.836   4.531
 1368SOL     OW 5002   1.216   6.718   4.921
 1368SOL    HW1 5003   1.262   6.788   4.975
 1368SOL    HW2 5004   1.215   6.745   4.825
 1369SOL     OW 5005   2.691   5.919   3.787
 1369SOL    HW1 5006   2.736   5.852   3.729
 1369SOL    HW2 5007   2.758   5.963   3.847
 1370SOL     OW 5008   6.796   2.586   2.850
 1370SOL    HW1 5009   6.856   2.596   2.929
 1370SOL    HW2 5010   6.702   2.612   2.876
 1371SOL     OW 5011   5.981   2.181   5.485
 1371SOL    HW1 5012   6.010   2.276   5.496
 1371SOL    HW2 5013   5.906   2.161   5.548
 1372SOL     OW 5014   5.884   2.636   0.953
 1372SOL    HW1 5015   5.933   2.693   1.019
 1372SOL    HW2 5016   5.947   2.605   0.882
 1373SOL     OW 5017   5.662   2.776   1.572
 1373SOL    HW1 5018   5.662   2.875   1.581
 1373SOL    HW2 5019   5.711   2.750   1.488
 1374SOL     OW 5020   4.369   3.646   1.662
 1374SOL    HW1 5021   4.315   3.576   1.709
 1374SOL    HW2 5022   4.328   3.736   1.678
 1375SOL     OW 5023   5.628   4.812   4.246
 1375SOL    HW1 5024   5.540   4.854   4.223
 1375SOL    HW2 5025   5.611   4.733   4.306
 1376SOL     OW 5026   3.049   4.634   6.006
 1376SOL    HW1 5027   2.953   4.611   5.991
 1376SOL    HW2 5028   3.075   4.710   5.948
 1377SOL     OW 5029   2.336   1.807   2.864
 1377SOL    HW1 5030   2.309   1.817   2.960
 1377SOL    HW2 5031   2.434   1.793   2.858
 1378SOL     OW 5032   5.143   2.512   3.843
 1378SOL    HW1 5033   5.188   2.425   3.823
 1378SOL    HW2 5034   5.211   2.585   3.842
 1379SOL     OW 5035   4.669   5.620   0.699
 1379SOL    HW1 5036   4.696   5.555   0.770
 1379SOL    HW2 5037   4.695   5.584   0.609
 1380SOL     OW 5038   0.111   5.942   2.655
 1380SOL    HW1 5039   0.193   5.990   2.687
 1380SOL    HW2 5040   0.052   6.005   2.606
 1381SOL     OW 5041   6.328   2.253   6.499
 1381SOL    HW1 5042   6.294   2.160   6.505
 1381SOL    HW2 5043   6.403   2.257   6.433
 1382SOL     OW 5044   4.518   2.641   0.110
 1382SOL    HW1 5045   4.610   2.631   0.148
 1382SOL    HW2 5046   4.515   2.722   0.052
 1383SOL     OW 5047   6.619   0.502   1.154
 1383SOL    HW1 5048   6.536   0.457   1.185
 1383SOL    HW2 5049   6.699   0.455   1.193
 1384SOL     OW 5050   6.180   1.772   1.975
 1384SOL    HW1 5051   6.179   1.838   2.050
 1384SOL    HW2 5052   6.114   1.699   1.993
 1385SOL     OW 5053   0.732   5.761   0.961
 1385SOL    HW1 5054   0.790   5.841   0.947
 1385SOL    HW2 5055   0.641   5.790   0.991
 1386SOL     OW 5056   2.289   5.746   3.870
 1386SOL    HW1 5057   2.250   5.768   3.780
 1386SOL    HW2 5058   2.343   5.824   3.903
 1387SOL     OW 5059   2.483   6.129   1.367
 1387SOL    HW1 5060   2.531   6.042   1.354
 1387SOL    HW2 5061   2.550   6.203   1.372
 1388SOL     OW 5062   0.022   0.937   2.025
 1388SOL    HW1 5063   0.120   0.916   2.022
 1388SOL    HW2 5064   7.008   0.915   2.116
 1389SOL     OW 5065   6.259   1.031   2.389
 1389SOL    HW1 5066   6.339   1.090   2.385
 1389SOL    HW2 5067   6.179   1.079   2.353
 1390SOL     OW 5068   1.362   1.625   4.978
 1390SOL    HW1 5069   1.297   1.549   4.974
 1390SOL    HW2 5070   1.448   1.593   5.018
 1391SOL     OW 5071   0.097   3.322   3.601
 1391SOL    HW1 5072   0.148   3.236   3.601
 1391SOL    HW2 5073   0.017   3.313   3.542
 1392SOL     OW 5074   4.846   4.466   4.466
 1392SOL    HW1 5075   4.758   4.507   4.444
 1392SOL    HW2 5076   4.882   4.507   4.550
 1393SOL     OW 5077   2.995   6.002   5.942
 1393SOL    HW1 5078   3.072   6.050   5.900
 1393SOL    HW2 5079   3.017   5.978   6.036
 1394SOL     OW 5080   1.404   5.772   6.175
 1394SOL    HW1 5081   1.421   5.770   6.077
 1394SOL    HW2 5082   1.374   5.864   6.202
 1395SOL     OW 5083   3.454   4.531   5.769
 1395SOL    HW1 5084   3.452   4.438   5.731
 1395SOL    HW2 5085   3.394   4.535   5.848
 1396SOL     OW 5086   6.245   6.038   3.767
 1396SOL    HW1 5087   6.300   6.091   3.832
 1396SOL    HW2 5088   6.178   5.984   3.817
 1397SOL     OW 5089   4.557   5.864   5.510
 1397SOL    HW1 5090   4.620   5.804   5.559
 1397SOL    HW2 5091   4.463   5.841   5.534
 1398SOL     OW 5092   2.134   1.190   4.290
 1398SOL    HW1 5093   2.221   1.201   4.242
 1398SOL    HW2 5094   2.101   1.096   4.278
 1399SOL     OW 5095   3.159   6.000   1.343
 1399SOL    HW1 5096   3.233   6.061   1.369
 1399SOL    HW2 5097   3.072   6.034   1.379
 1400SOL     OW 5098   2.236   6.760   2.285
 1400SOL    HW1 5099   2.184   6.811   2.354
 1400SOL    HW2 5100   2.237   6.663   2.309
 1401SOL     OW 5101   6.388   0.897   4.705
 1401SOL    HW1 5102   6.410   0.969   4.771
 1401SOL    HW2 5103   6.341   0.937   4.627
 1402SOL     OW 5104   6.997   2.986   0.314
 1402SOL    HW1 5105   7.010   3.002   0.412
 1402SOL    HW2 5106   6.905   2.950   0.298
 1403SOL     OW 5107   3.198   0.599   2.420
 1403SOL    HW1 5108   3.204   0.605   2.321
 1403SOL    HW2 5109   3.289   0.610   2.460
 1404SOL     OW 5110   5.308   1.716   0.391
 1404SOL    HW1 5111   5.266   1.781   0.329
 1404SOL    HW2 5112   5.358   1.765   0.462
 1405SOL     OW 5113   2.985   3.280   0.998
 1405SOL    HW1 5114   3.019   3.277   1.092
 1405SOL    HW2 5115   2.954   3.373   0.977
 1406SOL     OW 5116   1.418   4.074   1.124
 1406SOL    HW1 5117   1.460   4.014   1.193
 1406SOL    HW2 5118   1.484   4.144   1.097
 1407SOL     OW 5119   6.001   2.891   3.067
 1407SOL    HW1 5120   6.047   2.823   3.123
 1407SOL    HW2 5121   6.001   2.979   3.114
 1408SOL     OW 5122   6.490   0.099   6.408
 1408SOL    HW1 5123   6.569   0.111   6.468
 1408SOL    HW2 5124   6.411   0.148   6.446
 1409SOL     OW 5125   0.617   1.747   4.496
 1409SOL    HW1 5126   0.566   1.806   4.559
 1409SOL    HW2 5127   0.570   1.745   4.407
 1410SOL     OW 5128   0.312   2.793   0.062
 1410SOL    HW1 5129   0.222   2.784   0.020
 1410SOL    HW2 5130   0.374   2.726   0.022
 1411SOL     OW 5131   2.037   6.887   1.381
 1411SOL    HW1 5132   2.116   6.947   1.399
 1411SOL    HW2 5133   1.958   6.943   1.356
 1412SOL     OW 5134   1.270   3.274   0.367
 1412SOL    HW1 5135   1.337   3.336   0.327
 1412SOL    HW2 5136   1.264   3.190   0.313
 1413SOL     OW 5137   2.650   6.917   4.247
 1413SOL    HW1 5138   2.715   6.871   4.308
 1413SOL    HW2 5139   2.648   7.014   4.268
 1414SOL     OW 5140   2.557   1.051   1.388
 1414SOL    HW1 5141   2.486   1.121   1.382
 1414SOL    HW2 5142   2.556   1.010   1.480
 1415SOL     OW 5143   4.331   6.155   5.957
 1415SOL    HW1 5144   4.321   6.192   5.864
 1415SOL    HW2 5145   4.422   6.175   5.991
 1416SOL     OW 5146   4.391   5.926   2.477
 1416SOL    HW1 5147   4.386   5.834   2.438
 1416SOL    HW2 5148   4.313   5.941   2.538
 1417SOL     OW 5149   3.216   2.290   6.207
 1417SOL    HW1 5150   3.118   2.305   6.216
 1417SOL    HW2 5151   3.263   2.379   6.204
 1418SOL     OW 5152   3.363   4.106   2.736
 1418SOL    HW1 5153   3.342   4.092   2.640
 1418SOL    HW2 5154   3.462   4.114   2.748
 1419SOL     OW 5155   4.862   6.572   5.271
 1419SOL    HW1 5156   4.788   6.506   5.282
 1419SOL    HW2 5157   4.828   6.664   5.292
 1420SOL     OW 5158   0.486   5.763   2.238
 1420SOL    HW1 5159   0.528   5.763   2.329
 1420SOL    HW2 5160   0.391   5.732   2.246
 1421SOL     OW 5161   3.668   1.409   2.945
 1421SOL    HW1 5162   3.697   1.315   2.929
 1421SOL    HW2 5163   3.715   1.445   3.025
 1422SOL     OW 5164   2.617   6.352   6.950
 1422SOL    HW1 5165   2.540   6.415   6.937
 1422SOL    HW2 5166   2.703   6.400   6.932
 1423SOL     OW 5167   4.683   0.674   2.645
 1423SOL    HW1 5168   4.755   0.742   2.630
 1423SOL    HW2 5169   4.675   0.655   2.743
 1424SOL     OW 5170   6.382   4.926   3.044
 1424SOL    HW1 5171   6.292   4.968   3.043
 1424SOL    HW2 5172   6.423   4.930   2.952
 1425SOL     OW 5173   2.089   0.395   4.902
 1425SOL    HW1 5174   2.022   0.454   4.856
 1425SOL    HW2 5175   2.040   0.329   4.959
 1426SOL     OW 5176   1.066   1.924   5.730
 1426SOL    HW1 5177   1.163   1.907   5.718
 1426SOL    HW2 5178   1.016   1.838   5.729
 1427SOL     OW 5179   5.973   0.537   4.817
 1427SOL    HW1 5180   5.975   0.571   4.723
 1427SOL    HW2 5181   6.065   0.543   4.856
 1428SOL     OW 5182   5.321   1.212   0.389
 1428SOL    HW1 5183   5.227   1.215   0.420
 1428SOL    HW2 5184   5.333   1.136   0.325
 1429SOL     OW 5185   5.927   0.685   0.298
 1429SOL    HW1 5186   5.960   0.591   0.294
 1429SOL    HW2 5187   6.002   0.748   0.275
 1430SOL     OW 5188   2.211   5.072   4.066
 1430SOL    HW1 5189   2.181   4.988   4.020
 1430SOL    HW2 5190   2.207   5.148   4.001
 1431SOL     OW 5191   1.573   0.655   0.942
 1431SOL    HW1 5192   1.495   0.592   0.937
 1431SOL    HW2 5193   1.658   0.602   0.941
 1432SOL     OW 5194   2.235   0.894   1.964
 1432SOL    HW1 5195   2.320   0.946   1.969
 1432SOL    HW2 5196   2.238   0.832   1.885
 1433SOL     OW 5197   4.787   0.891   3.994
 1433SOL    HW1 5198   4.870   0.900   3.939
 1433SOL    HW2 5199   4.792   0.953   4.072
 1434SOL     OW 5200   1.228   0.863   5.334
 1434SOL    HW1 5201   1.156   0.925   5.301
 1434SOL    HW2 5202   1.199   0.823   5.421
 1435SOL     OW 5203   0.274   1.905   3.327
 1435SOL    HW1 5204   0.177   1.924   3.311
 1435SOL    HW2 5205   0.319   1.887   3.240
 1436SOL     OW 5206   4.393   3.637   0.619
 1436SOL    HW1 5207   4.420   3.714   0.677
 1436SOL    HW2 5208   4.294   3.629   0.619
 1437SOL     OW 5209   4.044   1.310   2.057
 1437SOL    HW1 5210   3.995   1.223   2.059
 1437SOL    HW2 5211   4.131   1.302   2.106
 1438SOL     OW 5212   2.207   0.404   1.104
 1438SOL    HW1 5213   2.119   0.394   1.149
 1438SOL    HW2 5214   2.275   0.348   1.151
 1439SOL     OW 5215   0.607   5.766   2.648
 1439SOL    HW1 5216   0.597   5.863   2.671
 1439SOL    HW2 5217   0.639   5.758   2.553
 1440SOL     OW 5218   2.574   3.446   1.691
 1440SOL    HW1 5219   2.485   3.448   1.738
 1440SOL    HW2 5220   2.600   3.351   1.674
 1441SOL     OW 5221   5.298   6.341   0.806
 1441SOL    HW1 5222   5.251   6.311   0.888
 1441SOL    HW2 5223   5.302   6.265   0.740
 1442SOL     OW 5224   5.214   5.950   0.819
 1442SOL    HW1 5225   5.125   5.961   0.864
 1442SOL    HW2 5226   5.225   5.855   0.790
 1443SOL     OW 5227   0.381   2.941   3.039
 1443SOL    HW1 5228   0.374   2.945   2.939
 1443SOL    HW2 5229   0.370   3.033   3.077
 1444SOL     OW 5230   6.425   4.732   6.868
 1444SOL    HW1 5231   6.480   4.693   6.943
 1444SOL    HW2 5232   6.471   4.813   6.833
 1445SOL     OW 5233   1.059   3.569   1.398
 1445SOL    HW1 5234   0.975   3.594   1.446
 1445SOL    HW2 5235   1.119   3.649   1.393
 1446SOL     OW 5236   6.243   6.651   0.836
 1446SOL    HW1 5237   6.336   6.649   0.874
 1446SOL    HW2 5238   6.244   6.619   0.742
 1447SOL     OW 5239   6.194   5.219   4.600
 1447SOL    HW1 5240   6.120   5.154   4.615
 1447SOL    HW2 5241   6.281   5.170   4.592
 1448SOL     OW 5242   1.215   3.203   5.773
 1448SOL    HW1 5243   1.307   3.230   5.802
 1448SOL    HW2 5244   1.148   3.234   5.840
 1449SOL     OW 5245   2.132   3.309   3.424
 1449SOL    HW1 5246   2.138   3.370   3.503
 1449SOL    HW2 5247   2.219   3.261   3.412
 1450SOL     OW 5248   2.509   2.577   3.837
 1450SOL    HW1 5249   2.519   2.595   3.935
 1450SOL    HW2 5250   2.593   2.537   3.801
 1451SOL     OW 5251   2.847   0.808   2.879
 1451SOL    HW1 5252   2.879   0.846   2.792
 1451SOL    HW2 5253   2.924   0.765   2.926
 1452SOL     OW 5254   5.145   2.953   6.578
 1452SOL    HW1 5255   5.182   2.929   6.667
 1452SOL    HW2 5256   5.204   3.022   6.535
 1453SOL     OW 5257   6.872   4.599   5.528
 1453SOL    HW1 5258   6.937   4.675   5.536
 1453SOL    HW2 5259   6.779   4.633   5.542
 1454SOL     OW 5260   3.652   1.931   3.517
 1454SOL    HW1 5261   3.721   1.985   3.565
 1454SOL    HW2 5262   3.688   1.839   3.499
 1455SOL     OW 5263   0.499   5.795   1.729
 1455SOL    HW1 5264   0.456   5.723   1.783
 1455SOL    HW2 5265   0.459   5.884   1.755
 1456SOL     OW 5266   6.437   4.765   4.161
 1456SOL    HW1 5267   6.493   4.840   4.196
 1456SOL    HW2 5268   6.435   4.690   4.227
 1457SOL     OW 5269   1.097   5.629   6.124
 1457SOL    HW1 5270   1.018   5.599   6.071
 1457SOL    HW2 5271   1.109   5.570   6.203
 1458SOL     OW 5272   5.165   5.144   5.257
 1458SOL    HW1 5273   5.185   5.068   5.319
 1458SOL    HW2 5274   5.222   5.223   5.282
 1459SOL     OW 5275   5.683   6.643   5.502
 1459SOL    HW1 5276   5.701   6.735   5.467
 1459SOL    HW2 5277   5.612   6.600   5.445
 1460SOL     OW 5278   1.283   6.387   4.813
 1460SOL    HW1 5279   1.296   6.309   4.874
 1460SOL    HW2 5280   1.227   6.456   4.858
 1461SOL     OW 5281   6.499   3.169   3.866
 1461SOL    HW1 5282   6.430   3.135   3.802
 1461SOL    HW2 5283   6.454   3.224   3.937
 1462SOL     OW 5284   0.407   0.815   1.856
 1462SOL    HW1 5285   0.502   0.836   1.881
 1462SOL    HW2 5286   0.392   0.838   1.760
 1463SOL     OW 5287   2.364   5.406   0.055
 1463SOL    HW1 5288   2.413   5.447   7.001
 1463SOL    HW2 5289   2.302   5.473   0.095
 1464SOL     OW 5290   1.401   3.834   3.955
 1464SOL    HW1 5291   1.404   3.901   4.029
 1464SOL    HW2 5292   1.430   3.745   3.989
 1465SOL     OW 5293   0.768   2.909   3.936
 1465SOL    HW1 5294   0.855   2.944   3.902
 1465SOL    HW2 5295   0.713   2.984   3.970
 1466SOL     OW 5296   5.510   2.464   2.510
 1466SOL    HW1 5297   5.609   2.454   2.500
 1466SOL    HW2 5298   5.489   2.511   2.595
 1467SOL     OW 5299   0.709   0.960   4.343
 1467SOL    HW1 5300   0.767   0.879   4.337
 1467SOL    HW2 5301   0.767   1.041   4.358
 1468SOL     OW 5302   2.925   5.123   2.531
 1468SOL    HW1 5303   2.963   5.032   2.549
 1468SOL    HW2 5304   2.994   5.180   2.488
 1469SOL     OW 5305   5.862   3.821   3.006
 1469SOL    HW1 5306   5.856   3.864   2.916
 1469SOL    HW2 5307   5.900   3.729   2.996
 1470SOL     OW 5308   6.086   1.299   1.933
 1470SOL    HW1 5309   6.173   1.292   1.884
 1470SOL    HW2 5310   6.017   1.243   1.888
 1471SOL     OW 5311   4.612   6.733   1.200
 1471SOL    HW1 5312   4.607   6.661   1.130
 1471SOL    HW2 5313   4.615   6.690   1.291
 1472SOL     OW 5314   2.110   0.464   6.058
 1472SOL    HW1 5315   2.029   0.475   6.001
 1472SOL    HW2 5316   2.191   0.458   6.000
 1473SOL     OW 5317   1.661   5.765   3.651
 1473SOL    HW1 5318   1.698   5.683   3.607
 1473SOL    HW2 5319   1.576   5.791   3.606
 1474SOL     OW 5320   2.447   4.896   1.179
 1474SOL    HW1 5321   2.371   4.835   1.155
 1474SOL    HW2 5322   2.515   4.895   1.106
 1475SOL     OW 5323   5.553   0.291   6.263
 1475SOL    HW1 5324   5.506   0.248   6.339
 1475SOL    HW2 5325   5.572   0.223   6.192
 1476SOL     OW 5326   4.546   1.001   0.451
 1476SOL    HW1 5327   4.606   1.015   0.530
 1476SOL    HW2 5328   4.540   0.903   0.431
 1477SOL     OW 5329   3.521   4.842   1.487
 1477SOL    HW1 5330   3.567   4.882   1.407
 1477SOL    HW2 5331   3.471   4.760   1.460
 1478SOL     OW 5332   4.614   5.189   6.648
 1478SOL    HW1 5333   4.628   5.096   6.617
 1478SOL    HW2 5334   4.618   5.252   6.571
 1479SOL     OW 5335   3.903   3.549   1.499
 1479SOL    HW1 5336   3.840   3.614   1.543
 1479SOL    HW2 5337   3.912   3.468   1.558
 1480SOL     OW 5338   3.250   0.532   4.533
 1480SOL    HW1 5339   3.156   0.516   4.563
 1480SOL    HW2 5340   3.250   0.597   4.457
 1481SOL     OW 5341   5.672   2.415   6.296
 1481SOL    HW1 5342   5.634   2.487   6.239
 1481SOL    HW2 5343   5.771   2.422   6.297
 1482SOL     OW 5344   5.421   1.248   1.151
 1482SOL    HW1 5345   5.369   1.289   1.077
 1482SOL    HW2 5346   5.402   1.297   1.236
 1483SOL     OW 5347   5.813   0.914   6.826
 1483SOL    HW1 5348   5.896   0.870   6.791
 1483SOL    HW2 5349   5.739   0.847   6.829
 1484SOL     OW 5350   3.610   5.953   5.121
 1484SOL    HW1 5351   3.584   5.960   5.217
 1484SOL    HW2 5352   3.529   5.931   5.066
 1485SOL     OW 5353   5.364   2.590   3.378
 1485SOL    HW1 5354   5.269   2.584   3.348
 1485SOL    HW2 5355   5.393   2.685   3.378
 1486SOL     OW 5356   4.646   6.588   3.584
 1486SOL    HW1 5357   4.653   6.521   3.657
 1486SOL    HW2 5358   4.718   6.571   3.516
 1487SOL     OW 5359   6.313   0.766   0.453
 1487SOL    HW1 5360   6.233   0.777   0.394
 1487SOL    HW2 5361   6.307   0.828   0.531
 1488SOL     OW 5362   6.898   1.872   2.688
 1488SOL    HW1 5363   6.948   1.901   2.607
 1488SOL    HW2 5364   6.900   1.772   2.695
 1489SOL     OW 5365   3.238   4.574   0.619
 1489SOL    HW1 5366   3.303   4.554   0.546
 1489SOL    HW2 5367   3.165   4.505   0.619
 1490SOL     OW 5368   6.812   2.466   2.214
 1490SOL    HW1 5369   6.812   2.510   2.304
 1490SOL    HW2 5370   6.767   2.525   2.147
 1491SOL     OW 5371   6.117   2.588   3.847
 1491SOL    HW1 5372   6.024   2.617   3.872
 1491SOL    HW2 5373   6.167   2.562   3.929
 1492SOL     OW 5374   6.396   1.530   3.490
 1492SOL    HW1 5375   6.478   1.588   3.488
 1492SOL    HW2 5376   6.419   1.441   3.531
 1493SOL     OW 5377   5.058   1.866   6.142
 1493SOL    HW1 5378   5.062   1.768   6.164
 1493SOL    HW2 5379   4.991   1.911   6.201
 1494SOL     OW 5380   6.431   4.533   5.869
 1494SOL    HW1 5381   6.432   4.604   5.798
 1494SOL    HW2 5382   6.422   4.443   5.826
 1495SOL     OW 5383   0.166   3.947   4.194
 1495SOL    HW1 5384   0.247   4.003   4.204
 1495SOL    HW2 5385   0.136   3.948   4.098
 1496SOL     OW 5386   6.147   6.199   6.316
 1496SOL    HW1 5387   6.149   6.111   6.268
 1496SOL    HW2 5388   6.222   6.203   6.382
 1497SOL     OW 5389   6.065   2.767   2.848
 1497SOL    HW1 5390   6.004   2.691   2.826
 1497SOL    HW2 5391   6.027   2.818   2.925
 1498SOL     OW 5392   3.240   3.766   0.778
 1498SOL    HW1 5393   3.239   3.667   0.764
 1498SOL    HW2 5394   3.146   3.801   0.776
 1499SOL     OW 5395   0.362   4.570   4.745
 1499SOL    HW1 5396   0.402   4.651   4.701
 1499SOL    HW2 5397   0.376   4.490   4.686
 1500SOL     OW 5398   0.706   6.314   1.781
 1500SOL    HW1 5399   0.658   6.271   1.705
 1500SOL    HW2 5400   0.643   6.326   1.858
 1501SOL     OW 5401   5.666   1.924   0.408
 1501SOL    HW1 5402   5.645   1.866   0.329
 1501SOL    HW2 5403   5.741   1.883   0.461
 1502SOL     OW 5404   6.470   0.118   6.140
 1502SOL    HW1 5405   6.477   0.114   6.240
 1502SOL    HW2 5406   6.481   0.212   6.110
 1503SOL     OW 5407   0.121   4.783   1.335
 1503SOL    HW1 5408   0.033   4.803   1.378
 1503SOL    HW2 5409   0.180   4.863   1.343
 1504SOL     OW 5410   2.010   6.942   2.383
 1504SOL    HW1 5411   2.020   0.010   2.425
 1504SOL    HW2 5412   2.011   6.952   2.283
 1505SOL     OW 5413   5.945   4.984   4.952
 1505SOL    HW1 5414   5.926   5.069   5.000
 1505SOL    HW2 5415   5.870   4.964   4.888
 1506SOL     OW 5416   0.411   1.413   1.106
 1506SOL    HW1 5417   0.469   1.412   1.025
 1506SOL    HW2 5418   0.332   1.354   1.091
 1507SOL     OW 5419   1.411   2.650   4.215
 1507SOL    HW1 5420   1.460   2.575   4.258
 1507SOL    HW2 5421   1.410   2.638   4.116
 1508SOL     OW 5422   1.474   0.570   1.249
 1508SOL    HW1 5423   1.383   0.566   1.207
 1508SOL    HW2 5424   1.516   0.658   1.228
 1509SOL     OW 5425   5.037   1.437   4.535
 1509SOL    HW1 5426   4.950   1.448   4.487
 1509SOL    HW2 5427   5.036   1.493   4.618
 1510SOL     OW 5428   3.672   6.290   4.386
 1510SOL    HW1 5429   3.673   6.352   4.308
 1510SOL    HW2 5430   3.646   6.341   4.469
 1511SOL     OW 5431   2.914   3.565   5.050
 1511SOL    HW1 5432   2.840   3.523   5.103
 1511SOL    HW2 5433   2.951   3.499   4.985
 1512SOL     OW 5434   5.577   6.685   0.967
 1512SOL    HW1 5435   5.589   6.723   1.059
 1512SOL    HW2 5436   5.548   6.758   0.905
 1513SOL     OW 5437   2.675   7.000   5.972
 1513SOL    HW1 5438   2.747   6.958   6.028
 1513SOL    HW2 5439   2.586   6.965   5.999
 1514SOL     OW 5440   3.117   2.843   6.202
 1514SOL    HW1 5441   3.072   2.852   6.291
 1514SOL    HW2 5442   3.121   2.747   6.175
 1515SOL     OW 5443   4.760   0.998   2.388
 1515SOL    HW1 5444   4.782   0.941   2.468
 1515SOL    HW2 5445   4.796   0.955   2.306
 1516SOL     OW 5446   5.796   0.383   5.226
 1516SOL    HW1 5447   5.872   0.437   5.189
 1516SOL    HW2 5448   5.786   0.403   5.323
 1517SOL     OW 5449   3.545   6.169   3.910
 1517SOL    HW1 5450   3.584   6.104   3.976
 1517SOL    HW2 5451   3.456   6.136   3.879
 1518SOL     OW 5452   0.885   2.832   6.860
 1518SOL    HW1 5453   0.976   2.796   6.879
 1518SOL    HW2 5454   0.834   2.841   6.946
 1519SOL     OW 5455   6.854   5.202   6.858
 1519SOL    HW1 5456   6.810   5.247   6.780
 1519SOL    HW2 5457   6.944   5.242   6.873
 1520SOL     OW 5458   0.460   6.380   3.049
 1520SOL    HW1 5459   0.383   6.422   3.097
 1520SOL    HW2 5460   0.493   6.442   2.978
 1521SOL     OW 5461   2.237   4.996   6.215
 1521SOL    HW1 5462   2.183   5.057   6.157
 1521SOL    HW2 5463   2.334   5.011   6.198
 1522SOL     OW 5464   5.760   6.102   4.077
 1522SOL    HW1 5465   5.813   6.039   4.134
 1522SOL    HW2 5466   5.821   6.146   4.011
 1523SOL     OW 5467   3.657   6.362   0.761
 1523SOL    HW1 5468   3.594   6.436   0.786
 1523SOL    HW2 5469   3.734   6.361   0.824
 1524SOL     OW 5470   2.655   1.645   2.942
 1524SOL    HW1 5471   2.704   1.611   2.862
 1524SOL    HW2 5472   2.573   1.589   2.957
 1525SOL     OW 5473   5.430   3.813   6.972
 1525SOL    HW1 5474   5.450   3.865   6.889
 1525SOL    HW2 5475   5.336   3.832   7.001
 1526SOL     OW 5476   1.071   1.295   0.411
 1526SOL    HW1 5477   0.977   1.280   0.378
 1526SOL    HW2 5478   1.135   1.246   0.352
 1527SOL     OW 5479   4.583   2.158   3.737
 1527SOL    HW1 5480   4.505   2.220   3.726
 1527SOL    HW2 5481   4.615   2.129   3.648
 1528SOL     OW 5482   3.752   4.107   2.064
 1528SOL    HW1 5483   3.660   4.116   2.026
 1528SOL    HW2 5484   3.766   4.177   2.134
 1529SOL     OW 5485   4.166   1.267   5.736
 1529SOL    HW1 5486   4.170   1.167   5.741
 1529SOL    HW2 5487   4.140   1.294   5.644
 1530SOL     OW 5488   3.221   6.524   0.904
 1530SOL    HW1 5489   3.123   6.506   0.899
 1530SOL    HW2 5490   3.236   6.617   0.937
 1531SOL     OW 5491   4.364   6.710   4.363
 1531SOL    HW1 5492   4.300   6.759   4.305
 1531SOL    HW2 5493   4.438   6.771   4.390
 1532SOL     OW 5494   3.367   5.687   6.595
 1532SOL    HW1 5495   3.283   5.635   6.581
 1532SOL    HW2 5496   3.442   5.643   6.546
 1533SOL     OW 5497   6.061   5.502   1.318
 1533SOL    HW1 5498   5.966   5.471   1.315
 1533SOL    HW2 5499   6.122   5.426   1.298
 1534SOL     OW 5500   3.780   4.900   6.518
 1534SOL    HW1 5501   3.723   4.819   6.528
 1534SOL    HW2 5502   3.771   4.936   6.425
 1535SOL     OW 5503   5.590   5.369   3.937
 1535SOL    HW1 5504   5.582   5.420   4.022
 1535SOL    HW2 5505   5.674   5.398   3.889
 1536SOL     OW 5506   4.979   3.270   6.543
 1536SOL    HW1 5507   5.005   3.360   6.506
 1536SOL    HW2 5508   4.990   3.201   6.472
 1537SOL     OW 5509   2.912   5.242   3.125
 1537SOL    HW1 5510   2.897   5.158   3.072
 1537SOL    HW2 5511   2.885   5.321   3.070
 1538SOL     OW 5512   2.622   1.322   0.297
 1538SOL    HW1 5513   2.634   1.245   0.234
 1538SOL    HW2 5514   2.659   1.405   0.256
 1539SOL     OW 5515   5.958   3.064   0.519
 1539SOL    HW1 5516   6.045   3.023   0.545
 1539SOL    HW2 5517   5.897   2.993   0.483
 1540SOL     OW 5518   3.336   0.006   4.189
 1540SOL    HW1 5519   3.294   0.056   4.265
 1540SOL    HW2 5520   3.378   0.071   4.126
 1541SOL     OW 5521   3.663   3.255   5.412
 1541SOL    HW1 5522   3.684   3.175   5.468
 1541SOL    HW2 5523   3.566   3.254   5.388
 1542SOL     OW 5524   0.434   6.754   2.087
 1542SOL    HW1 5525   0.381   6.830   2.123
 1542SOL    HW2 5526   0.459   6.773   1.992
 1543SOL     OW 5527   3.173   4.553   0.142
 1543SOL    HW1 5528   3.237   4.484   0.175
 1543SOL    HW2 5529   3.219   4.641   0.137
 1544SOL     OW 5530   3.812   3.656   3.876
 1544SOL    HW1 5531   3.759   3.639   3.959
 1544SOL    HW2 5532   3.761   3.716   3.815
 1545SOL     OW 5533   5.843   6.108   1.876
 1545SOL    HW1 5534   5.777   6.034   1.890
 1545SOL    HW2 5535   5.804   6.195   1.907
 1546SOL     OW 5536   5.302   6.920   5.748
 1546SOL    HW1 5537   5.279   6.844   5.809
 1546SOL    HW2 5538   5.292   7.007   5.797
 1547SOL     OW 5539   2.135   3.124   6.371
 1547SOL    HW1 5540   2.073   3.156   6.299
 1547SOL    HW2 5541   2.225   3.165   6.359
 1548SOL     OW 5542   6.201   1.876   7.012
 1548SOL    HW1 5543   6.200   1.836   0.081
 1548SOL    HW2 5544   6.193   1.804   6.943
 1549SOL     OW 5545   4.642   0.820   4.931
 1549SOL    HW1 5546   4.631   0.743   4.993
 1549SOL    HW2 5547   4.707   0.886   4.970
 1550SOL     OW 5548   3.751   2.977   4.027
 1550SOL    HW1 5549   3.653   2.962   4.040
 1550SOL    HW2 5550   3.766   3.069   3.990
 1551SOL     OW 5551   6.272   4.677   6.136
 1551SOL    HW1 5552   6.366   4.697   6.111
 1551SOL    HW2 5553   6.238   4.600   6.081
 1552SOL     OW 5554   1.833   4.353   1.437
 1552SOL    HW1 5555   1.837   4.387   1.531
 1552SOL    HW2 5556   1.852   4.255   1.437
 1553SOL     OW 5557   1.434   1.745   5.993
 1553SOL    HW1 5558   1.501   1.676   6.020
 1553SOL    HW2 5559   1.473   1.803   5.920
 1554SOL     OW 5560   3.076   1.760   3.941
 1554SOL    HW1 5561   3.139   1.703   3.888
 1554SOL    HW2 5562   3.026   1.821   3.879
 1555SOL     OW 5563   6.395   4.084   5.739
 1555SOL    HW1 5564   6.430   4.030   5.663
 1555SOL    HW2 5565   6.459   4.158   5.760
 1556SOL     OW 5566   2.100   0.802   6.075
 1556SOL    HW1 5567   2.050   0.807   5.989
 1556SOL    HW2 5568   2.195   0.778   6.056
 1557SOL     OW 5569   0.201   2.903   6.450
 1557SOL    HW1 5570   0.143   2.883   6.528
 1557SOL    HW2 5571   0.273   2.834   6.442
 1558SOL     OW 5572   0.573   6.819   4.600
 1558SOL    HW1 5573   0.543   6.745   4.659
 1558SOL    HW2 5574   0.625   6.886   4.653
 1559SOL     OW 5575   1.173   1.803   6.513
 1559SOL    HW1 5576   1.258   1.818   6.463
 1559SOL    HW2 5577   1.096   1.837   6.459
 1560SOL     OW 5578   0.096   0.268   6.674
 1560SOL    HW1 5579   0.100   0.193   6.608
 1560SOL    HW2 5580   0.188   0.305   6.687
 1561SOL     OW 5581   5.844   6.051   2.571
 1561SOL    HW1 5582   5.858   6.085   2.478
 1561SOL    HW2 5583   5.748   6.029   2.585
 1562SOL     OW 5584   6.154   0.751   3.425
 1562SOL    HW1 5585   6.115   0.673   3.376
 1562SOL    HW2 5586   6.123   0.749   3.520
 1563SOL     OW 5587   3.902   6.869   5.054
 1563SOL    HW1 5588   3.992   6.912   5.055
 1563SOL    HW2 5589   3.885   6.830   4.964
 1564SOL     OW 5590   1.185   1.928   2.424
 1564SOL    HW1 5591   1.199   1.904   2.328
 1564SOL    HW2 5592   1.089   1.917   2.448
 1565SOL     OW 5593   5.706   4.512   1.719
 1565SOL    HW1 5594   5.700   4.532   1.621
 1565SOL    HW2 5595   5.663   4.586   1.771
 1566SOL     OW 5596   5.879   4.597   3.138
 1566SOL    HW1 5597   5.960   4.557   3.095
 1566SOL    HW2 5598   5.826   4.525   3.183
 1567SOL     OW 5599   6.620   5.977   5.358
 1567SOL    HW1 5600   6.525   5.999   5.381
 1567SOL    HW2 5601   6.665   6.059   5.322
 1568SOL     OW 5602   0.494   0.035   0.131
 1568SOL    HW1 5603   0.558   0.096   0.178
 1568SOL    HW2 5604   0.468   6.983   0.191
 1569SOL     OW 5605   3.584   6.437   4.590
 1569SOL    HW1 5606   3.493   6.407   4.615
 1569SOL    HW2 5607   3.605   6.522   4.638
 1570SOL     OW 5608   3.331   2.147   1.653
 1570SOL    HW1 5609   3.414   2.092   1.659
 1570SOL    HW2 5610   3.268   2.107   1.587
 1571SOL     OW 5611   6.676   4.337   0.733
 1571SOL    HW1 5612   6.654   4.247   0.697
 1571SOL    HW2 5613   6.762   4.331   0.785
 1572SOL     OW 5614   1.315   6.343   2.090
 1572SOL    HW1 5615   1.346   6.248   2.098
 1572SOL    HW2 5616   1.335   6.391   2.176
 1573SOL     OW 5617   3.741   0.143   0.777
 1573SOL    HW1 5618   3.708   0.174   0.866
 1573SOL    HW2 5619   3.726   0.215   0.709
 1574SOL     OW 5620   6.210   2.911   2.495
 1574SOL    HW1 5621   6.297   2.929   2.450
 1574SOL    HW2 5622   6.191   2.984   2.561
 1575SOL     OW 5623   3.167   2.206   0.275
 1575SOL    HW1 5624   3.167   2.224   0.374
 1575SOL    HW2 5625   3.196   2.288   0.226
 1576SOL     OW 5626   6.608   5.888   3.786
 1576SOL    HW1 5627   6.539   5.878   3.714
 1576SOL    HW2 5628   6.593   5.818   3.856
 1577SOL     OW 5629   1.361   0.670   0.052
 1577SOL    HW1 5630   1.401   0.589   0.010
 1577SOL    HW2 5631   1.431   0.721   0.101
 1578SOL     OW 5632   5.914   5.507   4.541
 1578SOL    HW1 5633   5.866   5.439   4.486
 1578SOL    HW2 5634   5.865   5.521   4.627
 1579SOL     OW 5635   0.665   6.893   3.554
 1579SOL    HW1 5636   0.728   6.904   3.477
 1579SOL    HW2 5637   0.654   6.796   3.576
 1580SOL     OW 5638   3.436   3.903   5.743
 1580SOL    HW1 5639   3.370   3.877   5.673
 1580SOL    HW2 5640   3.502   3.829   5.757
 1581SOL     OW 5641   6.440   3.938   4.142
 1581SOL    HW1 5642   6.478   3.860   4.091
 1581SOL    HW2 5643   6.444   4.020   4.085
 1582SOL     OW 5644   6.170   5.418   4.426
 1582SOL    HW1 5645   6.196   5.338   4.481
 1582SOL    HW2 5646   6.087   5.458   4.465
 1583SOL     OW 5647   2.278   2.545   2.676
 1583SOL    HW1 5648   2.229   2.628   2.700
 1583SOL    HW2 5649   2.216   2.466   2.679
 1584SOL     OW 5650   2.050   0.632   6.318
 1584SOL    HW1 5651   2.140   0.594   6.341
 1584SOL    HW2 5652   2.040   0.637   6.219
 1585SOL     OW 5653   6.200   1.467   5.322
 1585SOL    HW1 5654   6.191   1.387   5.263
 1585SOL    HW2 5655   6.272   1.451   5.390
 1586SOL     OW 5656   3.933   3.962   3.137
 1586SOL    HW1 5657   3.903   4.002   3.224
 1586SOL    HW2 5658   4.031   3.977   3.125
 1587SOL     OW 5659   2.316   6.471   6.628
 1587SOL    HW1 5660   2.381   6.538   6.591
 1587SOL    HW2 5661   2.361   6.383   6.637
 1588SOL     OW 5662   5.966   3.986   1.195
 1588SOL    HW1 5663   5.968   3.886   1.197
 1588SOL    HW2 5664   5.934   4.020   1.284
 1589SOL     OW 5665   5.056   4.283   3.785
 1589SOL    HW1 5666   5.091   4.355   3.846
 1589SOL    HW2 5667   5.029   4.324   3.698
 1590SOL     OW 5668   1.901   0.762   5.878
 1590SOL    HW1 5669   1.896   0.662   5.874
 1590SOL    HW2 5670   1.815   0.801   5.846
 1591SOL     OW 5671   0.311   4.267   1.366
 1591SOL    HW1 5672   0.274   4.341   1.422
 1591SOL    HW2 5673   0.372   4.306   1.297
 1592SOL     OW 5674   2.955   3.714   3.403
 1592SOL    HW1 5675   2.907   3.664   3.331
 1592SOL    HW2 5676   3.010   3.649   3.456
 1593SOL     OW 5677   1.117   5.277   4.951
 1593SOL    HW1 5678   1.096   5.373   4.971
 1593SOL    HW2 5679   1.141   5.230   5.036
 1594SOL     OW 5680   0.536   5.045   3.265
 1594SOL    HW1 5681   0.550   4.987   3.185
 1594SOL    HW2 5682   0.441   5.075   3.268
 1595SOL     OW 5683   0.076   5.188   5.955
 1595SOL    HW1 5684   0.069   5.088   5.960
 1595SOL    HW2 5685   0.167   5.213   5.924
 1596SOL     OW 5686   3.075   4.817   6.935
 1596SOL    HW1 5687   2.987   4.795   6.976
 1596SOL    HW2 5688   3.149   4.791   6.997
 1597SOL     OW 5689   2.712   0.085   0.926
 1597SOL    HW1 5690   2.685   7.021   0.884
 1597SOL    HW2 5691   2.800   0.073   0.972
 1598SOL     OW 5692   0.074   5.443   1.609
 1598SOL    HW1 5693   0.032   5.419   1.696
 1598SOL    HW2 5694   0.055   5.372   1.542
 1599SOL     OW 5695   3.574   4.739   0.004
 1599SOL    HW1 5696   3.671   4.722   0.018
 1599SOL    HW2 5697   3.560   4.789   6.941
 1600SOL     OW 5698   3.207   1.296   5.188
 1600SOL    HW1 5699   3.271   1.226   5.219
 1600SOL    HW2 5700   3.228   1.320   5.093
 1601SOL     OW 5701   1.449   4.467   4.738
 1601SOL    HW1 5702   1.401   4.406   4.676
 1601SOL    HW2 5703   1.498   4.536   4.685
 1602SOL     OW 5704   0.411   5.146   2.766
 1602SOL    HW1 5705   0.328   5.093   2.751
 1602SOL    HW2 5706   0.455   5.166   2.678
 1603SOL     OW 5707   5.839   6.737   1.063
 1603SOL    HW1 5708   5.793   6.673   1.001
 1603SOL    HW2 5709   5.774   6.769   1.132
 1604SOL     OW 5710   0.257   5.368   5.138
 1604SOL    HW1 5711   0.321   5.442   5.118
 1604SOL    HW2 5712   0.298   5.308   5.207
 1605SOL     OW 5713   4.851   6.614   2.805
 1605SOL    HW1 5714   4.806   6.688   2.856
 1605SOL    HW2 5715   4.786   6.573   2.741
 1606SOL     OW 5716   4.748   0.229   5.931
 1606SOL    HW1 5717   4.714   0.174   5.855
 1606SOL    HW2 5718   4.774   0.168   6.006
 1607SOL     OW 5719   4.806   2.312   0.653
 1607SOL    HW1 5720   4.755   2.282   0.572
 1607SOL    HW2 5721   4.861   2.236   0.687
 1608SOL     OW 5722   2.363   0.214   0.645
 1608SOL    HW1 5723   2.405   0.175   0.727
 1608SOL    HW2 5724   2.374   0.313   0.645
 1609SOL     OW 5725   5.274   1.292   5.433
 1609SOL    HW1 5726   5.337   1.367   5.413
 1609SOL    HW2 5727   5.189   1.329   5.471
 1610SOL     OW 5728   5.577   6.215   4.303
 1610SOL    HW1 5729   5.511   6.274   4.256
 1610SOL    HW2 5730   5.651   6.190   4.240
 1611SOL     OW 5731   3.844   3.551   1.214
 1611SOL    HW1 5732   3.861   3.538   1.312
 1611SOL    HW2 5733   3.756   3.509   1.191
 1612SOL     OW 5734   3.290   1.581   4.419
 1612SOL    HW1 5735   3.213   1.551   4.362
 1612SOL    HW2 5736   3.360   1.509   4.420
 1613SOL     OW 5737   1.919   6.465   1.015
 1613SOL    HW1 5738   2.013   6.465   0.980
 1613SOL    HW2 5739   1.916   6.418   1.103
 1614SOL     OW 5740   0.515   2.950   6.614
 1614SOL    HW1 5741   0.425   2.906   6.614
 1614SOL    HW2 5742   0.536   2.983   6.706
 1615SOL     OW 5743   6.287   4.989   6.459
 1615SOL    HW1 5744   6.245   4.952   6.377
 1615SOL    HW2 5745   6.380   4.955   6.468
 1616SOL     OW 5746   2.403   1.999   5.795
 1616SOL    HW1 5747   2.335   2.043   5.853
 1616SOL    HW2 5748   2.361   1.965   5.712
 1617SOL     OW 5749   4.709   0.812   4.453
 1617SOL    HW1 5750   4.780   0.845   4.391
 1617SOL    HW2 5751   4.655   0.890   4.486
 1618SOL     OW 5752   5.705   2.439   1.077
 1618SOL    HW1 5753   5.757   2.512   1.035
 1618SOL    HW2 5754   5.688   2.367   1.010
 1619SOL     OW 5755   1.673   3.007   4.696
 1619SOL    HW1 5756   1.652   3.102   4.715
 1619SOL    HW2 5757   1.770   2.989   4.714
 1620SOL     OW 5758   4.051   5.642   1.632
 1620SOL    HW1 5759   4.090   5.719   1.581
 1620SOL    HW2 5760   4.107   5.624   1.713
 1621SOL     OW 5761   2.193   1.542   1.590
 1621SOL    HW1 5762   2.250   1.490   1.653
 1621SOL    HW2 5763   2.140   1.610   1.641
 1622SOL     OW 5764   2.085   2.255   4.750
 1622SOL    HW1 5765   2.115   2.320   4.681
 1622SOL    HW2 5766   2.098   2.295   4.841
 1623SOL     OW 5767   2.523   2.440   4.921
 1623SOL    HW1 5768   2.549   2.477   5.010
 1623SOL    HW2 5769   2.583   2.363   4.899
 1624SOL     OW 5770   2.420   0.496   0.550
 1624SOL    HW1 5771   2.348   0.553   0.592
 1624SOL    HW2 5772   2.388   0.464   0.461
 1625SOL     OW 5773   6.951   5.513   2.249
 1625SOL    HW1 5774   6.886   5.563   2.192
 1625SOL    HW2 5775   0.019   5.514   2.205
 1626SOL     OW 5776   1.890   3.067   5.961
 1626SOL    HW1 5777   1.938   3.106   5.883
 1626SOL    HW2 5778   1.792   3.082   5.951
 1627SOL     OW 5779   5.203   3.227   3.625
 1627SOL    HW1 5780   5.181   3.135   3.592
 1627SOL    HW2 5781   5.210   3.289   3.547
 1628SOL     OW 5782   2.800   2.980   0.544
 1628SOL    HW1 5783   2.820   3.036   0.464
 1628SOL    HW2 5784   2.759   2.894   0.515
 1629SOL     OW 5785   4.494   2.103   3.186
 1629SOL    HW1 5786   4.407   2.088   3.139
 1629SOL    HW2 5787   4.568   2.061   3.133
 1630SOL     OW 5788   0.381   4.800   4.600
 1630SOL    HW1 5789   0.342   4.754   4.520
 1630SOL    HW2 5790   0.320   4.873   4.630
 1631SOL     OW 5791   0.254   6.823   5.726
 1631SOL    HW1 5792   0.188   6.850   5.796
 1631SOL    HW2 5793   0.322   6.762   5.766
 1632SOL     OW 5794   5.822   0.301   1.708
 1632SOL    HW1 5795   5.841   0.341   1.618
 1632SOL    HW2 5796   5.906   0.299   1.762
 1633SOL     OW 5797   5.685   2.690   3.397
 1633SOL    HW1 5798   5.592   2.702   3.431
 1633SOL    HW2 5799   5.710   2.769   3.341
 1634SOL     OW 5800   3.496   0.810   0.077
 1634SOL    HW1 5801   3.483   0.906   0.054
 1634SOL    HW2 5802   3.543   0.763   0.002
 1635SOL     OW 5803   1.141   5.058   4.128
 1635SOL    HW1 5804   1.174   5.047   4.222
 1635SOL    HW2 5805   1.200   5.123   4.079
 1636SOL     OW 5806   2.917   6.593   1.213
 1636SOL    HW1 5807   2.930   6.510   1.268
 1636SOL    HW2 5808   2.908   6.569   1.117
 1637SOL     OW 5809   0.076   3.101   3.031
 1637SOL    HW1 5810   0.094   3.079   2.935
 1637SOL    HW2 5811   0.162   3.129   3.075
 1638SOL     OW 5812   1.767   3.128   5.145
 1638SOL    HW1 5813   1.685   3.078   5.118
 1638SOL    HW2 5814   1.788   3.109   5.241
 1639SOL     OW 5815   4.841   4.878   2.862
 1639SOL    HW1 5816   4.833   4.801   2.800
 1639SOL    HW2 5817   4.933   4.879   2.902
 1640SOL     OW 5818   6.140   0.084   1.070
 1640SOL    HW1 5819   6.130   0.178   1.104
 1640SOL    HW2 5820   6.053   0.053   1.031
 1641SOL     OW 5821   6.948   2.840   5.302
 1641SOL    HW1 5822   7.019   2.904   5.273
 1641SOL    HW2 5823   6.878   2.834   5.230
 1642SOL     OW 5824   6.981   2.116   1.617
 1642SOL    HW1 5825   0.004   2.203   1.598
 1642SOL    HW2 5826   0.015   2.061   1.678
 1643SOL     OW 5827   3.657   0.840   6.277
 1643SOL    HW1 5828   3.659   0.890   6.190
 1643SOL    HW2 5829   3.577   0.781   6.279
 1644SOL     OW 5830   3.285   0.853   1.128
 1644SOL    HW1 5831   3.215   0.786   1.104
 1644SOL    HW2 5832   3.285   0.868   1.226
 1645SOL     OW 5833   2.315   6.468   5.773
 1645SOL    HW1 5834   2.358   6.421   5.850
 1645SOL    HW2 5835   2.255   6.405   5.725
 1646SOL     OW 5836   0.906   3.640   0.741
 1646SOL    HW1 5837   0.927   3.578   0.817
 1646SOL    HW2 5838   0.839   3.596   0.681
 1647SOL     OW 5839   5.934   2.792   3.626
 1647SOL    HW1 5840   5.896   2.772   3.716
 1647SOL    HW2 5841   6.011   2.730   3.608
 1648SOL     OW 5842   4.580   0.223   2.695
 1648SOL    HW1 5843   4.584   0.125   2.711
 1648SOL    HW2 5844   4.504   0.263   2.748
 1649SOL     OW 5845   3.154   6.905   2.764
 1649SOL    HW1 5846   3.229   6.840   2.777
 1649SOL    HW2 5847   3.088   6.867   2.699
 1650SOL     OW 5848   3.281   6.870   3.936
 1650SOL    HW1 5849   3.310   6.911   4.022
 1650SOL    HW2 5850   3.251   6.776   3.952
 1651SOL     OW 5851   1.573   6.211   1.182
 1651SOL    HW1 5852   1.542   6.225   1.088
 1651SOL    HW2 5853   1.506   6.250   1.246
 1652SOL     OW 5854   2.871   2.910   1.603
 1652SOL    HW1 5855   2.816   2.831   1.633
 1652SOL    HW2 5856   2.891   2.900   1.505
 1653SOL     OW 5857   1.241   5.069   0.344
 1653SOL    HW1 5858   1.266   5.142   0.280
 1653SOL    HW2 5859   1.146   5.079   0.370
 1654SOL     OW 5860   0.377   2.294   3.560
 1654SOL    HW1 5861   0.380   2.251   3.649
 1654SOL    HW2 5862   0.437   2.374   3.560
 1655SOL     OW 5863   5.179   4.848   5.727
 1655SOL    HW1 5864   5.171   4.791   5.809
 1655SOL    HW2 5865   5.236   4.801   5.660
 1656SOL     OW 5866   0.556   4.230   3.309
 1656SOL    HW1 5867   0.497   4.151   3.327
 1656SOL    HW2 5868   0.545   4.259   3.214
 1657SOL     OW 5869   0.584   6.915   5.415
 1657SOL    HW1 5870   0.650   6.961   5.474
 1657SOL    HW2 5871   0.572   6.821   5.447
 1658SOL     OW 5872   6.426   5.907   2.499
 1658SOL    HW1 5873   6.355   5.858   2.549
 1658SOL    HW2 5874   6.385   5.955   2.421
 1659SOL     OW 5875   4.611   2.575   5.894
 1659SOL    HW1 5876   4.580   2.575   5.989
 1659SOL    HW2 5877   4.698   2.525   5.887
 1660SOL     OW 5878   1.891   5.907   3.099
 1660SOL    HW1 5879   1.987   5.915   3.126
 1660SOL    HW2 5880   1.855   5.997   3.076
 1661SOL     OW 5881   2.771   0.100   2.543
 1661SOL    HW1 5882   2.805   0.191   2.519
 1661SOL    HW2 5883   2.691   0.078   2.487
 1662SOL     OW 5884   0.130   0.339   3.512
 1662SOL    HW1 5885   0.181   0.418   3.478
 1662SOL    HW2 5886   0.194   0.264   3.531
 1663SOL     OW 5887   2.748   6.992   3.621
 1663SOL    HW1 5888   2.800   6.974   3.705
 1663SOL    HW2 5889   2.661   6.944   3.625
 1664SOL     OW 5890   2.360   5.622   4.162
 1664SOL    HW1 5891   2.272   5.616   4.209
 1664SOL    HW2 5892   2.398   5.714   4.175
 1665SOL     OW 5893   0.985   0.330   4.789
 1665SOL    HW1 5894   1.022   0.294   4.875
 1665SOL    HW2 5895   0.998   0.263   4.716
 1666SOL     OW 5896   5.641   3.291   6.600
 1666SOL    HW1 5897   5.608   3.347   6.525
 1666SOL    HW2 5898   5.587   3.206   6.604
 1667SOL     OW 5899   6.329   0.743   5.965
 1667SOL    HW1 5900   6.355   0.696   5.881
 1667SOL    HW2 5901   6.278   0.825   5.942
 1668SOL     OW 5902   2.827   0.816   4.709
 1668SOL    HW1 5903   2.832   0.781   4.615
 1668SOL    HW2 5904   2.731   0.830   4.733
 1669SOL     OW 5905   5.683   6.515   5.935
 1669SOL    HW1 5906   5.783   6.515   5.926
 1669SOL    HW2 5907   5.645   6.442   5.879
 1670SOL     OW 5908   5.882   3.834   6.053
 1670SOL    HW1 5909   5.850   3.881   5.971
 1670SOL    HW2 5910   5.803   3.806   6.108
 1671SOL     OW 5911   5.760   4.932   7.008
 1671SOL    HW1 5912   5.836   4.982   0.026
 1671SOL    HW2 5913   5.716   4.876   0.056
 1672SOL     OW 5914   2.378   5.196   2.164
 1672SOL    HW1 5915   2.344   5.116   2.113
 1672SOL    HW2 5916   2.475   5.182   2.187
 1673SOL     OW 5917   6.980   1.997   3.628
 1673SOL    HW1 5918   7.003   2.065   3.559
 1673SOL    HW2 5919   6.974   1.906   3.585
 1674SOL     OW 5920   1.690   5.142   6.591
 1674SOL    HW1 5921   1.698   5.111   6.497
 1674SOL    HW2 5922   1.647   5.233   6.593
 1675SOL     OW 5923   4.837   2.615   0.601
 1675SOL    HW1 5924   4.911   2.553   0.626
 1675SOL    HW2 5925   4.768   2.565   0.547
 1676SOL     OW 5926   2.329   1.052   3.536
 1676SOL    HW1 5927   2.300   1.088   3.625
 1676SOL    HW2 5928   2.386   0.972   3.550
 1677SOL     OW 5929   6.355   0.292   5.420
 1677SOL    HW1 5930   6.371   0.206   5.469
 1677SOL    HW2 5931   6.421   0.301   5.346
 1678SOL     OW 5932   4.573   6.911   1.007
 1678SOL    HW1 5933   4.577   6.841   1.078
 1678SOL    HW2 5934   4.664   6.950   0.995
 1679SOL     OW 5935   6.030   4.027   0.372
 1679SOL    HW1 5936   5.965   3.973   0.425
 1679SOL    HW2 5937   6.063   3.973   0.295
 1680SOL     OW 5938   1.251   2.242   5.204
 1680SOL    HW1 5939   1.203   2.303   5.141
 1680SOL    HW2 5940   1.195   2.226   5.285
 1681SOL     OW 5941   5.540   5.741   1.124
 1681SOL    HW1 5942   5.621   5.784   1.084
 1681SOL    HW2 5943   5.460   5.758   1.066
 1682SOL     OW 5944   6.465   3.553   5.402
 1682SOL    HW1 5945   6.396   3.625   5.399
 1682SOL    HW2 5946   6.505   3.549   5.493
 1683SOL     OW 5947   6.087   6.024   6.645
 1683SOL    HW1 5948   6.037   5.937   6.645
 1683SOL    HW2 5949   6.031   6.094   6.602
 1684SOL     OW 5950   0.480   5.677   4.608
 1684SOL    HW1 5951   0.541   5.696   4.685
 1684SOL    HW2 5952   0.531   5.629   4.537
 1685SOL     OW 5953   1.474   2.062   0.510
 1685SOL    HW1 5954   1.458   2.114   0.427
 1685SOL    HW2 5955   1.491   1.966   0.487
 1686SOL     OW 5956   2.159   5.918   6.677
 1686SOL    HW1 5957   2.133   5.824   6.654
 1686SOL    HW2 5958   2.192   5.965   6.596
 1687SOL     OW 5959   1.961   7.004   2.094
 1687SOL    HW1 5960   1.984   0.073   2.127
 1687SOL    HW2 5961   1.862   6.991   2.100
 1688SOL     OW 5962   0.187   1.882   4.059
 1688SOL    HW1 5963   0.181   1.789   4.095
 1688SOL    HW2 5964   0.098   1.909   4.023
 1689SOL     OW 5965   3.331   1.434   2.517
 1689SOL    HW1 5966   3.260   1.457   2.584
 1689SOL    HW2 5967   3.356   1.515   2.465
 1690SOL     OW 5968   0.398   2.054   0.955
 1690SOL    HW1 5969   0.372   1.960   0.931
 1690SOL    HW2 5970   0.337   2.118   0.909
 1691SOL     OW 5971   4.683   4.427   2.722
 1691SOL    HW1 5972   4.655   4.391   2.812
 1691SOL    HW2 5973   4.642   4.371   2.650
 1692SOL     OW 5974   1.456   0.402   3.380
 1692SOL    HW1 5975   1.479   0.493   3.413
 1692SOL    HW2 5976   1.540   0.355   3.351
 1693SOL     OW 5977   2.295   2.246   4.016
 1693SOL    HW1 5978   2.258   2.180   4.080
 1693SOL    HW2 5979   2.330   2.198   3.935
 1694SOL     OW 5980   4.669   6.087   5.650
 1694SOL    HW1 5981   4.673   6.061   5.746
 1694SOL    HW2 5982   4.624   6.015   5.597
 1695SOL     OW 5983   2.708   1.254   6.119
 1695SOL    HW1 5984   2.638   1.311   6.162
 1695SOL    HW2 5985   2.678   1.227   6.028
 1696SOL     OW 5986   3.116   5.526   1.499
 1696SOL    HW1 5987   3.136   5.428   1.503
 1696SOL    HW2 5988   3.116   5.556   1.403
 1697SOL     OW 5989   1.017   1.025   2.002
 1697SOL    HW1 5990   1.106   0.985   1.977
 1697SOL    HW2 5991   1.031   1.105   2.059
 1698SOL     OW 5992   5.491   1.826   0.605
 1698SOL    HW1 5993   5.558   1.777   0.660
 1698SOL    HW2 5994   5.538   1.883   0.537
 1699SOL     OW 5995   2.379   4.059   0.804
 1699SOL    HW1 5996   2.316   4.026   0.874
 1699SOL    HW2 5997   2.328   4.110   0.734
 1700SOL     OW 5998   6.776   2.858   4.516
 1700SOL    HW1 5999   6.748   2.904   4.600
 1700SOL    HW2 6000   6.720   2.891   4.439
 1701SOL     OW 6001   5.951   3.163   4.936
 1701SOL    HW1 6002   5.867   3.205   4.904
 1701SOL    HW2 6003   5.933   3.111   5.020
 1702SOL     OW 6004   4.909   2.933   1.835
 1702SOL    HW1 6005   4.871   2.942   1.743
 1702SOL    HW2 6006   4.845   2.970   1.902
 1703SOL     OW 6007   1.905   3.924   0.225
 1703SOL    HW1 6008   1.987   3.969   0.188
 1703SOL    HW2 6009   1.860   3.872   0.153
 1704SOL     OW 6010   0.742   1.127   1.891
 1704SOL    HW1 6011   0.842   1.118   1.900
 1704SOL    HW2 6012   0.702   1.037   1.873
 1705SOL     OW 6013   4.143   3.262   2.593
 1705SOL    HW1 6014   4.241   3.267   2.613
 1705SOL    HW2 6015   4.091   3.267   2.678
 1706SOL     OW 6016   2.639   0.373   6.931
 1706SOL    HW1 6017   2.591   0.447   6.978
 1706SOL    HW2 6018   2.667   0.304   6.997
 1707SOL     OW 6019   6.367   1.318   3.254
 1707SOL    HW1 6020   6.378   1.382   3.178
 1707SOL    HW2 6021   6.269   1.302   3.270
 1708SOL     OW 6022   0.391   4.794   2.199
 1708SOL    HW1 6023   0.421   4.734   2.125
 1708SOL    HW2 6024   0.470   4.821   2.254
 1709SOL     OW 6025   3.482   6.102   4.264
 1709SOL    HW1 6026   3.533   6.016   4.273
 1709SOL    HW2 6027   3.531   6.174   4.313
 1710SOL     OW 6028   0.479   5.900   4.063
 1710SOL    HW1 6029   0.456   5.966   4.135
 1710SOL    HW2 6030   0.442   5.931   3.976
 1711SOL     OW 6031   2.158   4.461   5.566
 1711SOL    HW1 6032   2.093   4.514   5.620
 1711SOL    HW2 6033   2.165   4.501   5.475
 1712SOL     OW 6034   1.322   4.877   0.793
 1712SOL    HW1 6035   1.319   4.948   0.723
 1712SOL    HW2 6036   1.416   4.863   0.823
 1713SOL     OW 6037   1.781   3.201   0.332
 1713SOL    HW1 6038   1.777   3.292   0.289
 1713SOL    HW2 6039   1.872   3.186   0.370
 1714SOL     OW 6040   3.586   1.828   1.031
 1714SOL    HW1 6041   3.553   1.886   0.956
 1714SOL    HW2 6042   3.635   1.884   1.098
 1715SOL     OW 6043   0.326   3.152   3.948
 1715SOL    HW1 6044   0.232   3.139   3.917
 1715SOL    HW2 6045   0.386   3.165   3.868
 1716SOL     OW 6046   0.137   6.935   7.014
 1716SOL    HW1 6047   0.181   6.964   6.929
 1716SOL    HW2 6048   0.071   7.005   0.020
 1717SOL     OW 6049   3.275   0.222   6.892
 1717SOL    HW1 6050   3.241   0.163   6.965
 1717SOL    HW2 6051   3.324   0.299   6.932
 1718SOL     OW 6052   1.261   5.001   5.613
 1718SOL    HW1 6053   1.179   4.944   5.612
 1718SOL    HW2 6054   1.291   5.016   5.707
 1719SOL     OW 6055   2.460   3.433   1.329
 1719SOL    HW1 6056   2.552   3.400   1.307
 1719SOL    HW2 6057   2.400   3.354   1.344
 1720SOL     OW 6058   6.679   1.108   2.135
 1720SOL    HW1 6059   6.648   1.157   2.054
 1720SOL    HW2 6060   6.672   1.009   2.119
 1721SOL     OW 6061   2.141   6.134   3.358
 1721SOL    HW1 6062   2.091   6.219   3.374
 1721SOL    HW2 6063   2.136   6.077   3.440
 1722SOL     OW 6064   5.603   6.768   1.647
 1722SOL    HW1 6065   5.567   6.730   1.732
 1722SOL    HW2 6066   5.690   6.725   1.625
 1723SOL     OW 6067   6.055   1.187   2.261
 1723SOL    HW1 6068   6.113   1.242   2.200
 1723SOL    HW2 6069   5.998   1.248   2.317
 1724SOL     OW 6070   5.022   0.498   0.371
 1724SOL    HW1 6071   5.075   0.499   0.456
 1724SOL    HW2 6072   5.016   0.404   0.337
 1725SOL     OW 6073   4.279   5.217   2.076
 1725SOL    HW1 6074   4.263   5.224   1.978
 1725SOL    HW2 6075   4.242   5.131   2.110
 1726SOL     OW 6076   0.239   5.022   4.670
 1726SOL    HW1 6077   0.255   5.113   4.632
 1726SOL    HW2 6078   0.269   5.021   4.766
 1727SOL     OW 6079   3.714   3.030   5.537
 1727SOL    HW1 6080   3.624   2.989   5.557
 1727SOL    HW2 6081   3.786   2.970   5.572
 1728SOL     OW 6082   4.531   4.581   3.457
 1728SOL    HW1 6083   4.492   4.643   3.388
 1728SOL    HW2 6084   4.548   4.492   3.415
 1729SOL     OW 6085   1.956   3.238   2.815
 1729SOL    HW1 6086   2.011   3.294   2.753
 1729SOL    HW2 6087   1.985   3.142   2.809
 1730SOL     OW 6088   5.716   2.330   4.274
 1730SOL    HW1 6089   5.800   2.356   4.323
 1730SOL    HW2 6090   5.662   2.270   4.332
 1731SOL     OW 6091   0.974   5.839   0.316
 1731SOL    HW1 6092   0.877   5.835   0.339
 1731SOL    HW2 6093   1.016   5.750   0.332
 1732SOL     OW 6094   0.287   4.931   6.679
 1732SOL    HW1 6095   0.332   4.853   6.638
 1732SOL    HW2 6096   0.237   4.901   6.761
 1733SOL     OW 6097   1.552   4.170   0.845
 1733SOL    HW1 6098   1.528   4.111   0.767
 1733SOL    HW2 6099   1.506   4.258   0.835
 1734SOL     OW 6100   4.721   2.813   1.484
 1734SOL    HW1 6101   4.756   2.898   1.523
 1734SOL    HW2 6102   4.698   2.827   1.388
 1735SOL     OW 6103   5.738   6.226   1.335
 1735SOL    HW1 6104   5.651   6.275   1.342
 1735SOL    HW2 6105   5.723   6.128   1.349
 1736SOL     OW 6106   2.970   3.797   0.823
 1736SOL    HW1 6107   2.961   3.889   0.862
 1736SOL    HW2 6108   2.892   3.778   0.763
 1737SOL     OW 6109   1.145   5.813   4.167
 1737SOL    HW1 6110   1.196   5.879   4.223
 1737SOL    HW2 6111   1.137   5.849   4.074
 1738SOL     OW 6112   0.740   1.682   1.205
 1738SOL    HW1 6113   0.691   1.762   1.172
 1738SOL    HW2 6114   0.797   1.708   1.283
 1739SOL     OW 6115   4.258   2.023   5.650
 1739SOL    HW1 6116   4.298   2.104   5.694
 1739SOL    HW2 6117   4.308   2.002   5.567
 1740SOL     OW 6118   0.912   0.983   5.739
 1740SOL    HW1 6119   0.884   1.006   5.833
 1740SOL    HW2 6120   0.835   1.000   5.677
 1741SOL     OW 6121   2.210   0.962   2.490
 1741SOL    HW1 6122   2.242   0.874   2.453
 1741SOL    HW2 6123   2.114   0.976   2.465
 1742SOL     OW 6124   6.218   6.209   4.311
 1742SOL    HW1 6125   6.152   6.218   4.385
 1742SOL    HW2 6126   6.205   6.121   4.265
 1743SOL     OW 6127   4.678   1.394   0.189
 1743SOL    HW1 6128   4.583   1.399   0.158
 1743SOL    HW2 6129   4.726   1.477   0.164
 1744SOL     OW 6130   3.138   0.441   1.643
 1744SOL    HW1 6131   3.167   0.346   1.655
 1744SOL    HW2 6132   3.081   0.469   1.720
 1745SOL     OW 6133   6.727   3.135   4.621
 1745SOL    HW1 6134   6.656   3.080   4.577
 1745SOL    HW2 6135   6.727   3.116   4.720
 1746SOL     OW 6136   2.820   0.672   6.027
 1746SOL    HW1 6137   2.917   0.672   6.004
 1746SOL    HW2 6138   2.791   0.578   6.049
 1747SOL     OW 6139   4.551   0.808   6.445
 1747SOL    HW1 6140   4.617   0.883   6.456
 1747SOL    HW2 6141   4.593   0.723   6.476
 1748SOL     OW 6142   6.156   1.931   1.710
 1748SOL    HW1 6143   6.163   1.868   1.787
 1748SOL    HW2 6144   6.183   1.884   1.626
 1749SOL     OW 6145   4.897   6.750   6.306
 1749SOL    HW1 6146   4.973   6.801   6.265
 1749SOL    HW2 6147   4.908   6.748   6.405
 1750SOL     OW 6148   4.939   0.433   3.691
 1750SOL    HW1 6149   4.910   0.386   3.608
 1750SOL    HW2 6150   4.995   0.512   3.666
 1751SOL     OW 6151   2.023   5.913   3.720
 1751SOL    HW1 6152   2.014   5.904   3.820
 1751SOL    HW2 6153   2.045   6.007   3.697
 1752SOL     OW 6154   6.728   2.254   0.086
 1752SOL    HW1 6155   6.651   2.287   0.032
 1752SOL    HW2 6156   6.745   2.317   0.162
 1753SOL     OW 6157   2.512   0.137   2.332
 1753SOL    HW1 6158   2.518   0.054   2.277
 1753SOL    HW2 6159   2.435   0.192   2.300
 1754SOL     OW 6160   3.716   2.377   1.252
 1754SOL    HW1 6161   3.662   2.298   1.281
 1754SOL    HW2 6162   3.656   2.446   1.212
 1755SOL     OW 6163   5.268   3.314   0.356
 1755SOL    HW1 6164   5.199   3.364   0.304
 1755SOL    HW2 6165   5.326   3.378   0.405
 1756SOL     OW 6166   6.074   5.712   4.605
 1756SOL    HW1 6167   6.064   5.709   4.704
 1756SOL    HW2 6168   6.035   5.629   4.565
 1757SOL     OW 6169   3.226   0.514   5.069
 1757SOL    HW1 6170   3.142   0.557   5.037
 1757SOL    HW2 6171   3.274   0.575   5.131
 1758SOL     OW 6172   2.486   1.298   3.535
 1758SOL    HW1 6173   2.536   1.363   3.477
 1758SOL    HW2 6174   2.449   1.224   3.479
 1759SOL     OW 6175   0.840   5.523   6.093
 1759SOL    HW1 6176   0.800   5.431   6.101
 1759SOL    HW2 6177   0.821   5.575   6.176
 1760SOL     OW 6178   5.483   0.991   2.357
 1760SOL    HW1 6179   5.574   0.984   2.399
 1760SOL    HW2 6180   5.415   1.009   2.428
 1761SOL     OW 6181   5.929   2.801   1.178
 1761SOL    HW1 6182   5.919   2.900   1.171
 1761SOL    HW2 6183   6.023   2.775   1.157
 1762SOL     OW 6184   5.781   2.334   0.435
 1762SOL    HW1 6185   5.699   2.296   0.478
 1762SOL    HW2 6186   5.816   2.271   0.366
 1763SOL     OW 6187   1.998   4.223   3.704
 1763SOL    HW1 6188   1.953   4.255   3.787
 1763SOL    HW2 6189   2.088   4.186   3.727
 1764SOL     OW 6190   6.200   2.867   4.567
 1764SOL    HW1 6191   6.224   2.770   4.561
 1764SOL    HW2 6192   6.111   2.881   4.523
 1765SOL     OW 6193   2.402   2.785   6.256
 1765SOL    HW1 6194   2.495   2.781   6.219
 1765SOL    HW2 6195   2.338   2.803   6.182
 1766SOL     OW 6196   6.015   3.251   5.593
 1766SOL    HW1 6197   6.114   3.264   5.596
 1766SOL    HW2 6198   5.969   3.336   5.618
 1767SOL     OW 6199   5.758   4.008   1.817
 1767SOL    HW1 6200   5.855   4.031   1.821
 1767SOL    HW2 6201   5.711   4.074   1.758
 1768SOL     OW 6202   5.940   6.291   3.915
 1768SOL    HW1 6203   5.961   6.357   3.987
 1768SOL    HW2 6204   6.024   6.262   3.870
 1769SOL     OW 6205   5.929   1.043   3.579
 1769SOL    HW1 6206   5.960   1.048   3.484
 1769SOL    HW2 6207   5.963   0.958   3.620
 1770SOL     OW 6208   3.175   5.487   4.686
 1770SOL    HW1 6209   3.145   5.569   4.735
 1770SOL    HW2 6210   3.250   5.444   4.736
 1771SOL     OW 6211   5.025   6.234   6.580
 1771SOL    HW1 6212   4.995   6.150   6.626
 1771SOL    HW2 6213   4.980   6.242   6.491
 1772SOL     OW 6214   3.386   6.353   2.739
 1772SOL    HW1 6215   3.293   6.389   2.732
 1772SOL    HW2 6216   3.447   6.403   2.678
 1773SOL     OW 6217   0.836   5.617   6.773
 1773SOL    HW1 6218   0.866   5.711   6.757
 1773SOL    HW2 6219   0.737   5.615   6.788
 1774SOL     OW 6220   3.443   4.927   2.050
 1774SOL    HW1 6221   3.514   4.873   2.006
 1774SOL    HW2 6222   3.361   4.927   1.993
 1775SOL     OW 6223   0.727   4.587   1.537
 1775SOL    HW1 6224   0.629   4.593   1.551
 1775SOL    HW2 6225   0.765   4.516   1.597
 1776SOL     OW 6226   3.432   5.766   4.661
 1776SOL    HW1 6227   3.512   5.720   4.624
 1776SOL    HW2 6228   3.367   5.785   4.588
 1777SOL     OW 6229   3.427   5.400   6.780
 1777SOL    HW1 6230   3.497   5.468   6.798
 1777SOL    HW2 6231   3.380   5.376   6.865
 1778SOL     OW 6232   6.493   3.950   5.531
 1778SOL    HW1 6233   6.465   3.989   5.443
 1778SOL    HW2 6234   6.483   3.850   5.528
 1779SOL     OW 6235   3.458   6.978   5.595
 1779SOL    HW1 6236   3.476   6.999   5.499
 1779SOL    HW2 6237   3.470   0.039   5.650
 1780SOL     OW 6238   3.156   3.275   6.612
 1780SOL    HW1 6239   3.131   3.201   6.674
 1780SOL    HW2 6240   3.177   3.238   6.522
 1781SOL     OW 6241   4.022   5.295   3.245
 1781SOL    HW1 6242   3.938   5.242   3.258
 1781SOL    HW2 6243   4.069   5.263   3.163
 1782SOL     OW 6244   3.570   1.854   4.408
 1782SOL    HW1 6245   3.491   1.892   4.457
 1782SOL    HW2 6246   3.557   1.865   4.310
 1783SOL     OW 6247   1.951   5.655   7.016
 1783SOL    HW1 6248   1.852   5.671   7.018
 1783SOL    HW2 6249   1.968   5.557   7.010
 1784SOL     OW 6250   3.647   6.803   5.374
 1784SOL    HW1 6251   3.729   6.771   5.327
 1784SOL    HW2 6252   3.651   6.777   5.470
 1785SOL     OW 6253   6.447   4.252   1.905
 1785SOL    HW1 6254   6.422   4.348   1.917
 1785SOL    HW2 6255   6.364   4.197   1.894
 1786SOL     OW 6256   3.701   2.623   0.912
 1786SOL    HW1 6257   3.694   2.630   0.813
 1786SOL    HW2 6258   3.621   2.576   0.948
 1787SOL     OW 6259   3.548   0.470   6.016
 1787SOL    HW1 6260   3.604   0.388   6.028
 1787SOL    HW2 6261   3.547   0.523   6.101
 1788SOL     OW 6262   1.981   4.592   5.731
 1788SOL    HW1 6263   2.027   4.632   5.811
 1788SOL    HW2 6264   1.914   4.525   5.762
 1789SOL     OW 6265   5.695   0.974   0.064
 1789SOL    HW1 6266   5.760   1.019   0.126
 1789SOL    HW2 6267   5.736   0.965   6.996
 1790SOL     OW 6268   3.495   0.143   3.389
 1790SOL    HW1 6269   3.490   0.161   3.291
 1790SOL    HW2 6270   3.492   0.044   3.405
 1791SOL     OW 6271   0.312   6.600   2.587
 1791SOL    HW1 6272   0.231   6.615   2.644
 1791SOL    HW2 6273   0.355   6.688   2.567
 1792SOL     OW 6274   1.183   3.737   5.448
 1792SOL    HW1 6275   1.187   3.723   5.349
 1792SOL    HW2 6276   1.098   3.697   5.484
 1793SOL     OW 6277   0.436   0.594   3.754
 1793SOL    HW1 6278   0.506   0.660   3.784
 1793SOL    HW2 6279   0.416   0.531   3.828
 1794SOL     OW 6280   4.773   6.124   6.232
 1794SOL    HW1 6281   4.684   6.129   6.277
 1794SOL    HW2 6282   4.834   6.066   6.285
 1795SOL     OW 6283   0.333   3.354   0.398
 1795SOL    HW1 6284   0.357   3.448   0.372
 1795SOL    HW2 6285   0.239   3.335   0.371
 1796SOL     OW 6286   3.452   0.299   6.695
 1796SOL    HW1 6287   3.399   0.251   6.765
 1796SOL    HW2 6288   3.539   0.329   6.734
 1797SOL     OW 6289   0.443   0.436   0.931
 1797SOL    HW1 6290   0.533   0.393   0.932
 1797SOL    HW2 6291   0.452   0.533   0.911
 1798SOL     OW 6292   5.952   2.624   3.246
 1798SOL    HW1 6293   5.946   2.597   3.342
 1798SOL    HW2 6294   6.042   2.602   3.210
 1799SOL     OW 6295   1.599   1.793   6.641
 1799SOL    HW1 6296   1.510   1.765   6.606
 1799SOL    HW2 6297   1.647   1.713   6.677
 1800SOL     OW 6298   4.198   5.476   2.132
 1800SOL    HW1 6299   4.231   5.501   2.223
 1800SOL    HW2 6300   4.185   5.377   2.127
 1801SOL     OW 6301   5.832   7.014   0.690
 1801SOL    HW1 6302   5.794   6.935   0.642
 1801SOL    HW2 6303   5.781   0.074   0.665
 1802SOL     OW 6304   5.207   5.498   4.074
 1802SOL    HW1 6305   5.305   5.519   4.078
 1802SOL    HW2 6306   5.160   5.542   4.151
 1803SOL     OW 6307   6.103   5.459   0.999
 1803SOL    HW1 6308   6.060   5.546   1.024
 1803SOL    HW2 6309   6.055   5.384   1.045
 1804SOL     OW 6310   3.297   3.322   5.656
 1804SOL    HW1 6311   3.256   3.413   5.661
 1804SOL    HW2 6312   3.231   3.254   5.687
 1805SOL     OW 6313   4.960   2.866   6.877
 1805SOL    HW1 6314   4.926   2.927   6.805
 1805SOL    HW2 6315   5.059   2.874   6.884
 1806SOL     OW 6316   0.886   0.136   0.792
 1806SOL    HW1 6317   0.981   0.111   0.810
 1806SOL    HW2 6318   0.858   0.099   0.703
 1807SOL     OW 6319   5.403   1.543   5.511
 1807SOL    HW1 6320   5.318   1.588   5.536
 1807SOL    HW2 6321   5.480   1.593   5.550
 1808SOL     OW 6322   2.037   4.734   4.035
 1808SOL    HW1 6323   1.957   4.717   4.092
 1808SOL    HW2 6324   2.010   4.729   3.939
 1809SOL     OW 6325   3.329   6.877   6.373
 1809SOL    HW1 6326   3.426   6.858   6.365
 1809SOL    HW2 6327   3.278   6.791   6.368
 1810SOL     OW 6328   3.216   6.104   2.730
 1810SOL    HW1 6329   3.286   6.127   2.662
 1810SOL    HW2 6330   3.223   6.007   2.753
 1811SOL     OW 6331   6.042   5.332   2.658
 1811SOL    HW1 6332   5.983   5.348   2.578
 1811SOL    HW2 6333   6.117   5.398   2.658
 1812SOL     OW 6334   4.138   5.298   6.371
 1812SOL    HW1 6335   4.096   5.287   6.281
 1812SOL    HW2 6336   4.234   5.269   6.367
 1813SOL     OW 6337   6.394   4.740   5.672
 1813SOL    HW1 6338   6.322   4.746   5.603
 1813SOL    HW2 6339   6.391   4.821   5.731
 1814SOL     OW 6340   4.838   6.768   2.211
 1814SOL    HW1 6341   4.924   6.789   2.164
 1814SOL    HW2 6342   4.858   6.719   2.296
 1815SOL     OW 6343   0.271   0.923   2.752
 1815SOL    HW1 6344   0.177   0.890   2.738
 1815SOL    HW2 6345   0.277   0.966   2.842
 1816SOL     OW 6346   0.845   4.287   6.975
 1816SOL    HW1 6347   0.831   4.385   6.991
 1816SOL    HW2 6348   0.939   4.271   6.948
 1817SOL     OW 6349   1.825   5.384   2.052
 1817SOL    HW1 6350   1.871   5.303   2.017
 1817SOL    HW2 6351   1.756   5.415   1.986
 1818SOL     OW 6352   2.362   1.036   3.178
 1818SOL    HW1 6353   2.433   1.100   3.209
 1818SOL    HW2 6354   2.405   0.948   3.154
 1819SOL     OW 6355   1.679   4.293   1.867
 1819SOL    HW1 6356   1.601   4.352   1.884
 1819SOL    HW2 6357   1.758   4.326   1.920
 1820SOL     OW 6358   5.656   7.008   2.731
 1820SOL    HW1 6359   5.557   6.993   2.732
 1820SOL    HW2 6360   5.677   0.077   2.767
 1821SOL     OW 6361   2.567   1.829   3.137
 1821SOL    HW1 6362   2.610   1.770   3.069
 1821SOL    HW2 6363   2.626   1.907   3.156
 1822SOL     OW 6364   3.571   3.463   1.245
 1822SOL    HW1 6365   3.547   3.531   1.314
 1822SOL    HW2 6366   3.496   3.398   1.234
 1823SOL     OW 6367   4.175   0.063   2.772
 1823SOL    HW1 6368   4.275   0.063   2.763
 1823SOL    HW2 6369   4.135   0.126   2.705
 1824SOL     OW 6370   5.347   2.547   1.766
 1824SOL    HW1 6371   5.369   2.604   1.687
 1824SOL    HW2 6372   5.318   2.605   1.843
 1825SOL     OW 6373   1.333   0.857   1.056
 1825SOL    HW1 6374   1.414   0.827   1.106
 1825SOL    HW2 6375   1.281   0.922   1.112
 1826SOL     OW 6376   3.127   6.329   6.421
 1826SOL    HW1 6377   3.157   6.321   6.326
 1826SOL    HW2 6378   3.203   6.308   6.482
 1827SOL     OW 6379   6.363   6.566   1.719
 1827SOL    HW1 6380   6.443   6.510   1.694
 1827SOL    HW2 6381   6.300   6.569   1.642
 1828SOL     OW 6382   1.791   2.017   0.441
 1828SOL    HW1 6383   1.692   2.007   0.430
 1828SOL    HW2 6384   1.821   1.960   0.518
 1829SOL     OW 6385   6.267   5.678   1.330
 1829SOL    HW1 6386   6.336   5.632   1.387
 1829SOL    HW2 6387   6.189   5.617   1.317
 1830SOL     OW 6388   5.259   6.189   3.628
 1830SOL    HW1 6389   5.315   6.209   3.709
 1830SOL    HW2 6390   5.289   6.247   3.552
 1831SOL     OW 6391   5.032   0.794   3.387
 1831SOL    HW1 6392   5.085   0.742   3.319
 1831SOL    HW2 6393   5.066   0.888   3.391
 1832SOL     OW 6394   5.430   2.612   0.310
 1832SOL    HW1 6395   5.403   2.531   0.362
 1832SOL    HW2 6396   5.509   2.590   0.253
 1833SOL     OW 6397   5.848   2.076   5.696
 1833SOL    HW1 6398   5.810   2.145   5.758
 1833SOL    HW2 6399   5.782   2.002   5.683
 1834SOL     OW 6400   2.906   3.544   0.904
 1834SOL    HW1 6401   2.929   3.632   0.863
 1834SOL    HW2 6402   2.815   3.515   0.874
 1835SOL     OW 6403   1.584   4.428   0.186
 1835SOL    HW1 6404   1.643   4.500   0.221
 1835SOL    HW2 6405   1.490   4.463   0.177
 1836SOL     OW 6406   0.692   6.096   0.706
 1836SOL    HW1 6407   0.616   6.076   0.769
 1836SOL    HW2 6408   0.761   6.150   0.753
 1837SOL     OW 6409   1.237   2.891   4.809
 1837SOL    HW1 6410   1.253   2.980   4.853
 1837SOL    HW2 6411   1.315   2.869   4.751
 1838SOL     OW 6412   0.144   2.846   4.099
 1838SOL    HW1 6413   0.154   2.748   4.083
 1838SOL    HW2 6414   0.058   2.863   4.149
 1839SOL     OW 6415   6.794   2.300   5.846
 1839SOL    HW1 6416   6.850   2.244   5.908
 1839SOL    HW2 6417   6.842   2.312   5.759
 1840SOL     OW 6418   1.366   5.076   0.616
 1840SOL    HW1 6419   1.450   5.131   0.619
 1840SOL    HW2 6420   1.332   5.073   0.522
 1841SOL     OW 6421   1.718   3.061   3.427
 1841SOL    HW1 6422   1.801   3.006   3.423
 1841SOL    HW2 6423   1.643   3.010   3.385
 1842SOL     OW 6424   1.008   4.581   6.873
 1842SOL    HW1 6425   0.924   4.633   6.864
 1842SOL    HW2 6426   1.082   4.629   6.826
 1843SOL     OW 6427   3.291   1.823   4.832
 1843SOL    HW1 6428   3.276   1.919   4.807
 1843SOL    HW2 6429   3.236   1.764   4.773
 1844SOL     OW 6430   5.224   3.589   3.748
 1844SOL    HW1 6431   5.287   3.511   3.750
 1844SOL    HW2 6432   5.208   3.621   3.842
 1845SOL     OW 6433   4.211   0.350   0.138
 1845SOL    HW1 6434   4.225   0.357   0.039
 1845SOL    HW2 6435   4.197   0.254   0.162
 1846SOL     OW 6436   3.010   1.316   5.389
 1846SOL    HW1 6437   3.072   1.307   5.312
 1846SOL    HW2 6438   2.929   1.367   5.361
 1847SOL     OW 6439   1.439   6.811   0.421
 1847SOL    HW1 6440   1.504   6.850   0.356
 1847SOL    HW2 6441   1.351   6.858   0.413
 1848SOL     OW 6442   3.323   6.739   2.349
 1848SOL    HW1 6443   3.270   6.669   2.397
 1848SOL    HW2 6444   3.271   6.825   2.348
 1849SOL     OW 6445   2.746   1.084   6.336
 1849SOL    HW1 6446   2.656   1.081   6.379
 1849SOL    HW2 6447   2.740   1.132   6.248
 1850SOL     OW 6448   5.751   1.590   1.860
 1850SOL    HW1 6449   5.676   1.590   1.926
 1850SOL    HW2 6450   5.774   1.684   1.836
 1851SOL     OW 6451   6.437   3.201   3.191
 1851SOL    HW1 6452   6.479   3.112   3.171
 1851SOL    HW2 6453   6.492   3.274   3.151
 1852SOL     OW 6454   5.333   3.289   6.994
 1852SOL    HW1 6455   5.277   3.233   6.934
 1852SOL    HW2 6456   5.425   3.297   6.957
 1853SOL     OW 6457   1.839   4.685   0.522
 1853SOL    HW1 6458   1.831   4.644   0.431
 1853SOL    HW2 6459   1.827   4.784   0.514
 1854SOL     OW 6460   3.219   5.770   3.864
 1854SOL    HW1 6461   3.278   5.842   3.900
 1854SOL    HW2 6462   3.151   5.745   3.932
 1855SOL     OW 6463   5.316   4.429   1.908
 1855SOL    HW1 6464   5.352   4.413   1.816
 1855SOL    HW2 6465   5.255   4.508   1.907
 1856SOL     OW 6466   4.850   2.495   5.778
 1856SOL    HW1 6467   4.898   2.436   5.713
 1856SOL    HW2 6468   4.795   2.562   5.727
 1857SOL     OW 6469   4.518   1.346   3.291
 1857SOL    HW1 6470   4.604   1.394   3.271
 1857SOL    HW2 6471   4.521   1.255   3.249
 1858SOL     OW 6472   4.961   4.224   3.398
 1858SOL    HW1 6473   4.943   4.276   3.481
 1858SOL    HW2 6474   4.893   4.152   3.388
 1859SOL     OW 6475   5.682   1.363   3.425
 1859SOL    HW1 6476   5.728   1.354   3.337
 1859SOL    HW2 6477   5.725   1.436   3.478
 1860SOL     OW 6478   4.542   1.613   5.060
 1860SOL    HW1 6479   4.503   1.606   5.152
 1860SOL    HW2 6480   4.550   1.710   5.034
 1861SOL     OW 6481   5.736   6.446   2.402
 1861SOL    HW1 6482   5.833   6.437   2.383
 1861SOL    HW2 6483   5.709   6.379   2.471
 1862SOL     OW 6484   1.853   1.838   0.621
 1862SOL    HW1 6485   1.870   1.824   0.718
 1862SOL    HW2 6486   1.887   1.760   0.569
 1863SOL     OW 6487   2.635   3.190   1.665
 1863SOL    HW1 6488   2.727   3.184   1.703
 1863SOL    HW2 6489   2.636   3.157   1.570
 1864SOL     OW 6490   1.005   6.582   3.943
 1864SOL    HW1 6491   0.972   6.524   4.018
 1864SOL    HW2 6492   0.933   6.593   3.875
 1865SOL     OW 6493   4.722   2.244   6.706
 1865SOL    HW1 6494   4.669   2.317   6.749
 1865SOL    HW2 6495   4.725   2.259   6.607
 1866SOL     OW 6496   5.005   5.292   2.842
 1866SOL    HW1 6497   4.986   5.390   2.848
 1866SOL    HW2 6498   5.068   5.266   2.915
 1867SOL     OW 6499   1.015   4.272   6.570
 1867SOL    HW1 6500   0.930   4.220   6.565
 1867SOL    HW2 6501   1.078   4.239   6.500
 1868SOL     OW 6502   5.801   3.950   5.120
 1868SOL    HW1 6503   5.710   3.908   5.117
 1868SOL    HW2 6504   5.853   3.922   5.039
 1869SOL     OW 6505   6.268   1.426   4.585
 1869SOL    HW1 6506   6.234   1.377   4.665
 1869SOL    HW2 6507   6.194   1.480   4.545
 1870SOL     OW 6508   2.105   4.670   4.413
 1870SOL    HW1 6509   2.149   4.740   4.469
 1870SOL    HW2 6510   2.062   4.602   4.472
 1871SOL     OW 6511   1.274   0.181   0.397
 1871SOL    HW1 6512   1.331   0.169   0.478
 1871SOL    HW2 6513   1.272   0.278   0.372
 1872SOL     OW 6514   2.573   4.857   0.383
 1872SOL    HW1 6515   2.639   4.932   0.383
 1872SOL    HW2 6516   2.483   4.891   0.409
 1873SOL     OW 6517   4.446   1.723   0.375
 1873SOL    HW1 6518   4.452   1.704   0.277
 1873SOL    HW2 6519   4.384   1.658   0.418
 1874SOL     OW 6520   0.908   3.106   2.766
 1874SOL    HW1 6521   0.849   3.141   2.693
 1874SOL    HW2 6522   0.927   3.179   2.831
 1875SOL     OW 6523   0.938   6.692   0.250
 1875SOL    HW1 6524   0.907   6.714   0.343
 1875SOL    HW2 6525   1.022   6.638   0.255
 1876SOL     OW 6526   2.158   6.978   4.688
 1876SOL    HW1 6527   2.076   0.003   4.655
 1876SOL    HW2 6528   2.132   6.907   4.753
 1877SOL     OW 6529   0.327   6.853   3.500
 1877SOL    HW1 6530   0.426   6.844   3.488
 1877SOL    HW2 6531   0.302   6.827   3.593
 1878SOL     OW 6532   5.614   2.606   6.061
 1878SOL    HW1 6533   5.670   2.617   5.980
 1878SOL    HW2 6534   5.524   2.569   6.035
 1879SOL     OW 6535   1.521   4.671   5.602
 1879SOL    HW1 6536   1.472   4.632   5.524
 1879SOL    HW2 6537   1.611   4.703   5.572
 1880SOL     OW 6538   6.117   0.423   5.420
 1880SOL    HW1 6539   6.117   0.469   5.509
 1880SOL    HW2 6540   6.200   0.369   5.410
 1881SOL     OW 6541   6.962   2.163   6.651
 1881SOL    HW1 6542   6.944   2.159   6.749
 1881SOL    HW2 6543   0.022   2.218   6.634
 1882SOL     OW 6544   0.989   5.777   6.405
 1882SOL    HW1 6545   0.967   5.746   6.312
 1882SOL    HW2 6546   1.083   5.749   6.428
 1883SOL     OW 6547   6.947   1.952   4.021
 1883SOL    HW1 6548   6.887   1.974   4.099
 1883SOL    HW2 6549   6.894   1.957   3.936
 1884SOL     OW 6550   6.988   2.966   1.099
 1884SOL    HW1 6551   6.973   2.876   1.140
 1884SOL    HW2 6552   6.947   3.036   1.157
 1885SOL     OW 6553   1.990   1.735   4.632
 1885SOL    HW1 6554   1.914   1.799   4.620
 1885SOL    HW2 6555   2.017   1.734   4.729
 1886SOL     OW 6556   1.269   6.848   3.102
 1886SOL    HW1 6557   1.325   6.838   3.019
 1886SOL    HW2 6558   1.322   6.819   3.182
 1887SOL     OW 6559   1.952   6.610   5.763
 1887SOL    HW1 6560   1.980   6.693   5.714
 1887SOL    HW2 6561   1.992   6.530   5.719
 1888SOL     OW 6562   2.649   0.982   3.012
 1888SOL    HW1 6563   2.728   0.932   2.976
 1888SOL    HW2 6564   2.605   1.032   2.938
 1889SOL     OW 6565   0.152   3.550   3.013
 1889SOL    HW1 6566   0.103   3.495   3.080
 1889SOL    HW2 6567   0.086   3.593   2.951
 1890SOL     OW 6568   0.778   5.526   4.394
 1890SOL    HW1 6569   0.842   5.516   4.470
 1890SOL    HW2 6570   0.829   5.549   4.311
 1891SOL     OW 6571   3.603   3.162   3.467
 1891SOL    HW1 6572   3.667   3.210   3.408
 1891SOL    HW2 6573   3.571   3.079   3.422
 1892SOL     OW 6574   0.940   0.776   2.768
 1892SOL    HW1 6575   0.908   0.823   2.850
 1892SOL    HW2 6576   0.879   0.796   2.692
 1893SOL     OW 6577   3.503   3.167   4.607
 1893SOL    HW1 6578   3.496   3.071   4.633
 1893SOL    HW2 6579   3.598   3.188   4.584
 1894SOL     OW 6580   3.125   3.082   4.177
 1894SOL    HW1 6581   3.181   3.061   4.257
 1894SOL    HW2 6582   3.170   3.154   4.124
 1895SOL     OW 6583   1.842   6.229   0.046
 1895SOL    HW1 6584   1.875   6.144   0.006
 1895SOL    HW2 6585   1.894   6.249   0.130
 1896SOL     OW 6586   5.378   2.765   1.087
 1896SOL    HW1 6587   5.477   2.777   1.090
 1896SOL    HW2 6588   5.343   2.803   1.001
 1897SOL     OW 6589   1.689   4.252   4.557
 1897SOL    HW1 6590   1.646   4.220   4.472
 1897SOL    HW2 6591   1.629   4.232   4.634
 1898SOL     OW 6592   1.637   6.662   3.354
 1898SOL    HW1 6593   1.642   6.744   3.411
 1898SOL    HW2 6594   1.657   6.581   3.410
 1899SOL     OW 6595   0.101   0.653   2.490
 1899SOL    HW1 6596   0.097   0.750   2.468
 1899SOL    HW2 6597   0.132   0.642   2.585
 1900SOL     OW 6598   2.476   7.006   0.195
 1900SOL    HW1 6599   2.447   7.006   0.291
 1900SOL    HW2 6600   2.396   7.017   0.136
 1901SOL     OW 6601   3.032   3.854   1.293
 1901SOL    HW1 6602   3.116   3.863   1.239
 1901SOL    HW2 6603   3.043   3.780   1.359
 1902SOL     OW 6604   1.173   0.104   4.205
 1902SOL    HW1 6605   1.181   0.096   4.106
 1902SOL    HW2 6606   1.210   0.022   4.248
 1903SOL     OW 6607   1.035   2.520   3.937
 1903SOL    HW1 6608   1.002   2.441   3.988
 1903SOL    HW2 6609   1.108   2.491   3.875
 1904SOL     OW 6610   6.034   5.594   1.569
 1904SOL    HW1 6611   5.966   5.546   1.626
 1904SOL    HW2 6612   6.027   5.561   1.475
 1905SOL     OW 6613   0.475   1.700   4.283
 1905SOL    HW1 6614   0.485   1.602   4.295
 1905SOL    HW2 6615   0.399   1.733   4.340
 1906SOL     OW 6616   1.554   0.024   5.055
 1906SOL    HW1 6617   1.517   0.100   5.001
 1906SOL    HW2 6618   1.486   6.973   5.059
 1907SOL     OW 6619   5.615   2.735   0.524
 1907SOL    HW1 6620   5.589   2.717   0.619
 1907SOL    HW2 6621   5.552   2.689   0.462
 1908SOL     OW 6622   3.162   1.225   0.971
 1908SOL    HW1 6623   3.110   1.177   1.042
 1908SOL    HW2 6624   3.208   1.304   1.012
 1909SOL     OW 6625   6.715   4.768   4.530
 1909SOL    HW1 6626   6.688   4.792   4.437
 1909SOL    HW2 6627   6.811   4.793   4.545
 1910SOL     OW 6628   0.649   5.906   5.552
 1910SOL    HW1 6629   0.677   5.886   5.458
 1910SOL    HW2 6630   0.549   5.913   5.556
 1911SOL     OW 6631   6.656   5.010   3.968
 1911SOL    HW1 6632   6.560   5.021   3.993
 1911SOL    HW2 6633   6.713   5.016   4.049
 1912SOL     OW 6634   3.255   5.145   2.016
 1912SOL    HW1 6635   3.305   5.207   1.956
 1912SOL    HW2 6636   3.207   5.076   1.962
 1913SOL     OW 6637   3.998   4.258   6.556
 1913SOL    HW1 6638   4.004   4.179   6.495
 1913SOL    HW2 6639   4.090   4.293   6.575
 1914SOL     OW 6640   2.989   4.533   6.549
 1914SOL    HW1 6641   2.954   4.570   6.463
 1914SOL    HW2 6642   2.917   4.479   6.594
 1915SOL     OW 6643   3.738   2.690   5.909
 1915SOL    HW1 6644   3.827   2.709   5.950
 1915SOL    HW2 6645   3.738   2.596   5.872
 1916SOL     OW 6646   3.996   0.981   2.511
 1916SOL    HW1 6647   3.976   1.019   2.601
 1916SOL    HW2 6648   4.063   1.039   2.465
 1917SOL     OW 6649   2.066   4.161   1.613
 1917SOL    HW1 6650   2.121   4.116   1.543
 1917SOL    HW2 6651   2.056   4.101   1.692
 1918SOL     OW 6652   5.730   2.308   3.876
 1918SOL    HW1 6653   5.671   2.245   3.824
 1918SOL    HW2 6654   5.673   2.375   3.923
 1919SOL     OW 6655   6.782   2.550   6.833
 1919SOL    HW1 6656   6.872   2.542   6.877
 1919SOL    HW2 6657   6.726   2.615   6.885
 1920SOL     OW 6658   4.671   2.888   1.237
 1920SOL    HW1 6659   4.644   2.870   1.143
 1920SOL    HW2 6660   4.769   2.911   1.240
 1921SOL     OW 6661   2.410   2.812   6.979
 1921SOL    HW1 6662   2.379   2.865   6.900
 1921SOL    HW2 6663   2.334   2.801   0.021
 1922SOL     OW 6664   3.169   2.950   2.637
 1922SOL    HW1 6665   3.256   2.976   2.679
 1922SOL    HW2 6666   3.187   2.905   2.549
 1923SOL     OW 6667   3.906   1.223   4.527
 1923SOL    HW1 6668   3.880   1.127   4.519
 1923SOL    HW2 6669   3.947   1.239   4.617
 1924SOL     OW 6670   4.561   1.281   6.872
 1924SOL    HW1 6671   4.467   1.251   6.854
 1924SOL    HW2 6672   4.604   1.218   6.937
 1925SOL     OW 6673   1.349   3.498   1.270
 1925SOL    HW1 6674   1.328   3.426   1.203
 1925SOL    HW2 6675   1.383   3.457   1.354
 1926SOL     OW 6676   4.085   0.258   1.579
 1926SOL    HW1 6677   4.072   0.300   1.489
 1926SOL    HW2 6678   4.168   0.202   1.578
 1927SOL     OW 6679   1.894   5.111   1.173
 1927SOL    HW1 6680   1.895   5.145   1.267
 1927SOL    HW2 6681   1.965   5.156   1.120
 1928SOL     OW 6682   5.182   4.573   3.147
 1928SOL    HW1 6683   5.100   4.521   3.122
 1928SOL    HW2 6684   5.221   4.614   3.064
 1929SOL     OW 6685   3.077   6.934   3.109
 1929SOL    HW1 6686   3.102   6.906   3.201
 1929SOL    HW2 6687   3.005   6.874   3.074
 1930SOL     OW 6688   3.909   3.324   0.290
 1930SOL    HW1 6689   3.878   3.233   0.262
 1930SOL    HW2 6690   3.852   3.394   0.247
 1931SOL     OW 6691   6.687   1.880   4.444
 1931SOL    HW1 6692   6.614   1.900   4.378
 1931SOL    HW2 6693   6.733   1.965   4.470
 1932SOL     OW 6694   4.550   2.241   2.120
 1932SOL    HW1 6695   4.557   2.308   2.046
 1932SOL    HW2 6696   4.607   2.162   2.099
 1933SOL     OW 6697   1.048   0.575   1.364
 1933SOL    HW1 6698   1.113   0.566   1.289
 1933SOL    HW2 6699   1.088   0.537   1.448
 1934SOL     OW 6700   6.910   0.647   6.631
 1934SOL    HW1 6701   6.826   0.701   6.630
 1934SOL    HW2 6702   6.909   0.582   6.555
 1935SOL     OW 6703   6.487   4.916   3.686
 1935SOL    HW1 6704   6.477   4.892   3.783
 1935SOL    HW2 6705   6.437   4.851   3.630
 1936SOL     OW 6706   4.829   2.807   6.076
 1936SOL    HW1 6707   4.743   2.802   6.026
 1936SOL    HW2 6708   4.880   2.722   6.062
 1937SOL     OW 6709   6.066   5.174   6.764
 1937SOL    HW1 6710   6.166   5.174   6.766
 1937SOL    HW2 6711   6.031   5.213   6.849
 1938SOL     OW 6712   6.607   2.761   6.886
 1938SOL    HW1 6713   6.523   2.800   6.924
 1938SOL    HW2 6714   6.599   2.755   6.786
 1939SOL     OW 6715   0.894   0.540   4.608
 1939SOL    HW1 6716   0.868   0.452   4.648
 1939SOL    HW2 6717   0.812   0.593   4.589
 1940SOL     OW 6718   7.022   5.082   0.640
 1940SOL    HW1 6719   6.985   5.002   0.686
 1940SOL    HW2 6720   0.045   5.141   0.707
 1941SOL     OW 6721   5.752   1.637   4.783
 1941SOL    HW1 6722   5.713   1.588   4.705
 1941SOL    HW2 6723   5.689   1.708   4.813
 1942SOL     OW 6724   6.648   4.333   1.735
 1942SOL    HW1 6725   6.730   4.357   1.786
 1942SOL    HW2 6726   6.571   4.320   1.798
 1943SOL     OW 6727   0.919   2.592   3.223
 1943SOL    HW1 6728   0.991   2.658   3.203
 1943SOL    HW2 6729   0.948   2.532   3.297
 1944SOL     OW 6730   0.569   3.379   3.644
 1944SOL    HW1 6731   0.614   3.376   3.555
 1944SOL    HW2 6732   0.484   3.432   3.636
 1945SOL     OW 6733   4.820   1.265   1.860
 1945SOL    HW1 6734   4.901   1.322   1.842
 1945SOL    HW2 6735   4.810   1.251   1.958
 1946SOL     OW 6736   6.618   6.366   0.976
 1946SOL    HW1 6737   6.598   6.279   0.930
 1946SOL    HW2 6738   6.717   6.382   0.974
 1947SOL     OW 6739   6.126   5.041   3.109
 1947SOL    HW1 6740   6.129   5.127   3.160
 1947SOL    HW2 6741   6.115   5.060   3.012
 1948SOL     OW 6742   5.384   3.357   3.779
 1948SOL    HW1 6743   5.320   3.299   3.728
 1948SOL    HW2 6744   5.476   3.343   3.745
 1949SOL     OW 6745   3.400   4.481   6.504
 1949SOL    HW1 6746   3.498   4.496   6.497
 1949SOL    HW2 6747   3.378   4.443   6.593
 1950SOL     OW 6748   3.763   4.047   3.369
 1950SOL    HW1 6749   3.796   4.060   3.462
 1950SOL    HW2 6750   3.705   3.966   3.364
 1951SOL     OW 6751   6.201   5.058   5.989
 1951SOL    HW1 6752   6.130   4.990   5.972
 1951SOL    HW2 6753   6.196   5.088   6.085
 1952SOL     OW 6754   6.001   5.760   0.034
 1952SOL    HW1 6755   5.960   5.696   6.992
 1952SOL    HW2 6756   6.039   5.838   7.007
 1953SOL     OW 6757   0.926   1.104   6.774
 1953SOL    HW1 6758   0.838   1.073   6.739
 1953SOL    HW2 6759   0.999   1.048   6.736
 1954SOL     OW 6760   4.758   6.891   1.602
 1954SOL    HW1 6761   4.765   6.908   1.700
 1954SOL    HW2 6762   4.847   6.867   1.565
 1955SOL     OW 6763   0.153   2.577   4.047
 1955SOL    HW1 6764   0.191   2.526   3.969
 1955SOL    HW2 6765   0.179   2.531   4.132
 1956SOL     OW 6766   5.556   0.666   1.827
 1956SOL    HW1 6767   5.580   0.658   1.924
 1956SOL    HW2 6768   5.589   0.753   1.791
 1957SOL     OW 6769   6.649   2.345   4.282
 1957SOL    HW1 6770   6.656   2.299   4.193
 1957SOL    HW2 6771   6.683   2.438   4.274
 1958SOL     OW 6772   3.792   1.715   0.679
 1958SOL    HW1 6773   3.791   1.671   0.769
 1958SOL    HW2 6774   3.869   1.779   0.674
 1959SOL     OW 6775   1.069   2.218   5.423
 1959SOL    HW1 6776   1.045   2.314   5.408
 1959SOL    HW2 6777   0.998   2.174   5.479
 1960SOL     OW 6778   5.633   4.362   3.919
 1960SOL    HW1 6779   5.674   4.302   3.851
 1960SOL    HW2 6780   5.552   4.318   3.958
 1961SOL     OW 6781   0.841   3.646   3.594
 1961SOL    HW1 6782   0.832   3.634   3.693
 1961SOL    HW2 6783   0.751   3.654   3.552
 1962SOL     OW 6784   0.683   0.470   2.639
 1962SOL    HW1 6785   0.619   0.544   2.619
 1962SOL    HW2 6786   0.682   0.451   2.737
 1963SOL     OW 6787   0.536   2.690   6.948
 1963SOL    HW1 6788   0.596   2.634   6.891
 1963SOL    HW2 6789   0.590   2.762   6.992
 1964SOL     OW 6790   5.649   3.484   0.743
 1964SOL    HW1 6791   5.728   3.545   0.749
 1964SOL    HW2 6792   5.681   3.390   0.731
 1965SOL     OW 6793   5.953   4.345   3.571
 1965SOL    HW1 6794   5.913   4.324   3.661
 1965SOL    HW2 6795   6.052   4.348   3.579
 1966SOL     OW 6796   1.105   4.214   6.828
 1966SOL    HW1 6797   1.078   4.253   6.740
 1966SOL    HW2 6798   1.190   4.256   6.858
 1967SOL     OW 6799   6.377   3.239   4.428
 1967SOL    HW1 6800   6.310   3.206   4.360
 1967SOL    HW2 6801   6.329   3.269   4.510
 1968SOL     OW 6802   2.795   1.495   5.397
 1968SOL    HW1 6803   2.715   1.439   5.418
 1968SOL    HW2 6804   2.830   1.537   5.480
 1969SOL     OW 6805   1.935   5.977   1.019
 1969SOL    HW1 6806   2.015   6.030   1.048
 1969SOL    HW2 6807   1.877   5.957   1.098
 1970SOL     OW 6808   5.564   5.549   4.534
 1970SOL    HW1 6809   5.618   5.486   4.478
 1970SOL    HW2 6810   5.618   5.579   4.613
 1971SOL     OW 6811   1.552   4.895   4.631
 1971SOL    HW1 6812   1.536   4.936   4.721
 1971SOL    HW2 6813   1.602   4.809   4.642
 1972SOL     OW 6814   6.145   2.312   2.823
 1972SOL    HW1 6815   6.176   2.217   2.824
 1972SOL    HW2 6816   6.222   2.372   2.800
 1973SOL     OW 6817   3.317   2.620   0.799
 1973SOL    HW1 6818   3.272   2.700   0.758
 1973SOL    HW2 6819   3.252   2.573   0.859
 1974SOL     OW 6820   2.304   6.446   4.768
 1974SOL    HW1 6821   2.386   6.404   4.808
 1974SOL    HW2 6822   2.320   6.543   4.754
 1975SOL     OW 6823   1.936   2.905   3.351
 1975SOL    HW1 6824   2.009   2.961   3.313
 1975SOL    HW2 6825   1.950   2.809   3.324
 1976SOL     OW 6826   0.743   0.592   5.328
 1976SOL    HW1 6827   0.775   0.667   5.386
 1976SOL    HW2 6828   0.672   0.625   5.266
 1977SOL     OW 6829   1.978   4.222   6.070
 1977SOL    HW1 6830   1.945   4.315   6.088
 1977SOL    HW2 6831   1.903   4.165   6.036
 1978SOL     OW 6832   2.851   7.006   2.182
 1978SOL    HW1 6833   2.845   0.075   2.222
 1978SOL    HW2 6834   2.759   6.976   2.155
 1979SOL     OW 6835   6.148   4.438   6.036
 1979SOL    HW1 6836   6.147   4.452   6.135
 1979SOL    HW2 6837   6.203   4.358   6.013
 1980SOL     OW 6838   3.558   0.874   0.859
 1980SOL    HW1 6839   3.597   0.833   0.941
 1980SOL    HW2 6840   3.474   0.826   0.834
 1981SOL     OW 6841   3.651   1.793   2.462
 1981SOL    HW1 6842   3.591   1.713   2.469
 1981SOL    HW2 6843   3.714   1.781   2.385
 1982SOL     OW 6844   1.046   2.844   5.901
 1982SOL    HW1 6845   0.958   2.869   5.862
 1982SOL    HW2 6846   1.076   2.914   5.966
 1983SOL     OW 6847   0.391   1.058   2.253
 1983SOL    HW1 6848   0.343   1.051   2.340
 1983SOL    HW2 6849   0.366   0.981   2.194
 1984SOL     OW 6850   4.605   3.207   5.719
 1984SOL    HW1 6851   4.652   3.160   5.793
 1984SOL    HW2 6852   4.565   3.292   5.753
 1985SOL     OW 6853   6.527   3.640   3.641
 1985SOL    HW1 6854   6.623   3.618   3.622
 1985SOL    HW2 6855   6.489   3.693   3.565
 1986SOL     OW 6856   3.089   3.656   2.393
 1986SOL    HW1 6857   3.038   3.642   2.478
 1986SOL    HW2 6858   3.178   3.696   2.413
 1987SOL     OW 6859   2.159   1.035   1.397
 1987SOL    HW1 6860   2.187   1.070   1.486
 1987SOL    HW2 6861   2.173   1.106   1.328
 1988SOL     OW 6862   0.618   1.544   1.862
 1988SOL    HW1 6863   0.596   1.477   1.791
 1988SOL    HW2 6864   0.538   1.603   1.879
 1989SOL     OW 6865   3.054   5.272   4.591
 1989SOL    HW1 6866   3.086   5.359   4.628
 1989SOL    HW2 6867   3.082   5.198   4.652
 1990SOL     OW 6868   4.037   0.522   6.945
 1990SOL    HW1 6869   4.058   0.542   6.849
 1990SOL    HW2 6870   4.005   0.428   6.953
 1991SOL     OW 6871   2.668   5.286   1.477
 1991SOL    HW1 6872   2.731   5.356   1.511
 1991SOL    HW2 6873   2.598   5.329   1.419
 1992SOL     OW 6874   0.992   6.688   2.755
 1992SOL    HW1 6875   1.054   6.764   2.739
 1992SOL    HW2 6876   1.035   6.603   2.725
 1993SOL     OW 6877   2.378   2.190   2.849
 1993SOL    HW1 6878   2.295   2.168   2.900
 1993SOL    HW2 6879   2.353   2.215   2.755
 1994SOL     OW 6880   3.765   2.572   0.592
 1994SOL    HW1 6881   3.858   2.567   0.555
 1994SOL    HW2 6882   3.729   2.479   0.603
 1995SOL     OW 6883   5.484   1.728   4.284
 1995SOL    HW1 6884   5.505   1.812   4.234
 1995SOL    HW2 6885   5.542   1.723   4.366
 1996SOL     OW 6886   4.553   0.834   0.816
 1996SOL    HW1 6887   4.647   0.809   0.841
 1996SOL    HW2 6888   4.517   0.768   0.751
 1997SOL     OW 6889   3.243   1.183   4.174
 1997SOL    HW1 6890   3.249   1.236   4.090
 1997SOL    HW2 6891   3.333   1.147   4.198
 1998SOL     OW 6892   2.347   3.956   1.724
 1998SOL    HW1 6893   2.328   3.978   1.628
 1998SOL    HW2 6894   2.446   3.961   1.739
 1999SOL     OW 6895   0.909   0.565   0.004
 1999SOL    HW1 6896   0.902   0.476   0.050
 1999SOL    HW2 6897   0.912   0.552   6.928
 2000SOL     OW 6898   4.268   4.321   5.791
 2000SOL    HW1 6899   4.235   4.298   5.882
 2000SOL    HW2 6900   4.308   4.240   5.748
 2001SOL     OW 6901   1.530   2.328   1.465
 2001SOL    HW1 6902   1.436   2.299   1.447
 2001SOL    HW2 6903   1.530   2.391   1.543
 2002SOL     OW 6904   6.808   5.578   0.980
 2002SOL    HW1 6905   6.767   5.493   0.949
 2002SOL    HW2 6906   6.850   5.625   0.902
 2003SOL     OW 6907   5.502   5.248   2.250
 2003SOL    HW1 6908   5.531   5.224   2.343
 2003SOL    HW2 6909   5.538   5.181   2.185
 2004SOL     OW 6910   3.453   6.811   3.099
 2004SOL    HW1 6911   3.550   6.832   3.088
 2004SOL    HW2 6912   3.398   6.888   3.067
 2005SOL     OW 6913   1.469   6.029   0.434
 2005SOL    HW1 6914   1.476   6.127   0.450
 2005SOL    HW2 6915   1.546   5.999   0.377
 2006SOL     OW 6916   5.633   6.603   2.207
 2006SOL    HW1 6917   5.706   6.559   2.260
 2006SOL    HW2 6918   5.673   6.670   2.144
 2007SOL     OW 6919   5.099   4.823   6.328
 2007SOL    HW1 6920   5.058   4.735   6.304
 2007SOL    HW2 6921   5.198   4.819   6.312
 2008SOL     OW 6922   2.150   3.404   2.969
 2008SOL    HW1 6923   2.242   3.371   2.947
 2008SOL    HW2 6924   2.106   3.339   3.031
 2009SOL     OW 6925   6.405   6.798   2.365
 2009SOL    HW1 6926   6.391   6.703   2.336
 2009SOL    HW2 6927   6.503   6.820   2.362
 2010SOL     OW 6928   6.740   1.997   2.029
 2010SOL    HW1 6929   6.672   1.985   1.956
 2010SOL    HW2 6930   6.823   1.947   2.006
 2011SOL     OW 6931   0.604   0.155   4.732
 2011SOL    HW1 6932   0.680   0.136   4.794
 2011SOL    HW2 6933   0.633   0.138   4.638
 2012SOL     OW 6934   0.416   2.777   1.426
 2012SOL    HW1 6935   0.393   2.863   1.470
 2012SOL    HW2 6936   0.332   2.729   1.399
 2013SOL     OW 6937   0.181   2.628   2.117
 2013SOL    HW1 6938   0.265   2.618   2.064
 2013SOL    HW2 6939   0.113   2.563   2.084
 2014SOL     OW 6940   4.120   1.080   4.666
 2014SOL    HW1 6941   4.102   1.032   4.580
 2014SOL    HW2 6942   4.205   1.046   4.706
 2015SOL     OW 6943   4.163   6.919   1.583
 2015SOL    HW1 6944   4.245   6.976   1.570
 2015SOL    HW2 6945   4.149   6.903   1.680
 2016SOL     OW 6946   2.104   0.894   4.281
 2016SOL    HW1 6947   2.100   0.796   4.260
 2016SOL    HW2 6948   2.131   0.906   4.376
 2017SOL     OW 6949   3.706   6.347   3.749
 2017SOL    HW1 6950   3.805   6.355   3.758
 2017SOL    HW2 6951   3.669   6.300   3.829
 2018SOL     OW 6952   1.097   0.738   4.195
 2018SOL    HW1 6953   1.135   0.668   4.134
 2018SOL    HW2 6954   1.132   0.828   4.169
 2019SOL     OW 6955   5.257   5.376   6.557
 2019SOL    HW1 6956   5.249   5.429   6.641
 2019SOL    HW2 6957   5.310   5.428   6.490
 2020SOL     OW 6958   1.893   6.959   0.040
 2020SOL    HW1 6959   1.937   0.026   0.049
 2020SOL    HW2 6960   1.958   6.888   0.067
 2021SOL     OW 6961   0.105   6.104   4.534
 2021SOL    HW1 6962   0.025   6.144   4.579
 2021SOL    HW2 6963   0.176   6.174   4.522
 2022SOL     OW 6964   1.880   3.389   4.255
 2022SOL    HW1 6965   1.965   3.351   4.291
 2022SOL    HW2 6966   1.849   3.463   4.314
 2023SOL     OW 6967   6.555   6.469   6.702
 2023SOL    HW1 6968   6.483   6.470   6.633
 2023SOL    HW2 6969   6.610   6.386   6.691
 2024SOL     OW 6970   0.291   5.525   3.957
 2024SOL    HW1 6971   0.268   5.607   4.010
 2024SOL    HW2 6972   0.353   5.467   4.011
 2025SOL     OW 6973   1.798   5.719   4.830
 2025SOL    HW1 6974   1.788   5.770   4.745
 2025SOL    HW2 6975   1.822   5.624   4.809
 2026SOL     OW 6976   6.844   0.620   5.900
 2026SOL    HW1 6977   6.902   0.667   5.967
 2026SOL    HW2 6978   6.842   0.522   5.921
 2027SOL     OW 6979   0.248   6.016   2.174
 2027SOL    HW1 6980   0.310   6.087   2.208
 2027SOL    HW2 6981   0.240   6.025   2.075
 2028SOL     OW 6982   3.109   5.046   4.743
 2028SOL    HW1 6983   3.100   5.005   4.652
 2028SOL    HW2 6984   3.099   4.975   4.812
 2029SOL     OW 6985   6.288   2.629   6.247
 2029SOL    HW1 6986   6.334   2.665   6.166
 2029SOL    HW2 6987   6.199   2.673   6.257
 2030SOL     OW 6988   2.447   6.786   2.510
 2030SOL    HW1 6989   2.453   6.696   2.552
 2030SOL    HW2 6990   2.409   6.778   2.418
 2031SOL     OW 6991   0.758   6.075   4.859
 2031SOL    HW1 6992   0.727   6.046   4.769
 2031SOL    HW2 6993   0.681   6.074   4.923
 2032SOL     OW 6994   2.485   2.854   5.992
 2032SOL    HW1 6995   2.386   2.863   5.986
 2032SOL    HW2 6996   2.518   2.801   5.914
 2033SOL     OW 6997   2.259   1.570   0.810
 2033SOL    HW1 6998   2.249   1.633   0.887
 2033SOL    HW2 6999   2.308   1.616   0.735
 2034SOL     OW 7000   0.813   4.552   5.395
 2034SOL    HW1 7001   0.882   4.480   5.400
 2034SOL    HW2 7002   0.782   4.563   5.301
 2035SOL     OW 7003   5.331   6.263   3.194
 2035SOL    HW1 7004   5.429   6.273   3.215
 2035SOL    HW2 7005   5.297   6.349   3.155
 2036SOL     OW 7006   0.470   4.887   6.370
 2036SOL    HW1 7007   0.406   4.906   6.295
 2036SOL    HW2 7008   0.424   4.831   6.439
 2037SOL     OW 7009   0.936   2.339   0.323
 2037SOL    HW1 7010   0.908   2.255   0.369
 2037SOL    HW2 7011   1.008   2.319   0.257
 2038SOL     OW 7012   0.767   0.927   5.993
 2038SOL    HW1 7013   0.838   0.976   6.042
 2038SOL    HW2 7014   0.679   0.942   6.037
 2039SOL     OW 7015   5.063   6.191   3.332
 2039SOL    HW1 7016   5.130   6.243   3.279
 2039SOL    HW2 7017   5.080   6.093   3.319
 2040SOL     OW 7018   2.397   2.223   6.880
 2040SOL    HW1 7019   2.374   2.270   6.965
 2040SOL    HW2 7020   2.486   2.254   6.847
 2041SOL     OW 7021   2.444   6.882   6.611
 2041SOL    HW1 7022   2.520   6.947   6.612
 2041SOL    HW2 7023   2.433   6.842   6.703
 2042SOL     OW 7024   5.930   0.746   6.002
 2042SOL    HW1 7025   5.962   0.744   6.097
 2042SOL    HW2 7026   5.903   0.654   5.975
 2043SOL     OW 7027   0.730   4.196   1.040
 2043SOL    HW1 7028   0.646   4.141   1.041
 2043SOL    HW2 7029   0.809   4.136   1.024
 2044SOL     OW 7030   4.367   0.491   1.365
 2044SOL    HW1 7031   4.433   0.542   1.420
 2044SOL    HW2 7032   4.400   0.398   1.350
 2045SOL     OW 7033   2.145   6.031   4.174
 2045SOL    HW1 7034   2.096   6.008   4.258
 2045SOL    HW2 7035   2.199   6.114   4.188
 2046SOL     OW 7036   0.502   3.317   5.514
 2046SOL    HW1 7037   0.485   3.403   5.466
 2046SOL    HW2 7038   0.567   3.261   5.461
 2047SOL     OW 7039   6.840   0.152   0.772
 2047SOL    HW1 7040   6.810   0.244   0.798
 2047SOL    HW2 7041   6.940   0.148   0.770
 2048SOL     OW 7042   2.052   1.508   3.901
 2048SOL    HW1 7043   2.129   1.485   3.960
 2048SOL    HW2 7044   2.082   1.508   3.805
 2049SOL     OW 7045   4.718   2.758   4.878
 2049SOL    HW1 7046   4.629   2.716   4.861
 2049SOL    HW2 7047   4.740   2.751   4.976
 2050SOL     OW 7048   0.288   0.875   3.481
 2050SOL    HW1 7049   0.332   0.958   3.517
 2050SOL    HW2 7050   0.231   0.835   3.553
 2051SOL     OW 7051   3.113   5.916   0.665
 2051SOL    HW1 7052   3.154   5.877   0.748
 2051SOL    HW2 7053   3.037   5.976   0.690
 2052SOL     OW 7054   1.030   3.839   0.553
 2052SOL    HW1 7055   1.081   3.895   0.619
 2052SOL    HW2 7056   1.091   3.769   0.516
 2053SOL     OW 7057   6.406   5.212   2.527
 2053SOL    HW1 7058   6.469   5.207   2.450
 2053SOL    HW2 7059   6.317   5.246   2.496
 2054SOL     OW 7060   3.342   4.087   3.204
 2054SOL    HW1 7061   3.250   4.048   3.210
 2054SOL    HW2 7062   3.343   4.162   3.138
 2055SOL     OW 7063   4.230   2.756   5.510
 2055SOL    HW1 7064   4.310   2.817   5.503
 2055SOL    HW2 7065   4.232   2.709   5.598
 2056SOL     OW 7066   3.150   5.266   1.531
 2056SOL    HW1 7067   3.220   5.198   1.553
 2056SOL    HW2 7068   3.060   5.232   1.561
 2057SOL     OW 7069   5.796   3.066   4.327
 2057SOL    HW1 7070   5.702   3.067   4.363
 2057SOL    HW2 7071   5.835   3.158   4.332
 2058SOL     OW 7072   6.344   6.433   3.653
 2058SOL    HW1 7073   6.421   6.413   3.592
 2058SOL    HW2 7074   6.378   6.472   3.738
 2059SOL     OW 7075   1.895   1.625   5.151
 2059SOL    HW1 7076   1.834   1.692   5.192
 2059SOL    HW2 7077   1.972   1.607   5.213
 2060SOL     OW 7078   2.012   2.807   6.899
 2060SOL    HW1 7079   2.028   2.754   6.816
 2060SOL    HW2 7080   2.028   2.904   6.881
 2061SOL     OW 7081   2.065   2.712   2.766
 2061SOL    HW1 7082   2.067   2.659   2.850
 2061SOL    HW2 7083   2.075   2.809   2.787
 2062SOL     OW 7084   6.142   5.028   4.160
 2062SOL    HW1 7085   6.066   4.970   4.130
 2062SOL    HW2 7086   6.110   5.091   4.231
 2063SOL     OW 7087   0.699   2.227   4.154
 2063SOL    HW1 7088   0.641   2.308   4.144
 2063SOL    HW2 7089   0.653   2.148   4.113
 2064SOL     OW 7090   0.590   3.446   3.935
 2064SOL    HW1 7091   0.598   3.437   3.835
 2064SOL    HW2 7092   0.500   3.484   3.957
 2065SOL     OW 7093   4.000   3.682   5.872
 2065SOL    HW1 7094   3.904   3.683   5.844
 2065SOL    HW2 7095   4.046   3.762   5.835
 2066SOL     OW 7096   1.232   3.139   4.916
 2066SOL    HW1 7097   1.281   3.179   4.994
 2066SOL    HW2 7098   1.134   3.155   4.927
 2067SOL     OW 7099   6.607   4.731   1.810
 2067SOL    HW1 7100   6.680   4.778   1.859
 2067SOL    HW2 7101   6.519   4.753   1.852
 2068SOL     OW 7102   4.442   0.511   4.200
 2068SOL    HW1 7103   4.535   0.478   4.216
 2068SOL    HW2 7104   4.444   0.608   4.180
 2069SOL     OW 7105   6.771   1.105   3.705
 2069SOL    HW1 7106   6.678   1.080   3.676
 2069SOL    HW2 7107   6.825   1.129   3.625
 2070SOL     OW 7108   1.470   4.930   1.275
 2070SOL    HW1 7109   1.397   4.895   1.333
 2070SOL    HW2 7110   1.448   5.024   1.247
 2071SOL     OW 7111   0.439   2.176   5.534
 2071SOL    HW1 7112   0.393   2.232   5.466
 2071SOL    HW2 7113   0.417   2.210   5.626
 2072SOL     OW 7114   5.500   4.432   5.280
 2072SOL    HW1 7115   5.487   4.361   5.350
 2072SOL    HW2 7116   5.480   4.393   5.190
 2073SOL     OW 7117   3.137   5.585   6.540
 2073SOL    HW1 7118   3.099   5.641   6.613
 2073SOL    HW2 7119   3.109   5.622   6.452
 2074SOL     OW 7120   2.516   4.857   5.829
 2074SOL    HW1 7121   2.527   4.797   5.750
 2074SOL    HW2 7122   2.419   4.864   5.852
 2075SOL     OW 7123   5.743   2.364   1.702
 2075SOL    HW1 7124   5.706   2.287   1.649
 2075SOL    HW2 7125   5.836   2.343   1.732
 2076SOL     OW 7126   6.695   6.363   4.624
 2076SOL    HW1 7127   6.672   6.271   4.592
 2076SOL    HW2 7128   6.672   6.430   4.554
 2077SOL     OW 7129   6.181   4.479   0.188
 2077SOL    HW1 7130   6.190   4.390   0.233
 2077SOL    HW2 7131   6.085   4.495   0.165
 2078SOL     OW 7132   0.718   3.290   5.701
 2078SOL    HW1 7133   0.652   3.294   5.626
 2078SOL    HW2 7134   0.791   3.225   5.678
 2079SOL     OW 7135   5.443   1.012   3.007
 2079SOL    HW1 7136   5.484   1.017   2.916
 2079SOL    HW2 7137   5.441   1.103   3.048
 2080SOL     OW 7138   2.522   3.592   6.330
 2080SOL    HW1 7139   2.572   3.612   6.415
 2080SOL    HW2 7140   2.425   3.611   6.343
 2081SOL     OW 7141   6.488   6.028   2.004
 2081SOL    HW1 7142   6.557   6.028   2.076
 2081SOL    HW2 7143   6.492   5.941   1.955
 2082SOL     OW 7144   7.007   5.154   4.297
 2082SOL    HW1 7145   0.033   5.219   4.239
 2082SOL    HW2 7146   6.928   5.199   4.338
 2083SOL     OW 7147   0.161   6.233   4.121
 2083SOL    HW1 7148   0.089   6.210   4.188
 2083SOL    HW2 7149   0.150   6.328   4.093
 2084SOL     OW 7150   6.680   1.832   1.280
 2084SOL    HW1 7151   6.737   1.900   1.233
 2084SOL    HW2 7152   6.661   1.864   1.373
 2085SOL     OW 7153   6.528   6.140   0.850
 2085SOL    HW1 7154   6.522   6.144   0.751
 2085SOL    HW2 7155   6.436   6.129   0.889
 2086SOL     OW 7156   4.749   0.746   6.733
 2086SOL    HW1 7157   4.808   0.739   6.653
 2086SOL    HW2 7158   4.805   0.739   6.816
 2087SOL     OW 7159   3.860   1.502   0.203
 2087SOL    HW1 7160   3.805   1.560   0.263
 2087SOL    HW2 7161   3.839   1.523   0.108
 2088SOL     OW 7162   0.587   4.605   5.900
 2088SOL    HW1 7163   0.687   4.607   5.894
 2088SOL    HW2 7164   0.549   4.584   5.809
 2089SOL     OW 7165   2.727   3.928   6.292
 2089SOL    HW1 7166   2.676   3.873   6.359
 2089SOL    HW2 7167   2.810   3.879   6.265
 2090SOL     OW 7168   5.240   2.887   6.819
 2090SOL    HW1 7169   5.291   2.802   6.803
 2090SOL    HW2 7170   5.247   2.913   6.915
 2091SOL     OW 7171   5.471   6.576   0.363
 2091SOL    HW1 7172   5.550   6.635   0.346
 2091SOL    HW2 7173   5.468   6.553   0.461
 2092SOL     OW 7174   3.219   3.437   2.221
 2092SOL    HW1 7175   3.164   3.488   2.287
 2092SOL    HW2 7176   3.313   3.473   2.222
 2093SOL     OW 7177   4.203   0.683   1.530
 2093SOL    HW1 7178   4.283   0.710   1.584
 2093SOL    HW2 7179   4.233   0.627   1.453
 2094SOL     OW 7180   5.419   2.028   0.228
 2094SOL    HW1 7181   5.510   1.995   0.201
 2094SOL    HW2 7182   5.427   2.121   0.263
 2095SOL     OW 7183   5.270   5.266   4.326
 2095SOL    HW1 7184   5.237   5.257   4.232
 2095SOL    HW2 7185   5.304   5.359   4.341
 2096SOL     OW 7186   3.894   0.113   2.364
 2096SOL    HW1 7187   3.829   0.183   2.335
 2096SOL    HW2 7188   3.847   0.042   2.416
 2097SOL     OW 7189   0.781   5.669   5.627
 2097SOL    HW1 7190   0.717   5.745   5.617
 2097SOL    HW2 7191   0.760   5.618   5.711
 2098SOL     OW 7192   2.878   6.904   3.837
 2098SOL    HW1 7193   2.920   6.814   3.849
 2098SOL    HW2 7194   2.925   6.970   3.896
 2099SOL     OW 7195   4.178   1.974   6.737
 2099SOL    HW1 7196   4.105   2.029   6.697
 2099SOL    HW2 7197   4.261   2.030   6.745
 2100SOL     OW 7198   4.651   0.428   0.338
 2100SOL    HW1 7199   4.586   0.504   0.333
 2100SOL    HW2 7200   4.703   0.433   0.423
 2101SOL     OW 7201   1.470   0.588   2.451
 2101SOL    HW1 7202   1.478   0.635   2.362
 2101SOL    HW2 7203   1.376   0.556   2.463
 2102SOL     OW 7204   3.948   2.355   1.422
 2102SOL    HW1 7205   3.958   2.274   1.480
 2102SOL    HW2 7206   3.853   2.361   1.390
 2103SOL     OW 7207   1.597   6.266   0.737
 2103SOL    HW1 7208   1.570   6.267   0.641
 2103SOL    HW2 7209   1.671   6.200   0.750
 2104SOL     OW 7210   1.755   3.744   3.234
 2104SOL    HW1 7211   1.735   3.687   3.313
 2104SOL    HW2 7212   1.835   3.800   3.253
 2105SOL     OW 7213   5.591   0.354   4.992
 2105SOL    HW1 7214   5.670   0.323   4.939
 2105SOL    HW2 7215   5.619   0.367   5.087
 2106SOL     OW 7216   4.183   2.928   1.105
 2106SOL    HW1 7217   4.093   2.897   1.073
 2106SOL    HW2 7218   4.201   2.889   1.196
 2107SOL     OW 7219   5.006   4.774   4.761
 2107SOL    HW1 7220   4.970   4.684   4.736
 2107SOL    HW2 7221   4.952   4.812   4.836
 2108SOL     OW 7222   5.018   6.929   5.432
 2108SOL    HW1 7223   5.059   6.859   5.490
 2108SOL    HW2 7224   4.920   6.909   5.421
 2109SOL     OW 7225   2.521   6.046   1.971
 2109SOL    HW1 7226   2.514   6.056   2.071
 2109SOL    HW2 7227   2.441   5.996   1.937
 2110SOL     OW 7228   3.618   6.049   0.024
 2110SOL    HW1 7229   3.625   6.037   0.123
 2110SOL    HW2 7230   3.562   6.130   0.004
 2111SOL     OW 7231   1.395   2.447   6.141
 2111SOL    HW1 7232   1.322   2.510   6.113
 2111SOL    HW2 7233   1.472   2.500   6.176
 2112SOL     OW 7234   0.890   0.089   6.901
 2112SOL    HW1 7235   0.971   0.108   6.845
 2112SOL    HW2 7236   0.900   0.000   6.945
 2113SOL     OW 7237   6.523   1.693   5.224
 2113SOL    HW1 7238   6.560   1.703   5.132
 2113SOL    HW2 7239   6.527   1.597   5.252
 2114SOL     OW 7240   2.101   0.908   5.783
 2114SOL    HW1 7241   2.013   0.883   5.824
 2114SOL    HW2 7242   2.115   0.854   5.700
 2115SOL     OW 7243   6.652   5.761   3.176
 2115SOL    HW1 7244   6.592   5.723   3.247
 2115SOL    HW2 7245   6.694   5.845   3.209
 2116SOL     OW 7246   1.431   1.621   6.938
 2116SOL    HW1 7247   1.463   1.527   6.946
 2116SOL    HW2 7248   1.426   1.647   6.842
 2117SOL     OW 7249   6.605   2.312   2.817
 2117SOL    HW1 7250   6.646   2.375   2.751
 2117SOL    HW2 7251   6.667   2.234   2.831
 2118SOL     OW 7252   0.169   2.388   2.688
 2118SOL    HW1 7253   0.089   2.408   2.745
 2118SOL    HW2 7254   0.185   2.290   2.686
 2119SOL     OW 7255   0.257   2.615   0.521
 2119SOL    HW1 7256   0.275   2.698   0.469
 2119SOL    HW2 7257   0.176   2.627   0.577
 2120SOL     OW 7258   5.469   2.183   0.803
 2120SOL    HW1 7259   5.447   2.141   0.891
 2120SOL    HW2 7260   5.389   2.231   0.768
 2121SOL     OW 7261   2.104   6.662   1.221
 2121SOL    HW1 7262   2.049   6.745   1.215
 2121SOL    HW2 7263   2.152   6.647   1.135
 2122SOL     OW 7264   6.340   0.709   4.406
 2122SOL    HW1 7265   6.329   0.631   4.467
 2122SOL    HW2 7266   6.436   0.716   4.377
 2123SOL     OW 7267   1.338   5.211   2.889
 2123SOL    HW1 7268   1.436   5.192   2.900
 2123SOL    HW2 7269   1.290   5.125   2.870
 2124SOL     OW 7270   4.776   3.147   6.123
 2124SOL    HW1 7271   4.836   3.134   6.202
 2124SOL    HW2 7272   4.702   3.080   6.126
 2125SOL     OW 7273   1.605   5.614   4.058
 2125SOL    HW1 7274   1.568   5.591   4.148
 2125SOL    HW2 7275   1.536   5.665   4.005
 2126SOL     OW 7276   2.670   3.476   0.583
 2126SOL    HW1 7277   2.742   3.417   0.548
 2126SOL    HW2 7278   2.710   3.551   0.635
 2127SOL     OW 7279   1.311   3.060   3.992
 2127SOL    HW1 7280   1.320   2.961   3.981
 2127SOL    HW2 7281   1.401   3.103   3.993
 2128SOL     OW 7282   5.287   3.135   2.431
 2128SOL    HW1 7283   5.302   3.156   2.527
 2128SOL    HW2 7284   5.306   3.038   2.414
 2129SOL     OW 7285   4.792   4.792   4.245
 2129SOL    HW1 7286   4.699   4.759   4.229
 2129SOL    HW2 7287   4.850   4.768   4.168
 2130SOL     OW 7288   2.003   0.560   1.637
 2130SOL    HW1 7289   1.925   0.497   1.633
 2130SOL    HW2 7290   1.994   0.628   1.565
 2131SOL     OW 7291   5.833   0.556   6.238
 2131SOL    HW1 7292   5.783   0.638   6.211
 2131SOL    HW2 7293   5.793   0.520   6.323
 2132SOL     OW 7294   2.496   2.753   0.277
 2132SOL    HW1 7295   2.488   2.685   0.205
 2132SOL    HW2 7296   2.411   2.806   0.283
 2133SOL     OW 7297   3.458   2.222   1.319
 2133SOL    HW1 7298   3.412   2.306   1.348
 2133SOL    HW2 7299   3.391   2.150   1.303
 2134SOL     OW 7300   1.695   6.354   5.323
 2134SOL    HW1 7301   1.745   6.420   5.379
 2134SOL    HW2 7302   1.759   6.299   5.270
 2135SOL     OW 7303   1.064   6.032   3.945
 2135SOL    HW1 7304   0.993   6.021   4.015
 2135SOL    HW2 7305   1.088   6.129   3.938
 2136SOL     OW 7306   1.686   4.845   3.822
 2136SOL    HW1 7307   1.605   4.785   3.817
 2136SOL    HW2 7308   1.736   4.841   3.736
 2137SOL     OW 7309   0.673   1.168   4.673
 2137SOL    HW1 7310   0.582   1.138   4.704
 2137SOL    HW2 7311   0.738   1.092   4.682
 2138SOL     OW 7312   1.182   2.621   6.119
 2138SOL    HW1 7313   1.144   2.714   6.126
 2138SOL    HW2 7314   1.109   2.557   6.097
 2139SOL     OW 7315   3.109   6.923   4.402
 2139SOL    HW1 7316   3.183   6.979   4.440
 2139SOL    HW2 7317   3.146   6.837   4.367
 2140SOL     OW 7318   1.520   6.129   3.568
 2140SOL    HW1 7319   1.506   6.030   3.568
 2140SOL    HW2 7320   1.609   6.150   3.609
 2141SOL     OW 7321   6.622   1.887   6.429
 2141SOL    HW1 7322   6.615   1.810   6.492
 2141SOL    HW2 7323   6.715   1.924   6.432
 2142SOL     OW 7324   3.262   1.242   3.914
 2142SOL    HW1 7325   3.293   1.162   3.863
 2142SOL    HW2 7326   3.178   1.279   3.873
 2143SOL     OW 7327   3.877   6.463   0.220
 2143SOL    HW1 7328   3.888   6.379   0.272
 2143SOL    HW2 7329   3.870   6.442   0.123
 2144SOL     OW 7330   1.097   0.655   1.825
 2144SOL    HW1 7331   1.163   0.581   1.814
 2144SOL    HW2 7332   1.143   0.742   1.808
 2145SOL     OW 7333   3.069   5.596   2.446
 2145SOL    HW1 7334   2.996   5.589   2.378
 2145SOL    HW2 7335   3.039   5.654   2.521
 2146SOL     OW 7336   2.654   2.030   0.821
 2146SOL    HW1 7337   2.560   2.007   0.794
 2146SOL    HW2 7338   2.681   2.116   0.776
 2147SOL     OW 7339   0.109   1.368   5.013
 2147SOL    HW1 7340   0.200   1.357   5.053
 2147SOL    HW2 7341   0.040   1.358   5.084
 2148SOL     OW 7342   5.457   3.753   3.994
 2148SOL    HW1 7343   5.360   3.729   4.002
 2148SOL    HW2 7344   5.476   3.833   4.050
 2149SOL     OW 7345   2.974   0.313   3.089
 2149SOL    HW1 7346   2.972   0.285   3.185
 2149SOL    HW2 7347   3.063   0.291   3.049
 2150SOL     OW 7348   4.133   0.272   3.373
 2150SOL    HW1 7349   4.045   0.319   3.363
 2150SOL    HW2 7350   4.128   0.183   3.327
 2151SOL     OW 7351   3.857   4.161   5.610
 2151SOL    HW1 7352   3.757   4.157   5.604
 2151SOL    HW2 7353   3.883   4.204   5.697
 2152SOL     OW 7354   6.758   6.604   2.413
 2152SOL    HW1 7355   6.772   6.703   2.421
 2152SOL    HW2 7356   6.743   6.581   2.316
 2153SOL     OW 7357   4.757   1.721   3.216
 2153SOL    HW1 7358   4.741   1.751   3.310
 2153SOL    HW2 7359   4.844   1.759   3.184
 2154SOL     OW 7360   4.165   6.507   5.261
 2154SOL    HW1 7361   4.138   6.539   5.352
 2154SOL    HW2 7362   4.231   6.432   5.270
 2155SOL     OW 7363   6.121   4.041   6.972
 2155SOL    HW1 7364   6.107   3.999   0.039
 2155SOL    HW2 7365   6.061   3.998   6.905
 2156SOL     OW 7366   0.127   0.461   1.474
 2156SOL    HW1 7367   0.109   0.364   1.492
 2156SOL    HW2 7368   0.225   0.477   1.476
 2157SOL     OW 7369   6.449   0.871   4.062
 2157SOL    HW1 7370   6.393   0.792   4.089
 2157SOL    HW2 7371   6.537   0.867   4.111
 2158SOL     OW 7372   4.876   0.273   3.463
 2158SOL    HW1 7373   4.812   0.334   3.418
 2158SOL    HW2 7374   4.874   0.183   3.418
 2159SOL     OW 7375   2.176   0.392   5.208
 2159SOL    HW1 7376   2.179   0.385   5.108
 2159SOL    HW2 7377   2.248   0.454   5.239
 2160SOL     OW 7378   3.100   2.627   0.491
 2160SOL    HW1 7379   3.142   2.673   0.569
 2160SOL    HW2 7380   3.011   2.591   0.517
 2161SOL     OW 7381   5.034   2.075   3.342
 2161SOL    HW1 7382   4.964   2.093   3.410
 2161SOL    HW2 7383   5.070   2.162   3.307
 2162SOL     OW 7384   1.733   1.032   0.888
 2162SOL    HW1 7385   1.757   1.013   0.983
 2162SOL    HW2 7386   1.782   1.113   0.856
 2163SOL     OW 7387   2.217   1.848   1.399
 2163SOL    HW1 7388   2.184   1.755   1.385
 2163SOL    HW2 7389   2.273   1.876   1.321
 2164SOL     OW 7390   6.696   6.719   1.209
 2164SOL    HW1 7391   6.736   6.774   1.136
 2164SOL    HW2 7392   6.605   6.754   1.231
 2165SOL     OW 7393   2.993   0.435   2.102
 2165SOL    HW1 7394   2.932   0.374   2.051
 2165SOL    HW2 7395   2.954   0.527   2.105
 2166SOL     OW 7396   5.954   2.697   5.894
 2166SOL    HW1 7397   5.971   2.796   5.899
 2166SOL    HW2 7398   5.872   2.680   5.840
 2167SOL     OW 7399   2.989   1.027   1.506
 2167SOL    HW1 7400   2.922   0.999   1.437
 2167SOL    HW2 7401   3.011   1.124   1.493
 2168SOL     OW 7402   5.846   6.533   4.948
 2168SOL    HW1 7403   5.911   6.508   5.019
 2168SOL    HW2 7404   5.768   6.581   4.989
 2169SOL     OW 7405   6.003   1.693   5.920
 2169SOL    HW1 7406   5.989   1.792   5.932
 2169SOL    HW2 7407   6.014   1.673   5.822
 2170SOL     OW 7408   5.365   4.401   4.595
 2170SOL    HW1 7409   5.310   4.327   4.634
 2170SOL    HW2 7410   5.312   4.447   4.523
 2171SOL     OW 7411   0.002   3.291   0.409
 2171SOL    HW1 7412   6.995   3.361   0.344
 2171SOL    HW2 7413   7.005   3.200   0.370
 2172SOL     OW 7414   2.405   0.263   1.902
 2172SOL    HW1 7415   2.483   0.213   1.940
 2172SOL    HW2 7416   2.436   0.351   1.866
 2173SOL     OW 7417   4.505   2.248   4.865
 2173SOL    HW1 7418   4.517   2.176   4.797
 2173SOL    HW2 7419   4.575   2.240   4.935
 2174SOL     OW 7420   1.395   5.497   4.882
 2174SOL    HW1 7421   1.464   5.568   4.895
 2174SOL    HW2 7422   1.322   5.509   4.949
 2175SOL     OW 7423   1.924   5.979   6.044
 2175SOL    HW1 7424   1.953   6.021   6.130
 2175SOL    HW2 7425   1.825   5.973   6.041
 2176SOL     OW 7426   1.642   2.820   2.467
 2176SOL    HW1 7427   1.718   2.783   2.520
 2176SOL    HW2 7428   1.663   2.814   2.369
 2177SOL     OW 7429   0.467   2.115   1.512
 2177SOL    HW1 7430   0.524   2.048   1.465
 2177SOL    HW2 7431   0.492   2.118   1.609
 2178SOL     OW 7432   6.662   6.445   1.284
 2178SOL    HW1 7433   6.687   6.382   1.210
 2178SOL    HW2 7434   6.699   6.535   1.265
 2179SOL     OW 7435   1.538   3.655   4.133
 2179SOL    HW1 7436   1.463   3.628   4.193
 2179SOL    HW2 7437   1.579   3.573   4.093
 2180SOL     OW 7438   3.629   2.983   1.531
 2180SOL    HW1 7439   3.720   3.025   1.522
 2180SOL    HW2 7440   3.637   2.884   1.519
 2181SOL     OW 7441   3.452   6.654   1.589
 2181SOL    HW1 7442   3.525   6.712   1.624
 2181SOL    HW2 7443   3.433   6.677   1.494
 2182SOL     OW 7444   5.056   2.097   1.018
 2182SOL    HW1 7445   5.047   2.081   1.116
 2182SOL    HW2 7446   5.088   2.191   1.002
 2183SOL     OW 7447   2.842   2.455   0.480
 2183SOL    HW1 7448   2.862   2.377   0.538
 2183SOL    HW2 7449   2.756   2.439   0.430
 2184SOL     OW 7450   4.570   3.296   6.332
 2184SOL    HW1 7451   4.578   3.390   6.299
 2184SOL    HW2 7452   4.490   3.252   6.291
 2185SOL     OW 7453   6.800   6.873   1.998
 2185SOL    HW1 7454   6.885   6.824   1.977
 2185SOL    HW2 7455   6.783   6.943   1.929
 2186SOL     OW 7456   0.180   4.429   3.078
 2186SOL    HW1 7457   0.124   4.404   3.157
 2186SOL    HW2 7458   0.164   4.525   3.055
 2187SOL     OW 7459   6.296   1.493   0.072
 2187SOL    HW1 7460   6.260   1.552   0.144
 2187SOL    HW2 7461   6.256   1.401   0.081
 2188SOL     OW 7462   4.923   1.246   4.138
 2188SOL    HW1 7463   4.861   1.250   4.217
 2188SOL    HW2 7464   5.004   1.300   4.157
 2189SOL     OW 7465   2.915   6.996   6.877
 2189SOL    HW1 7466   2.901   6.938   6.797
 2189SOL    HW2 7467   2.852   6.970   6.950
 2190SOL     OW 7468   4.930   2.441   0.870
 2190SOL    HW1 7469   4.876   2.459   0.952
 2190SOL    HW2 7470   4.872   2.396   0.801
 2191SOL     OW 7471   2.384   1.725   0.168
 2191SOL    HW1 7472   2.320   1.668   0.116
 2191SOL    HW2 7473   2.333   1.797   0.214
 2192SOL     OW 7474   3.669   5.680   2.424
 2192SOL    HW1 7475   3.596   5.711   2.364
 2192SOL    HW2 7476   3.665   5.580   2.432
 2193SOL     OW 7477   6.741   5.880   4.732
 2193SOL    HW1 7478   6.660   5.921   4.689
 2193SOL    HW2 7479   6.813   5.870   4.663
 2194SOL     OW 7480   2.746   0.527   1.977
 2194SOL    HW1 7481   2.745   0.597   2.050
 2194SOL    HW2 7482   2.660   0.531   1.927
 2195SOL     OW 7483   0.754   4.820   2.236
 2195SOL    HW1 7484   0.735   4.813   2.138
 2195SOL    HW2 7485   0.853   4.825   2.250
 2196SOL     OW 7486   4.257   3.189   0.420
 2196SOL    HW1 7487   4.300   3.198   0.509
 2196SOL    HW2 7488   4.187   3.259   0.409
 2197SOL     OW 7489   4.458   4.121   6.602
 2197SOL    HW1 7490   4.374   4.163   6.568
 2197SOL    HW2 7491   4.481   4.042   6.545
 2198SOL     OW 7492   6.302   4.374   0.674
 2198SOL    HW1 7493   6.224   4.432   0.652
 2198SOL    HW2 7494   6.348   4.410   0.755
 2199SOL     OW 7495   4.359   0.987   2.804
 2199SOL    HW1 7496   4.298   1.040   2.862
 2199SOL    HW2 7497   4.424   0.936   2.861
 2200SOL     OW 7498   2.799   6.787   4.408
 2200SOL    HW1 7499   2.887   6.779   4.455
 2200SOL    HW2 7500   2.773   6.698   4.372
 2201SOL     OW 7501   4.744   4.139   4.157
 2201SOL    HW1 7502   4.727   4.172   4.250
 2201SOL    HW2 7503   4.738   4.215   4.093
 2202SOL     OW 7504   4.627   5.886   3.929
 2202SOL    HW1 7505   4.651   5.821   3.856
 2202SOL    HW2 7506   4.710   5.933   3.960
 2203SOL     OW 7507   3.068   1.913   2.878
 2203SOL    HW1 7508   2.979   1.923   2.832
 2203SOL    HW2 7509   3.122   1.996   2.863
 2204SOL     OW 7510   2.603   2.439   0.304
 2204SOL    HW1 7511   2.558   2.442   0.393
 2204SOL    HW2 7512   2.556   2.501   0.241
 2205SOL     OW 7513   2.543   1.067   1.665
 2205SOL    HW1 7514   2.608   1.142   1.665
 2205SOL    HW2 7515   2.511   1.051   1.758
 2206SOL     OW 7516   1.678   2.999   0.172
 2206SOL    HW1 7517   1.598   3.055   0.150
 2206SOL    HW2 7518   1.728   3.040   0.248
 2207SOL     OW 7519   0.600   4.870   5.086
 2207SOL    HW1 7520   0.505   4.852   5.062
 2207SOL    HW2 7521   0.658   4.853   5.006
 2208SOL     OW 7522   6.847   4.843   2.411
 2208SOL    HW1 7523   6.819   4.751   2.384
 2208SOL    HW2 7524   6.767   4.901   2.420
 2209SOL     OW 7525   0.887   0.011   1.545
 2209SOL    HW1 7526   0.864   0.030   1.450
 2209SOL    HW2 7527   0.873   6.936   1.564
 2210SOL     OW 7528   2.283   5.373   3.555
 2210SOL    HW1 7529   2.362   5.331   3.511
 2210SOL    HW2 7530   2.248   5.447   3.497
 2211SOL     OW 7531   0.225   1.680   5.313
 2211SOL    HW1 7532   0.271   1.591   5.314
 2211SOL    HW2 7533   0.259   1.735   5.237
 2212SOL     OW 7534   1.749   6.818   6.378
 2212SOL    HW1 7535   1.700   6.818   6.466
 2212SOL    HW2 7536   1.810   6.897   6.374
 2213SOL     OW 7537   3.563   1.008   3.388
 2213SOL    HW1 7538   3.597   1.021   3.294
 2213SOL    HW2 7539   3.537   0.913   3.401
 2214SOL     OW 7540   4.404   0.723   4.487
 2214SOL    HW1 7541   4.427   0.650   4.551
 2214SOL    HW2 7542   4.480   0.735   4.422
 2215SOL     OW 7543   5.829   2.124   5.238
 2215SOL    HW1 7544   5.864   2.049   5.181
 2215SOL    HW2 7545   5.878   2.124   5.326
 2216SOL     OW 7546   2.851   0.922   2.628
 2216SOL    HW1 7547   2.908   1.004   2.622
 2216SOL    HW2 7548   2.898   0.846   2.582
 2217SOL     OW 7549   4.528   1.010   1.985
 2217SOL    HW1 7550   4.467   1.088   1.968
 2217SOL    HW2 7551   4.516   0.942   1.913
 2218SOL     OW 7552   1.052   0.275   2.776
 2218SOL    HW1 7553   1.051   0.295   2.874
 2218SOL    HW2 7554   1.097   0.350   2.728
 2219SOL     OW 7555   1.421   2.413   2.819
 2219SOL    HW1 7556   1.339   2.355   2.822
 2219SOL    HW2 7557   1.415   2.475   2.740
 2220SOL     OW 7558   0.746   0.537   2.120
 2220SOL    HW1 7559   0.802   0.614   2.151
 2220SOL    HW2 7560   0.731   0.474   2.196
 2221SOL     OW 7561   0.448   0.749   6.429
 2221SOL    HW1 7562   0.548   0.757   6.432
 2221SOL    HW2 7563   0.422   0.652   6.432
 2222SOL     OW 7564   6.494   5.607   3.372
 2222SOL    HW1 7565   6.505   5.684   3.435
 2222SOL    HW2 7566   6.398   5.595   3.350
 2223SOL     OW 7567   6.822   6.312   1.925
 2223SOL    HW1 7568   6.791   6.258   2.003
 2223SOL    HW2 7569   6.781   6.403   1.928
 2224SOL     OW 7570   1.057   4.883   1.343
 2224SOL    HW1 7571   0.964   4.848   1.342
 2224SOL    HW2 7572   1.072   4.938   1.260
 2225SOL     OW 7573   0.676   3.922   0.749
 2225SOL    HW1 7574   0.715   3.877   0.669
 2225SOL    HW2 7575   0.747   3.938   0.816
 2226SOL     OW 7576   4.120   3.771   2.073
 2226SOL    HW1 7577   4.125   3.672   2.087
 2226SOL    HW2 7578   4.160   3.818   2.153
 2227SOL     OW 7579   0.853   2.757   4.278
 2227SOL    HW1 7580   0.905   2.762   4.193
 2227SOL    HW2 7581   0.917   2.758   4.356
 2228SOL     OW 7582   3.010   4.851   4.030
 2228SOL    HW1 7583   2.911   4.861   4.021
 2228SOL    HW2 7584   3.055   4.885   3.948
 2229SOL     OW 7585   5.556   6.460   3.220
 2229SOL    HW1 7586   5.559   6.560   3.209
 2229SOL    HW2 7587   5.648   6.423   3.207
 2230SOL     OW 7588   2.707   5.030   1.555
 2230SOL    HW1 7589   2.768   5.034   1.635
 2230SOL    HW2 7590   2.696   5.122   1.517
 2231SOL     OW 7591   2.427   6.091   1.110
 2231SOL    HW1 7592   2.469   6.164   1.055
 2231SOL    HW2 7593   2.438   6.112   1.207
 2232SOL     OW 7594   5.446   2.464   3.612
 2232SOL    HW1 7595   5.414   2.503   3.526
 2232SOL    HW2 7596   5.398   2.378   3.630
 2233SOL     OW 7597   2.940   1.385   6.034
 2233SOL    HW1 7598   3.030   1.353   6.064
 2233SOL    HW2 7599   2.871   1.316   6.054
 2234SOL     OW 7600   3.500   2.514   1.086
 2234SOL    HW1 7601   3.463   2.558   1.168
 2234SOL    HW2 7602   3.442   2.436   1.062
 2235SOL     OW 7603   1.752   2.203   1.781
 2235SOL    HW1 7604   1.710   2.144   1.712
 2235SOL    HW2 7605   1.812   2.148   1.839
 2236SOL     OW 7606   1.461   5.231   6.155
 2236SOL    HW1 7607   1.390   5.198   6.217
 2236SOL    HW2 7608   1.422   5.298   6.092
 2237SOL     OW 7609   6.228   3.130   4.243
 2237SOL    HW1 7610   6.301   3.167   4.185
 2237SOL    HW2 7611   6.176   3.061   4.191
 2238SOL     OW 7612   6.262   6.070   0.858
 2238SOL    HW1 7613   6.252   5.978   0.895
 2238SOL    HW2 7614   6.174   6.117   0.863
 2239SOL     OW 7615   6.057   6.108   2.041
 2239SOL    HW1 7616   6.082   6.204   2.047
 2239SOL    HW2 7617   5.980   6.098   1.978
 2240SOL     OW 7618   5.772   3.616   2.049
 2240SOL    HW1 7619   5.868   3.640   2.036
 2240SOL    HW2 7620   5.745   3.548   1.981
 2241SOL     OW 7621   1.123   0.397   3.108
 2241SOL    HW1 7622   1.137   0.300   3.128
 2241SOL    HW2 7623   1.208   0.447   3.123
 2242SOL     OW 7624   3.362   1.651   2.345
 2242SOL    HW1 7625   3.410   1.705   2.277
 2242SOL    HW2 7626   3.276   1.696   2.369
 2243SOL     OW 7627   2.816   0.029   5.174
 2243SOL    HW1 7628   2.790   0.054   5.081
 2243SOL    HW2 7629   2.840   0.112   5.225
 2244SOL     OW 7630   2.874   1.317   4.983
 2244SOL    HW1 7631   2.895   1.404   5.028
 2244SOL    HW2 7632   2.794   1.276   5.027
 2245SOL     OW 7633   0.435   2.100   2.108
 2245SOL    HW1 7634   0.512   2.042   2.137
 2245SOL    HW2 7635   0.349   2.053   2.129
 2246SOL     OW 7636   1.829   4.905   5.098
 2246SOL    HW1 7637   1.800   4.857   5.015
 2246SOL    HW2 7638   1.758   4.897   5.168
 2247SOL     OW 7639   1.965   1.467   4.604
 2247SOL    HW1 7640   1.972   1.566   4.589
 2247SOL    HW2 7641   1.985   1.419   4.518
 2248SOL     OW 7642   4.321   3.977   5.407
 2248SOL    HW1 7643   4.259   4.032   5.462
 2248SOL    HW2 7644   4.277   3.891   5.382
 2249SOL     OW 7645   3.735   5.343   5.154
 2249SOL    HW1 7646   3.794   5.391   5.089
 2249SOL    HW2 7647   3.740   5.244   5.138
 2250SOL     OW 7648   4.266   4.834   1.460
 2250SOL    HW1 7649   4.244   4.874   1.549
 2250SOL    HW2 7650   4.320   4.900   1.407
 2251SOL     OW 7651   0.403   0.407   6.741
 2251SOL    HW1 7652   0.357   0.463   6.811
 2251SOL    HW2 7653   0.413   0.314   6.775
 2252SOL     OW 7654   3.074   0.367   6.303
 2252SOL    HW1 7655   2.979   0.340   6.321
 2252SOL    HW2 7656   3.078   0.422   6.220
 2253SOL     OW 7657   1.050   3.484   6.335
 2253SOL    HW1 7658   1.061   3.423   6.414
 2253SOL    HW2 7659   0.981   3.447   6.273
 2254SOL     OW 7660   1.967   4.492   6.225
 2254SOL    HW1 7661   1.985   4.470   6.321
 2254SOL    HW2 7662   2.017   4.575   6.200
 2255SOL     OW 7663   6.185   3.428   6.734
 2255SOL    HW1 7664   6.282   3.403   6.738
 2255SOL    HW2 7665   6.172   3.517   6.777
 2256SOL     OW 7666   2.649   4.678   2.241
 2256SOL    HW1 7667   2.681   4.752   2.300
 2256SOL    HW2 7668   2.702   4.678   2.157
 2257SOL     OW 7669   1.806   3.621   4.615
 2257SOL    HW1 7670   1.901   3.637   4.588
 2257SOL    HW2 7671   1.796   3.526   4.646
 2258SOL     OW 7672   2.298   5.058   5.239
 2258SOL    HW1 7673   2.205   5.034   5.267
 2258SOL    HW2 7674   2.364   5.002   5.288
 2259SOL     OW 7675   6.645   3.256   6.511
 2259SOL    HW1 7676   6.716   3.186   6.521
 2259SOL    HW2 7677   6.555   3.215   6.529
 2260SOL     OW 7678   4.392   3.080   0.996
 2260SOL    HW1 7679   4.312   3.029   1.030
 2260SOL    HW2 7680   4.472   3.019   0.995
 2261SOL     OW 7681   2.861   6.724   4.914
 2261SOL    HW1 7682   2.792   6.733   4.842
 2261SOL    HW2 7683   2.894   6.815   4.940
 2262SOL     OW 7684   3.809   1.521   3.157
 2262SOL    HW1 7685   3.886   1.527   3.220
 2262SOL    HW2 7686   3.782   1.613   3.128
 2263SOL     OW 7687   0.702   4.308   5.855
 2263SOL    HW1 7688   0.728   4.391   5.904
 2263SOL    HW2 7689   0.734   4.314   5.760
 2264SOL     OW 7690   3.158   3.907   3.447
 2264SOL    HW1 7691   3.088   3.837   3.432
 2264SOL    HW2 7692   3.126   3.972   3.516
 2265SOL     OW 7693   0.522   6.729   3.320
 2265SOL    HW1 7694   0.600   6.730   3.256
 2265SOL    HW2 7695   0.443   6.688   3.275
 2266SOL     OW 7696   6.228   0.608   6.180
 2266SOL    HW1 7697   6.203   0.513   6.161
 2266SOL    HW2 7698   6.246   0.656   6.093
 2267SOL     OW 7699   5.376   1.999   5.306
 2267SOL    HW1 7700   5.365   1.900   5.296
 2267SOL    HW2 7701   5.336   2.028   5.393
 2268SOL     OW 7702   6.829   5.576   6.761
 2268SOL    HW1 7703   6.747   5.606   6.810
 2268SOL    HW2 7704   6.811   5.490   6.714
 2269SOL     OW 7705   0.084   6.989   3.247
 2269SOL    HW1 7706   0.180   6.988   3.218
 2269SOL    HW2 7707   0.062   6.902   3.291
 2270SOL     OW 7708   3.519   3.259   3.166
 2270SOL    HW1 7709   3.587   3.306   3.221
 2270SOL    HW2 7710   3.526   3.160   3.180
 2271SOL     OW 7711   1.035   5.116   3.197
 2271SOL    HW1 7712   1.128   5.136   3.228
 2271SOL    HW2 7713   0.978   5.091   3.276
 2272SOL     OW 7714   5.464   2.138   5.636
 2272SOL    HW1 7715   5.481   2.237   5.632
 2272SOL    HW2 7716   5.379   2.118   5.587
 2273SOL     OW 7717   0.397   0.998   2.989
 2273SOL    HW1 7718   0.491   1.000   3.024
 2273SOL    HW2 7719   0.363   1.091   2.978
 2274SOL     OW 7720   0.939   4.558   3.284
 2274SOL    HW1 7721   0.880   4.632   3.254
 2274SOL    HW2 7722   0.884   4.479   3.311
 2275SOL     OW 7723   4.532   6.333   3.796
 2275SOL    HW1 7724   4.514   6.425   3.829
 2275SOL    HW2 7725   4.446   6.286   3.777
 2276SOL     OW 7726   3.115   5.843   2.133
 2276SOL    HW1 7727   3.131   5.874   2.227
 2276SOL    HW2 7728   3.093   5.922   2.076
 2277SOL     OW 7729   3.284   3.535   1.182
 2277SOL    HW1 7730   3.368   3.585   1.200
 2277SOL    HW2 7731   3.288   3.494   1.091
 2278SOL     OW 7732   4.888   6.196   1.183
 2278SOL    HW1 7733   4.863   6.159   1.272
 2278SOL    HW2 7734   4.812   6.182   1.119
 2279SOL     OW 7735   5.850   3.995   5.803
 2279SOL    HW1 7736   5.771   4.009   5.743
 2279SOL    HW2 7737   5.877   4.082   5.845
 2280SOL     OW 7738   5.553   6.882   6.197
 2280SOL    HW1 7739   5.621   6.955   6.195
 2280SOL    HW2 7740   5.508   6.881   6.287
 2281SOL     OW 7741   2.060   1.730   6.882
 2281SOL    HW1 7742   1.987   1.754   6.945
 2281SOL    HW2 7743   2.113   1.654   6.919
 2282SOL     OW 7744   3.807   6.211   1.891
 2282SOL    HW1 7745   3.791   6.297   1.842
 2282SOL    HW2 7746   3.726   6.153   1.884
 2283SOL     OW 7747   0.146   3.996   1.926
 2283SOL    HW1 7748   0.213   4.067   1.949
 2283SOL    HW2 7749   0.087   3.979   2.005
 2284SOL     OW 7750   2.282   2.005   2.140
 2284SOL    HW1 7751   2.198   1.951   2.145
 2284SOL    HW2 7752   2.359   1.950   2.172
 2285SOL     OW 7753   1.802   3.713   6.779
 2285SOL    HW1 7754   1.731   3.751   6.721
 2285SOL    HW2 7755   1.765   3.692   6.869
 2286SOL     OW 7756   6.681   6.491   4.353
 2286SOL    HW1 7757   6.740   6.513   4.275
 2286SOL    HW2 7758   6.589   6.470   4.321
 2287SOL     OW 7759   2.148   1.948   0.660
 2287SOL    HW1 7760   2.099   1.888   0.723
 2287SOL    HW2 7761   2.110   2.040   0.665
 2288SOL     OW 7762   2.516   5.326   4.813
 2288SOL    HW1 7763   2.438   5.264   4.805
 2288SOL    HW2 7764   2.563   5.332   4.725
 2289SOL     OW 7765   3.902   1.233   6.935
 2289SOL    HW1 7766   3.803   1.225   6.922
 2289SOL    HW2 7767   3.923   1.321   6.978
 2290SOL     OW 7768   3.415   3.753   4.086
 2290SOL    HW1 7769   3.390   3.793   3.998
 2290SOL    HW2 7770   3.494   3.802   4.123
 2291SOL     OW 7771   1.895   2.591   0.310
 2291SOL    HW1 7772   1.813   2.611   0.256
 2291SOL    HW2 7773   1.917   2.493   0.303
 2292SOL     OW 7774   4.604   1.769   2.840
 2292SOL    HW1 7775   4.563   1.860   2.826
 2292SOL    HW2 7776   4.531   1.701   2.846
 2293SOL     OW 7777   0.468   0.887   6.735
 2293SOL    HW1 7778   0.527   0.853   6.662
 2293SOL    HW2 7779   0.372   0.873   6.709
 2294SOL     OW 7780   0.183   0.889   5.650
 2294SOL    HW1 7781   0.122   0.847   5.583
 2294SOL    HW2 7782   0.143   0.881   5.742
 2295SOL     OW 7783   5.459   6.017   0.982
 2295SOL    HW1 7784   5.372   6.048   0.944
 2295SOL    HW2 7785   5.498   5.946   0.923
 2296SOL     OW 7786   3.793   5.482   4.236
 2296SOL    HW1 7787   3.754   5.573   4.221
 2296SOL    HW2 7788   3.723   5.422   4.274
 2297SOL     OW 7789   5.935   3.809   5.488
 2297SOL    HW1 7790   5.837   3.823   5.501
 2297SOL    HW2 7791   5.953   3.787   5.392
 2298SOL     OW 7792   2.958   3.251   4.960
 2298SOL    HW1 7793   2.873   3.210   4.993
 2298SOL    HW2 7794   3.032   3.227   5.023
 2299SOL     OW 7795   6.182   3.347   4.614
 2299SOL    HW1 7796   6.174   3.445   4.635
 2299SOL    HW2 7797   6.138   3.329   4.526
 2300SOL     OW 7798   5.219   0.131   2.635
 2300SOL    HW1 7799   5.200   0.098   2.543
 2300SOL    HW2 7800   5.169   0.074   2.701
 2301SOL     OW 7801   3.905   3.182   5.098
 2301SOL    HW1 7802   3.905   3.147   5.191
 2301SOL    HW2 7803   3.816   3.224   5.077
 2302SOL     OW 7804   6.383   3.416   6.111
 2302SOL    HW1 7805   6.470   3.430   6.158
 2302SOL    HW2 7806   6.314   3.476   6.151
 2303SOL     OW 7807   2.856   1.922   6.580
 2303SOL    HW1 7808   2.938   1.933   6.636
 2303SOL    HW2 7809   2.824   1.827   6.587
 2304SOL     OW 7810   6.670   6.839   2.638
 2304SOL    HW1 7811   6.767   6.828   2.619
 2304SOL    HW2 7812   6.656   6.916   2.700
 2305SOL     OW 7813   2.526   6.939   5.595
 2305SOL    HW1 7814   2.559   6.915   5.504
 2305SOL    HW2 7815   2.604   6.952   5.656
 2306SOL     OW 7816   1.967   4.483   4.795
 2306SOL    HW1 7817   1.937   4.483   4.700
 2306SOL    HW2 7818   2.067   4.482   4.799
 2307SOL     OW 7819   6.702   3.696   4.946
 2307SOL    HW1 7820   6.797   3.728   4.956
 2307SOL    HW2 7821   6.673   3.652   5.031
 2308SOL     OW 7822   0.737   5.721   2.419
 2308SOL    HW1 7823   0.786   5.802   2.387
 2308SOL    HW2 7824   0.801   5.659   2.466
 2309SOL     OW 7825   2.251   0.276   4.703
 2309SOL    HW1 7826   2.324   0.216   4.737
 2309SOL    HW2 7827   2.191   0.301   4.780
 2310SOL     OW 7828   4.287   7.009   0.751
 2310SOL    HW1 7829   4.313   0.011   0.845
 2310SOL    HW2 7830   4.187   7.015   0.742
 2311SOL     OW 7831   2.237   5.849   0.593
 2311SOL    HW1 7832   2.274   5.760   0.566
 2311SOL    HW2 7833   2.220   5.849   0.692
 2312SOL     OW 7834   3.594   5.102   2.546
 2312SOL    HW1 7835   3.584   5.029   2.478
 2312SOL    HW2 7836   3.507   5.150   2.556
 2313SOL     OW 7837   5.050   4.359   1.490
 2313SOL    HW1 7838   5.030   4.395   1.581
 2313SOL    HW2 7839   4.965   4.354   1.437
 2314SOL     OW 7840   2.705   4.888   4.043
 2314SOL    HW1 7841   2.636   4.843   4.099
 2314SOL    HW2 7842   2.682   4.875   3.946
 2315SOL     OW 7843   4.784   2.096   7.007
 2315SOL    HW1 7844   4.733   2.067   0.065
 2315SOL    HW2 7845   4.795   2.195   7.008
 2316SOL     OW 7846   4.894   3.181   2.114
 2316SOL    HW1 7847   4.900   3.232   2.200
 2316SOL    HW2 7848   4.825   3.108   2.123
 2317SOL     OW 7849   0.903   6.017   3.093
 2317SOL    HW1 7850   0.952   6.027   3.180
 2317SOL    HW2 7851   0.923   5.927   3.054
 2318SOL     OW 7852   0.143   1.641   4.166
 2318SOL    HW1 7853   0.100   1.621   4.254
 2318SOL    HW2 7854   0.135   1.562   4.106
 2319SOL     OW 7855   0.922   4.650   1.856
 2319SOL    HW1 7856   0.989   4.714   1.894
 2319SOL    HW2 7857   0.964   4.560   1.845
 2320SOL     OW 7858   6.707   4.486   4.629
 2320SOL    HW1 7859   6.693   4.574   4.582
 2320SOL    HW2 7860   6.624   4.461   4.678
 2321SOL     OW 7861   3.986   5.380   4.400
 2321SOL    HW1 7862   3.913   5.415   4.342
 2321SOL    HW2 7863   4.046   5.455   4.428
 2322SOL     OW 7864   3.013   0.479   4.680
 2322SOL    HW1 7865   2.928   0.464   4.628
 2322SOL    HW2 7866   2.992   0.531   4.763
 2323SOL     OW 7867   4.953   3.540   2.152
 2323SOL    HW1 7868   4.926   3.451   2.189
 2323SOL    HW2 7869   5.052   3.541   2.139
 2324SOL     OW 7870   1.035   5.098   3.720
 2324SOL    HW1 7871   1.046   5.066   3.625
 2324SOL    HW2 7872   1.123   5.091   3.767
 2325SOL     OW 7873   0.177   2.233   0.287
 2325SOL    HW1 7874   0.234   2.311   0.260
 2325SOL    HW2 7875   0.221   2.183   0.362
 2326SOL     OW 7876   0.709   4.125   0.160
 2326SOL    HW1 7877   0.753   4.172   0.083
 2326SOL    HW2 7878   0.777   4.072   0.210
 2327SOL     OW 7879   5.198   1.265   3.824
 2327SOL    HW1 7880   5.110   1.303   3.855
 2327SOL    HW2 7881   5.272   1.302   3.881
 2328SOL     OW 7882   6.569   5.421   3.600
 2328SOL    HW1 7883   6.650   5.439   3.544
 2328SOL    HW2 7884   6.487   5.440   3.547
 2329SOL     OW 7885   0.958   5.755   3.018
 2329SOL    HW1 7886   0.966   5.665   3.060
 2329SOL    HW2 7887   0.922   5.746   2.925
 2330SOL     OW 7888   0.738   4.091   1.406
 2330SOL    HW1 7889   0.687   4.177   1.412
 2330SOL    HW2 7890   0.680   4.015   1.432
 2331SOL     OW 7891   1.486   4.512   5.827
 2331SOL    HW1 7892   1.507   4.570   5.748
 2331SOL    HW2 7893   1.462   4.420   5.796
 2332SOL     OW 7894   5.153   2.732   5.841
 2332SOL    HW1 7895   5.187   2.706   5.751
 2332SOL    HW2 7896   5.099   2.816   5.834
 2333SOL     OW 7897   3.127   4.985   3.782
 2333SOL    HW1 7898   3.137   5.084   3.786
 2333SOL    HW2 7899   3.201   4.946   3.728
 2334SOL     OW 7900   2.467   0.256   6.607
 2334SOL    HW1 7901   2.564   0.266   6.628
 2334SOL    HW2 7902   2.456   0.219   6.515
 2335SOL     OW 7903   4.309   4.743   4.533
 2335SOL    HW1 7904   4.243   4.789   4.473
 2335SOL    HW2 7905   4.267   4.724   4.621
 2336SOL     OW 7906   4.567   3.109   5.447
 2336SOL    HW1 7907   4.565   3.146   5.539
 2336SOL    HW2 7908   4.473   3.098   5.413
 2337SOL     OW 7909   6.197   0.265   4.610
 2337SOL    HW1 7910   6.208   0.187   4.549
 2337SOL    HW2 7911   6.207   0.236   4.705
 2338SOL     OW 7912   1.346   6.924   6.770
 2338SOL    HW1 7913   1.406   6.983   6.823
 2338SOL    HW2 7914   1.329   6.965   6.680
 2339SOL     OW 7915   4.235   5.197   0.251
 2339SOL    HW1 7916   4.231   5.238   0.342
 2339SOL    HW2 7917   4.307   5.242   0.198
 2340SOL     OW 7918   3.766   4.889   4.213
 2340SOL    HW1 7919   3.724   4.807   4.251
 2340SOL    HW2 7920   3.836   4.922   4.276
 2341SOL     OW 7921   5.557   4.922   6.499
 2341SOL    HW1 7922   5.628   4.976   6.453
 2341SOL    HW2 7923   5.496   4.983   6.549
 2342SOL     OW 7924   6.823   6.894   5.019
 2342SOL    HW1 7925   6.856   6.909   5.112
 2342SOL    HW2 7926   6.806   6.983   4.975
 2343SOL     OW 7927   0.834   0.350   0.525
 2343SOL    HW1 7928   0.752   0.385   0.572
 2343SOL    HW2 7929   0.864   0.266   0.570
 2344SOL     OW 7930   2.531   1.367   2.639
 2344SOL    HW1 7931   2.493   1.296   2.581
 2344SOL    HW2 7932   2.463   1.394   2.708
 2345SOL     OW 7933   1.212   1.823   2.187
 2345SOL    HW1 7934   1.244   1.865   2.102
 2345SOL    HW2 7935   1.229   1.725   2.185
 2346SOL     OW 7936   4.971   3.096   5.183
 2346SOL    HW1 7937   4.906   3.030   5.221
 2346SOL    HW2 7938   4.923   3.178   5.153
 2347SOL     OW 7939   1.675   3.375   1.130
 2347SOL    HW1 7940   1.755   3.386   1.071
 2347SOL    HW2 7941   1.691   3.423   1.216
 2348SOL     OW 7942   2.790   0.040   1.719
 2348SOL    HW1 7943   2.717   0.021   1.653
 2348SOL    HW2 7944   2.808   6.980   1.773
 2349SOL     OW 7945   4.583   4.253   6.331
 2349SOL    HW1 7946   4.489   4.281   6.349
 2349SOL    HW2 7947   4.584   4.160   6.296
 2350SOL     OW 7948   2.415   6.133   5.258
 2350SOL    HW1 7949   2.512   6.115   5.238
 2350SOL    HW2 7950   2.363   6.131   5.173
 2351SOL     OW 7951   1.928   5.086   3.186
 2351SOL    HW1 7952   1.853   5.152   3.197
 2351SOL    HW2 7953   1.940   5.065   3.089
 2352SOL     OW 7954   5.903   4.687   0.396
 2352SOL    HW1 7955   5.991   4.698   0.351
 2352SOL    HW2 7956   5.868   4.777   0.424
 2353SOL     OW 7957   2.289   3.729   6.371
 2353SOL    HW1 7958   2.269   3.791   6.447
 2353SOL    HW2 7959   2.205   3.683   6.344
 2354SOL     OW 7960   4.261   1.935   2.253
 2354SOL    HW1 7961   4.248   2.023   2.209
 2354SOL    HW2 7962   4.224   1.862   2.195
 2355SOL     OW 7963   0.130   1.323   1.874
 2355SOL    HW1 7964   0.046   1.304   1.925
 2355SOL    HW2 7965   0.122   1.285   1.782
 2356SOL     OW 7966   3.017   5.286   3.867
 2356SOL    HW1 7967   2.977   5.339   3.942
 2356SOL    HW2 7968   3.100   5.331   3.835
 2357SOL     OW 7969   0.383   4.586   0.592
 2357SOL    HW1 7970   0.433   4.656   0.541
 2357SOL    HW2 7971   0.352   4.624   0.679
 2358SOL     OW 7972   2.946   1.042   4.999
 2358SOL    HW1 7973   2.934   1.138   5.024
 2358SOL    HW2 7974   3.040   1.015   5.016
 2359SOL     OW 7975   2.039   2.055   5.623
 2359SOL    HW1 7976   2.004   2.102   5.543
 2359SOL    HW2 7977   2.135   2.031   5.609
 2360SOL     OW 7978   3.312   5.069   0.574
 2360SOL    HW1 7979   3.263   5.063   0.661
 2360SOL    HW2 7980   3.408   5.089   0.592
 2361SOL     OW 7981   3.620   5.881   1.268
 2361SOL    HW1 7982   3.679   5.813   1.224
 2361SOL    HW2 7983   3.585   5.944   1.199
 2362SOL     OW 7984   3.334   5.056   3.983
 2362SOL    HW1 7985   3.386   5.121   3.927
 2362SOL    HW2 7986   3.258   5.019   3.930
 2363SOL     OW 7987   1.955   4.045   1.063
 2363SOL    HW1 7988   1.894   4.024   1.140
 2363SOL    HW2 7989   1.905   4.099   0.995
 2364SOL     OW 7990   3.971   1.654   2.454
 2364SOL    HW1 7991   3.926   1.717   2.391
 2364SOL    HW2 7992   3.948   1.679   2.548
 2365SOL     OW 7993   4.980   4.342   2.775
 2365SOL    HW1 7994   5.019   4.337   2.867
 2365SOL    HW2 7995   4.890   4.384   2.780
 2366SOL     OW 7996   3.116   5.101   5.322
 2366SOL    HW1 7997   3.035   5.054   5.357
 2366SOL    HW2 7998   3.095   5.143   5.234
 2367SOL     OW 7999   5.943   5.016   5.863
 2367SOL    HW1 8000   5.904   4.994   5.774
 2367SOL    HW2 8001   5.932   5.113   5.882
 2368SOL     OW 8002   5.339   0.729   5.682
 2368SOL    HW1 8003   5.248   0.735   5.641
 2368SOL    HW2 8004   5.381   0.820   5.682
 2369SOL     OW 8005   4.066   2.142   4.002
 2369SOL    HW1 8006   4.132   2.189   4.060
 2369SOL    HW2 8007   4.064   2.045   4.023
 2370SOL     OW 8008   5.360   1.773   1.801
 2370SOL    HW1 8009   5.365   1.780   1.901
 2370SOL    HW2 8010   5.433   1.828   1.760
 2371SOL     OW 8011   1.339   6.426   1.801
 2371SOL    HW1 8012   1.310   6.379   1.885
 2371SOL    HW2 8013   1.435   6.405   1.783
 2372SOL     OW 8014   6.830   0.177   6.213
 2372SOL    HW1 8015   6.853   0.084   6.241
 2372SOL    HW2 8016   6.747   0.206   6.260
 2373SOL     OW 8017   5.919   4.600   6.070
 2373SOL    HW1 8018   5.895   4.587   6.166
 2373SOL    HW2 8019   6.004   4.550   6.050
 2374SOL     OW 8020   6.353   6.499   2.301
 2374SOL    HW1 8021   6.302   6.506   2.215
 2374SOL    HW2 8022   6.412   6.418   2.299
 2375SOL     OW 8023   2.177   0.457   4.510
 2375SOL    HW1 8024   2.187   0.382   4.576
 2375SOL    HW2 8025   2.267   0.486   4.479
 2376SOL     OW 8026   5.404   2.011   3.162
 2376SOL    HW1 8027   5.334   2.077   3.185
 2376SOL    HW2 8028   5.479   2.056   3.113
 2377SOL     OW 8029   4.283   3.706   5.621
 2377SOL    HW1 8030   4.348   3.711   5.545
 2377SOL    HW2 8031   4.260   3.611   5.640
 2378SOL     OW 8032   0.791   1.516   0.094
 2378SOL    HW1 8033   0.759   1.425   0.123
 2378SOL    HW2 8034   0.803   1.517   7.018
 2379SOL     OW 8035   0.328   5.313   2.405
 2379SOL    HW1 8036   0.233   5.300   2.436
 2379SOL    HW2 8037   0.371   5.384   2.460
 2380SOL     OW 8038   4.917   5.716   6.837
 2380SOL    HW1 8039   4.937   5.745   6.930
 2380SOL    HW2 8040   4.859   5.635   6.838
 2381SOL     OW 8041   2.077   3.452   3.844
 2381SOL    HW1 8042   2.005   3.397   3.886
 2381SOL    HW2 8043   2.164   3.404   3.851
 2382SOL     OW 8044   0.227   5.125   3.095
 2382SOL    HW1 8045   0.218   5.118   3.194
 2382SOL    HW2 8046   0.256   5.218   3.071
 2383SOL     OW 8047   4.919   4.155   5.557
 2383SOL    HW1 8048   4.995   4.153   5.622
 2383SOL    HW2 8049   4.844   4.209   5.595
 2384SOL     OW 8050   0.360   2.105   2.396
 2384SOL    HW1 8051   0.292   2.178   2.404
 2384SOL    HW2 8052   0.332   2.042   2.323
 2385SOL     OW 8053   0.146   1.269   0.612
 2385SOL    HW1 8054   0.087   1.201   0.569
 2385SOL    HW2 8055   0.153   1.350   0.552
 2386SOL     OW 8056   5.940   6.177   4.618
 2386SOL    HW1 8057   5.910   6.118   4.543
 2386SOL    HW2 8058   6.012   6.131   4.669
 2387SOL     OW 8059   1.004   1.136   4.220
 2387SOL    HW1 8060   0.979   1.233   4.216
 2387SOL    HW2 8061   1.001   1.097   4.128
 2388SOL     OW 8062   0.692   3.574   5.454
 2388SOL    HW1 8063   0.708   3.672   5.444
 2388SOL    HW2 8064   0.600   3.559   5.491
 2389SOL     OW 8065   4.577   5.526   3.036
 2389SOL    HW1 8066   4.480   5.513   3.016
 2389SOL    HW2 8067   4.632   5.496   2.958
 2390SOL     OW 8068   4.634   2.816   6.707
 2390SOL    HW1 8069   4.653   2.914   6.721
 2390SOL    HW2 8070   4.687   2.762   6.772
 2391SOL     OW 8071   3.531   4.251   6.751
 2391SOL    HW1 8072   3.526   4.325   6.818
 2391SOL    HW2 8073   3.553   4.166   6.798
 2392SOL     OW 8074   4.352   4.850   5.619
 2392SOL    HW1 8075   4.381   4.803   5.535
 2392SOL    HW2 8076   4.274   4.909   5.599
 2393SOL     OW 8077   4.128   4.527   0.924
 2393SOL    HW1 8078   4.192   4.588   0.971
 2393SOL    HW2 8079   4.036   4.543   0.959
 2394SOL     OW 8080   6.634   1.409   3.852
 2394SOL    HW1 8081   6.696   1.390   3.928
 2394SOL    HW2 8082   6.661   1.494   3.807
 2395SOL     OW 8083   1.324   2.786   3.913
 2395SOL    HW1 8084   1.304   2.805   3.817
 2395SOL    HW2 8085   1.404   2.726   3.920
 2396SOL     OW 8086   6.911   0.328   0.060
 2396SOL    HW1 8087   6.817   0.328   0.095
 2396SOL    HW2 8088   6.915   0.380   6.997
 2397SOL     OW 8089   1.719   4.117   5.140
 2397SOL    HW1 8090   1.726   4.136   5.042
 2397SOL    HW2 8091   1.763   4.191   5.192
 2398SOL     OW 8092   4.343   6.840   3.903
 2398SOL    HW1 8093   4.385   6.904   3.838
 2398SOL    HW2 8094   4.244   6.852   3.902
 2399SOL     OW 8095   3.491   2.128   2.950
 2399SOL    HW1 8096   3.543   2.154   3.032
 2399SOL    HW2 8097   3.554   2.092   2.881
 2400SOL     OW 8098   1.819   3.520   0.581
 2400SOL    HW1 8099   1.836   3.545   0.486
 2400SOL    HW2 8100   1.905   3.498   0.626
 2401SOL     OW 8101   1.808   6.563   6.455
 2401SOL    HW1 8102   1.780   6.654   6.422
 2401SOL    HW2 8103   1.807   6.499   6.379
 2402SOL     OW 8104   1.238   3.819   2.251
 2402SOL    HW1 8105   1.282   3.898   2.294
 2402SOL    HW2 8106   1.144   3.842   2.226
 2403SOL     OW 8107   3.211   3.648   5.067
 2403SOL    HW1 8108   3.122   3.603   5.065
 2403SOL    HW2 8109   3.200   3.742   5.098
 2404SOL     OW 8110   6.026   1.509   1.074
 2404SOL    HW1 8111   5.994   1.415   1.076
 2404SOL    HW2 8112   6.091   1.521   0.999
 2405SOL     OW 8113   1.905   3.063   0.813
 2405SOL    HW1 8114   1.868   2.971   0.805
 2405SOL    HW2 8115   1.831   3.130   0.796
 2406SOL     OW 8116   3.688   5.606   4.900
 2406SOL    HW1 8117   3.775   5.562   4.923
 2406SOL    HW2 8118   3.692   5.703   4.925
 2407SOL     OW 8119   2.896   1.579   3.421
 2407SOL    HW1 8120   2.881   1.639   3.343
 2407SOL    HW2 8121   2.978   1.524   3.405
 2408SOL     OW 8122   2.716   0.277   5.343
 2408SOL    HW1 8123   2.619   0.259   5.332
 2408SOL    HW2 8124   2.747   0.244   5.432
 2409SOL     OW 8125   0.590   2.980   0.307
 2409SOL    HW1 8126   0.550   3.042   0.375
 2409SOL    HW2 8127   0.622   2.898   0.353
 2410SOL     OW 8128   0.296   3.119   4.451
 2410SOL    HW1 8129   0.307   3.079   4.360
 2410SOL    HW2 8130   0.335   3.211   4.452
 2411SOL     OW 8131   2.581   1.931   0.016
 2411SOL    HW1 8132   2.511   1.867   7.006
 2411SOL    HW2 8133   2.662   1.925   6.980
 2412SOL     OW 8134   3.321   2.279   5.933
 2412SOL    HW1 8135   3.292   2.347   5.866
 2412SOL    HW2 8136   3.295   2.310   6.025
 2413SOL     OW 8137   0.259   3.030   6.893
 2413SOL    HW1 8138   0.281   2.961   6.962
 2413SOL    HW2 8139   0.338   3.090   6.880
 2414SOL     OW 8140   6.701   1.079   5.237
 2414SOL    HW1 8141   6.655   1.060   5.324
 2414SOL    HW2 8142   6.779   1.018   5.226
 2415SOL     OW 8143   3.388   4.859   6.161
 2415SOL    HW1 8144   3.476   4.823   6.130
 2415SOL    HW2 8145   3.364   4.818   6.249
 2416SOL     OW 8146   6.868   2.244   3.035
 2416SOL    HW1 8147   6.927   2.323   3.017
 2416SOL    HW2 8148   6.856   2.191   2.952
 2417SOL     OW 8149   3.057   2.568   1.277
 2417SOL    HW1 8150   2.969   2.583   1.233
 2417SOL    HW2 8151   3.061   2.476   1.316
 2418SOL     OW 8152   4.822   3.893   0.061
 2418SOL    HW1 8153   4.779   3.921   0.146
 2418SOL    HW2 8154   4.921   3.884   0.074
 2419SOL     OW 8155   2.915   0.976   3.332
 2419SOL    HW1 8156   3.011   0.978   3.306
 2419SOL    HW2 8157   2.907   0.968   3.432
 2420SOL     OW 8158   1.016   3.929   2.618
 2420SOL    HW1 8159   1.116   3.929   2.617
 2420SOL    HW2 8160   0.983   3.872   2.693
 2421SOL     OW 8161   3.154   6.604   3.392
 2421SOL    HW1 8162   3.138   6.511   3.424
 2421SOL    HW2 8163   3.233   6.642   3.439
 2422SOL     OW 8164   4.332   5.020   0.699
 2422SOL    HW1 8165   4.300   5.047   0.608
 2422SOL    HW2 8166   4.422   4.978   0.691
 2423SOL     OW 8167   2.594   5.168   3.624
 2423SOL    HW1 8168   2.644   5.081   3.625
 2423SOL    HW2 8169   2.559   5.188   3.715
 2424SOL     OW 8170   4.681   6.973   6.339
 2424SOL    HW1 8171   4.776   6.999   6.320
 2424SOL    HW2 8172   4.623   7.002   6.263
 2425SOL     OW 8173   4.310   5.651   5.208
 2425SOL    HW1 8174   4.283   5.566   5.253
 2425SOL    HW2 8175   4.393   5.637   5.156
 2426SOL     OW 8176   2.510   2.564   5.190
 2426SOL    HW1 8177   2.423   2.607   5.211
 2426SOL    HW2 8178   2.528   2.491   5.256
 2427SOL     OW 8179   4.532   1.105   0.739
 2427SOL    HW1 8180   4.599   1.122   0.810
 2427SOL    HW2 8181   4.520   1.006   0.727
 2428SOL     OW 8182   1.751   1.729   2.662
 2428SOL    HW1 8183   1.684   1.735   2.736
 2428SOL    HW2 8184   1.843   1.748   2.698
 2429SOL     OW 8185   6.381   5.731   1.053
 2429SOL    HW1 8186   6.320   5.710   1.129
 2429SOL    HW2 8187   6.475   5.711   1.079
 2430SOL     OW 8188   6.201   1.054   6.159
 2430SOL    HW1 8189   6.197   1.130   6.223
 2430SOL    HW2 8190   6.133   1.067   6.087
 2431SOL     OW 8191   0.894   3.380   2.017
 2431SOL    HW1 8192   0.954   3.408   2.091
 2431SOL    HW2 8193   0.818   3.325   2.053
 2432SOL     OW 8194   2.277   5.120   1.839
 2432SOL    HW1 8195   2.347   5.188   1.815
 2432SOL    HW2 8196   2.311   5.062   1.912
 2433SOL     OW 8197   0.082   3.875   5.442
 2433SOL    HW1 8198   0.121   3.867   5.533
 2433SOL    HW2 8199   0.027   3.958   5.436
 2434SOL     OW 8200   4.526   1.099   3.116
 2434SOL    HW1 8201   4.562   1.172   3.058
 2434SOL    HW2 8202   4.600   1.035   3.137
 2435SOL     OW 8203   5.853   6.520   6.767
 2435SOL    HW1 8204   5.894   6.542   6.678
 2435SOL    HW2 8205   5.775   6.458   6.753
 2436SOL     OW 8206   0.241   2.970   0.713
 2436SOL    HW1 8207   0.336   2.962   0.743
 2436SOL    HW2 8208   0.235   3.032   0.635
 2437SOL     OW 8209   6.836   3.636   1.124
 2437SOL    HW1 8210   6.882   3.617   1.037
 2437SOL    HW2 8211   6.795   3.727   1.121
 2438SOL     OW 8212   3.681   1.644   4.568
 2438SOL    HW1 8213   3.651   1.715   4.504
 2438SOL    HW2 8214   3.737   1.577   4.520
 2439SOL     OW 8215   1.386   5.300   0.964
 2439SOL    HW1 8216   1.470   5.248   0.984
 2439SOL    HW2 8217   1.328   5.302   1.045
 2440SOL     OW 8218   6.628   0.537   5.327
 2440SOL    HW1 8219   6.621   0.477   5.247
 2440SOL    HW2 8220   6.695   0.499   5.391
 2441SOL     OW 8221   5.836   0.697   0.801
 2441SOL    HW1 8222   5.770   0.676   0.873
 2441SOL    HW2 8223   5.806   0.777   0.750
 2442SOL     OW 8224   5.772   3.004   1.670
 2442SOL    HW1 8225   5.839   3.066   1.710
 2442SOL    HW2 8226   5.693   2.995   1.731
 2443SOL     OW 8227   0.571   3.557   1.799
 2443SOL    HW1 8228   0.475   3.582   1.782
 2443SOL    HW2 8229   0.599   3.486   1.734
 2444SOL     OW 8230   3.566   5.218   2.113
 2444SOL    HW1 8231   3.602   5.126   2.127
 2444SOL    HW2 8232   3.477   5.212   2.068
 2445SOL     OW 8233   0.225   1.533   1.355
 2445SOL    HW1 8234   0.312   1.578   1.337
 2445SOL    HW2 8235   0.203   1.472   1.279
 2446SOL     OW 8236   0.601   5.592   2.047
 2446SOL    HW1 8237   0.627   5.509   2.097
 2446SOL    HW2 8238   0.570   5.661   2.112
 2447SOL     OW 8239   2.120   6.930   0.514
 2447SOL    HW1 8240   2.047   6.917   0.581
 2447SOL    HW2 8241   2.209   6.923   0.560
 2448SOL     OW 8242   5.690   1.153   4.908
 2448SOL    HW1 8243   5.681   1.131   5.005
 2448SOL    HW2 8244   5.619   1.105   4.856
 2449SOL     OW 8245   1.535   4.314   1.447
 2449SOL    HW1 8246   1.632   4.339   1.456
 2449SOL    HW2 8247   1.512   4.309   1.350
 2450SOL     OW 8248   0.862   6.361   4.699
 2450SOL    HW1 8249   0.799   6.344   4.623
 2450SOL    HW2 8250   0.820   6.331   4.785
 2451SOL     OW 8251   1.745   6.735   5.512
 2451SOL    HW1 8252   1.712   6.777   5.427
 2451SOL    HW2 8253   1.760   6.807   5.580
 2452SOL     OW 8254   2.545   1.859   3.784
 2452SOL    HW1 8255   2.596   1.937   3.820
 2452SOL    HW2 8256   2.533   1.870   3.686
 2453SOL     OW 8257   1.237   1.541   5.854
 2453SOL    HW1 8258   1.295   1.613   5.891
 2453SOL    HW2 8259   1.254   1.456   5.903
 2454SOL     OW 8260   3.242   6.057   0.952
 2454SOL    HW1 8261   3.260   6.093   0.860
 2454SOL    HW2 8262   3.241   5.957   0.948
 2455SOL     OW 8263   4.306   2.187   0.967
 2455SOL    HW1 8264   4.259   2.235   1.041
 2455SOL    HW2 8265   4.263   2.098   0.952
 2456SOL     OW 8266   0.545   3.505   6.078
 2456SOL    HW1 8267   0.571   3.595   6.042
 2456SOL    HW2 8268   0.604   3.436   6.037
 2457SOL     OW 8269   4.133   2.219   5.332
 2457SOL    HW1 8270   4.205   2.155   5.360
 2457SOL    HW2 8271   4.046   2.191   5.371
 2458SOL     OW 8272   0.349   6.890   3.100
 2458SOL    HW1 8273   0.335   6.792   3.109
 2458SOL    HW2 8274   0.443   6.913   3.127
 2459SOL     OW 8275   1.943   6.884   0.719
 2459SOL    HW1 8276   1.886   6.959   0.750
 2459SOL    HW2 8277   1.891   6.826   0.656
 2460SOL     OW 8278   0.448   1.096   4.783
 2460SOL    HW1 8279   0.360   1.071   4.742
 2460SOL    HW2 8280   0.464   1.040   4.863
 2461SOL     OW 8281   4.541   1.176   3.605
 2461SOL    HW1 8282   4.523   1.183   3.703
 2461SOL    HW2 8283   4.506   1.089   3.571
 2462SOL     OW 8284   0.637   5.538   0.324
 2462SOL    HW1 8285   0.577   5.470   0.366
 2462SOL    HW2 8286   0.609   5.553   0.229
 2463SOL     OW 8287   6.298   0.393   0.242
 2463SOL    HW1 8288   6.356   0.312   0.242
 2463SOL    HW2 8289   6.336   0.461   0.305
 2464SOL     OW 8290   0.646   2.252   4.444
 2464SOL    HW1 8291   0.684   2.263   4.352
 2464SOL    HW2 8292   0.620   2.341   4.480
 2465SOL     OW 8293   7.007   6.882   5.917
 2465SOL    HW1 8294   6.926   6.938   5.900
 2465SOL    HW2 8295   6.986   6.786   5.901
 2466SOL     OW 8296   0.829   1.732   1.442
 2466SOL    HW1 8297   0.887   1.777   1.510
 2466SOL    HW2 8298   0.821   1.635   1.464
 2467SOL     OW 8299   5.925   2.777   5.192
 2467SOL    HW1 8300   5.979   2.812   5.116
 2467SOL    HW2 8301   5.975   2.792   5.278
 2468SOL     OW 8302   3.469   6.980   5.293
 2468SOL    HW1 8303   3.413   6.966   5.211
 2468SOL    HW2 8304   3.533   6.904   5.303
 2469SOL     OW 8305   3.597   1.624   5.596
 2469SOL    HW1 8306   3.530   1.607   5.668
 2469SOL    HW2 8307   3.685   1.587   5.623
 2470SOL     OW 8308   2.370   5.275   6.292
 2470SOL    HW1 8309   2.407   5.185   6.267
 2470SOL    HW2 8310   2.396   5.341   6.222
 2471SOL     OW 8311   2.904   5.191   1.741
 2471SOL    HW1 8312   2.942   5.268   1.793
 2471SOL    HW2 8313   2.832   5.147   1.796
 2472SOL     OW 8314   4.862   1.274   3.884
 2472SOL    HW1 8315   4.898   1.256   3.976
 2472SOL    HW2 8316   4.886   1.367   3.856
 2473SOL     OW 8317   0.373   4.157   3.884
 2473SOL    HW1 8318   0.459   4.109   3.869
 2473SOL    HW2 8319   0.365   4.233   3.820
 2474SOL     OW 8320   0.925   5.877   2.058
 2474SOL    HW1 8321   0.855   5.883   2.129
 2474SOL    HW2 8322   0.946   5.969   2.025
 2475SOL     OW 8323   4.682   1.114   0.245
 2475SOL    HW1 8324   4.673   1.213   0.258
 2475SOL    HW2 8325   4.631   1.066   0.317
 2476SOL     OW 8326   4.787   0.471   0.561
 2476SOL    HW1 8327   4.800   0.419   0.646
 2476SOL    HW2 8328   4.854   0.545   0.556
 2477SOL     OW 8329   3.819   0.277   3.235
 2477SOL    HW1 8330   3.810   0.372   3.208
 2477SOL    HW2 8331   3.774   0.218   3.168
 2478SOL     OW 8332   5.037   0.184   4.901
 2478SOL    HW1 8333   5.070   0.269   4.941
 2478SOL    HW2 8334   4.943   0.195   4.870
 2479SOL     OW 8335   6.002   3.177   0.862
 2479SOL    HW1 8336   5.942   3.145   0.935
 2479SOL    HW2 8337   5.981   3.272   0.840
 2480SOL     OW 8338   3.371   2.459   1.423
 2480SOL    HW1 8339   3.402   2.461   1.518
 2480SOL    HW2 8340   3.358   2.553   1.390
 2481SOL     OW 8341   3.133   0.180   1.675
 2481SOL    HW1 8342   3.192   0.107   1.640
 2481SOL    HW2 8343   3.066   0.142   1.738
 2482SOL     OW 8344   6.129   3.330   7.006
 2482SOL    HW1 8345   6.035   3.308   0.011
 2482SOL    HW2 8346   6.132   3.340   6.906
 2483SOL     OW 8347   1.220   2.761   1.155
 2483SOL    HW1 8348   1.246   2.778   1.060
 2483SOL    HW2 8349   1.268   2.826   1.215
 2484SOL     OW 8350   4.256   1.086   0.448
 2484SOL    HW1 8351   4.346   1.046   0.433
 2484SOL    HW2 8352   4.263   1.159   0.516
 2485SOL     OW 8353   0.373   1.979   6.531
 2485SOL    HW1 8354   0.370   2.072   6.495
 2485SOL    HW2 8355   0.281   1.951   6.561
 2486SOL     OW 8356   6.944   5.780   4.213
 2486SOL    HW1 8357   6.981   5.740   4.129
 2486SOL    HW2 8358   7.020   5.814   4.270
 2487SOL     OW 8359   5.004   6.536   6.774
 2487SOL    HW1 8360   5.096   6.511   6.803
 2487SOL    HW2 8361   5.010   6.600   6.697
 2488SOL     OW 8362   5.973   4.076   0.723
 2488SOL    HW1 8363   5.992   4.051   0.818
 2488SOL    HW2 8364   5.928   4.000   0.677
 2489SOL     OW 8365   6.586   5.453   4.411
 2489SOL    HW1 8366   6.654   5.516   4.374
 2489SOL    HW2 8367   6.521   5.504   4.467
 2490SOL     OW 8368   2.703   5.773   3.338
 2490SOL    HW1 8369   2.687   5.834   3.261
 2490SOL    HW2 8370   2.727   5.682   3.304
 2491SOL     OW 8371   3.788   4.554   1.667
 2491SOL    HW1 8372   3.816   4.532   1.573
 2491SOL    HW2 8373   3.714   4.492   1.694
 2492SOL     OW 8374   6.603   4.909   1.586
 2492SOL    HW1 8375   6.585   4.833   1.648
 2492SOL    HW2 8376   6.666   4.973   1.630
 2493SOL     OW 8377   5.497   6.875   0.805
 2493SOL    HW1 8378   5.399   6.893   0.808
 2493SOL    HW2 8379   5.540   6.937   0.740
 2494SOL     OW 8380   6.311   3.761   1.875
 2494SOL    HW1 8381   6.395   3.757   1.821
 2494SOL    HW2 8382   6.313   3.842   1.934
 2495SOL     OW 8383   0.396   4.677   2.724
 2495SOL    HW1 8384   0.392   4.617   2.644
 2495SOL    HW2 8385   0.472   4.650   2.783
 2496SOL     OW 8386   5.834   4.544   6.353
 2496SOL    HW1 8387   5.906   4.596   6.399
 2496SOL    HW2 8388   5.746   4.565   6.394
 2497SOL     OW 8389   0.308   6.950   2.201
 2497SOL    HW1 8390   0.240   7.003   2.152
 2497SOL    HW2 8391   0.319   6.985   2.294
 2498SOL     OW 8392   2.337   3.989   5.714
 2498SOL    HW1 8393   2.311   4.082   5.690
 2498SOL    HW2 8394   2.422   3.990   5.767
 2499SOL     OW 8395   6.564   3.506   1.889
 2499SOL    HW1 8396   6.547   3.438   1.960
 2499SOL    HW2 8397   6.597   3.590   1.931
 2500SOL     OW 8398   3.580   3.548   0.842
 2500SOL    HW1 8399   3.518   3.534   0.764
 2500SOL    HW2 8400   3.526   3.554   0.926
 2501SOL     OW 8401   5.677   5.533   6.570
 2501SOL    HW1 8402   5.647   5.498   6.481
 2501SOL    HW2 8403   5.628   5.617   6.592
 2502SOL     OW 8404   2.687   5.969   4.467
 2502SOL    HW1 8405   2.718   5.891   4.521
 2502SOL    HW2 8406   2.591   5.989   4.489
 2503SOL     OW 8407   2.876   6.832   5.576
 2503SOL    HW1 8408   2.818   6.855   5.498
 2503SOL    HW2 8409   2.965   6.876   5.565
 2504SOL     OW 8410   3.273   6.995   3.676
 2504SOL    HW1 8411   3.285   6.938   3.758
 2504SOL    HW2 8412   3.267   0.069   3.702
 2505SOL     OW 8413   0.104   4.782   3.867
 2505SOL    HW1 8414   0.014   4.780   3.824
 2505SOL    HW2 8415   0.175   4.791   3.797
 2506SOL     OW 8416   5.052   5.167   5.780
 2506SOL    HW1 8417   5.099   5.250   5.748
 2506SOL    HW2 8418   5.109   5.087   5.760
 2507SOL     OW 8419   6.808   3.130   1.259
 2507SOL    HW1 8420   6.770   3.220   1.285
 2507SOL    HW2 8421   6.733   3.066   1.243
 2508SOL     OW 8422   5.054   2.004   4.615
 2508SOL    HW1 8423   5.073   1.916   4.572
 2508SOL    HW2 8424   5.115   2.016   4.693
 2509SOL     OW 8425   7.008   4.205   5.672
 2509SOL    HW1 8426   0.024   4.229   5.582
 2509SOL    HW2 8427   6.975   4.288   5.717
 2510SOL     OW 8428   3.304   3.958   1.851
 2510SOL    HW1 8429   3.385   3.900   1.839
 2510SOL    HW2 8430   3.227   3.918   1.802
 2511SOL     OW 8431   1.906   0.664   4.565
 2511SOL    HW1 8432   1.938   0.596   4.499
 2511SOL    HW2 8433   1.806   0.667   4.565
 2512SOL     OW 8434   3.461   4.910   4.182
 2512SOL    HW1 8435   3.418   4.948   4.100
 2512SOL    HW2 8436   3.418   4.822   4.204
 2513SOL     OW 8437   2.462   5.222   5.936
 2513SOL    HW1 8438   2.441   5.304   5.989
 2513SOL    HW2 8439   2.380   5.167   5.925
 2514SOL     OW 8440   1.555   2.309   2.455
 2514SOL    HW1 8441   1.623   2.345   2.518
 2514SOL    HW2 8442   1.515   2.384   2.403
 2515SOL     OW 8443   1.365   1.259   1.482
 2515SOL    HW1 8444   1.327   1.345   1.449
 2515SOL    HW2 8445   1.463   1.255   1.461
 2516SOL     OW 8446   6.170   1.932   4.136
 2516SOL    HW1 8447   6.156   1.914   4.233
 2516SOL    HW2 8448   6.087   1.971   4.096
 2517SOL     OW 8449   1.427   1.487   4.068
 2517SOL    HW1 8450   1.417   1.468   4.166
 2517SOL    HW2 8451   1.519   1.460   4.039
 2518SOL     OW 8452   2.730   5.059   0.957
 2518SOL    HW1 8453   2.767   4.967   0.972
 2518SOL    HW2 8454   2.731   5.110   1.043
 2519SOL     OW 8455   1.188   1.171   0.837
 2519SOL    HW1 8456   1.197   1.227   0.919
 2519SOL    HW2 8457   1.263   1.104   0.834
 2520SOL     OW 8458   2.505   2.102   0.502
 2520SOL    HW1 8459   2.476   2.038   0.573
 2520SOL    HW2 8460   2.452   2.086   0.419
 2521SOL     OW 8461   4.741   1.534   5.297
 2521SOL    HW1 8462   4.702   1.460   5.242
 2521SOL    HW2 8463   4.713   1.522   5.393
 2522SOL     OW 8464   1.054   2.811   6.324
 2522SOL    HW1 8465   1.078   2.829   6.419
 2522SOL    HW2 8466   1.011   2.721   6.317
 2523SOL     OW 8467   1.976   4.812   6.761
 2523SOL    HW1 8468   2.047   4.768   6.707
 2523SOL    HW2 8469   1.929   4.880   6.705
 2524SOL     OW 8470   1.553   0.128   4.069
 2524SOL    HW1 8471   1.650   0.113   4.089
 2524SOL    HW2 8472   1.538   0.118   3.970
 2525SOL     OW 8473   6.540   2.797   5.152
 2525SOL    HW1 8474   6.600   2.876   5.136
 2525SOL    HW2 8475   6.495   2.771   5.067
 2526SOL     OW 8476   1.397   6.584   1.205
 2526SOL    HW1 8477   1.426   6.628   1.290
 2526SOL    HW2 8478   1.439   6.630   1.127
 2527SOL     OW 8479   4.824   4.803   6.136
 2527SOL    HW1 8480   4.779   4.885   6.102
 2527SOL    HW2 8481   4.794   4.785   6.230
 2528SOL     OW 8482   4.715   5.586   6.553
 2528SOL    HW1 8483   4.621   5.571   6.582
 2528SOL    HW2 8484   4.776   5.526   6.604
 2529SOL     OW 8485   0.689   6.813   6.876
 2529SOL    HW1 8486   0.711   6.866   6.794
 2529SOL    HW2 8487   0.608   6.757   6.858
 2530SOL     OW 8488   2.192   5.812   6.271
 2530SOL    HW1 8489   2.284   5.772   6.269
 2530SOL    HW2 8490   2.127   5.742   6.301
 2531SOL     OW 8491   6.509   5.204   5.857
 2531SOL    HW1 8492   6.486   5.156   5.773
 2531SOL    HW2 8493   6.600   5.177   5.888
 2532SOL     OW 8494   5.980   6.097   0.730
 2532SOL    HW1 8495   6.013   6.191   0.726
 2532SOL    HW2 8496   5.886   6.095   0.762
 2533SOL     OW 8497   4.933   1.126   3.673
 2533SOL    HW1 8498   5.013   1.068   3.691
 2533SOL    HW2 8499   4.896   1.159   3.760
 2534SOL     OW 8500   4.066   1.268   2.977
 2534SOL    HW1 8501   4.150   1.222   3.005
 2534SOL    HW2 8502   4.031   1.322   3.054
 2535SOL     OW 8503   4.079   2.888   6.299
 2535SOL    HW1 8504   4.010   2.945   6.253
 2535SOL    HW2 8505   4.087   2.916   6.394
 2536SOL     OW 8506   1.264   0.473   0.418
 2536SOL    HW1 8507   1.303   0.538   0.483
 2536SOL    HW2 8508   1.227   0.523   0.340
 2537SOL     OW 8509   3.875   0.205   6.635
 2537SOL    HW1 8510   3.847   0.193   6.540
 2537SOL    HW2 8511   3.967   0.244   6.639
 2538SOL     OW 8512   6.481   3.463   3.842
 2538SOL    HW1 8513   6.514   3.371   3.821
 2538SOL    HW2 8514   6.505   3.525   3.767
 2539SOL     OW 8515   5.229   2.170   5.512
 2539SOL    HW1 8516   5.180   2.186   5.597
 2539SOL    HW2 8517   5.217   2.248   5.451
 2540SOL     OW 8518   3.215   1.897   2.223
 2540SOL    HW1 8519   3.270   1.953   2.285
 2540SOL    HW2 8520   3.156   1.957   2.168
 2541SOL     OW 8521   3.337   6.440   4.730
 2541SOL    HW1 8522   3.295   6.354   4.759
 2541SOL    HW2 8523   3.269   6.495   4.681
 2542SOL     OW 8524   1.692   5.066   6.327
 2542SOL    HW1 8525   1.618   5.034   6.267
 2542SOL    HW2 8526   1.780   5.033   6.291
 2543SOL     OW 8527   1.664   1.376   3.992
 2543SOL    HW1 8528   1.655   1.291   3.940
 2543SOL    HW2 8529   1.728   1.361   4.068
 2544SOL     OW 8530   0.954   5.065   0.081
 2544SOL    HW1 8531   0.965   5.164   0.090
 2544SOL    HW2 8532   0.964   5.022   0.171
 2545SOL     OW 8533   3.027   5.756   2.665
 2545SOL    HW1 8534   3.069   5.788   2.750
 2545SOL    HW2 8535   2.928   5.772   2.669
 2546SOL     OW 8536   6.535   1.403   1.122
 2546SOL    HW1 8537   6.588   1.486   1.139
 2546SOL    HW2 8538   6.598   1.326   1.114
 2547SOL     OW 8539   0.641   3.594   5.044
 2547SOL    HW1 8540   0.696   3.581   5.126
 2547SOL    HW2 8541   0.655   3.687   5.010
 2548SOL     OW 8542   0.747   6.824   4.268
 2548SOL    HW1 8543   0.739   6.890   4.342
 2548SOL    HW2 8544   0.843   6.797   4.258
 2549SOL     OW 8545   6.602   2.519   1.194
 2549SOL    HW1 8546   6.636   2.425   1.187
 2549SOL    HW2 8547   6.507   2.517   1.227
 2550SOL     OW 8548   6.439   5.982   0.283
 2550SOL    HW1 8549   6.344   5.984   0.313
 2550SOL    HW2 8550   6.449   5.918   0.207
 2551SOL     OW 8551   1.334   4.337   6.893
 2551SOL    HW1 8552   1.318   4.425   6.848
 2551SOL    HW2 8553   1.432   4.318   6.895
 2552SOL     OW 8554   1.937   5.891   3.465
 2552SOL    HW1 8555   1.935   5.807   3.410
 2552SOL    HW2 8556   1.948   5.867   3.562
 2553SOL     OW 8557   3.844   3.763   6.742
 2553SOL    HW1 8558   3.900   3.762   6.825
 2553SOL    HW2 8559   3.884   3.702   6.674
 2554SOL     OW 8560   1.512   1.385   6.903
 2554SOL    HW1 8561   1.555   1.295   6.914
 2554SOL    HW2 8562   1.462   1.388   6.817
 2555SOL     OW 8563   6.175   1.270   0.123
 2555SOL    HW1 8564   6.169   1.182   0.075
 2555SOL    HW2 8565   6.094   1.282   0.181
 2556SOL     OW 8566   2.836   5.998   0.694
 2556SOL    HW1 8567   2.741   5.978   0.715
 2556SOL    HW2 8568   2.887   6.008   0.780
 2557SOL     OW 8569   2.230   3.861   0.429
 2557SOL    HW1 8570   2.151   3.836   0.485
 2557SOL    HW2 8571   2.199   3.905   0.345
 2558SOL     OW 8572   4.038   0.561   5.930
 2558SOL    HW1 8573   4.126   0.514   5.926
 2558SOL    HW2 8574   4.042   0.634   5.998
 2559SOL     OW 8575   0.348   4.835   5.032
 2559SOL    HW1 8576   0.267   4.778   5.016
 2559SOL    HW2 8577   0.340   4.920   4.978
 2560SOL     OW 8578   5.988   1.968   6.875
 2560SOL    HW1 8579   6.072   1.951   6.925
 2560SOL    HW2 8580   6.008   2.023   6.793
 2561SOL     OW 8581   3.591   5.411   4.593
 2561SOL    HW1 8582   3.573   5.430   4.497
 2561SOL    HW2 8583   3.597   5.312   4.607
 2562SOL     OW 8584   1.797   4.004   6.950
 2562SOL    HW1 8585   1.779   4.076   7.017
 2562SOL    HW2 8586   1.712   3.955   6.930
 2563SOL     OW 8587   2.201   1.243   0.027
 2563SOL    HW1 8588   2.262   1.277   0.098
 2563SOL    HW2 8589   2.189   1.144   0.038
 2564SOL     OW 8590   1.794   5.485   1.396
 2564SOL    HW1 8591   1.748   5.498   1.484
 2564SOL    HW2 8592   1.726   5.465   1.325
 2565SOL     OW 8593   1.934   0.335   1.215
 2565SOL    HW1 8594   1.968   0.274   1.287
 2565SOL    HW2 8595   1.865   0.396   1.252
 2566SOL     OW 8596   1.356   6.502   6.190
 2566SOL    HW1 8597   1.409   6.582   6.217
 2566SOL    HW2 8598   1.412   6.442   6.133
 2567SOL     OW 8599   1.339   6.056   0.174
 2567SOL    HW1 8600   1.414   6.053   0.108
 2567SOL    HW2 8601   1.373   6.030   0.264
 2568SOL     OW 8602   4.562   3.109   6.762
 2568SOL    HW1 8603   4.507   3.143   6.838
 2568SOL    HW2 8604   4.651   3.156   6.762
 2569SOL     OW 8605   2.433   0.545   3.036
 2569SOL    HW1 8606   2.372   0.618   3.005
 2569SOL    HW2 8607   2.459   0.562   3.131
 2570SOL     OW 8608   5.411   1.954   6.466
 2570SOL    HW1 8609   5.353   2.010   6.526
 2570SOL    HW2 8610   5.387   1.972   6.371
 2571SOL     OW 8611   1.387   4.197   4.578
 2571SOL    HW1 8612   1.400   4.137   4.500
 2571SOL    HW2 8613   1.341   4.147   4.652
 2572SOL     OW 8614   1.886   4.582   3.130
 2572SOL    HW1 8615   1.798   4.622   3.104
 2572SOL    HW2 8616   1.881   4.547   3.224
 2573SOL     OW 8617   1.181   0.134   0.835
 2573SOL    HW1 8618   1.176   0.210   0.770
 2573SOL    HW2 8619   1.189   0.170   0.928
 2574SOL     OW 8620   6.180   3.067   0.124
 2574SOL    HW1 8621   6.264   3.069   0.178
 2574SOL    HW2 8622   6.171   3.151   0.072
 2575SOL     OW 8623   0.453   5.449   6.289
 2575SOL    HW1 8624   0.519   5.374   6.283
 2575SOL    HW2 8625   0.372   5.427   6.235
 2576SOL     OW 8626   4.328   6.171   3.797
 2576SOL    HW1 8627   4.336   6.085   3.846
 2576SOL    HW2 8628   4.277   6.157   3.712
 2577SOL     OW 8629   2.246   4.445   2.449
 2577SOL    HW1 8630   2.252   4.345   2.444
 2577SOL    HW2 8631   2.287   4.484   2.367
 2578SOL     OW 8632   4.100   2.073   3.726
 2578SOL    HW1 8633   4.093   2.085   3.825
 2578SOL    HW2 8634   4.184   2.025   3.703
 2579SOL     OW 8635   0.933   6.503   3.578
 2579SOL    HW1 8636   0.896   6.581   3.628
 2579SOL    HW2 8637   0.995   6.537   3.507
 2580SOL     OW 8638   1.443   2.246   6.843
 2580SOL    HW1 8639   1.456   2.165   6.786
 2580SOL    HW2 8640   1.509   2.316   6.816
 2581SOL     OW 8641   3.461   0.599   5.284
 2581SOL    HW1 8642   3.408   0.681   5.265
 2581SOL    HW2 8643   3.402   0.530   5.327
 2582SOL     OW 8644   0.058   3.102   1.707
 2582SOL    HW1 8645   0.127   3.032   1.726
 2582SOL    HW2 8646   0.005   3.075   1.627
 2583SOL     OW 8647   6.077   0.369   0.777
 2583SOL    HW1 8648   6.091   0.342   0.872
 2583SOL    HW2 8649   6.164   0.395   0.736
 2584SOL     OW 8650   4.559   4.921   5.788
 2584SOL    HW1 8651   4.519   4.977   5.860
 2584SOL    HW2 8652   4.496   4.915   5.711
 2585SOL     OW 8653   3.429   5.095   6.338
 2585SOL    HW1 8654   3.474   5.029   6.278
 2585SOL    HW2 8655   3.451   5.188   6.308
 2586SOL     OW 8656   2.373   0.876   3.984
 2586SOL    HW1 8657   2.423   0.838   3.906
 2586SOL    HW2 8658   2.412   0.965   4.009
 2587SOL     OW 8659   6.917   1.292   3.888
 2587SOL    HW1 8660   6.916   1.246   3.976
 2587SOL    HW2 8661   6.845   1.254   3.829
 2588SOL     OW 8662   4.424   1.163   6.390
 2588SOL    HW1 8663   4.478   1.239   6.424
 2588SOL    HW2 8664   4.484   1.088   6.363
 2589SOL     OW 8665   2.080   6.590   0.176
 2589SOL    HW1 8666   2.175   6.560   0.172
 2589SOL    HW2 8667   2.034   6.569   0.090
 2590SOL     OW 8668   2.755   5.059   0.551
 2590SOL    HW1 8669   2.851   5.037   0.532
 2590SOL    HW2 8670   2.728   5.138   0.496
 2591SOL     OW 8671   6.130   5.595   3.968
 2591SOL    HW1 8672   6.174   5.505   3.973
 2591SOL    HW2 8673   6.170   5.646   3.892
 2592SOL     OW 8674   2.405   4.006   1.163
 2592SOL    HW1 8675   2.434   4.097   1.135
 2592SOL    HW2 8676   2.330   3.975   1.104
 2593SOL     OW 8677   3.352   4.264   0.577
 2593SOL    HW1 8678   3.264   4.258   0.625
 2593SOL    HW2 8679   3.368   4.178   0.528
 2594SOL     OW 8680   1.546   3.558   4.502
 2594SOL    HW1 8681   1.634   3.577   4.546
 2594SOL    HW2 8682   1.532   3.459   4.498
 2595SOL     OW 8683   1.911   1.327   2.693
 2595SOL    HW1 8684   1.923   1.304   2.789
 2595SOL    HW2 8685   1.971   1.404   2.669
 2596SOL     OW 8686   1.102   2.257   0.110
 2596SOL    HW1 8687   1.198   2.286   0.107
 2596SOL    HW2 8688   1.083   2.199   0.031
 2597SOL     OW 8689   6.979   6.180   6.402
 2597SOL    HW1 8690   6.941   6.234   6.327
 2597SOL    HW2 8691   7.003   6.241   6.478
 2598SOL     OW 8692   5.736   2.399   2.707
 2598SOL    HW1 8693   5.695   2.459   2.775
 2598SOL    HW2 8694   5.759   2.452   2.625
 2599SOL     OW 8695   2.826   5.936   1.546
 2599SOL    HW1 8696   2.759   5.925   1.619
 2599SOL    HW2 8697   2.902   5.873   1.559
 2600SOL     OW 8698   5.905   4.328   4.452
 2600SOL    HW1 8699   6.004   4.326   4.456
 2600SOL    HW2 8700   5.874   4.302   4.361
 2601SOL     OW 8701   7.001   1.649   3.627
 2601SOL    HW1 8702   0.042   1.593   3.679
 2601SOL    HW2 8703   7.001   1.620   3.531
 2602SOL     OW 8704   1.372   4.217   3.214
 2602SOL    HW1 8705   1.400   4.154   3.142
 2602SOL    HW2 8706   1.322   4.166   3.285
 2603SOL     OW 8707   2.945   6.552   2.527
 2603SOL    HW1 8708   2.939   6.579   2.431
 2603SOL    HW2 8709   2.861   6.505   2.554
 2604SOL     OW 8710   4.569   2.643   3.628
 2604SOL    HW1 8711   4.625   2.725   3.642
 2604SOL    HW2 8712   4.532   2.643   3.535
 2605SOL     OW 8713   2.080   3.985   1.824
 2605SOL    HW1 8714   2.179   3.986   1.806
 2605SOL    HW2 8715   2.044   3.894   1.803
 2606SOL     OW 8716   4.469   3.322   1.333
 2606SOL    HW1 8717   4.499   3.228   1.348
 2606SOL    HW2 8718   4.466   3.342   1.235
 2607SOL     OW 8719   2.560   2.585   1.515
 2607SOL    HW1 8720   2.614   2.603   1.597
 2607SOL    HW2 8721   2.610   2.524   1.454
 2608SOL     OW 8722   2.842   4.806   5.698
 2608SOL    HW1 8723   2.922   4.811   5.758
 2608SOL    HW2 8724   2.761   4.784   5.752
 2609SOL     OW 8725   7.014   2.448   1.083
 2609SOL    HW1 8726   0.089   2.427   1.092
 2609SOL    HW2 8727   6.980   2.413   0.995
 2610SOL     OW 8728   1.576   4.240   4.864
 2610SOL    HW1 8729   1.521   4.156   4.862
 2610SOL    HW2 8730   1.520   4.318   4.838
 2611SOL     OW 8731   4.772   0.049   6.614
 2611SOL    HW1 8732   4.712   0.056   6.693
 2611SOL    HW2 8733   4.726   0.087   6.534
 2612SOL     OW 8734   6.419   0.063   5.775
 2612SOL    HW1 8735   6.331   0.054   5.821
 2612SOL    HW2 8736   6.491   0.025   5.833
 2613SOL     OW 8737   1.248   6.492   6.598
 2613SOL    HW1 8738   1.241   6.442   6.685
 2613SOL    HW2 8739   1.170   6.468   6.540
 2614SOL     OW 8740   6.353   1.501   6.490
 2614SOL    HW1 8741   6.378   1.520   6.395
 2614SOL    HW2 8742   6.387   1.574   6.549
 2615SOL     OW 8743   0.673   3.115   0.087
 2615SOL    HW1 8744   0.634   3.068   0.166
 2615SOL    HW2 8745   0.754   3.165   0.115
 2616SOL     OW 8746   1.181   0.769   5.588
 2616SOL    HW1 8747   1.207   0.854   5.634
 2616SOL    HW2 8748   1.146   0.704   5.655
 2617SOL     OW 8749   4.817   0.079   1.280
 2617SOL    HW1 8750   4.720   0.073   1.303
 2617SOL    HW2 8751   4.840   0.175   1.262
 2618SOL     OW 8752   0.773   6.323   5.864
 2618SOL    HW1 8753   0.802   6.242   5.812
 2618SOL    HW2 8754   0.853   6.375   5.892
 2619SOL     OW 8755   5.489   1.378   2.763
 2619SOL    HW1 8756   5.400   1.342   2.735
 2619SOL    HW2 8757   5.550   1.301   2.786
 2620SOL     OW 8758   5.770   1.365   1.423
 2620SOL    HW1 8759   5.722   1.371   1.511
 2620SOL    HW2 8760   5.784   1.457   1.387
 2621SOL     OW 8761   1.623   6.070   1.860
 2621SOL    HW1 8762   1.630   5.972   1.878
 2621SOL    HW2 8763   1.685   6.120   1.920
 2622SOL     OW 8764   3.341   3.419   6.731
 2622SOL    HW1 8765   3.306   3.448   6.820
 2622SOL    HW2 8766   3.269   3.371   6.681
 2623SOL     OW 8767   0.469   6.353   3.579
 2623SOL    HW1 8768   0.380   6.316   3.607
 2623SOL    HW2 8769   0.493   6.319   3.489
 2624SOL     OW 8770   0.405   1.340   5.118
 2624SOL    HW1 8771   0.462   1.421   5.100
 2624SOL    HW2 8772   0.422   1.308   5.211
 2625SOL     OW 8773   2.458   4.731   6.417
 2625SOL    HW1 8774   2.434   4.796   6.490
 2625SOL    HW2 8775   2.534   4.768   6.363
 2626SOL     OW 8776   6.633   5.849   6.942
 2626SOL    HW1 8777   6.667   5.858   6.848
 2626SOL    HW2 8778   6.685   5.910   7.001
 2627SOL     OW 8779   1.782   0.064   6.185
 2627SOL    HW1 8780   1.837   0.018   6.254
 2627SOL    HW2 8781   1.808   0.160   6.178
 2628SOL     OW 8782   0.104   4.700   1.637
 2628SOL    HW1 8783   0.126   4.645   1.556
 2628SOL    HW2 8784   0.045   4.648   1.698
 2629SOL     OW 8785   3.296   4.073   2.482
 2629SOL    HW1 8786   3.225   4.054   2.415
 2629SOL    HW2 8787   3.368   4.129   2.440
 2630SOL     OW 8788   3.676   0.844   4.357
 2630SOL    HW1 8789   3.706   0.808   4.269
 2630SOL    HW2 8790   3.623   0.774   4.405
 2631SOL     OW 8791   5.538   0.563   0.184
 2631SOL    HW1 8792   5.443   0.531   0.182
 2631SOL    HW2 8793   5.548   0.632   0.255
 2632SOL     OW 8794   5.852   5.076   2.210
 2632SOL    HW1 8795   5.938   5.057   2.164
 2632SOL    HW2 8796   5.776   5.061   2.147
 2633SOL     OW 8797   0.347   3.131   6.221
 2633SOL    HW1 8798   0.257   3.086   6.219
 2633SOL    HW2 8799   0.360   3.181   6.136
 2634SOL     OW 8800   0.440   0.416   5.908
 2634SOL    HW1 8801   0.383   0.480   5.959
 2634SOL    HW2 8802   0.525   0.461   5.882
 2635SOL     OW 8803   4.805   5.712   3.394
 2635SOL    HW1 8804   4.732   5.681   3.332
 2635SOL    HW2 8805   4.799   5.811   3.406
 2636SOL     OW 8806   3.783   6.233   5.482
 2636SOL    HW1 8807   3.752   6.328   5.478
 2636SOL    HW2 8808   3.710   6.172   5.452
 2637SOL     OW 8809   0.896   0.812   3.488
 2637SOL    HW1 8810   0.973   0.751   3.468
 2637SOL    HW2 8811   0.929   0.907   3.492
 2638SOL     OW 8812   0.763   6.228   4.437
 2638SOL    HW1 8813   0.847   6.190   4.400
 2638SOL    HW2 8814   0.721   6.290   4.370
 2639SOL     OW 8815   4.238   4.800   5.116
 2639SOL    HW1 8816   4.268   4.712   5.078
 2639SOL    HW2 8817   4.150   4.825   5.076
 2640SOL     OW 8818   1.966   0.412   3.680
 2640SOL    HW1 8819   1.896   0.418   3.751
 2640SOL    HW2 8820   2.056   0.427   3.721
 2641SOL     OW 8821   6.283   2.251   6.782
 2641SOL    HW1 8822   6.327   2.267   6.871
 2641SOL    HW2 8823   6.341   2.289   6.710
 2642SOL     OW 8824   6.256   0.363   3.451
 2642SOL    HW1 8825   6.220   0.452   3.423
 2642SOL    HW2 8826   6.223   0.341   3.543
 2643SOL     OW 8827   2.319   4.740   3.799
 2643SOL    HW1 8828   2.255   4.689   3.741
 2643SOL    HW2 8829   2.324   4.835   3.767
 2644SOL     OW 8830   5.260   5.593   4.670
 2644SOL    HW1 8831   5.249   5.513   4.729
 2644SOL    HW2 8832   5.249   5.566   4.574
 2645SOL     OW 8833   4.834   5.982   3.440
 2645SOL    HW1 8834   4.767   5.990   3.514
 2645SOL    HW2 8835   4.926   5.994   3.478
 2646SOL     OW 8836   1.327   2.877   6.306
 2646SOL    HW1 8837   1.313   2.976   6.303
 2646SOL    HW2 8838   1.238   2.831   6.307
 2647SOL     OW 8839   5.048   0.353   2.631
 2647SOL    HW1 8840   4.963   0.307   2.604
 2647SOL    HW2 8841   5.125   0.293   2.614
 2648SOL     OW 8842   0.884   6.742   6.441
 2648SOL    HW1 8843   0.909   6.694   6.526
 2648SOL    HW2 8844   0.963   6.744   6.380
 2649SOL     OW 8845   4.983   1.449   3.414
 2649SOL    HW1 8846   4.909   1.408   3.467
 2649SOL    HW2 8847   4.977   1.549   3.421
 2650SOL     OW 8848   3.178   6.572   4.120
 2650SOL    HW1 8849   3.254   6.519   4.080
 2650SOL    HW2 8850   3.214   6.634   4.189
 2651SOL     OW 8851   4.505   2.249   4.565
 2651SOL    HW1 8852   4.546   2.334   4.599
 2651SOL    HW2 8853   4.412   2.267   4.534
 2652SOL     OW 8854   4.774   4.101   4.990
 2652SOL    HW1 8855   4.734   4.181   5.033
 2652SOL    HW2 8856   4.763   4.021   5.049
 2653SOL     OW 8857   2.337   6.074   6.823
 2653SOL    HW1 8858   2.272   6.121   6.883
 2653SOL    HW2 8859   2.296   5.989   6.790
 2654SOL     OW 8860   7.007   1.075   0.474
 2654SOL    HW1 8861   6.916   1.083   0.433
 2654SOL    HW2 8862   7.017   0.985   0.516
 2655SOL     OW 8863   5.368   6.593   2.785
 2655SOL    HW1 8864   5.407   6.571   2.696
 2655SOL    HW2 8865   5.357   6.692   2.793
 2656SOL     OW 8866   4.384   6.060   2.961
 2656SOL    HW1 8867   4.446   6.132   2.930
 2656SOL    HW2 8868   4.388   6.053   3.060
 2657SOL     OW 8869   0.839   3.526   6.877
 2657SOL    HW1 8870   0.909   3.575   6.825
 2657SOL    HW2 8871   0.818   3.575   6.961
 2658SOL     OW 8872   3.673   5.317   0.782
 2658SOL    HW1 8873   3.646   5.222   0.763
 2658SOL    HW2 8874   3.748   5.343   0.722
 2659SOL     OW 8875   6.858   2.278   5.243
 2659SOL    HW1 8876   6.906   2.360   5.273
 2659SOL    HW2 8877   6.872   2.264   5.145
 2660SOL     OW 8878   0.313   1.490   1.748
 2660SOL    HW1 8879   0.273   1.419   1.807
 2660SOL    HW2 8880   0.351   1.563   1.804
 2661SOL     OW 8881   1.453   1.027   0.888
 2661SOL    HW1 8882   1.552   1.023   0.875
 2661SOL    HW2 8883   1.423   0.950   0.945
 2662SOL     OW 8884   2.713   1.711   2.430
 2662SOL    HW1 8885   2.790   1.648   2.429
 2662SOL    HW2 8886   2.651   1.688   2.506
 2663SOL     OW 8887   3.968   6.875   0.215
 2663SOL    HW1 8888   3.895   6.826   0.167
 2663SOL    HW2 8889   4.055   6.829   0.199
 2664SOL     OW 8890   4.969   3.666   5.402
 2664SOL    HW1 8891   4.911   3.741   5.435
 2664SOL    HW2 8892   5.029   3.635   5.476
 2665SOL     OW 8893   1.771   3.128   4.254
 2665SOL    HW1 8894   1.855   3.078   4.271
 2665SOL    HW2 8895   1.791   3.226   4.248
 2666SOL     OW 8896   1.756   4.037   1.830
 2666SOL    HW1 8897   1.727   4.132   1.834
 2666SOL    HW2 8898   1.694   3.981   1.885
 2667SOL     OW 8899   6.803   2.635   5.128
 2667SOL    HW1 8900   6.790   2.595   5.037
 2667SOL    HW2 8901   6.719   2.626   5.181
 2668SOL     OW 8902   6.270   0.499   3.006
 2668SOL    HW1 8903   6.325   0.441   3.065
 2668SOL    HW2 8904   6.326   0.574   2.970
 2669SOL     OW 8905   2.316   0.436   0.290
 2669SOL    HW1 8906   2.261   0.519   0.287
 2669SOL    HW2 8907   2.257   0.357   0.302
 2670SOL     OW 8908   0.393   7.002   6.452
 2670SOL    HW1 8909   0.449   0.062   6.436
 2670SOL    HW2 8910   0.297   0.002   6.441
 2671SOL     OW 8911   5.111   4.463   5.995
 2671SOL    HW1 8912   5.203   4.438   6.025
 2671SOL    HW2 8913   5.066   4.383   5.956
 2672SOL     OW 8914   3.452   1.041   2.246
 2672SOL    HW1 8915   3.473   1.133   2.281
 2672SOL    HW2 8916   3.361   1.042   2.205
 2673SOL     OW 8917   3.547   0.896   2.563
 2673SOL    HW1 8918   3.632   0.865   2.521
 2673SOL    HW2 8919   3.544   0.996   2.564
 2674SOL     OW 8920   0.511   5.904   3.016
 2674SOL    HW1 8921   0.562   5.818   3.013
 2674SOL    HW2 8922   0.426   5.890   3.068
 2675SOL     OW 8923   4.770   1.217   4.379
 2675SOL    HW1 8924   4.691   1.177   4.426
 2675SOL    HW2 8925   4.764   1.317   4.383
 2676SOL     OW 8926   3.506   4.157   3.923
 2676SOL    HW1 8927   3.528   4.251   3.897
 2676SOL    HW2 8928   3.426   4.156   3.984
 2677SOL     OW 8929   2.007   5.811   1.590
 2677SOL    HW1 8930   1.991   5.716   1.565
 2677SOL    HW2 8931   1.955   5.871   1.530
 2678SOL     OW 8932   3.708   1.854   2.801
 2678SOL    HW1 8933   3.673   1.763   2.779
 2678SOL    HW2 8934   3.674   1.920   2.734
 2679SOL     OW 8935   2.250   2.896   2.308
 2679SOL    HW1 8936   2.267   2.807   2.349
 2679SOL    HW2 8937   2.266   2.968   2.375
 2680SOL     OW 8938   5.852   2.139   0.259
 2680SOL    HW1 8939   5.924   2.077   0.287
 2680SOL    HW2 8940   5.763   2.100   0.284
 2681SOL     OW 8941   2.083   2.633   3.391
 2681SOL    HW1 8942   2.066   2.541   3.426
 2681SOL    HW2 8943   2.181   2.653   3.393
 2682SOL     OW 8944   3.737   4.336   1.452
 2682SOL    HW1 8945   3.829   4.331   1.491
 2682SOL    HW2 8946   3.741   4.383   1.364
 2683SOL     OW 8947   2.325   4.241   2.090
 2683SOL    HW1 8948   2.310   4.186   2.172
 2683SOL    HW2 8949   2.332   4.180   2.011
 2684SOL     OW 8950   6.709   0.148   4.106
 2684SOL    HW1 8951   6.716   0.053   4.076
 2684SOL    HW2 8952   6.743   0.208   4.033
 2685SOL     OW 8953   0.847   5.882   5.130
 2685SOL    HW1 8954   0.844   5.820   5.052
 2685SOL    HW2 8955   0.899   5.964   5.106
 2686SOL     OW 8956   1.037   1.090   5.266
 2686SOL    HW1 8957   1.091   1.175   5.265
 2686SOL    HW2 8958   0.943   1.110   5.292
 2687SOL     OW 8959   4.222   2.148   1.616
 2687SOL    HW1 8960   4.124   2.153   1.600
 2687SOL    HW2 8961   4.259   2.066   1.573
 2688SOL     OW 8962   3.741   2.438   6.686
 2688SOL    HW1 8963   3.755   2.481   6.597
 2688SOL    HW2 8964   3.714   2.508   6.753
 2689SOL     OW 8965   0.910   4.086   3.541
 2689SOL    HW1 8966   0.920   4.005   3.482
 2689SOL    HW2 8967   0.995   4.101   3.592
 2690SOL     OW 8968   4.664   1.272   5.686
 2690SOL    HW1 8969   4.608   1.238   5.761
 2690SOL    HW2 8970   4.648   1.215   5.605
 2691SOL     OW 8971   7.005   3.624   5.354
 2691SOL    HW1 8972   7.010   3.601   5.256
 2691SOL    HW2 8973   0.035   3.707   5.371
 2692SOL     OW 8974   2.409   5.792   2.241
 2692SOL    HW1 8975   2.313   5.815   2.257
 2692SOL    HW2 8976   2.419   5.753   2.150
 2693SOL     OW 8977   1.235   6.140   3.551
 2693SOL    HW1 8978   1.222   6.147   3.452
 2693SOL    HW2 8979   1.332   6.139   3.572
 2694SOL     OW 8980   2.485   0.135   2.609
 2694SOL    HW1 8981   2.516   0.131   2.514
 2694SOL    HW2 8982   2.515   0.221   2.650
 2695SOL     OW 8983   0.590   5.277   3.695
 2695SOL    HW1 8984   0.683   5.303   3.668
 2695SOL    HW2 8985   0.595   5.204   3.763
 2696SOL     OW 8986   4.719   4.990   6.471
 2696SOL    HW1 8987   4.797   4.993   6.408
 2696SOL    HW2 8988   4.671   4.903   6.460
 2697SOL     OW 8989   3.965   1.990   0.048
 2697SOL    HW1 8990   3.906   1.951   0.119
 2697SOL    HW2 8991   4.048   1.935   0.039
 2698SOL     OW 8992   1.740   5.479   6.082
 2698SOL    HW1 8993   1.700   5.451   6.169
 2698SOL    HW2 8994   1.682   5.549   6.040
 2699SOL     OW 8995   2.730   6.269   2.026
 2699SOL    HW1 8996   2.828   6.261   2.044
 2699SOL    HW2 8997   2.700   6.193   1.969
 2700SOL     OW 8998   4.119   1.681   1.211
 2700SOL    HW1 8999   4.061   1.679   1.129
 2700SOL    HW2 9000   4.062   1.676   1.292
 2701SOL     OW 9001   4.927   3.369   4.298
 2701SOL    HW1 9002   5.008   3.343   4.245
 2701SOL    HW2 9003   4.888   3.453   4.260
 2702SOL     OW 9004   2.468   1.168   4.928
 2702SOL    HW1 9005   2.380   1.211   4.950
 2702SOL    HW2 9006   2.493   1.192   4.834
 2703SOL     OW 9007   2.550   6.514   2.429
 2703SOL    HW1 9008   2.589   6.492   2.519
 2703SOL    HW2 9009   2.621   6.555   2.372
 2704SOL     OW 9010   5.126   1.060   3.404
 2704SOL    HW1 9011   5.124   1.099   3.313
 2704SOL    HW2 9012   5.098   1.129   3.471
 2705SOL     OW 9013   0.165   0.273   5.190
 2705SOL    HW1 9014   0.111   0.251   5.272
 2705SOL    HW2 9015   0.243   0.212   5.184
 2706SOL     OW 9016   6.398   3.836   3.450
 2706SOL    HW1 9017   6.344   3.915   3.480
 2706SOL    HW2 9018   6.474   3.867   3.393
 2707SOL     OW 9019   4.363   0.936   3.555
 2707SOL    HW1 9020   4.293   0.920   3.626
 2707SOL    HW2 9021   4.429   0.861   3.557
 2708SOL     OW 9022   5.399   3.840   5.844
 2708SOL    HW1 9023   5.414   3.749   5.805
 2708SOL    HW2 9024   5.386   3.832   5.943
 2709SOL     OW 9025   4.959   1.325   5.566
 2709SOL    HW1 9026   4.949   1.257   5.639
 2709SOL    HW2 9027   4.918   1.289   5.482
 2710SOL     OW 9028   0.706   2.972   4.644
 2710SOL    HW1 9029   0.693   2.989   4.546
 2710SOL    HW2 9030   0.748   3.052   4.686
 2711SOL     OW 9031   4.344   1.035   1.670
 2711SOL    HW1 9032   4.386   1.094   1.601
 2711SOL    HW2 9033   4.372   1.064   1.761
 2712SOL     OW 9034   4.868   6.512   2.031
 2712SOL    HW1 9035   4.838   6.543   2.122
 2712SOL    HW2 9036   4.818   6.429   2.006
 2713SOL     OW 9037   3.758   5.085   5.050
 2713SOL    HW1 9038   3.776   5.001   5.102
 2713SOL    HW2 9039   3.831   5.100   4.985
 2714SOL     OW 9040   3.268   4.708   6.408
 2714SOL    HW1 9041   3.234   4.767   6.481
 2714SOL    HW2 9042   3.316   4.630   6.447
 2715SOL     OW 9043   4.096   0.206   6.286
 2715SOL    HW1 9044   4.166   0.243   6.347
 2715SOL    HW2 9045   4.018   0.268   6.283
 2716SOL     OW 9046   3.973   1.159   2.746
 2716SOL    HW1 9047   3.874   1.160   2.757
 2716SOL    HW2 9048   4.015   1.213   2.820
 2717SOL     OW 9049   0.967   1.820   1.686
 2717SOL    HW1 9050   0.970   1.865   1.775
 2717SOL    HW2 9051   0.987   1.722   1.698
 2718SOL     OW 9052   6.893   1.326   5.728
 2718SOL    HW1 9053   6.876   1.301   5.823
 2718SOL    HW2 9054   6.961   1.264   5.689
 2719SOL     OW 9055   1.360   5.110   3.510
 2719SOL    HW1 9056   1.399   5.102   3.418
 2719SOL    HW2 9057   1.428   5.080   3.578
 2720SOL     OW 9058   1.320   6.049   6.211
 2720SOL    HW1 9059   1.227   6.085   6.221
 2720SOL    HW2 9060   1.384   6.125   6.201
 2721SOL     OW 9061   2.836   6.817   1.815
 2721SOL    HW1 9062   2.783   6.742   1.854
 2721SOL    HW2 9063   2.922   6.826   1.865
 2722SOL     OW 9064   3.542   5.563   6.408
 2722SOL    HW1 9065   3.638   5.540   6.422
 2722SOL    HW2 9066   3.495   5.484   6.367
 2723SOL     OW 9067   3.555   6.174   6.773
 2723SOL    HW1 9068   3.510   6.104   6.828
 2723SOL    HW2 9069   3.642   6.139   6.739
 2724SOL     OW 9070   0.450   6.012   0.906
 2724SOL    HW1 9071   0.507   6.066   0.969
 2724SOL    HW2 9072   0.434   5.922   0.945
 2725SOL     OW 9073   5.820   4.251   4.200
 2725SOL    HW1 9074   5.724   4.240   4.174
 2725SOL    HW2 9075   5.861   4.161   4.214
 2726SOL     OW 9076   6.556   1.967   2.242
 2726SOL    HW1 9077   6.567   2.045   2.303
 2726SOL    HW2 9078   6.616   1.978   2.163
 2727SOL     OW 9079   1.771   5.529   3.571
 2727SOL    HW1 9080   1.684   5.490   3.601
 2727SOL    HW2 9081   1.846   5.475   3.607
 2728SOL     OW 9082   4.729   5.482   6.208
 2728SOL    HW1 9083   4.732   5.457   6.112
 2728SOL    HW2 9084   4.635   5.504   6.234
 2729SOL     OW 9085   5.720   0.392   6.445
 2729SOL    HW1 9086   5.650   0.366   6.379
 2729SOL    HW2 9087   5.685   0.464   6.504
 2730SOL     OW 9088   1.277   5.760   2.566
 2730SOL    HW1 9089   1.252   5.731   2.659
 2730SOL    HW2 9090   1.341   5.837   2.571
 2731SOL     OW 9091   3.086   4.019   4.275
 2731SOL    HW1 9092   3.065   3.928   4.239
 2731SOL    HW2 9093   3.050   4.028   4.367
 2732SOL     OW 9094   5.479   0.779   2.171
 2732SOL    HW1 9095   5.523   0.695   2.202
 2732SOL    HW2 9096   5.496   0.853   2.237
 2733SOL     OW 9097   0.792   5.956   6.828
 2733SOL    HW1 9098   0.870   5.894   6.831
 2733SOL    HW2 9099   0.730   5.936   6.904
 2734SOL     OW 9100   3.702   6.092   2.461
 2734SOL    HW1 9101   3.760   6.174   2.458
 2734SOL    HW2 9102   3.642   6.097   2.540
 2735SOL     OW 9103   0.733   1.464   1.573
 2735SOL    HW1 9104   0.731   1.394   1.502
 2735SOL    HW2 9105   0.661   1.531   1.556
 2736SOL     OW 9106   5.353   4.339   3.156
 2736SOL    HW1 9107   5.433   4.352   3.214
 2736SOL    HW2 9108   5.299   4.423   3.153
 2737SOL     OW 9109   3.013   0.533   5.415
 2737SOL    HW1 9110   3.008   0.615   5.357
 2737SOL    HW2 9111   2.945   0.539   5.488
 2738SOL     OW 9112   5.060   5.571   1.437
 2738SOL    HW1 9113   5.087   5.609   1.525
 2738SOL    HW2 9114   4.975   5.519   1.447
 2739SOL     OW 9115   6.824   5.213   1.612
 2739SOL    HW1 9116   6.900   5.164   1.568
 2739SOL    HW2 9117   6.829   5.200   1.711
 2740SOL     OW 9118   0.620   5.636   3.056
 2740SOL    HW1 9119   0.647   5.682   3.140
 2740SOL    HW2 9120   0.694   5.576   3.025
 2741SOL     OW 9121   0.627   0.214   5.379
 2741SOL    HW1 9122   0.668   0.187   5.466
 2741SOL    HW2 9123   0.696   0.255   5.320
 2742SOL     OW 9124   3.266   5.651   1.770
 2742SOL    HW1 9125   3.248   5.711   1.692
 2742SOL    HW2 9126   3.335   5.582   1.745
 2743SOL     OW 9127   5.611   1.634   2.125
 2743SOL    HW1 9128   5.526   1.582   2.124
 2743SOL    HW2 9129   5.649   1.635   2.217
 2744SOL     OW 9130   3.539   4.161   2.317
 2744SOL    HW1 9131   3.527   4.092   2.245
 2744SOL    HW2 9132   3.544   4.251   2.275
 2745SOL     OW 9133   0.629   6.115   0.429
 2745SOL    HW1 9134   0.631   6.025   0.385
 2745SOL    HW2 9135   0.629   6.104   0.528
 2746SOL     OW 9136   1.854   1.342   3.286
 2746SOL    HW1 9137   1.913   1.371   3.211
 2746SOL    HW2 9138   1.761   1.329   3.253
 2747SOL     OW 9139   3.862   4.890   0.726
 2747SOL    HW1 9140   3.818   4.811   0.684
 2747SOL    HW2 9141   3.960   4.888   0.707
 2748SOL     OW 9142   4.423   0.192   0.236
 2748SOL    HW1 9143   4.366   0.270   0.208
 2748SOL    HW2 9144   4.385   0.151   0.319
 2749SOL     OW 9145   3.261   1.538   0.674
 2749SOL    HW1 9146   3.205   1.592   0.611
 2749SOL    HW2 9147   3.274   1.446   0.636
 2750SOL     OW 9148   3.354   5.724   2.052
 2750SOL    HW1 9149   3.265   5.743   2.093
 2750SOL    HW2 9150   3.341   5.700   1.955
 2751SOL     OW 9151   5.903   5.281   1.070
 2751SOL    HW1 9152   5.923   5.191   1.033
 2751SOL    HW2 9153   5.845   5.332   1.006
 2752SOL     OW 9154   4.273   5.666   6.844
 2752SOL    HW1 9155   4.268   5.763   6.821
 2752SOL    HW2 9156   4.181   5.626   6.837
 2753SOL     OW 9157   5.684   5.899   5.164
 2753SOL    HW1 9158   5.623   5.973   5.194
 2753SOL    HW2 9159   5.671   5.820   5.223
 2754SOL     OW 9160   1.442   6.825   5.700
 2754SOL    HW1 9161   1.531   6.784   5.721
 2754SOL    HW2 9162   1.450   6.925   5.704
 2755SOL     OW 9163   3.635   0.849   2.241
 2755SOL    HW1 9164   3.705   0.886   2.180
 2755SOL    HW2 9165   3.555   0.909   2.241
 2756SOL     OW 9166   4.764   5.780   0.153
 2756SOL    HW1 9167   4.799   5.829   0.233
 2756SOL    HW2 9168   4.840   5.757   0.093
 2757SOL     OW 9169   0.069   4.859   1.083
 2757SOL    HW1 9170   0.082   4.957   1.101
 2757SOL    HW2 9171   0.076   4.808   1.169
 2758SOL     OW 9172   3.830   0.447   5.813
 2758SOL    HW1 9173   3.898   0.499   5.865
 2758SOL    HW2 9174   3.744   0.498   5.813
 2759SOL     OW 9175   4.861   5.527   4.921
 2759SOL    HW1 9176   4.932   5.566   4.863
 2759SOL    HW2 9177   4.774   5.574   4.903
 2760SOL     OW 9178   1.995   6.482   3.967
 2760SOL    HW1 9179   1.999   6.476   3.867
 2760SOL    HW2 9180   1.978   6.391   4.005
 2761SOL     OW 9181   2.203   5.269   3.893
 2761SOL    HW1 9182   2.269   5.336   3.861
 2761SOL    HW2 9183   2.112   5.310   3.898
 2762SOL     OW 9184   1.289   0.404   4.819
 2762SOL    HW1 9185   1.224   0.477   4.795
 2762SOL    HW2 9186   1.250   0.315   4.794
 2763SOL     OW 9187   5.404   1.947   2.651
 2763SOL    HW1 9188   5.478   2.014   2.647
 2763SOL    HW2 9189   5.430   1.866   2.598
 2764SOL     OW 9190   6.469   0.458   1.889
 2764SOL    HW1 9191   6.422   0.542   1.865
 2764SOL    HW2 9192   6.405   0.394   1.930
 2765SOL     OW 9193   5.614   2.300   2.212
 2765SOL    HW1 9194   5.544   2.356   2.255
 2765SOL    HW2 9195   5.671   2.357   2.152
 2766SOL     OW 9196   5.981   0.276   2.669
 2766SOL    HW1 9197   6.005   0.215   2.593
 2766SOL    HW2 9198   6.063   0.299   2.721
 2767SOL     OW 9199   6.395   4.447   5.572
 2767SOL    HW1 9200   6.389   4.464   5.473
 2767SOL    HW2 9201   6.316   4.488   5.617
 2768SOL     OW 9202   5.859   1.400   6.475
 2768SOL    HW1 9203   5.920   1.475   6.452
 2768SOL    HW2 9204   5.842   1.399   6.573
 2769SOL     OW 9205   1.063   4.487   1.398
 2769SOL    HW1 9206   1.160   4.484   1.378
 2769SOL    HW2 9207   1.012   4.437   1.327
 2770SOL     OW 9208   6.452   5.836   1.789
 2770SOL    HW1 9209   6.377   5.777   1.760
 2770SOL    HW2 9210   6.450   5.921   1.736
 2771SOL     OW 9211   4.937   1.129   1.193
 2771SOL    HW1 9212   4.881   1.084   1.262
 2771SOL    HW2 9213   5.003   1.190   1.238
 2772SOL     OW 9214   3.781   2.652   6.492
 2772SOL    HW1 9215   3.684   2.662   6.470
 2772SOL    HW2 9216   3.813   2.735   6.539
 2773SOL     OW 9217   3.983   4.283   0.482
 2773SOL    HW1 9218   3.917   4.232   0.426
 2773SOL    HW2 9219   3.958   4.277   0.578
 2774SOL     OW 9220   5.601   3.254   2.636
 2774SOL    HW1 9221   5.605   3.201   2.552
 2774SOL    HW2 9222   5.606   3.352   2.614
 2775SOL     OW 9223   6.737   6.924   2.267
 2775SOL    HW1 9224   6.768   6.908   2.173
 2775SOL    HW2 9225   6.815   6.948   2.325
 2776SOL     OW 9226   3.275   5.761   5.906
 2776SOL    HW1 9227   3.220   5.745   5.824
 2776SOL    HW2 9228   3.363   5.801   5.879
 2777SOL     OW 9229   2.976   1.283   3.491
 2777SOL    HW1 9230   2.976   1.313   3.395
 2777SOL    HW2 9231   3.061   1.313   3.535
 2778SOL     OW 9232   2.393   1.901   4.625
 2778SOL    HW1 9233   2.349   1.936   4.708
 2778SOL    HW2 9234   2.461   1.832   4.650
 2779SOL     OW 9235   5.753   0.996   0.712
 2779SOL    HW1 9236   5.776   1.077   0.766
 2779SOL    HW2 9237   5.676   1.018   0.651
 2780SOL     OW 9238   4.521   5.764   0.507
 2780SOL    HW1 9239   4.607   5.735   0.549
 2780SOL    HW2 9240   4.483   5.689   0.453
 2781SOL     OW 9241   4.700   4.624   0.324
 2781SOL    HW1 9242   4.768   4.647   0.394
 2781SOL    HW2 9243   4.670   4.529   0.338
 2782SOL     OW 9244   2.579   1.622   6.365
 2782SOL    HW1 9245   2.671   1.588   6.345
 2782SOL    HW2 9246   2.571   1.717   6.335
 2783SOL     OW 9247   0.292   4.462   6.263
 2783SOL    HW1 9248   0.280   4.379   6.208
 2783SOL    HW2 9249   0.357   4.522   6.218
 2784SOL     OW 9250   2.364   2.234   2.285
 2784SOL    HW1 9251   2.329   2.166   2.221
 2784SOL    HW2 9252   2.458   2.257   2.262
 2785SOL     OW 9253   5.980   1.168   1.335
 2785SOL    HW1 9254   5.917   1.236   1.373
 2785SOL    HW2 9255   5.968   1.162   1.236
 2786SOL     OW 9256   3.154   0.008   0.013
 2786SOL    HW1 9257   3.111   7.004   0.100
 2786SOL    HW2 9258   3.086   0.001   6.962
 2787SOL     OW 9259   2.210   2.593   5.539
 2787SOL    HW1 9260   2.305   2.624   5.531
 2787SOL    HW2 9261   2.165   2.643   5.614
 2788SOL     OW 9262   1.002   3.350   0.392
 2788SOL    HW1 9263   1.101   3.344   0.401
 2788SOL    HW2 9264   0.959   3.275   0.442
 2789SOL     OW 9265   6.933   2.331   4.428
 2789SOL    HW1 9266   6.987   2.261   4.380
 2789SOL    HW2 9267   6.957   2.421   4.393
 2790SOL     OW 9268   3.950   6.140   3.525
 2790SOL    HW1 9269   3.926   6.070   3.459
 2790SOL    HW2 9270   3.902   6.123   3.611
 2791SOL     OW 9271   2.292   2.879   2.599
 2791SOL    HW1 9272   2.297   2.797   2.542
 2791SOL    HW2 9273   2.361   2.874   2.671
 2792SOL     OW 9274   1.051   2.457   4.905
 2792SOL    HW1 9275   1.059   2.437   4.808
 2792SOL    HW2 9276   1.020   2.376   4.954
 2793SOL     OW 9277   5.393   0.703   3.883
 2793SOL    HW1 9278   5.488   0.690   3.913
 2793SOL    HW2 9279   5.389   0.778   3.818
 2794SOL     OW 9280   0.680   0.796   1.099
 2794SOL    HW1 9281   0.647   0.706   1.070
 2794SOL    HW2 9282   0.699   0.795   1.197
 2795SOL     OW 9283   1.949   4.325   1.907
 2795SOL    HW1 9284   1.937   4.413   1.860
 2795SOL    HW2 9285   2.009   4.267   1.853
 2796SOL     OW 9286   5.166   4.308   2.340
 2796SOL    HW1 9287   5.254   4.355   2.333
 2796SOL    HW2 9288   5.180   4.213   2.369
 2797SOL     OW 9289   4.253   4.745   4.813
 2797SOL    HW1 9290   4.159   4.775   4.828
 2797SOL    HW2 9291   4.280   4.682   4.886
 2798SOL     OW 9292   1.649   3.433   4.021
 2798SOL    HW1 9293   1.650   3.471   3.928
 2798SOL    HW2 9294   1.611   3.341   4.018
 2799SOL     OW 9295   6.267   5.443   5.612
 2799SOL    HW1 9296   6.277   5.523   5.552
 2799SOL    HW2 9297   6.216   5.470   5.694
 2800SOL     OW 9298   2.898   2.357   6.774
 2800SOL    HW1 9299   2.967   2.418   6.735
 2800SOL    HW2 9300   2.944   2.281   6.821
 2801SOL     OW 9301   4.467   5.639   2.408
 2801SOL    HW1 9302   4.510   5.627   2.498
 2801SOL    HW2 9303   4.428   5.552   2.378
 2802SOL     OW 9304   5.604   0.871   5.812
 2802SOL    HW1 9305   5.589   0.774   5.832
 2802SOL    HW2 9306   5.563   0.927   5.885
 2803SOL     OW 9307   2.133   5.846   5.808
 2803SOL    HW1 9308   2.136   5.855   5.908
 2803SOL    HW2 9309   2.079   5.921   5.769
 2804SOL     OW 9310   6.809   4.889   2.687
 2804SOL    HW1 9311   6.848   4.852   2.603
 2804SOL    HW2 9312   6.757   4.818   2.734
 2805SOL     OW 9313   5.084   4.030   5.921
 2805SOL    HW1 9314   5.093   3.936   5.887
 2805SOL    HW2 9315   5.109   4.094   5.848
 2806SOL     OW 9316   0.226   5.837   3.128
 2806SOL    HW1 9317   0.241   5.757   3.070
 2806SOL    HW2 9318   0.132   5.870   3.115
 2807SOL     OW 9319   3.979   4.862   3.996
 2807SOL    HW1 9320   3.895   4.862   4.050
 2807SOL    HW2 9321   3.957   4.889   3.902
 2808SOL     OW 9322   4.795   6.343   3.693
 2808SOL    HW1 9323   4.855   6.275   3.734
 2808SOL    HW2 9324   4.702   6.332   3.730
 2809SOL     OW 9325   5.395   3.131   0.962
 2809SOL    HW1 9326   5.414   3.186   0.881
 2809SOL    HW2 9327   5.338   3.053   0.937
 2810SOL     OW 9328   1.316   0.346   5.235
 2810SOL    HW1 9329   1.319   0.266   5.295
 2810SOL    HW2 9330   1.314   0.429   5.290
 2811SOL     OW 9331   7.009   1.108   4.356
 2811SOL    HW1 9332   6.948   1.096   4.435
 2811SOL    HW2 9333   7.022   1.020   4.311
 2812SOL     OW 9334   5.517   3.751   2.387
 2812SOL    HW1 9335   5.535   3.677   2.322
 2812SOL    HW2 9336   5.461   3.716   2.462
 2813SOL     OW 9337   6.072   1.579   6.510
 2813SOL    HW1 9338   6.070   1.661   6.453
 2813SOL    HW2 9339   6.158   1.529   6.494
 2814SOL     OW 9340   5.042   4.312   5.163
 2814SOL    HW1 9341   5.122   4.361   5.199
 2814SOL    HW2 9342   4.982   4.377   5.116
 2815SOL     OW 9343   0.179   1.402   5.414
 2815SOL    HW1 9344   0.109   1.355   5.468
 2815SOL    HW2 9345   0.253   1.338   5.394
 2816SOL     OW 9346   5.636   6.149   3.356
 2816SOL    HW1 9347   5.709   6.203   3.314
 2816SOL    HW2 9348   5.617   6.069   3.300
 2817SOL     OW 9349   1.016   1.854   1.149
 2817SOL    HW1 9350   1.000   1.843   1.051
 2817SOL    HW2 9351   0.937   1.898   1.192
 2818SOL     OW 9352   0.404   4.067   5.489
 2818SOL    HW1 9353   0.436   3.973   5.476
 2818SOL    HW2 9354   0.328   4.067   5.555
 2819SOL     OW 9355   6.033   2.718   0.585
 2819SOL    HW1 9356   5.945   2.754   0.554
 2819SOL    HW2 9357   6.080   2.787   0.639
 2820SOL     OW 9358   6.343   2.613   4.555
 2820SOL    HW1 9359   6.381   2.602   4.463
 2820SOL    HW2 9360   6.404   2.569   4.622
 2821SOL     OW 9361   1.234   2.888   4.335
 2821SOL    HW1 9362   1.184   2.829   4.272
 2821SOL    HW2 9363   1.332   2.879   4.320
 2822SOL     OW 9364   3.228   1.647   0.215
 2822SOL    HW1 9365   3.145   1.604   0.179
 2822SOL    HW2 9366   3.267   1.707   0.145
 2823SOL     OW 9367   2.079   6.700   3.282
 2823SOL    HW1 9368   2.111   6.729   3.192
 2823SOL    HW2 9369   2.048   6.780   3.333
 2824SOL     OW 9370   2.889   1.691   4.609
 2824SOL    HW1 9371   2.985   1.664   4.604
 2824SOL    HW2 9372   2.834   1.614   4.640
 2825SOL     OW 9373   6.416   6.298   1.130
 2825SOL    HW1 9374   6.422   6.200   1.144
 2825SOL    HW2 9375   6.483   6.326   1.061
 2826SOL     OW 9376   4.617   2.485   4.655
 2826SOL    HW1 9377   4.569   2.514   4.737
 2826SOL    HW2 9378   4.613   2.558   4.586
 2827SOL     OW 9379   5.527   1.023   6.132
 2827SOL    HW1 9380   5.534   1.079   6.214
 2827SOL    HW2 9381   5.482   1.075   6.059
 2828SOL     OW 9382   2.945   2.323   6.241
 2828SOL    HW1 9383   2.953   2.410   6.289
 2828SOL    HW2 9384   2.937   2.249   6.307
 2829SOL     OW 9385   1.611   6.805   6.604
 2829SOL    HW1 9386   1.647   6.838   6.691
 2829SOL    HW2 9387   1.511   6.798   6.610
 2830SOL     OW 9388   3.659   3.175   6.546
 2830SOL    HW1 9389   3.598   3.151   6.622
 2830SOL    HW2 9390   3.607   3.177   6.461
 2831SOL     OW 9391   5.968   5.652   4.177
 2831SOL    HW1 9392   6.025   5.617   4.102
 2831SOL    HW2 9393   6.027   5.685   4.251
 2832SOL     OW 9394   0.285   0.839   2.115
 2832SOL    HW1 9395   0.248   0.754   2.152
 2832SOL    HW2 9396   0.342   0.818   2.036
 2833SOL     OW 9397   5.912   3.090   2.408
 2833SOL    HW1 9398   5.914   3.023   2.334
 2833SOL    HW2 9399   5.988   3.154   2.397
 2834SOL     OW 9400   3.365   0.809   5.977
 2834SOL    HW1 9401   3.439   0.807   5.910
 2834SOL    HW2 9402   3.365   0.897   6.024
 2835SOL     OW 9403   0.739   6.701   3.166
 2835SOL    HW1 9404   0.838   6.718   3.165
 2835SOL    HW2 9405   0.702   6.717   3.075
 2836SOL     OW 9406   6.770   0.827   0.795
 2836SOL    HW1 9407   6.724   0.845   0.882
 2836SOL    HW2 9408   6.723   0.753   0.747
 2837SOL     OW 9409   5.970   3.104   3.766
 2837SOL    HW1 9410   5.872   3.088   3.777
 2837SOL    HW2 9411   5.996   3.185   3.820
 2838SOL     OW 9412   2.311   5.042   3.767
 2838SOL    HW1 9413   2.401   5.038   3.811
 2838SOL    HW2 9414   2.257   5.117   3.807
 2839SOL     OW 9415   5.010   2.173   1.538
 2839SOL    HW1 9416   4.997   2.220   1.626
 2839SOL    HW2 9417   4.932   2.190   1.479
 2840SOL     OW 9418   0.124   1.936   5.681
 2840SOL    HW1 9419   0.088   2.008   5.621
 2840SOL    HW2 9420   0.077   1.851   5.661
 2841SOL     OW 9421   0.525   6.363   1.257
 2841SOL    HW1 9422   0.567   6.309   1.185
 2841SOL    HW2 9423   0.597   6.405   1.313
 2842SOL     OW 9424   6.194   3.136   3.295
 2842SOL    HW1 9425   6.289   3.161   3.278
 2842SOL    HW2 9426   6.185   3.037   3.302
 2843SOL     OW 9427   3.958   1.902   4.726
 2843SOL    HW1 9428   3.928   1.865   4.638
 2843SOL    HW2 9429   4.013   1.985   4.710
 2844SOL     OW 9430   0.008   3.859   5.739
 2844SOL    HW1 9431   0.053   3.904   5.816
 2844SOL    HW2 9432   6.938   3.897   5.727
 2845SOL     OW 9433   6.528   4.207   5.068
 2845SOL    HW1 9434   6.534   4.162   5.158
 2845SOL    HW2 9435   6.433   4.228   5.048
 2846SOL     OW 9436   4.804   1.804   6.548
 2846SOL    HW1 9437   4.767   1.828   6.638
 2846SOL    HW2 9438   4.729   1.798   6.482
 2847SOL     OW 9439   4.647   4.631   3.938
 2847SOL    HW1 9440   4.654   4.729   3.919
 2847SOL    HW2 9441   4.582   4.589   3.875
 2848SOL     OW 9442   1.274   5.959   4.686
 2848SOL    HW1 9443   1.186   5.923   4.655
 2848SOL    HW2 9444   1.272   6.059   4.683
 2849SOL     OW 9445   2.556   2.778   1.326
 2849SOL    HW1 9446   2.592   2.755   1.235
 2849SOL    HW2 9447   2.572   2.702   1.388
 2850SOL     OW 9448   3.494   1.060   6.964
 2850SOL    HW1 9449   3.429   1.021   6.899
 2850SOL    HW2 9450   3.562   1.114   6.914
 2851SOL     OW 9451   2.513   4.391   6.464
 2851SOL    HW1 9452   2.468   4.386   6.554
 2851SOL    HW2 9453   2.591   4.452   6.469
 2852SOL     OW 9454   0.242   3.315   6.439
 2852SOL    HW1 9455   0.274   3.231   6.395
 2852SOL    HW2 9456   0.288   3.393   6.398
 2853SOL     OW 9457   3.490   3.602   1.473
 2853SOL    HW1 9458   3.535   3.684   1.435
 2853SOL    HW2 9459   3.399   3.627   1.506
 2854SOL     OW 9460   1.226   1.257   3.641
 2854SOL    HW1 9461   1.138   1.305   3.637
 2854SOL    HW2 9462   1.296   1.318   3.679
 2855SOL     OW 9463   3.024   0.763   5.267
 2855SOL    HW1 9464   2.931   0.792   5.243
 2855SOL    HW2 9465   3.090   0.815   5.213
 2856SOL     OW 9466   2.344   1.609   4.957
 2856SOL    HW1 9467   2.371   1.571   4.868
 2856SOL    HW2 9468   2.427   1.624   5.012
 2857SOL     OW 9469   3.110   3.890   3.081
 2857SOL    HW1 9470   3.045   3.867   3.009
 2857SOL    HW2 9471   3.076   3.859   3.169
 2858SOL     OW 9472   6.003   3.288   2.886
 2858SOL    HW1 9473   5.937   3.256   2.818
 2858SOL    HW2 9474   5.966   3.271   2.978
 2859SOL     OW 9475   6.248   6.518   0.602
 2859SOL    HW1 9476   6.237   6.578   0.523
 2859SOL    HW2 9477   6.346   6.499   0.616
 2860SOL     OW 9478   4.194   1.612   1.841
 2860SOL    HW1 9479   4.178   1.632   1.744
 2860SOL    HW2 9480   4.274   1.662   1.873
 2861SOL     OW 9481   3.464   5.568   5.705
 2861SOL    HW1 9482   3.499   5.578   5.799
 2861SOL    HW2 9483   3.380   5.514   5.707
 2862SOL     OW 9484   5.820   0.307   4.847
 2862SOL    HW1 9485   5.844   0.216   4.813
 2862SOL    HW2 9486   5.892   0.372   4.824
 2863SOL     OW 9487   6.163   1.693   0.210
 2863SOL    HW1 9488   6.156   1.706   0.309
 2863SOL    HW2 9489   6.076   1.659   0.175
 2864SOL     OW 9490   3.062   1.267   6.928
 2864SOL    HW1 9491   3.068   1.191   6.863
 2864SOL    HW2 9492   2.972   1.310   6.921
 2865SOL     OW 9493   4.570   4.957   4.830
 2865SOL    HW1 9494   4.534   4.924   4.918
 2865SOL    HW2 9495   4.529   4.906   4.755
 2866SOL     OW 9496   6.851   6.825   6.622
 2866SOL    HW1 9497   6.805   6.866   6.543
 2866SOL    HW2 9498   6.821   6.731   6.633
 2867SOL     OW 9499   6.556   4.328   3.257
 2867SOL    HW1 9500   6.576   4.348   3.353
 2867SOL    HW2 9501   6.467   4.283   3.249
 2868SOL     OW 9502   1.785   4.987   5.510
 2868SOL    HW1 9503   1.804   4.889   5.504
 2868SOL    HW2 9504   1.730   5.006   5.591
 2869SOL     OW 9505   6.217   1.473   2.399
 2869SOL    HW1 9506   6.251   1.448   2.308
 2869SOL    HW2 9507   6.125   1.513   2.390
 2870SOL     OW 9508   4.842   1.791   2.763
 2870SOL    HW1 9509   4.745   1.778   2.783
 2870SOL    HW2 9510   4.851   1.860   2.691
 2871SOL     OW 9511   1.577   1.946   5.817
 2871SOL    HW1 9512   1.654   1.963   5.879
 2871SOL    HW2 9513   1.593   1.863   5.764
 2872SOL     OW 9514   2.308   6.260   4.198
 2872SOL    HW1 9515   2.363   6.258   4.114
 2872SOL    HW2 9516   2.368   6.277   4.276
 2873SOL     OW 9517   0.159   5.344   1.879
 2873SOL    HW1 9518   0.238   5.325   1.820
 2873SOL    HW2 9519   0.185   5.410   1.949
 2874SOL     OW 9520   6.055   1.654   2.277
 2874SOL    HW1 9521   6.004   1.729   2.321
 2874SOL    HW2 9522   6.046   1.661   2.178
 2875SOL     OW 9523   3.269   4.859   0.394
 2875SOL    HW1 9524   3.355   4.824   0.357
 2875SOL    HW2 9525   3.288   4.936   0.455
 2876SOL     OW 9526   6.829   1.134   2.829
 2876SOL    HW1 9527   6.791   1.202   2.766
 2876SOL    HW2 9528   6.902   1.176   2.883
 2877SOL     OW 9529   2.459   3.271   6.084
 2877SOL    HW1 9530   2.428   3.281   6.179
 2877SOL    HW2 9531   2.444   3.357   6.035
 2878SOL     OW 9532   3.153   4.530   6.759
 2878SOL    HW1 9533   3.198   4.441   6.760
 2878SOL    HW2 9534   3.104   4.542   6.673
 2879SOL     OW 9535   5.122   4.920   6.585
 2879SOL    HW1 9536   5.102   4.838   6.639
 2879SOL    HW2 9537   5.098   4.904   6.489
 2880SOL     OW 9538   1.115   6.131   1.442
 2880SOL    HW1 9539   1.029   6.144   1.392
 2880SOL    HW2 9540   1.161   6.220   1.454
 2881SOL     OW 9541   0.040   0.132   0.149
 2881SOL    HW1 9542   7.008   0.193   0.091
 2881SOL    HW2 9543   7.003   0.060   0.186
 2882SOL     OW 9544   6.981   3.482   3.213
 2882SOL    HW1 9545   6.927   3.541   3.273
 2882SOL    HW2 9546   6.927   3.401   3.189
 2883SOL     OW 9547   4.694   6.958   2.328
 2883SOL    HW1 9548   4.734   6.901   2.256
 2883SOL    HW2 9549   4.761   6.972   2.401
 2884SOL     OW 9550   1.544   6.071   3.070
 2884SOL    HW1 9551   1.497   5.983   3.083
 2884SOL    HW2 9552   1.631   6.070   3.119
 2885SOL     OW 9553   0.411   2.213   3.274
 2885SOL    HW1 9554   0.396   2.250   3.366
 2885SOL    HW2 9555   0.503   2.238   3.243
 2886SOL     OW 9556   2.176   2.511   5.923
 2886SOL    HW1 9557   2.148   2.454   5.845
 2886SOL    HW2 9558   2.269   2.487   5.950
 2887SOL     OW 9559   2.161   1.355   4.779
 2887SOL    HW1 9560   2.084   1.395   4.728
 2887SOL    HW2 9561   2.141   1.358   4.877
 2888SOL     OW 9562   6.558   4.986   6.799
 2888SOL    HW1 9563   6.628   5.006   6.731
 2888SOL    HW2 9564   6.593   5.008   6.890
 2889SOL     OW 9565   0.802   0.027   2.141
 2889SOL    HW1 9566   0.742   0.106   2.153
 2889SOL    HW2 9567   0.751   6.966   2.159
 2890SOL     OW 9568   3.527   6.739   1.076
 2890SOL    HW1 9569   3.611   6.723   1.127
 2890SOL    HW2 9570   3.529   6.831   1.037
 2891SOL     OW 9571   2.669   5.126   4.363
 2891SOL    HW1 9572   2.582   5.116   4.315
 2891SOL    HW2 9573   2.745   5.110   4.300
 2892SOL     OW 9574   4.694   4.296   5.650
 2892SOL    HW1 9575   4.653   4.352   5.722
 2892SOL    HW2 9576   4.680   4.342   5.562
 2893SOL     OW 9577   3.056   0.732   6.614
 2893SOL    HW1 9578   3.063   0.687   6.703
 2893SOL    HW2 9579   3.134   0.707   6.557
 2894SOL     OW 9580   3.257   2.887   1.056
 2894SOL    HW1 9581   3.161   2.862   1.048
 2894SOL    HW2 9582   3.301   2.831   1.126
 2895SOL     OW 9583   3.034   3.545   6.616
 2895SOL    HW1 9584   3.003   3.571   6.524
 2895SOL    HW2 9585   3.055   3.448   6.618
 2896SOL     OW 9586   2.086   5.479   0.943
 2896SOL    HW1 9587   2.042   5.565   0.968
 2896SOL    HW2 9588   2.160   5.497   0.878
 2897SOL     OW 9589   1.677   6.587   3.726
 2897SOL    HW1 9590   1.580   6.609   3.740
 2897SOL    HW2 9591   1.733   6.651   3.779
 2898SOL     OW 9592   2.897   5.169   2.205
 2898SOL    HW1 9593   2.954   5.099   2.247
 2898SOL    HW2 9594   2.953   5.247   2.178
 2899SOL     OW 9595   6.260   0.441   6.917
 2899SOL    HW1 9596   6.230   0.407   7.006
 2899SOL    HW2 9597   6.180   0.465   6.862
 2900SOL     OW 9598   2.397   5.449   6.070
 2900SOL    HW1 9599   2.430   5.536   6.107
 2900SOL    HW2 9600   2.322   5.465   6.006
 2901SOL     OW 9601   2.894   0.808   1.662
 2901SOL    HW1 9602   2.801   0.820   1.628
 2901SOL    HW2 9603   2.951   0.884   1.631
 2902SOL     OW 9604   5.610   5.746   1.656
 2902SOL    HW1 9605   5.571   5.769   1.566
 2902SOL    HW2 9606   5.682   5.677   1.644
 2903SOL     OW 9607   2.610   2.106   2.208
 2903SOL    HW1 9608   2.677   2.167   2.251
 2903SOL    HW2 9609   2.598   2.131   2.112
 2904SOL     OW 9610   1.892   3.290   4.933
 2904SOL    HW1 9611   1.871   3.248   5.021
 2904SOL    HW2 9612   1.979   3.340   4.940
 2905SOL     OW 9613   1.227   2.603   1.378
 2905SOL    HW1 9614   1.214   2.662   1.299
 2905SOL    HW2 9615   1.175   2.518   1.366
 2906SOL     OW 9616   5.461   5.910   2.059
 2906SOL    HW1 9617   5.365   5.927   2.036
 2906SOL    HW2 9618   5.466   5.864   2.148
 2907SOL     OW 9619   6.787   0.678   3.980
 2907SOL    HW1 9620   6.817   0.771   3.959
 2907SOL    HW2 9621   6.742   0.639   3.899
 2908SOL     OW 9622   4.330   6.238   4.522
 2908SOL    HW1 9623   4.262   6.310   4.512
 2908SOL    HW2 9624   4.421   6.280   4.534
 2909SOL     OW 9625   2.116   5.733   4.851
 2909SOL    HW1 9626   2.023   5.755   4.881
 2909SOL    HW2 9627   2.181   5.790   4.900
 2910SOL     OW 9628   5.395   6.272   5.744
 2910SOL    HW1 9629   5.337   6.213   5.688
 2910SOL    HW2 9630   5.358   6.365   5.745
 2911SOL     OW 9631   1.673   4.322   3.491
 2911SOL    HW1 9632   1.637   4.242   3.444
 2911SOL    HW2 9633   1.661   4.311   3.590
 2912SOL     OW 9634   2.965   5.722   0.574
 2912SOL    HW1 9635   3.007   5.665   0.503
 2912SOL    HW2 9636   3.032   5.788   0.608
 2913SOL     OW 9637   0.650   2.637   2.758
 2913SOL    HW1 9638   0.728   2.681   2.803
 2913SOL    HW2 9639   0.566   2.658   2.810
 2914SOL     OW 9640   5.001   5.430   5.514
 2914SOL    HW1 9641   5.076   5.411   5.451
 2914SOL    HW2 9642   5.027   5.403   5.607
 2915SOL     OW 9643   4.469   1.388   4.265
 2915SOL    HW1 9644   4.450   1.384   4.363
 2915SOL    HW2 9645   4.413   1.459   4.223
 2916SOL     OW 9646   5.111   5.887   4.398
 2916SOL    HW1 9647   5.200   5.893   4.443
 2916SOL    HW2 9648   5.103   5.799   4.350
 2917SOL     OW 9649   4.486   1.322   2.776
 2917SOL    HW1 9650   4.549   1.369   2.715
 2917SOL    HW2 9651   4.421   1.268   2.722
 2918SOL     OW 9652   0.065   3.924   3.681
 2918SOL    HW1 9653   6.997   3.897   3.647
 2918SOL    HW2 9654   0.078   4.022   3.667
 2919SOL     OW 9655   6.732   6.006   0.128
 2919SOL    HW1 9656   6.728   5.946   0.209
 2919SOL    HW2 9657   6.826   6.040   0.118
 2920SOL     OW 9658   4.332   2.383   3.139
 2920SOL    HW1 9659   4.402   2.425   3.197
 2920SOL    HW2 9660   4.249   2.368   3.193
 2921SOL     OW 9661   0.664   0.415   1.875
 2921SOL    HW1 9662   0.730   0.345   1.846
 2921SOL    HW2 9663   0.689   0.448   1.966
 2922SOL     OW 9664   4.135   6.917   5.580
 2922SOL    HW1 9665   4.120   6.994   5.642
 2922SOL    HW2 9666   4.046   6.883   5.547
 2923SOL     OW 9667   6.558   4.215   1.154
 2923SOL    HW1 9668   6.605   4.136   1.193
 2923SOL    HW2 9669   6.567   4.293   1.216
 2924SOL     OW 9670   5.782   0.676   5.622
 2924SOL    HW1 9671   5.730   0.742   5.677
 2924SOL    HW2 9672   5.879   0.687   5.640
 2925SOL     OW 9673   5.599   4.072   1.212
 2925SOL    HW1 9674   5.605   4.133   1.133
 2925SOL    HW2 9675   5.513   4.022   1.209
 2926SOL     OW 9676   0.127   1.381   4.654
 2926SOL    HW1 9677   0.157   1.339   4.568
 2926SOL    HW2 9678   0.103   1.309   4.720
 2927SOL     OW 9679   0.678   2.460   2.562
 2927SOL    HW1 9680   0.624   2.379   2.587
 2927SOL    HW2 9681   0.675   2.526   2.638
 2928SOL     OW 9682   5.905   6.447   0.559
 2928SOL    HW1 9683   5.897   6.399   0.472
 2928SOL    HW2 9684   5.973   6.401   0.616
 2929SOL     OW 9685   0.912   6.908   6.006
 2929SOL    HW1 9686   0.888   6.964   5.927
 2929SOL    HW2 9687   1.009   6.920   6.026
 2930SOL     OW 9688   3.770   6.652   4.479
 2930SOL    HW1 9689   3.832   6.727   4.502
 2930SOL    HW2 9690   3.702   6.685   4.412
 2931SOL     OW 9691   3.984   5.751   6.379
 2931SOL    HW1 9692   3.953   5.846   6.368
 2931SOL    HW2 9693   4.043   5.745   6.460
 2932SOL     OW 9694   1.268   4.423   1.919
 2932SOL    HW1 9695   1.294   4.381   2.006
 2932SOL    HW2 9696   1.188   4.377   1.882
 2933SOL     OW 9697   4.905   1.581   3.778
 2933SOL    HW1 9698   4.941   1.621   3.693
 2933SOL    HW2 9699   4.981   1.565   3.841
 2934SOL     OW 9700   2.878   0.558   0.153
 2934SOL    HW1 9701   2.920   0.631   0.207
 2934SOL    HW2 9702   2.789   0.535   0.193
 2935SOL     OW 9703   6.185   2.021   1.334
 2935SOL    HW1 9704   6.213   2.056   1.245
 2935SOL    HW2 9705   6.260   2.030   1.399
 2936SOL     OW 9706   4.018   6.245   0.712
 2936SOL    HW1 9707   4.074   6.273   0.634
 2936SOL    HW2 9708   4.007   6.145   0.709
 2937SOL     OW 9709   3.131   4.433   0.955
 2937SOL    HW1 9710   3.055   4.493   0.932
 2937SOL    HW2 9711   3.110   4.383   1.039
 2938SOL     OW 9712   4.757   5.338   5.528
 2938SOL    HW1 9713   4.715   5.338   5.437
 2938SOL    HW2 9714   4.850   5.374   5.522
 2939SOL     OW 9715   0.128   6.226   5.643
 2939SOL    HW1 9716   0.157   6.187   5.556
 2939SOL    HW2 9717   0.068   6.304   5.627
 2940SOL     OW 9718   4.152   0.518   5.549
 2940SOL    HW1 9719   4.201   0.599   5.581
 2940SOL    HW2 9720   4.133   0.528   5.451
 2941SOL     OW 9721   2.487   1.806   5.346
 2941SOL    HW1 9722   2.448   1.716   5.328
 2941SOL    HW2 9723   2.562   1.797   5.411
 2942SOL     OW 9724   4.114   6.511   4.252
 2942SOL    HW1 9725   4.203   6.510   4.206
 2942SOL    HW2 9726   4.041   6.517   4.184
 2943SOL     OW 9727   5.748   4.164   3.189
 2943SOL    HW1 9728   5.717   4.103   3.262
 2943SOL    HW2 9729   5.717   4.128   3.101
 2944SOL     OW 9730   3.486   6.013   6.074
 2944SOL    HW1 9731   3.576   6.031   6.114
 2944SOL    HW2 9732   3.439   5.944   6.127
 2945SOL     OW 9733   3.106   3.061   3.562
 2945SOL    HW1 9734   3.186   3.121   3.562
 2945SOL    HW2 9735   3.079   3.041   3.656
 2946SOL     OW 9736   6.727   5.949   5.938
 2946SOL    HW1 9737   6.653   5.907   5.886
 2946SOL    HW2 9738   6.814   5.934   5.890
 2947SOL     OW 9739   6.987   4.906   0.179
 2947SOL    HW1 9740   0.028   4.976   0.147
 2947SOL    HW2 9741   0.016   4.824   0.206
 2948SOL     OW 9742   6.420   4.731   4.959
 2948SOL    HW1 9743   6.485   4.748   4.885
 2948SOL    HW2 9744   6.332   4.773   4.937
 2949SOL     OW 9745   1.239   6.243   0.578
 2949SOL    HW1 9746   1.328   6.274   0.544
 2949SOL    HW2 9747   1.175   6.234   0.502
 2950SOL     OW 9748   5.462   3.549   4.471
 2950SOL    HW1 9749   5.475   3.530   4.568
 2950SOL    HW2 9750   5.552   3.564   4.428
 2951SOL     OW 9751   6.469   1.012   1.798
 2951SOL    HW1 9752   6.446   0.994   1.702
 2951SOL    HW2 9753   6.568   1.008   1.810
 2952SOL     OW 9754   1.591   3.638   1.981
 2952SOL    HW1 9755   1.575   3.731   2.016
 2952SOL    HW2 9756   1.689   3.624   1.969
 2953SOL     OW 9757   5.820   0.513   3.101
 2953SOL    HW1 9758   5.735   0.566   3.111
 2953SOL    HW2 9759   5.837   0.495   3.004
 2954SOL     OW 9760   5.969   6.393   1.803
 2954SOL    HW1 9761   5.932   6.341   1.727
 2954SOL    HW2 9762   5.941   6.489   1.794
 2955SOL     OW 9763   6.418   3.112   0.671
 2955SOL    HW1 9764   6.436   3.180   0.743
 2955SOL    HW2 9765   6.441   3.151   0.582
 2956SOL     OW 9766   6.490   5.608   2.491
 2956SOL    HW1 9767   6.446   5.686   2.446
 2956SOL    HW2 9768   6.553   5.642   2.561
 2957SOL     OW 9769   0.745   3.614   1.270
 2957SOL    HW1 9770   0.788   3.550   1.334
 2957SOL    HW2 9771   0.814   3.676   1.233
 2958SOL     OW 9772   2.503   5.046   6.204
 2958SOL    HW1 9773   2.574   5.005   6.261
 2958SOL    HW2 9774   2.529   5.039   6.108
 2959SOL     OW 9775   4.393   5.517   7.019
 2959SOL    HW1 9776   4.443   5.596   0.034
 2959SOL    HW2 9777   4.324   5.548   6.954
 2960SOL     OW 9778   2.354   1.960   6.853
 2960SOL    HW1 9779   2.262   1.985   6.822
 2960SOL    HW2 9780   2.401   2.042   6.887
 2961SOL     OW 9781   5.339   2.806   4.561
 2961SOL    HW1 9782   5.307   2.794   4.655
 2961SOL    HW2 9783   5.429   2.766   4.551
 2962SOL     OW 9784   3.853   1.023   4.102
 2962SOL    HW1 9785   3.794   1.048   4.026
 2962SOL    HW2 9786   3.834   0.928   4.128
 2963SOL     OW 9787   1.890   2.754   5.012
 2963SOL    HW1 9788   1.793   2.745   5.034
 2963SOL    HW2 9789   1.940   2.675   5.047
 2964SOL     OW 9790   3.143   5.948   0.367
 2964SOL    HW1 9791   3.163   5.963   0.464
 2964SOL    HW2 9792   3.156   5.851   0.345
 2965SOL     OW 9793   0.682   2.649   5.914
 2965SOL    HW1 9794   0.691   2.677   6.010
 2965SOL    HW2 9795   0.749   2.578   5.894
 2966SOL     OW 9796   4.498   4.505   3.717
 2966SOL    HW1 9797   4.412   4.543   3.751
 2966SOL    HW2 9798   4.514   4.539   3.624
 2967SOL     OW 9799   5.878   1.663   4.049
 2967SOL    HW1 9800   5.894   1.618   3.962
 2967SOL    HW2 9801   5.831   1.750   4.034
 2968SOL     OW 9802   6.809   3.885   3.688
 2968SOL    HW1 9803   6.722   3.883   3.738
 2968SOL    HW2 9804   6.805   3.954   3.616
 2969SOL     OW 9805   4.662   1.352   5.120
 2969SOL    HW1 9806   4.613   1.434   5.090
 2969SOL    HW2 9807   4.713   1.313   5.043
 2970SOL     OW 9808   1.026   4.534   6.452
 2970SOL    HW1 9809   1.002   4.451   6.503
 2970SOL    HW2 9810   1.117   4.522   6.411
 2971SOL     OW 9811   4.946   3.354   3.452
 2971SOL    HW1 9812   4.936   3.270   3.506
 2971SOL    HW2 9813   4.955   3.432   3.513
 2972SOL     OW 9814   0.378   4.196   6.146
 2972SOL    HW1 9815   0.451   4.169   6.083
 2972SOL    HW2 9816   0.356   4.120   6.206
 2973SOL     OW 9817   5.479   5.977   4.390
 2973SOL    HW1 9818   5.432   5.959   4.477
 2973SOL    HW2 9819   5.501   6.074   4.384
 2974SOL     OW 9820   0.329   3.750   2.209
 2974SOL    HW1 9821   0.348   3.751   2.111
 2974SOL    HW2 9822   0.284   3.665   2.234
 2975SOL     OW 9823   0.208   1.024   4.685
 2975SOL    HW1 9824   0.206   1.019   4.585
 2975SOL    HW2 9825   0.123   1.066   4.718
 2976SOL     OW 9826   3.350   6.859   1.887
 2976SOL    HW1 9827   3.420   6.792   1.913
 2976SOL    HW2 9828   3.394   6.946   1.866
 2977SOL     OW 9829   3.642   6.653   4.235
 2977SOL    HW1 9830   3.585   6.615   4.162
 2977SOL    HW2 9831   3.601   6.738   4.267
 2978SOL     OW 9832   4.268   6.387   0.092
 2978SOL    HW1 9833   4.217   6.344   0.166
 2978SOL    HW2 9834   4.219   6.468   0.061
 2979SOL     OW 9835   2.962   0.789   3.624
 2979SOL    HW1 9836   2.939   0.886   3.635
 2979SOL    HW2 9837   2.908   0.734   3.687
 2980SOL     OW 9838   6.912   6.098   3.911
 2980SOL    HW1 9839   6.848   6.042   3.963
 2980SOL    HW2 9840   6.993   6.045   3.889
 2981SOL     OW 9841   1.898   1.272   5.453
 2981SOL    HW1 9842   1.908   1.370   5.471
 2981SOL    HW2 9843   1.810   1.256   5.408
 2982SOL     OW 9844   4.608   0.228   3.309
 2982SOL    HW1 9845   4.511   0.215   3.287
 2982SOL    HW2 9846   4.652   0.138   3.320
 2983SOL     OW 9847   6.430   0.396   3.202
 2983SOL    HW1 9848   6.497   0.323   3.189
 2983SOL    HW2 9849   6.366   0.370   3.274
 2984SOL     OW 9850   5.087   4.643   1.877
 2984SOL    HW1 9851   5.051   4.714   1.817
 2984SOL    HW2 9852   5.117   4.685   1.963
 2985SOL     OW 9853   6.415   2.355   3.073
 2985SOL    HW1 9854   6.504   2.358   3.118
 2985SOL    HW2 9855   6.421   2.303   2.988
 2986SOL     OW 9856   2.168   3.959   5.270
 2986SOL    HW1 9857   2.236   3.987   5.203
 2986SOL    HW2 9858   2.086   3.927   5.223
 2987SOL     OW 9859   4.501   2.581   4.896
 2987SOL    HW1 9860   4.579   2.533   4.935
 2987SOL    HW2 9861   4.428   2.587   4.964
 2988SOL     OW 9862   0.735   0.411   2.371
 2988SOL    HW1 9863   0.687   0.326   2.345
 2988SOL    HW2 9864   0.710   0.436   2.464
 2989SOL     OW 9865   6.366   5.111   0.883
 2989SOL    HW1 9866   6.346   5.028   0.831
 2989SOL    HW2 9867   6.367   5.190   0.821
 2990SOL     OW 9868   3.656   0.221   1.047
 2990SOL    HW1 9869   3.602   0.305   1.052
 2990SOL    HW2 9870   3.727   0.222   1.118
 2991SOL     OW 9871   6.368   4.775   0.527
 2991SOL    HW1 9872   6.462   4.799   0.503
 2991SOL    HW2 9873   6.326   4.850   0.578
 2992SOL     OW 9874   4.327   4.355   6.439
 2992SOL    HW1 9875   4.402   4.417   6.459
 2992SOL    HW2 9876   4.243   4.408   6.426
 2993SOL     OW 9877   1.928   5.427   0.397
 2993SOL    HW1 9878   1.858   5.395   0.461
 2993SOL    HW2 9879   1.935   5.527   0.403
 2994SOL     OW 9880   4.320   6.801   0.117
 2994SOL    HW1 9881   4.362   6.820   0.206
 2994SOL    HW2 9882   4.247   6.733   0.129
 2995SOL     OW 9883   2.916   1.191   5.816
 2995SOL    HW1 9884   2.851   1.261   5.786
 2995SOL    HW2 9885   2.944   1.135   5.738
 2996SOL     OW 9886   3.897   5.730   5.923
 2996SOL    HW1 9887   3.832   5.805   5.913
 2996SOL    HW2 9888   3.931   5.728   6.017
 2997SOL     OW 9889   5.300   6.790   0.263
 2997SOL    HW1 9890   5.247   6.821   0.342
 2997SOL    HW2 9891   5.365   6.719   0.293
 2998SOL     OW 9892   6.650   5.743   5.217
 2998SOL    HW1 9893   6.648   5.825   5.274
 2998SOL    HW2 9894   6.734   5.692   5.234
 2999SOL     OW 9895   3.243   6.464   2.454
 2999SOL    HW1 9896   3.227   6.482   2.551
 2999SOL    HW2 9897   3.267   6.368   2.442
 3000SOL     OW 9898   1.927   2.953   4.798
 3000SOL    HW1 9899   1.991   3.026   4.820
 3000SOL    HW2 9900   1.905   2.901   4.881
 3001SOL     OW 9901   4.418   0.341   6.115
 3001SOL    HW1 9902   4.348   0.382   6.173
 3001SOL    HW2 9903   4.388   0.340   6.020
 3002SOL     OW 9904   3.816   0.065   5.606
 3002SOL    HW1 9905   3.879   0.141   5.617
 3002SOL    HW2 9906   3.866   7.006   5.576
 3003SOL     OW 9907   2.495   0.147   6.365
 3003SOL    HW1 9908   2.570   0.084   6.386
 3003SOL    HW2 9909   2.508   0.184   6.273
 3004SOL     OW 9910   6.516   3.506   4.812
 3004SOL    HW1 9911   6.557   3.582   4.861
 3004SOL    HW2 9912   6.473   3.540   4.728
 3005SOL     OW 9913   4.489   2.502   1.607
 3005SOL    HW1 9914   4.473   2.601   1.604
 3005SOL    HW2 9915   4.550   2.477   1.532
 3006SOL     OW 9916   5.492   0.576   1.516
 3006SOL    HW1 9917   5.581   0.548   1.480
 3006SOL    HW2 9918   5.505   0.627   1.601
 3007SOL     OW 9919   6.459   5.719   2.023
 3007SOL    HW1 9920   6.440   5.770   1.939
 3007SOL    HW2 9921   6.388   5.650   2.037
 3008SOL     OW 9922   4.064   5.394   5.817
 3008SOL    HW1 9923   4.019   5.479   5.787
 3008SOL    HW2 9924   4.000   5.318   5.807
 3009SOL     OW 9925   1.140   1.222   3.140
 3009SOL    HW1 9926   1.081   1.181   3.071
 3009SOL    HW2 9927   1.225   1.253   3.098
 3010SOL     OW 9928   3.707   0.062   2.060
 3010SOL    HW1 9929   3.612   0.091   2.071
 3010SOL    HW2 9930   3.748   0.046   2.149
 3011SOL     OW 9931   5.197   0.690   6.617
 3011SOL    HW1 9932   5.245   0.696   6.529
 3011SOL    HW2 9933   5.263   0.695   6.692
 3012SOL     OW 9934   6.923   4.507   2.207
 3012SOL    HW1 9935   6.955   4.414   2.223
 3012SOL    HW2 9936   6.830   4.517   2.242
 3013SOL     OW 9937   5.706   4.557   2.184
 3013SOL    HW1 9938   5.790   4.553   2.129
 3013SOL    HW2 9939   5.661   4.469   2.182
 3014SOL     OW 9940   4.808   1.251   4.909
 3014SOL    HW1 9941   4.831   1.169   4.961
 3014SOL    HW2 9942   4.853   1.248   4.820
 3015SOL     OW 9943   3.046   2.579   6.686
 3015SOL    HW1 9944   2.951   2.606   6.669
 3015SOL    HW2 9945   3.101   2.598   6.604
 3016SOL     OW 9946   3.656   6.110   3.298
 3016SOL    HW1 9947   3.670   6.204   3.329
 3016SOL    HW2 9948   3.615   6.111   3.206
 3017SOL     OW 9949   6.983   5.810   1.266
 3017SOL    HW1 9950   0.011   5.809   1.352
 3017SOL    HW2 9951   6.916   5.736   1.266
 3018SOL     OW 9952   3.585   6.805   6.319
 3018SOL    HW1 9953   3.654   6.877   6.320
 3018SOL    HW2 9954   3.628   6.716   6.327
 3019SOL     OW 9955   5.273   0.321   2.097
 3019SOL    HW1 9956   5.205   0.359   2.034
 3019SOL    HW2 9957   5.359   0.369   2.086
 3020SOL     OW 9958   1.363   1.785   0.812
 3020SOL    HW1 9959   1.291   1.854   0.805
 3020SOL    HW2 9960   1.321   1.694   0.813
 3021SOL     OW 9961   3.410   0.933   6.501
 3021SOL    HW1 9962   3.355   0.861   6.458
 3021SOL    HW2 9963   3.422   1.009   6.437
 3022SOL     OW 9964   4.925   6.967   2.982
 3022SOL    HW1 9965   4.945   0.043   2.988
 3022SOL    HW2 9966   4.966   6.920   3.060
 3023SOL     OW 9967   5.764   6.816   2.075
 3023SOL    HW1 9968   5.730   6.891   2.018
 3023SOL    HW2 9969   5.819   6.852   2.150
 3024SOL     OW 9970   3.024   6.151   6.856
 3024SOL    HW1 9971   2.994   6.068   6.809
 3024SOL    HW2 9972   3.101   6.130   6.915
 3025SOL     OW 9973   1.647   2.465   1.698
 3025SOL    HW1 9974   1.680   2.377   1.733
 3025SOL    HW2 9975   1.712   2.537   1.721
 3026SOL     OW 9976   2.102   4.524   1.194
 3026SOL    HW1 9977   2.139   4.433   1.175
 3026SOL    HW2 9978   2.003   4.519   1.199
 3027SOL     OW 9979   1.231   1.947   3.956
 3027SOL    HW1 9980   1.282   1.900   4.028
 3027SOL    HW2 9981   1.143   1.901   3.943
 3028SOL     OW 9982   1.786   0.268   4.668
 3028SOL    HW1 9983   1.690   0.248   4.650
 3028SOL    HW2 9984   1.792   0.345   4.731
 3029SOL     OW 9985   5.137   6.758   5.601
 3029SOL    HW1 9986   5.085   6.687   5.647
 3029SOL    HW2 9987   5.174   6.822   5.669
 3030SOL     OW 9988   1.369   2.217   5.982
 3030SOL    HW1 9989   1.356   2.306   6.025
 3030SOL    HW2 9990   1.400   2.230   5.888
 3031SOL     OW 9991   1.594   4.803   6.973
 3031SOL    HW1 9992   1.603   4.856   0.035
 3031SOL    HW2 9993   1.643   4.716   6.983
 3032SOL     OW 9994   4.637   0.466   5.985
 3032SOL    HW1 9995   4.678   0.376   5.975
 3032SOL    HW2 9996   4.561   0.462   6.049
 3033SOL     OW 9997   5.089   4.474   6.401
 3033SOL    HW1 9998   5.043   4.488   6.489
 3033SOL    HW2 9999   5.105   4.377   6.386
 3034SOL     OW10000   2.292   0.048   4.428
 3034SOL    HW110001   2.254   6.995   4.375
 3034SOL    HW210002   2.229   0.071   4.503
 3035SOL     OW10003   6.632   7.017   6.868
 3035SOL    HW110004   6.732   7.013   6.859
 3035SOL    HW210005   6.608   0.040   6.954
 3036SOL     OW10006   1.412   4.686   6.479
 3036SOL    HW110007   1.468   4.690   6.562
 3036SOL    HW210008   1.442   4.757   6.415
 3037SOL     OW10009   6.489   6.310   5.475
 3037SOL    HW110010   6.559   6.292   5.406
 3037SOL    HW210011   6.491   6.407   5.501
 3038SOL     OW10012   5.864   0.143   5.771
 3038SOL    HW110013   5.815   0.218   5.726
 3038SOL    HW210014   5.854   0.060   5.716
 3039SOL     OW10015   0.607   5.220   0.637
 3039SOL    HW110016   0.652   5.262   0.716
 3039SOL    HW210017   0.658   5.138   0.609
 3040SOL     OW10018   2.664   2.855   6.658
 3040SOL    HW110019   2.567   2.843   6.639
 3040SOL    HW210020   2.708   2.903   6.582
 3041SOL     OW10021   1.727   2.097   5.992
 3041SOL    HW110022   1.668   2.174   5.968
 3041SOL    HW210023   1.823   2.125   5.988
 3042SOL     OW10024   4.668   0.438   1.795
 3042SOL    HW110025   4.568   0.442   1.783
 3042SOL    HW210026   4.699   0.521   1.842
 3043SOL     OW10027   0.255   5.300   0.628
 3043SOL    HW110028   0.275   5.225   0.565
 3043SOL    HW210029   0.184   5.271   0.693
 3044SOL     OW10030   3.265   3.803   6.287
 3044SOL    HW110031   3.300   3.716   6.323
 3044SOL    HW210032   3.259   3.798   6.188
 3045SOL     OW10033   5.424   2.089   3.489
 3045SOL    HW110034   5.464   1.997   3.480
 3045SOL    HW210035   5.431   2.137   3.402
 3046SOL     OW10036   2.080   2.345   5.723
 3046SOL    HW110037   2.157   2.324   5.664
 3046SOL    HW210038   1.996   2.347   5.669
 3047SOL     OW10039   6.684   4.563   2.319
 3047SOL    HW110040   6.656   4.482   2.370
 3047SOL    HW210041   6.609   4.592   2.258
 3048SOL     OW10042   3.234   2.613   1.690
 3048SOL    HW110043   3.315   2.558   1.711
 3048SOL    HW210044   3.152   2.560   1.708
 3049SOL     OW10045   0.988   0.405   2.272
 3049SOL    HW110046   0.991   0.341   2.195
 3049SOL    HW210047   0.896   0.406   2.310
 3050SOL     OW10048   3.943   5.268   3.778
 3050SOL    HW110049   4.009   5.195   3.795
 3050SOL    HW210050   3.962   5.344   3.841
 3051SOL     OW10051   2.690   4.317   6.032
 3051SOL    HW110052   2.649   4.230   6.061
 3051SOL    HW210053   2.776   4.331   6.082
 3052SOL     OW10054   4.307   7.008   3.019
 3052SOL    HW110055   4.252   6.932   3.053
 3052SOL    HW210056   4.254   0.037   2.951
 3053SOL     OW10057   5.002   6.630   0.422
 3053SOL    HW110058   5.069   6.563   0.390
 3053SOL    HW210059   5.016   6.646   0.520
 3054SOL     OW10060   1.824   3.518   6.400
 3054SOL    HW110061   1.885   3.566   6.463
 3054SOL    HW210062   1.838   3.419   6.408
 3055SOL     OW10063   6.220   6.094   2.971
 3055SOL    HW110064   6.303   6.059   3.013
 3055SOL    HW210065   6.204   6.188   3.002
 3056SOL     OW10066   6.659   0.931   1.042
 3056SOL    HW110067   6.674   0.851   1.101
 3056SOL    HW210068   6.561   0.944   1.027
 3057SOL     OW10069   6.238   5.761   2.657
 3057SOL    HW110070   6.278   5.670   2.643
 3057SOL    HW210071   6.139   5.753   2.666
 3058SOL     OW10072   6.475   4.603   1.499
 3058SOL    HW110073   6.438   4.686   1.460
 3058SOL    HW210074   6.575   4.603   1.488
 3059SOL     OW10075   1.889   2.697   4.724
 3059SOL    HW110076   1.878   2.787   4.768
 3059SOL    HW210077   1.798   2.659   4.704
 3060SOL     OW10078   6.836   6.891   0.765
 3060SOL    HW110079   6.814   6.988   0.776
 3060SOL    HW210080   6.790   6.855   0.684
 3061SOL     OW10081   6.996   0.433   5.734
 3061SOL    HW110082   6.916   0.488   5.709
 3061SOL    HW210083   6.985   0.340   5.700
 3062SOL     OW10084   2.758   6.216   6.498
 3062SOL    HW110085   2.746   6.218   6.399
 3062SOL    HW210086   2.843   6.264   6.522
 3063SOL     OW10087   1.644   5.216   1.022
 3063SOL    HW110088   1.656   5.293   0.959
 3063SOL    HW210089   1.734   5.179   1.047
 3064SOL     OW10090   6.625   4.318   2.859
 3064SOL    HW110091   6.675   4.278   2.936
 3064SOL    HW210092   6.686   4.380   2.809
 3065SOL     OW10093   1.973   0.864   0.738
 3065SOL    HW110094   1.892   0.905   0.781
 3065SOL    HW210095   1.989   0.774   0.777
 3066SOL     OW10096   6.029   5.043   1.327
 3066SOL    HW110097   6.023   5.116   1.395
 3066SOL    HW210098   6.091   5.070   1.254
 3067SOL     OW10099   5.155   6.723   3.550
 3067SOL    HW110100   5.088   6.669   3.601
 3067SOL    HW210101   5.178   6.806   3.601
 3068SOL     OW10102   5.908   5.026   0.436
 3068SOL    HW110103   5.921   5.014   0.338
 3068SOL    HW210104   5.846   5.102   0.453
 3069SOL     OW10105   1.035   5.813   3.325
 3069SOL    HW110106   1.043   5.764   3.412
 3069SOL    HW210107   0.940   5.811   3.295
 3070SOL     OW10108   4.116   1.556   4.425
 3070SOL    HW110109   4.034   1.506   4.398
 3070SOL    HW210110   4.178   1.563   4.347
 3071SOL     OW10111   5.883   6.552   3.637
 3071SOL    HW110112   5.978   6.550   3.670
 3071SOL    HW210113   5.862   6.465   3.593
 3072SOL     OW10114   0.222   6.989   2.476
 3072SOL    HW110115   0.171   6.904   2.490
 3072SOL    HW210116   0.179   0.040   2.529
 3073SOL     OW10117   1.403   3.657   4.745
 3073SOL    HW110118   1.436   3.634   4.653
 3073SOL    HW210119   1.480   3.670   4.806
 3074SOL     OW10120   5.255   3.152   5.982
 3074SOL    HW110121   5.331   3.093   5.955
 3074SOL    HW210122   5.173   3.098   5.996
 3075SOL     OW10123   1.638   5.504   1.886
 3075SOL    HW110124   1.617   5.522   1.790
 3075SOL    HW210125   1.553   5.498   1.939
 3076SOL     OW10126   0.199   0.378   4.924
 3076SOL    HW110127   0.218   0.304   4.859
 3076SOL    HW210128   0.153   0.340   5.004
 3077SOL     OW10129   4.939   4.698   4.034
 3077SOL    HW110130   4.980   4.608   4.049
 3077SOL    HW210131   4.959   4.727   3.940
 3078SOL     OW10132   2.330   2.951   1.156
 3078SOL    HW110133   2.339   2.869   1.212
 3078SOL    HW210134   2.244   2.948   1.106
 3079SOL     OW10135   6.245   2.737   5.811
 3079SOL    HW110136   6.177   2.681   5.764
 3079SOL    HW210137   6.226   2.834   5.793
 3080SOL     OW10138   6.368   5.815   0.573
 3080SOL    HW110139   6.354   5.728   0.525
 3080SOL    HW210140   6.310   5.886   0.532
 3081SOL     OW10141   6.629   4.735   5.570
 3081SOL    HW110142   6.555   4.719   5.635
 3081SOL    HW210143   6.591   4.760   5.481
 3082SOL     OW10144   2.591   6.911   2.684
 3082SOL    HW110145   2.554   6.864   2.604
 3082SOL    HW210146   2.557   7.004   2.687
 3083SOL     OW10147   3.321   0.682   2.164
 3083SOL    HW110148   3.413   0.655   2.192
 3083SOL    HW210149   3.296   0.633   2.081
 3084SOL     OW10150   5.033   6.595   5.001
 3084SOL    HW110151   5.038   6.512   4.947
 3084SOL    HW210152   4.975   6.580   5.082
 3085SOL     OW10153   0.725   5.683   1.647
 3085SOL    HW110154   0.800   5.738   1.684
 3085SOL    HW210155   0.638   5.718   1.681
 3086SOL     OW10156   5.317   1.026   3.916
 3086SOL    HW110157   5.283   1.100   3.859
 3086SOL    HW210158   5.391   0.978   3.868
 3087SOL     OW10159   5.989   3.230   3.163
 3087SOL    HW110160   6.066   3.197   3.218
 3087SOL    HW210161   5.907   3.234   3.220
 3088SOL     OW10162   3.303   4.500   5.994
 3088SOL    HW110163   3.281   4.407   6.025
 3088SOL    HW210164   3.224   4.559   6.007
 3089SOL     OW10165   1.499   2.411   0.612
 3089SOL    HW110166   1.484   2.331   0.671
 3089SOL    HW210167   1.504   2.493   0.669
 3090SOL     OW10168   0.882   1.414   1.127
 3090SOL    HW110169   0.822   1.488   1.157
 3090SOL    HW210170   0.917   1.365   1.206
 3091SOL     OW10171   2.355   6.887   0.658
 3091SOL    HW110172   2.311   6.821   0.718
 3091SOL    HW210173   2.443   6.915   0.697
 3092SOL     OW10174   4.351   6.382   0.907
 3092SOL    HW110175   4.289   6.304   0.893
 3092SOL    HW210176   4.384   6.414   0.819
 3093SOL     OW10177   5.308   6.105   4.022
 3093SOL    HW110178   5.317   6.163   4.103
 3093SOL    HW210179   5.396   6.097   3.976
 3094SOL     OW10180   3.165   5.566   5.463
 3094SOL    HW110181   3.227   5.535   5.391
 3094SOL    HW210182   3.071   5.566   5.428
 3095SOL     OW10183   3.052   4.861   4.934
 3095SOL    HW110184   3.049   4.762   4.938
 3095SOL    HW210185   2.968   4.895   4.891
 3096SOL     OW10186   0.869   0.788   5.543
 3096SOL    HW110187   0.775   0.780   5.577
 3096SOL    HW210188   0.926   0.833   5.612
 3097SOL     OW10189   1.263   3.044   0.211
 3097SOL    HW110190   1.352   3.072   0.175
 3097SOL    HW210191   1.254   2.944   0.205
 3098SOL     OW10192   3.758   2.130   0.234
 3098SOL    HW110193   3.740   2.164   0.142
 3098SOL    HW210194   3.737   2.032   0.238
 3099SOL     OW10195   1.278   6.130   4.949
 3099SOL    HW110196   1.332   6.078   5.016
 3099SOL    HW210197   1.181   6.107   4.960
 3100SOL     OW10198   6.763   6.794   0.503
 3100SOL    HW110199   6.691   6.735   0.465
 3100SOL    HW210200   6.821   6.828   0.430
 3101SOL     OW10201   4.408   0.073   0.496
 3101SOL    HW110202   4.315   0.080   0.530
 3101SOL    HW210203   4.468   0.038   0.568
 3102SOL     OW10204   1.686   4.875   1.106
 3102SOL    HW110205   1.737   4.933   1.169
 3102SOL    HW210206   1.596   4.854   1.146
 3103SOL     OW10207   3.475   3.496   2.363
 3103SOL    HW110208   3.529   3.450   2.434
 3103SOL    HW210209   3.488   3.595   2.371
 3104SOL     OW10210   6.696   5.193   3.449
 3104SOL    HW110211   6.744   5.274   3.414
 3104SOL    HW210212   6.602   5.217   3.471
 3105SOL     OW10213   6.421   6.245   3.916
 3105SOL    HW110214   6.460   6.223   3.827
 3105SOL    HW210215   6.444   6.339   3.940
 3106SOL     OW10216   6.952   2.977   4.248
 3106SOL    HW110217   6.956   3.041   4.324
 3106SOL    HW210218   6.859   2.974   4.212
 3107SOL     OW10219   3.013   0.027   4.035
 3107SOL    HW110220   3.008   0.060   4.129
 3107SOL    HW210221   3.087   6.982   4.028
 3108SOL     OW10222   3.268   0.342   3.303
 3108SOL    HW110223   3.176   0.324   3.268
 3108SOL    HW210224   3.316   0.256   3.320
 3109SOL     OW10225   4.871   5.944   3.019
 3109SOL    HW110226   4.869   6.037   3.057
 3109SOL    HW210227   4.924   5.945   2.934
 3110SOL     OW10228   0.512   3.006   2.354
 3110SOL    HW110229   0.450   3.080   2.377
 3110SOL    HW210230   0.514   2.993   2.254
 3111SOL     OW10231   6.545   4.604   3.447
 3111SOL    HW110232   6.500   4.630   3.361
 3111SOL    HW210233   6.621   4.666   3.465
 3112SOL     OW10234   3.539   3.568   6.658
 3112SOL    HW110235   3.470   3.500   6.683
 3112SOL    HW210236   3.628   3.524   6.649
 3113SOL     OW10237   3.496   0.220   3.722
 3113SOL    HW110238   3.525   0.312   3.697
 3113SOL    HW210239   3.458   0.173   3.642
 3114SOL     OW10240   5.535   5.799   0.792
 3114SOL    HW110241   5.536   5.837   0.700
 3114SOL    HW210242   5.623   5.756   0.812
 3115SOL     OW10243   2.749   3.660   1.389
 3115SOL    HW110244   2.749   3.565   1.360
 3115SOL    HW210245   2.761   3.720   1.310
 3116SOL     OW10246   0.008   1.743   0.115
 3116SOL    HW110247   0.087   1.796   0.146
 3116SOL    HW210248   6.947   1.794   0.135
 3117SOL     OW10249   3.965   4.050   4.977
 3117SOL    HW110250   4.050   4.015   4.937
 3117SOL    HW210251   3.973   4.051   5.077
 3118SOL     OW10252   6.043   4.919   0.138
 3118SOL    HW110253   6.107   4.923   0.061
 3118SOL    HW210254   6.079   4.858   0.208
 3119SOL     OW10255   1.812   4.717   5.526
 3119SOL    HW110256   1.883   4.699   5.594
 3119SOL    HW210257   1.802   4.637   5.466
 3120SOL     OW10258   3.394   5.859   4.936
 3120SOL    HW110259   3.400   5.767   4.976
 3120SOL    HW210260   3.395   5.852   4.836
 3121SOL     OW10261   0.610   6.532   2.518
 3121SOL    HW110262   0.694   6.585   2.516
 3121SOL    HW210263   0.531   6.593   2.520
 3122SOL     OW10264   3.239   5.322   0.871
 3122SOL    HW110265   3.235   5.226   0.843
 3122SOL    HW210266   3.157   5.346   0.922
 3123SOL     OW10267   4.135   6.768   4.687
 3123SOL    HW110268   4.203   6.707   4.728
 3123SOL    HW210269   4.117   6.739   4.593
 3124SOL     OW10270   3.729   7.002   5.912
 3124SOL    HW110271   3.752   6.918   5.961
 3124SOL    HW210272   3.726   6.984   5.814
 3125SOL     OW10273   6.972   1.686   6.042
 3125SOL    HW110274   0.033   1.706   5.991
 3125SOL    HW210275   6.987   1.706   6.139
 3126SOL     OW10276   4.083   6.258   0.253
 3126SOL    HW110277   4.106   6.162   0.264
 3126SOL    HW210278   4.084   6.303   0.343
 3127SOL     OW10279   0.558   1.538   3.772
 3127SOL    HW110280   0.532   1.585   3.688
 3127SOL    HW210281   0.610   1.600   3.831
 3128SOL     OW10282   1.488   1.353   0.313
 3128SOL    HW110283   1.426   1.432   0.306
 3128SOL    HW210284   1.436   1.273   0.343
 3129SOL     OW10285   1.094   3.025   4.520
 3129SOL    HW110286   1.145   2.964   4.459
 3129SOL    HW210287   1.039   2.971   4.583
 3130SOL     OW10288   1.880   5.759   2.874
 3130SOL    HW110289   1.888   5.814   2.957
 3130SOL    HW210290   1.923   5.807   2.798
 3131SOL     OW10291   6.928   3.265   3.431
 3131SOL    HW110292   6.904   3.209   3.511
 3131SOL    HW210293   6.885   3.227   3.350
 3132SOL     OW10294   5.088   6.345   5.287
 3132SOL    HW110295   5.041   6.429   5.313
 3132SOL    HW210296   5.021   6.274   5.266
 3133SOL     OW10297   2.937   1.841   3.289
 3133SOL    HW110298   3.021   1.862   3.239
 3133SOL    HW210299   2.876   1.921   3.287
 3134SOL     OW10300   5.063   3.151   2.644
 3134SOL    HW110301   5.032   3.110   2.558
 3134SOL    HW210302   5.159   3.180   2.634
 3135SOL     OW10303   3.453   1.684   3.474
 3135SOL    HW110304   3.467   1.710   3.379
 3135SOL    HW210305   3.452   1.766   3.532
 3136SOL     OW10306   6.008   6.473   5.172
 3136SOL    HW110307   6.026   6.414   5.251
 3136SOL    HW210308   6.021   6.569   5.199
 3137SOL     OW10309   6.544   1.418   4.566
 3137SOL    HW110310   6.452   1.394   4.596
 3137SOL    HW210311   6.609   1.348   4.596
 3138SOL     OW10312   5.046   1.766   5.071
 3138SOL    HW110313   5.100   1.685   5.048
 3138SOL    HW210314   5.041   1.776   5.170
 3139SOL     OW10315   4.827   6.131   5.329
 3139SOL    HW110316   4.734   6.109   5.357
 3139SOL    HW210317   4.878   6.047   5.312
 3140SOL     OW10318   6.350   6.661   6.766
 3140SOL    HW110319   6.393   6.751   6.774
 3140SOL    HW210320   6.419   6.589   6.775
 3141SOL     OW10321   0.708   5.183   0.257
 3141SOL    HW110322   0.759   5.128   0.323
 3141SOL    HW210323   0.636   5.234   0.304
 3142SOL     OW10324   3.738   6.748   6.831
 3142SOL    HW110325   3.687   6.728   6.747
 3142SOL    HW210326   3.771   6.842   6.827
 3143SOL     OW10327   0.220   1.693   0.957
 3143SOL    HW110328   0.152   1.636   1.002
 3143SOL    HW210329   0.255   1.761   1.022
 3144SOL     OW10330   1.676   3.790   6.513
 3144SOL    HW110331   1.639   3.713   6.461
 3144SOL    HW210332   1.666   3.874   6.461
 3145SOL     OW10333   3.878   6.794   3.937
 3145SOL    HW110334   3.887   6.714   3.996
 3145SOL    HW210335   3.822   6.770   3.858
 3146SOL     OW10336   2.244   0.650   3.985
 3146SOL    HW110337   2.262   0.748   3.987
 3146SOL    HW210338   2.317   0.603   3.935
 3147SOL     OW10339   3.855   3.861   0.318
 3147SOL    HW110340   3.866   3.831   0.223
 3147SOL    HW210341   3.909   3.802   0.378
 3148SOL     OW10342   3.789   5.865   4.906
 3148SOL    HW110343   3.740   5.927   4.846
 3148SOL    HW210344   3.747   5.865   4.997
 3149SOL     OW10345   3.434   6.428   5.500
 3149SOL    HW110346   3.417   6.372   5.419
 3149SOL    HW210347   3.520   6.477   5.489
 3150SOL     OW10348   6.191   0.092   4.387
 3150SOL    HW110349   6.274   0.051   4.348
 3150SOL    HW210350   6.167   0.174   4.334
 3151SOL     OW10351   3.611   0.624   6.933
 3151SOL    HW110352   3.563   0.541   6.962
 3151SOL    HW210353   3.706   0.602   6.913
 3152SOL     OW10354   1.656   4.992   0.512
 3152SOL    HW110355   1.740   4.994   0.457
 3152SOL    HW210356   1.600   4.913   0.485
 3153SOL     OW10357   0.162   4.705   2.469
 3153SOL    HW110358   0.224   4.627   2.480
 3153SOL    HW210359   0.129   4.709   2.375
 3154SOL     OW10360   5.628   2.059   6.698
 3154SOL    HW110361   5.568   1.984   6.669
 3154SOL    HW210362   5.574   2.142   6.710
 3155SOL     OW10363   4.907   6.066   0.278
 3155SOL    HW110364   4.874   5.994   0.340
 3155SOL    HW210365   4.842   6.078   0.204
 3156SOL     OW10366   3.375   3.775   3.499
 3156SOL    HW110367   3.289   3.809   3.462
 3156SOL    HW210368   3.385   3.807   3.594
 3157SOL     OW10369   2.257   2.861   4.662
 3157SOL    HW110370   2.305   2.835   4.746
 3157SOL    HW210371   2.301   2.818   4.583
 3158SOL     OW10372   4.659   6.201   1.038
 3158SOL    HW110373   4.684   6.264   0.965
 3158SOL    HW210374   4.573   6.155   1.014
 3159SOL     OW10375   5.735   4.642   1.093
 3159SOL    HW110376   5.773   4.733   1.104
 3159SOL    HW210377   5.721   4.600   1.183
 3160SOL     OW10378   5.594   4.718   0.084
 3160SOL    HW110379   5.640   4.640   0.042
 3160SOL    HW210380   5.602   4.713   0.183
 3161SOL     OW10381   0.885   1.755   2.611
 3161SOL    HW110382   0.858   1.829   2.674
 3161SOL    HW210383   0.853   1.668   2.648
 3162SOL     OW10384   6.352   6.415   6.477
 3162SOL    HW110385   6.359   6.318   6.499
 3162SOL    HW210386   6.349   6.428   6.378
 3163SOL     OW10387   2.771   4.225   5.425
 3163SOL    HW110388   2.846   4.167   5.394
 3163SOL    HW210389   2.764   4.305   5.366
 3164SOL     OW10390   5.631   5.473   6.321
 3164SOL    HW110391   5.670   5.531   6.249
 3164SOL    HW210392   5.577   5.400   6.279
 3165SOL     OW10393   0.129   2.674   1.534
 3165SOL    HW110394   0.165   2.619   1.458
 3165SOL    HW210395   0.034   2.698   1.516
 3166SOL     OW10396   5.872   2.870   6.439
 3166SOL    HW110397   5.855   2.966   6.458
 3166SOL    HW210398   5.793   2.831   6.391
 3167SOL     OW10399   0.990   4.191   2.936
 3167SOL    HW110400   0.927   4.156   2.867
 3167SOL    HW210401   0.964   4.284   2.961
 3168SOL     OW10402   5.250   2.891   0.880
 3168SOL    HW110403   5.245   2.893   0.781
 3168SOL    HW210404   5.172   2.840   0.916
 3169SOL     OW10405   1.395   1.887   4.864
 3169SOL    HW110406   1.489   1.916   4.880
 3169SOL    HW210407   1.387   1.789   4.881
 3170SOL     OW10408   4.474   0.658   6.229
 3170SOL    HW110409   4.503   0.713   6.307
 3170SOL    HW210410   4.386   0.691   6.196
 3171SOL     OW10411   6.015   6.906   3.436
 3171SOL    HW110412   6.066   6.826   3.466
 3171SOL    HW210413   6.077   6.971   3.393
 3172SOL     OW10414   6.136   0.332   6.109
 3172SOL    HW110415   6.120   0.409   6.047
 3172SOL    HW210416   6.172   0.254   6.057
 3173SOL     OW10417   1.690   1.664   1.445
 3173SOL    HW110418   1.757   1.734   1.421
 3173SOL    HW210419   1.599   1.694   1.413
 3174SOL     OW10420   1.780   4.417   5.802
 3174SOL    HW110421   1.727   4.387   5.723
 3174SOL    HW210422   1.743   4.374   5.885
 3175SOL     OW10423   0.190   5.907   1.086
 3175SOL    HW110424   0.183   5.999   1.048
 3175SOL    HW210425   0.109   5.888   1.143
 3176SOL     OW10426   1.630   5.382   6.323
 3176SOL    HW110427   1.574   5.450   6.370
 3176SOL    HW210428   1.572   5.329   6.261
 3177SOL     OW10429   6.956   6.759   4.482
 3177SOL    HW110430   7.012   6.840   4.461
 3177SOL    HW210431   6.921   6.765   4.575
 3178SOL     OW10432   1.636   3.200   0.900
 3178SOL    HW110433   1.639   3.276   0.966
 3178SOL    HW210434   1.593   3.232   0.815
 3179SOL     OW10435   1.157   2.239   3.227
 3179SOL    HW110436   1.076   2.209   3.177
 3179SOL    HW210437   1.238   2.194   3.190
 3180SOL     OW10438   5.382   1.216   5.917
 3180SOL    HW110439   5.288   1.209   5.882
 3180SOL    HW210440   5.437   1.269   5.852
 3181SOL     OW10441   0.376   1.861   3.073
 3181SOL    HW110442   0.404   1.767   3.090
 3181SOL    HW210443   0.458   1.919   3.064
 3182SOL     OW10444   1.693   4.640   5.143
 3182SOL    HW110445   1.636   4.711   5.184
 3182SOL    HW210446   1.697   4.652   5.044
 3183SOL     OW10447   4.202   3.309   1.414
 3183SOL    HW110448   4.298   3.312   1.384
 3183SOL    HW210449   4.157   3.229   1.374
 3184SOL     OW10450   2.940   1.349   3.175
 3184SOL    HW110451   2.942   1.267   3.118
 3184SOL    HW210452   2.869   1.411   3.143
 3185SOL     OW10453   0.430   6.631   5.799
 3185SOL    HW110454   0.472   6.550   5.758
 3185SOL    HW210455   0.496   6.674   5.861
 3186SOL     OW10456   3.230   0.481   1.970
 3186SOL    HW110457   3.164   0.441   2.035
 3186SOL    HW210458   3.181   0.533   1.901
 3187SOL     OW10459   2.965   4.480   6.946
 3187SOL    HW110460   2.994   4.524   6.861
 3187SOL    HW210461   3.036   4.491   7.015
 3188SOL     OW10462   4.738   0.455   3.298
 3188SOL    HW110463   4.829   0.457   3.258
 3188SOL    HW210464   4.694   0.367   3.276
 3189SOL     OW10465   0.365   0.113   1.655
 3189SOL    HW110466   0.298   0.074   1.591
 3189SOL    HW210467   0.423   0.178   1.606
 3190SOL     OW10468   0.744   6.811   1.155
 3190SOL    HW110469   0.796   6.727   1.172
 3190SOL    HW210470   0.660   6.809   1.209
 3191SOL     OW10471   3.492   0.489   1.162
 3191SOL    HW110472   3.474   0.435   1.244
 3191SOL    HW210473   3.425   0.467   1.092
 3192SOL     OW10474   5.976   2.310   3.795
 3192SOL    HW110475   6.020   2.392   3.833
 3192SOL    HW210476   5.882   2.305   3.828
 3193SOL     OW10477   4.808   4.223   0.036
 3193SOL    HW110478   4.837   4.198   6.966
 3193SOL    HW210479   4.877   4.282   0.078
 3194SOL     OW10480   1.444   4.848   5.798
 3194SOL    HW110481   1.518   4.911   5.778
 3194SOL    HW210482   1.436   4.781   5.724
 3195SOL     OW10483   0.661   3.848   2.898
 3195SOL    HW110484   0.592   3.787   2.857
 3195SOL    HW210485   0.641   3.859   2.995
 3196SOL     OW10486   0.563   6.330   5.441
 3196SOL    HW110487   0.490   6.391   5.410
 3196SOL    HW210488   0.576   6.258   5.373
 3197SOL     OW10489   1.006   3.868   4.351
 3197SOL    HW110490   1.089   3.854   4.404
 3197SOL    HW210491   1.028   3.919   4.268
 3198SOL     OW10492   5.588   0.730   7.016
 3198SOL    HW110493   5.602   0.814   0.045
 3198SOL    HW210494   5.564   0.656   0.057
 3199SOL     OW10495   3.651   2.077   2.667
 3199SOL    HW110496   3.750   2.077   2.653
 3199SOL    HW210497   3.605   2.103   2.583
 3200SOL     OW10498   6.864   2.022   0.745
 3200SOL    HW110499   6.934   2.052   0.682
 3200SOL    HW210500   6.790   1.977   0.695
 3201SOL     OW10501   4.467   4.522   3.143
 3201SOL    HW110502   4.503   4.596   3.200
 3201SOL    HW210503   4.416   4.560   3.066
 3202SOL     OW10504   1.710   5.723   2.223
 3202SOL    HW110505   1.694   5.739   2.125
 3202SOL    HW210506   1.637   5.664   2.259
 3203SOL     OW10507   5.908   0.010   1.578
 3203SOL    HW110508   5.861   0.062   1.649
 3203SOL    HW210509   5.846   7.016   1.501
 3204SOL     OW10510   6.410   6.074   1.645
 3204SOL    HW110511   6.320   6.116   1.636
 3204SOL    HW210512   6.476   6.123   1.587
 3205SOL     OW10513   1.168   3.809   2.994
 3205SOL    HW110514   1.227   3.754   2.935
 3205SOL    HW210515   1.177   3.906   2.968
 3206SOL     OW10516   1.616   6.606   0.053
 3206SOL    HW110517   1.553   6.608   0.131
 3206SOL    HW210518   1.593   6.680   7.012
 3207SOL     OW10519   0.793   1.312   3.061
 3207SOL    HW110520   0.744   1.284   3.143
 3207SOL    HW210521   0.755   1.398   3.027
 3208SOL     OW10522   6.036   0.521   5.192
 3208SOL    HW110523   6.083   0.501   5.277
 3208SOL    HW210524   6.056   0.616   5.165
 3209SOL     OW10525   2.696   0.191   2.905
 3209SOL    HW110526   2.790   0.156   2.900
 3209SOL    HW210527   2.632   0.114   2.904
 3210SOL     OW10528   0.473   4.836   3.091
 3210SOL    HW110529   0.517   4.794   3.012
 3210SOL    HW210530   0.379   4.860   3.067
 3211SOL     OW10531   0.658   4.299   2.905
 3211SOL    HW110532   0.739   4.340   2.947
 3211SOL    HW210533   0.684   4.214   2.859
 3212SOL     OW10534   5.094   3.213   4.955
 3212SOL    HW110535   5.060   3.187   5.046
 3212SOL    HW210536   5.020   3.257   4.903
 3213SOL     OW10537   5.163   6.701   1.324
 3213SOL    HW110538   5.177   6.661   1.414
 3213SOL    HW210539   5.074   6.671   1.288
 3214SOL     OW10540   4.181   4.193   6.003
 3214SOL    HW110541   4.230   4.106   6.002
 3214SOL    HW210542   4.141   4.208   6.093
 3215SOL     OW10543   6.045   1.087   0.414
 3215SOL    HW110544   6.000   1.002   0.441
 3215SOL    HW210545   6.138   1.089   0.451
 3216SOL     OW10546   6.157   6.723   4.708
 3216SOL    HW110547   6.173   6.789   4.782
 3216SOL    HW210548   6.178   6.631   4.741
 3217SOL     OW10549   7.015   3.983   0.594
 3217SOL    HW110550   6.935   4.035   0.562
 3217SOL    HW210551   0.031   3.931   0.517
 3218SOL     OW10552   3.654   1.079   1.905
 3218SOL    HW110553   3.571   1.046   1.860
 3218SOL    HW210554   3.633   1.161   1.958
 3219SOL     OW10555   6.588   6.742   4.188
 3219SOL    HW110556   6.574   6.769   4.283
 3219SOL    HW210557   6.682   6.710   4.176
 3220SOL     OW10558   6.310   2.982   6.098
 3220SOL    HW110559   6.289   3.024   6.010
 3220SOL    HW210560   6.284   2.885   6.096
 3221SOL     OW10561   4.075   0.224   2.555
 3221SOL    HW110562   4.123   0.305   2.523
 3221SOL    HW210563   4.001   0.202   2.491
 3222SOL     OW10564   5.982   3.809   2.336
 3222SOL    HW110565   5.893   3.814   2.290
 3222SOL    HW210566   5.983   3.875   2.412
 3223SOL     OW10567   2.449   4.793   4.143
 3223SOL    HW110568   2.480   4.717   4.085
 3223SOL    HW210569   2.352   4.779   4.166
 3224SOL     OW10570   3.712   6.027   1.462
 3224SOL    HW110571   3.725   5.976   1.547
 3224SOL    HW210572   3.686   5.964   1.389
 3225SOL     OW10573   2.289   2.253   0.899
 3225SOL    HW110574   2.310   2.346   0.932
 3225SOL    HW210575   2.193   2.233   0.915
 3226SOL     OW10576   0.217   1.218   4.427
 3226SOL    HW110577   0.301   1.181   4.387
 3226SOL    HW210578   0.138   1.181   4.377
 3227SOL     OW10579   2.290   1.915   5.561
 3227SOL    HW110580   2.298   1.979   5.485
 3227SOL    HW210581   2.310   1.822   5.528
 3228SOL     OW10582   4.908   3.354   4.564
 3228SOL    HW110583   4.895   3.256   4.579
 3228SOL    HW210584   4.918   3.371   4.466
 3229SOL     OW10585   3.933   1.877   5.157
 3229SOL    HW110586   3.991   1.799   5.134
 3229SOL    HW210587   3.949   1.951   5.091
 3230SOL     OW10588   1.449   0.589   3.905
 3230SOL    HW110589   1.396   0.617   3.985
 3230SOL    HW210590   1.538   0.634   3.907
 3231SOL     OW10591   4.945   5.472   0.330
 3231SOL    HW110592   5.005   5.551   0.315
 3231SOL    HW210593   4.999   5.393   0.355
 3232SOL     OW10594   2.457   4.440   3.261
 3232SOL    HW110595   2.389   4.513   3.260
 3232SOL    HW210596   2.451   4.387   3.176
 3233SOL     OW10597   1.798   3.673   1.083
 3233SOL    HW110598   1.708   3.702   1.116
 3233SOL    HW210599   1.865   3.745   1.102
 3234SOL     OW10600   6.577   2.055   4.706
 3234SOL    HW110601   6.625   2.097   4.628
 3234SOL    HW210602   6.508   1.990   4.671
 3235SOL     OW10603   5.216   0.811   2.501
 3235SOL    HW110604   5.242   0.727   2.452
 3235SOL    HW210605   5.237   0.801   2.598
 3236SOL     OW10606   0.250   2.862   1.689
 3236SOL    HW110607   0.278   2.932   1.623
 3236SOL    HW210608   0.213   2.783   1.640
 3237SOL     OW10609   2.815   6.484   4.624
 3237SOL    HW110610   2.738   6.548   4.617
 3237SOL    HW210611   2.809   6.416   4.551
 3238SOL     OW10612   5.789   6.450   6.488
 3238SOL    HW110613   5.774   6.537   6.441
 3238SOL    HW210614   5.778   6.375   6.423
 3239SOL     OW10615   0.698   5.285   5.766
 3239SOL    HW110616   0.697   5.380   5.797
 3239SOL    HW210617   0.792   5.254   5.756
 3240SOL     OW10618   0.250   2.036   5.274
 3240SOL    HW110619   0.185   2.073   5.208
 3240SOL    HW210620   0.245   2.088   5.360
 3241SOL     OW10621   5.078   0.336   5.595
 3241SOL    HW110622   5.026   0.261   5.636
 3241SOL    HW210623   5.095   0.407   5.664
 3242SOL     OW10624   3.302   6.364   0.305
 3242SOL    HW110625   3.333   6.404   0.391
 3242SOL    HW210626   3.209   6.395   0.285
 3243SOL     OW10627   3.710   5.465   0.533
 3243SOL    HW110628   3.668   5.488   0.621
 3243SOL    HW210629   3.807   5.490   0.535
 3244SOL     OW10630   1.590   6.005   5.372
 3244SOL    HW110631   1.544   6.084   5.412
 3244SOL    HW210632   1.676   6.035   5.330
 3245SOL     OW10633   2.626   2.061   5.497
 3245SOL    HW110634   2.609   1.963   5.486
 3245SOL    HW210635   2.553   2.102   5.551
 3246SOL     OW10636   5.458   6.329   3.464
 3246SOL    HW110637   5.521   6.266   3.419
 3246SOL    HW210638   5.436   6.405   3.402
 3247SOL     OW10639   6.849   1.813   5.593
 3247SOL    HW110640   6.767   1.843   5.545
 3247SOL    HW210641   6.823   1.768   5.679
 3248SOL     OW10642   5.251   4.064   2.820
 3248SOL    HW110643   5.348   4.077   2.800
 3248SOL    HW210644   5.197   4.095   2.742
 3249SOL     OW10645   3.141   4.247   5.250
 3249SOL    HW110646   3.093   4.169   5.289
 3249SOL    HW210647   3.076   4.320   5.229
 3250SOL     OW10648   4.747   5.534   1.520
 3250SOL    HW110649   4.663   5.508   1.472
 3250SOL    HW210650   4.744   5.632   1.540
 3251SOL     OW10651   3.299   0.986   3.810
 3251SOL    HW110652   3.317   0.946   3.900
 3251SOL    HW210653   3.254   0.917   3.753
 3252SOL     OW10654   3.232   2.107   3.867
 3252SOL    HW110655   3.242   2.020   3.915
 3252SOL    HW210656   3.147   2.151   3.896
 3253SOL     OW10657   4.471   3.947   1.098
 3253SOL    HW110658   4.566   3.977   1.094
 3253SOL    HW210659   4.464   3.862   1.150
 3254SOL     OW10660   5.530   4.407   2.694
 3254SOL    HW110661   5.556   4.487   2.748
 3254SOL    HW210662   5.432   4.412   2.673
 3255SOL     OW10663   4.363   4.728   1.030
 3255SOL    HW110664   4.419   4.709   1.111
 3255SOL    HW210665   4.406   4.684   0.951
 3256SOL     OW10666   6.479   6.117   5.709
 3256SOL    HW110667   6.505   6.026   5.742
 3256SOL    HW210668   6.478   6.116   5.609
 3257SOL     OW10669   2.346   1.901   1.149
 3257SOL    HW110670   2.304   1.985   1.113
 3257SOL    HW210671   2.445   1.912   1.152
 3258SOL     OW10672   5.240   6.576   1.682
 3258SOL    HW110673   5.279   6.542   1.767
 3258SOL    HW210674   5.266   6.672   1.669
 3259SOL     OW10675   6.217   6.381   3.088
 3259SOL    HW110676   6.215   6.463   3.030
 3259SOL    HW210677   6.309   6.369   3.124
 3260SOL     OW10678   1.534   2.643   0.857
 3260SOL    HW110679   1.634   2.642   0.863
 3260SOL    HW210680   1.495   2.589   0.931
 3261SOL     OW10681   4.204   0.305   3.637
 3261SOL    HW110682   4.302   0.319   3.650
 3261SOL    HW210683   4.183   0.307   3.539
 3262SOL     OW10684   3.869   1.442   4.368
 3262SOL    HW110685   3.787   1.438   4.311
 3262SOL    HW210686   3.880   1.355   4.416
 3263SOL     OW10687   3.385   5.300   2.842
 3263SOL    HW110688   3.311   5.246   2.880
 3263SOL    HW210689   3.363   5.397   2.849
 3264SOL     OW10690   4.895   4.613   5.549
 3264SOL    HW110691   4.892   4.682   5.477
 3264SOL    HW210692   4.978   4.557   5.539
 3265SOL     OW10693   5.186   0.464   6.439
 3265SOL    HW110694   5.172   0.527   6.514
 3265SOL    HW210695   5.171   0.511   6.352
 3266SOL     OW10696   0.853   2.585   0.272
 3266SOL    HW110697   0.928   2.642   0.306
 3266SOL    HW210698   0.872   2.489   0.292
 3267SOL     OW10699   4.950   2.703   1.983
 3267SOL    HW110700   5.045   2.686   2.008
 3267SOL    HW210701   4.941   2.794   1.942
 3268SOL     OW10702   1.951   4.609   6.925
 3268SOL    HW110703   1.858   4.607   6.963
 3268SOL    HW210704   1.962   4.691   6.868
 3269SOL     OW10705   4.665   3.682   1.002
 3269SOL    HW110706   4.653   3.656   1.098
 3269SOL    HW210707   4.745   3.740   0.992
 3270SOL     OW10708   0.448   5.349   4.083
 3270SOL    HW110709   0.545   5.361   4.065
 3270SOL    HW210710   0.435   5.281   4.155
 3271SOL     OW10711   4.837   0.648   1.863
 3271SOL    HW110712   4.884   0.657   1.951
 3271SOL    HW210713   4.901   0.615   1.794
 3272SOL     OW10714   4.999   7.015   6.988
 3272SOL    HW110715   4.938   6.957   6.934
 3272SOL    HW210716   4.971   7.013   0.061
 3273SOL     OW10717   1.244   0.900   3.023
 3273SOL    HW110718   1.337   0.867   3.039
 3273SOL    HW210719   1.182   0.861   3.091
 3274SOL     OW10720   2.808   1.859   6.879
 3274SOL    HW110721   2.892   1.805   6.883
 3274SOL    HW210722   2.778   1.868   6.784
 3275SOL     OW10723   4.206   0.776   0.431
 3275SOL    HW110724   4.110   0.770   0.404
 3275SOL    HW210725   4.252   0.846   0.376
 3276SOL     OW10726   2.315   6.167   0.215
 3276SOL    HW110727   2.265   6.100   0.271
 3276SOL    HW210728   2.256   6.198   0.141
 3277SOL     OW10729   0.395   5.503   5.993
 3277SOL    HW110730   0.388   5.513   5.894
 3277SOL    HW210731   0.393   5.593   6.037
 3278SOL     OW10732   0.988   0.975   0.793
 3278SOL    HW110733   1.049   1.053   0.805
 3278SOL    HW210734   0.922   0.972   0.868
 3279SOL     OW10735   2.244   5.883   1.455
 3279SOL    HW110736   2.230   5.978   1.428
 3279SOL    HW210737   2.165   5.851   1.507
 3280SOL     OW10738   3.046   6.179   4.265
 3280SOL    HW110739   3.021   6.155   4.171
 3280SOL    HW210740   2.966   6.173   4.324
 3281SOL     OW10741   2.841   6.312   0.664
 3281SOL    HW110742   2.831   6.248   0.740
 3281SOL    HW210743   2.790   6.278   0.585
 3282SOL     OW10744   2.186   6.239   2.588
 3282SOL    HW110745   2.222   6.163   2.641
 3282SOL    HW210746   2.254   6.268   2.520
 3283SOL     OW10747   2.193   0.294   4.216
 3283SOL    HW110748   2.287   0.270   4.237
 3283SOL    HW210749   2.131   0.228   4.259
 3284SOL     OW10750   1.004   5.082   5.977
 3284SOL    HW110751   1.023   4.984   5.967
 3284SOL    HW210752   1.088   5.129   6.005
 3285SOL     OW10753   0.119   2.637   4.756
 3285SOL    HW110754   0.072   2.720   4.726
 3285SOL    HW210755   0.108   2.625   4.854
 3286SOL     OW10756   4.331   4.849   5.951
 3286SOL    HW110757   4.247   4.843   5.897
 3286SOL    HW210758   4.394   4.777   5.922
 3287SOL     OW10759   0.373   3.907   1.593
 3287SOL    HW110760   0.417   3.822   1.565
 3287SOL    HW210761   0.346   3.960   1.512
 3288SOL     OW10762   1.091   6.413   6.138
 3288SOL    HW110763   1.087   6.314   6.152
 3288SOL    HW210764   1.180   6.448   6.168
 3289SOL     OW10765   1.293   5.359   4.483
 3289SOL    HW110766   1.220   5.315   4.432
 3289SOL    HW210767   1.381   5.321   4.455
 3290SOL     OW10768   7.016   4.350   3.284
 3290SOL    HW110769   6.962   4.376   3.205
 3290SOL    HW210770   6.983   4.398   3.365
 3291SOL     OW10771   1.524   0.528   1.705
 3291SOL    HW110772   1.611   0.497   1.668
 3291SOL    HW210773   1.478   0.588   1.639
 3292SOL     OW10774   0.107   5.222   4.939
 3292SOL    HW110775   0.094   5.313   4.979
 3292SOL    HW210776   0.046   5.211   4.861
 3293SOL     OW10777   5.770   0.704   2.475
 3293SOL    HW110778   5.843   0.636   2.462
 3293SOL    HW210779   5.698   0.665   2.533
 3294SOL     OW10780   0.956   6.659   0.837
 3294SOL    HW110781   0.882   6.701   0.785
 3294SOL    HW210782   0.968   6.564   0.809
 3295SOL     OW10783   1.620   2.287   6.432
 3295SOL    HW110784   1.699   2.277   6.372
 3295SOL    HW210785   1.544   2.233   6.396
 3296SOL     OW10786   1.033   6.700   2.123
 3296SOL    HW110787   1.116   6.691   2.068
 3296SOL    HW210788   0.962   6.746   2.069
 3297SOL     OW10789   2.853   1.559   6.318
 3297SOL    HW110790   2.895   1.543   6.407
 3297SOL    HW210791   2.856   1.475   6.264
 3298SOL     OW10792   6.496   4.129   2.702
 3298SOL    HW110793   6.569   4.184   2.743
 3298SOL    HW210794   6.465   4.061   2.768
 3299SOL     OW10795   0.678   0.948   4.947
 3299SOL    HW110796   0.645   1.041   4.961
 3299SOL    HW210797   0.770   0.939   4.985
 3300SOL     OW10798   0.092   6.881   4.936
 3300SOL    HW110799   0.013   6.938   4.916
 3300SOL    HW210800   0.070   6.785   4.918
 3301SOL     OW10801   6.839   3.710   2.459
 3301SOL    HW110802   6.866   3.619   2.492
 3301SOL    HW210803   6.889   3.780   2.510
 3302SOL     OW10804   1.222   5.768   5.301
 3302SOL    HW110805   1.122   5.770   5.313
 3302SOL    HW210806   1.264   5.725   5.381
 3303SOL     OW10807   3.110   3.533   3.508
 3303SOL    HW110808   3.196   3.515   3.461
 3303SOL    HW210809   3.128   3.594   3.586
 3304SOL     OW10810   1.649   1.153   3.001
 3304SOL    HW110811   1.588   1.200   2.936
 3304SOL    HW210812   1.606   1.068   3.031
 3305SOL     OW10813   0.350   2.393   0.674
 3305SOL    HW110814   0.450   2.399   0.678
 3305SOL    HW210815   0.313   2.473   0.625
 3306SOL     OW10816   1.274   3.557   2.193
 3306SOL    HW110817   1.361   3.515   2.219
 3306SOL    HW210818   1.282   3.657   2.200
 3307SOL     OW10819   0.584   0.150   0.423
 3307SOL    HW110820   0.594   0.244   0.393
 3307SOL    HW210821   0.498   0.139   0.473
 3308SOL     OW10822   5.447   6.475   0.621
 3308SOL    HW110823   5.380   6.425   0.675
 3308SOL    HW210824   5.539   6.458   0.658
 3309SOL     OW10825   1.483   5.597   2.322
 3309SOL    HW110826   1.468   5.522   2.258
 3309SOL    HW210827   1.490   5.561   2.415
 3310SOL     OW10828   1.328   6.873   1.599
 3310SOL    HW110829   1.273   6.934   1.656
 3310SOL    HW210830   1.388   6.819   1.658
 3311SOL     OW10831   4.075   6.328   1.099
 3311SOL    HW110832   4.143   6.399   1.119
 3311SOL    HW210833   4.019   6.356   1.021
 3312SOL     OW10834   2.286   3.136   0.212
 3312SOL    HW110835   2.199   3.179   0.189
 3312SOL    HW210836   2.360   3.202   0.197
 3313SOL     OW10837   6.349   6.131   4.973
 3313SOL    HW110838   6.312   6.051   5.019
 3313SOL    HW210839   6.324   6.213   5.025
 3314SOL     OW10840   0.778   4.126   6.527
 3314SOL    HW110841   0.680   4.142   6.516
 3314SOL    HW210842   0.806   4.048   6.472
 3315SOL     OW10843   6.262   3.599   3.533
 3315SOL    HW110844   6.298   3.683   3.492
 3315SOL    HW210845   6.224   3.540   3.462
 3316SOL     OW10846   4.018   1.724   0.419
 3316SOL    HW110847   4.095   1.667   0.450
 3316SOL    HW210848   3.993   1.787   0.492
 3317SOL     OW10849   4.103   2.656   1.587
 3317SOL    HW110850   4.165   2.729   1.615
 3317SOL    HW210851   4.133   2.618   1.499
 3318SOL     OW10852   2.803   5.250   5.488
 3318SOL    HW110853   2.723   5.251   5.429
 3318SOL    HW210854   2.852   5.164   5.477
 3319SOL     OW10855   6.831   6.553   6.707
 3319SOL    HW110856   6.740   6.551   6.665
 3319SOL    HW210857   6.824   6.525   6.803
 3320SOL     OW10858   0.549   0.410   0.319
 3320SOL    HW110859   0.553   0.480   0.247
 3320SOL    HW210860   0.477   0.432   0.384
 3321SOL     OW10861   4.038   3.201   4.160
 3321SOL    HW110862   3.992   3.186   4.072
 3321SOL    HW210863   4.136   3.212   4.144
 3322SOL     OW10864   4.097   2.267   1.925
 3322SOL    HW110865   4.017   2.213   1.897
 3322SOL    HW210866   4.094   2.356   1.878
 3323SOL     OW10867   2.523   4.454   0.121
 3323SOL    HW110868   2.537   4.507   0.038
 3323SOL    HW210869   2.518   4.357   0.099
 3324SOL     OW10870   6.037   3.077   2.014
 3324SOL    HW110871   6.029   3.006   1.944
 3324SOL    HW210872   5.973   3.058   2.089
 3325SOL     OW10873   1.194   4.218   6.353
 3325SOL    HW110874   1.270   4.262   6.400
 3325SOL    HW210875   1.153   4.281   6.287
 3326SOL     OW10876   6.175   0.952   1.745
 3326SOL    HW110877   6.156   1.017   1.819
 3326SOL    HW210878   6.167   0.999   1.657
 3327SOL     OW10879   4.180   5.875   1.519
 3327SOL    HW110880   4.246   5.821   1.572
 3327SOL    HW210881   4.218   5.895   1.429
 3328SOL     OW10882   6.171   0.086   4.025
 3328SOL    HW110883   6.178   0.152   4.099
 3328SOL    HW210884   6.079   0.087   3.987
 3329SOL     OW10885   5.026   1.005   6.456
 3329SOL    HW110886   5.089   1.065   6.408
 3329SOL    HW210887   5.063   0.982   6.546
 3330SOL     OW10888   6.952   6.366   3.398
 3330SOL    HW110889   6.905   6.428   3.461
 3330SOL    HW210890   6.998   6.420   3.327
 3331SOL     OW10891   1.611   3.800   2.992
 3331SOL    HW110892   1.664   3.777   3.074
 3331SOL    HW210893   1.598   3.717   2.937
 3332SOL     OW10894   3.520   5.474   0.043
 3332SOL    HW110895   3.548   5.468   0.139
 3332SOL    HW210896   3.425   5.445   0.034
 3333SOL     OW10897   2.277   3.319   1.517
 3333SOL    HW110898   2.240   3.353   1.603
 3333SOL    HW210899   2.268   3.219   1.514
 3334SOL     OW10900   1.379   2.524   1.826
 3334SOL    HW110901   1.306   2.575   1.780
 3334SOL    HW210902   1.465   2.536   1.776
 3335SOL     OW10903   3.341   4.063   5.087
 3335SOL    HW110904   3.335   4.154   5.127
 3335SOL    HW210905   3.261   4.046   5.029
 3336SOL     OW10906   4.320   5.978   5.006
 3336SOL    HW110907   4.248   5.927   4.959
 3336SOL    HW210908   4.281   6.053   5.059
 3337SOL     OW10909   3.799   3.015   3.326
 3337SOL    HW110910   3.834   3.064   3.247
 3337SOL    HW210911   3.728   2.951   3.297
 3338SOL     OW10912   2.990   2.950   1.337
 3338SOL    HW110913   3.054   2.896   1.392
 3338SOL    HW210914   3.009   2.934   1.240
 3339SOL     OW10915   1.112   0.226   6.783
 3339SOL    HW110916   1.104   0.273   6.695
 3339SOL    HW210917   1.203   0.188   6.793
 3340SOL     OW10918   3.712   1.313   5.737
 3340SOL    HW110919   3.752   1.227   5.767
 3340SOL    HW210920   3.784   1.376   5.709
 3341SOL     OW10921   0.885   4.368   1.568
 3341SOL    HW110922   0.955   4.430   1.532
 3341SOL    HW210923   0.912   4.273   1.549
 3342SOL     OW10924   6.345   0.742   2.596
 3342SOL    HW110925   6.436   0.702   2.584
 3342SOL    HW210926   6.305   0.760   2.506
 3343SOL     OW10927   3.614   5.718   0.392
 3343SOL    HW110928   3.601   5.619   0.384
 3343SOL    HW210929   3.675   5.738   0.468
 3344SOL     OW10930   0.924   3.721   1.930
 3344SOL    HW110931   0.860   3.743   2.004
 3344SOL    HW210932   0.922   3.623   1.912
 3345SOL     OW10933   5.990   5.250   1.543
 3345SOL    HW110934   5.944   5.297   1.468
 3345SOL    HW210935   5.929   5.246   1.623
 3346SOL     OW10936   1.022   0.858   0.198
 3346SOL    HW110937   1.103   0.915   0.181
 3346SOL    HW210938   1.047   0.762   0.191
 3347SOL     OW10939   0.763   3.748   5.823
 3347SOL    HW110940   0.687   3.802   5.860
 3347SOL    HW210941   0.761   3.752   5.724
 3348SOL     OW10942   3.595   4.157   6.089
 3348SOL    HW110943   3.617   4.158   5.991
 3348SOL    HW210944   3.667   4.109   6.138
 3349SOL     OW10945   1.925   5.009   2.461
 3349SOL    HW110946   1.996   5.075   2.438
 3349SOL    HW210947   1.960   4.945   2.529
 3350SOL     OW10948   1.764   4.744   4.866
 3350SOL    HW110949   1.862   4.721   4.865
 3350SOL    HW210950   1.719   4.701   4.789
 3351SOL     OW10951   5.735   1.145   2.222
 3351SOL    HW110952   5.701   1.067   2.273
 3351SOL    HW210953   5.793   1.201   2.281
 3352SOL     OW10954   5.542   1.324   0.039
 3352SOL    HW110955   5.518   1.347   0.133
 3352SOL    HW210956   5.458   1.314   7.007
 3353SOL     OW10957   3.935   0.915   6.887
 3353SOL    HW110958   3.979   0.874   6.967
 3353SOL    HW210959   3.837   0.920   6.901
 3354SOL     OW10960   2.172   3.242   0.857
 3354SOL    HW110961   2.097   3.228   0.792
 3354SOL    HW210962   2.255   3.200   0.821
 3355SOL     OW10963   1.092   0.434   4.453
 3355SOL    HW110964   1.176   0.488   4.452
 3355SOL    HW210965   1.017   0.489   4.488
 3356SOL     OW10966   2.301   0.935   6.579
 3356SOL    HW110967   2.222   0.926   6.518
 3356SOL    HW210968   2.347   0.847   6.587
 3357SOL     OW10969   3.023   3.187   3.096
 3357SOL    HW110970   2.946   3.219   3.151
 3357SOL    HW210971   2.990   3.151   3.009
 3358SOL     OW10972   0.477   1.647   1.545
 3358SOL    HW110973   0.502   1.615   1.453
 3358SOL    HW210974   0.428   1.575   1.593
 3359SOL     OW10975   1.237   6.743   4.629
 3359SOL    HW110976   1.224   6.833   4.586
 3359SOL    HW210977   1.186   6.674   4.578
 3360SOL     OW10978   2.222   5.345   4.655
 3360SOL    HW110979   2.123   5.337   4.657
 3360SOL    HW210980   2.263   5.255   4.667
 3361SOL     OW10981   6.862   6.672   4.733
 3361SOL    HW110982   6.858   6.589   4.678
 3361SOL    HW210983   6.788   6.672   4.800
 3362SOL     OW10984   3.926   0.554   4.161
 3362SOL    HW110985   3.926   0.473   4.103
 3362SOL    HW210986   4.019   0.571   4.195
 3363SOL     OW10987   5.135   4.147   6.982
 3363SOL    HW110988   5.210   4.173   6.921
 3363SOL    HW210989   5.094   4.229   7.022
 3364SOL     OW10990   1.193   3.553   1.926
 3364SOL    HW110991   1.193   3.550   2.026
 3364SOL    HW210992   1.206   3.461   1.890
 3365SOL     OW10993   1.025   2.717   2.935
 3365SOL    HW110994   0.948   2.709   2.872
 3365SOL    HW210995   1.074   2.802   2.918
 3366SOL     OW10996   6.521   3.003   4.443
 3366SOL    HW110997   6.460   2.949   4.501
 3366SOL    HW210998   6.476   3.089   4.419
 3367SOL     OW10999   3.492   2.905   4.083
 3367SOL    HW111000   3.439   2.914   3.999
 3367SOL    HW211001   3.469   2.980   4.145
 3368SOL     OW11002   2.620   1.151   3.216
 3368SOL    HW111003   2.706   1.160   3.267
 3368SOL    HW211004   2.629   1.077   3.150
 3369SOL     OW11005   4.961   2.948   1.236
 3369SOL    HW111006   5.050   2.906   1.253
 3369SOL    HW211007   4.971   3.048   1.235
 3370SOL     OW11008   1.045   6.151   2.889
 3370SOL    HW111009   1.057   6.102   2.975
 3370SOL    HW211010   1.041   6.086   2.814
 3371SOL     OW11011   2.118   2.371   1.234
 3371SOL    HW111012   2.153   2.292   1.184
 3371SOL    HW211013   2.028   2.396   1.200
 3372SOL     OW11014   5.719   3.015   3.838
 3372SOL    HW111015   5.793   2.952   3.862
 3372SOL    HW211016   5.693   3.068   3.919
 3373SOL     OW11017   6.974   4.008   1.116
 3373SOL    HW111018   6.883   4.029   1.150
 3373SOL    HW211019   7.019   4.093   1.087
 3374SOL     OW11020   0.644   6.219   4.055
 3374SOL    HW111021   0.608   6.231   3.963
 3374SOL    HW211022   0.569   6.225   4.121
 3375SOL     OW11023   0.467   6.003   5.989
 3375SOL    HW111024   0.400   6.070   5.957
 3375SOL    HW211025   0.510   6.037   6.073
 3376SOL     OW11026   3.119   3.079   5.151
 3376SOL    HW111027   3.196   3.136   5.123
 3376SOL    HW211028   3.142   2.983   5.135
 3377SOL     OW11029   6.765   5.229   4.412
 3377SOL    HW111030   6.706   5.309   4.406
 3377SOL    HW211031   6.756   5.188   4.503
 3378SOL     OW11032   1.162   5.928   0.501
 3378SOL    HW111033   1.093   5.932   0.429
 3378SOL    HW211034   1.250   5.958   0.465
 3379SOL     OW11035   5.856   3.981   4.240
 3379SOL    HW111036   5.927   3.929   4.287
 3379SOL    HW211037   5.766   3.943   4.264
 3380SOL     OW11038   2.358   5.159   1.231
 3380SOL    HW111039   2.322   5.148   1.323
 3380SOL    HW211040   2.420   5.084   1.210
 3381SOL     OW11041   2.888   3.624   6.399
 3381SOL    HW111042   2.926   3.681   6.326
 3381SOL    HW211043   2.824   3.679   6.453
 3382SOL     OW11044   6.754   4.114   6.525
 3382SOL    HW111045   6.672   4.114   6.468
 3382SOL    HW211046   6.791   4.021   6.530
 3383SOL     OW11047   3.644   5.615   0.782
 3383SOL    HW111048   3.651   5.704   0.826
 3383SOL    HW211049   3.707   5.551   0.826
 3384SOL     OW11050   2.741   2.896   6.392
 3384SOL    HW111051   2.741   2.827   6.320
 3384SOL    HW211052   2.650   2.937   6.399
 3385SOL     OW11053   6.525   1.999   4.237
 3385SOL    HW111054   6.474   1.973   4.155
 3385SOL    HW211055   6.463   2.043   4.302
 3386SOL     OW11056   0.754   5.803   4.454
 3386SOL    HW111057   0.766   5.704   4.451
 3386SOL    HW211058   0.665   5.828   4.416
 3387SOL     OW11059   6.041   0.869   2.729
 3387SOL    HW111060   6.135   0.888   2.700
 3387SOL    HW211061   6.040   0.794   2.795
 3388SOL     OW11062   6.700   3.602   0.536
 3388SOL    HW111063   6.720   3.656   0.617
 3388SOL    HW211064   6.731   3.651   0.454
 3389SOL     OW11065   6.268   5.465   6.546
 3389SOL    HW111066   6.220   5.450   6.632
 3389SOL    HW211067   6.285   5.377   6.502
 3390SOL     OW11068   3.208   5.402   0.336
 3390SOL    HW111069   3.289   5.344   0.346
 3390SOL    HW211070   3.232   5.497   0.356
 3391SOL     OW11071   5.059   3.795   5.066
 3391SOL    HW111072   5.018   3.802   4.975
 3391SOL    HW211073   5.047   3.882   5.114
 3392SOL     OW11074   5.082   6.316   6.081
 3392SOL    HW111075   5.121   6.244   6.139
 3392SOL    HW211076   5.003   6.279   6.033
 3393SOL     OW11077   3.686   6.583   0.376
 3393SOL    HW111078   3.771   6.585   0.324
 3393SOL    HW211079   3.609   6.568   0.314
 3394SOL     OW11080   3.058   5.059   1.317
 3394SOL    HW111081   3.120   5.096   1.386
 3394SOL    HW211082   3.039   4.963   1.338
 3395SOL     OW11083   2.253   6.683   2.957
 3395SOL    HW111084   2.204   6.755   3.006
 3395SOL    HW211085   2.318   6.639   3.019
 3396SOL     OW11086   4.700   0.373   4.315
 3396SOL    HW111087   4.765   0.444   4.288
 3396SOL    HW211088   4.700   0.301   4.246
 3397SOL     OW11089   2.521   6.332   0.487
 3397SOL    HW111090   2.530   6.419   0.536
 3397SOL    HW211091   2.610   6.304   0.452
 3398SOL     OW11092   6.377   1.502   6.224
 3398SOL    HW111093   6.451   1.476   6.163
 3398SOL    HW211094   6.311   1.559   6.175
 3399SOL     OW11095   6.741   6.180   2.178
 3399SOL    HW111096   6.806   6.231   2.235
 3399SOL    HW211097   6.765   6.083   2.179
 3400SOL     OW11098   3.769   2.803   5.347
 3400SOL    HW111099   3.867   2.800   5.328
 3400SOL    HW211100   3.727   2.874   5.290
 3401SOL     OW11101   0.037   3.445   4.175
 3401SOL    HW111102   7.018   3.363   4.136
 3401SOL    HW211103   6.993   3.520   4.172
 3402SOL     OW11104   5.770   3.403   0.323
 3402SOL    HW111105   5.841   3.369   0.384
 3402SOL    HW211106   5.714   3.326   0.291
 3403SOL     OW11107   5.318   6.558   5.736
 3403SOL    HW111108   5.399   6.614   5.751
 3403SOL    HW211109   5.250   6.611   5.685
 3404SOL     OW11110   4.829   5.252   3.136
 3404SOL    HW111111   4.816   5.217   3.043
 3404SOL    HW211112   4.903   5.320   3.136
 3405SOL     OW11113   4.132   5.979   0.249
 3405SOL    HW111114   4.229   5.978   0.227
 3405SOL    HW211115   4.118   5.948   0.342
 3406SOL     OW11116   3.537   5.179   1.183
 3406SOL    HW111117   3.490   5.238   1.117
 3406SOL    HW211118   3.596   5.234   1.242
 3407SOL     OW11119   0.974   3.014   0.252
 3407SOL    HW111120   1.073   3.024   0.247
 3407SOL    HW211121   0.932   3.104   0.244
 3408SOL     OW11122   4.215   6.827   4.160
 3408SOL    HW111123   4.295   6.810   4.102
 3408SOL    HW211124   4.157   6.895   4.116
 3409SOL     OW11125   3.820   1.811   0.238
 3409SOL    HW111126   3.904   1.778   0.280
 3409SOL    HW211127   3.741   1.784   0.294
 3410SOL     OW11128   6.378   0.729   2.896
 3410SOL    HW111129   6.401   0.813   2.945
 3410SOL    HW211130   6.367   0.750   2.798
 3411SOL     OW11131   6.042   3.107   5.833
 3411SOL    HW111132   6.097   3.177   5.879
 3411SOL    HW211133   6.033   3.131   5.736
 3412SOL     OW11134   5.421   2.872   3.397
 3412SOL    HW111135   5.463   2.963   3.392
 3412SOL    HW211136   5.332   2.874   3.353
 3413SOL     OW11137   6.723   2.275   1.096
 3413SOL    HW111138   6.796   2.289   1.029
 3413SOL    HW211139   6.751   2.203   1.160
 3414SOL     OW11140   3.497   3.234   2.103
 3414SOL    HW111141   3.419   3.171   2.103
 3414SOL    HW211142   3.532   3.242   2.197
 3415SOL     OW11143   2.142   1.319   6.528
 3415SOL    HW111144   2.113   1.410   6.498
 3415SOL    HW211145   2.178   1.269   6.450
 3416SOL     OW11146   6.323   6.813   6.236
 3416SOL    HW111147   6.356   6.800   6.329
 3416SOL    HW211148   6.295   6.726   6.197
 3417SOL     OW11149   5.821   0.417   2.248
 3417SOL    HW111150   5.903   0.378   2.205
 3417SOL    HW211151   5.848   0.467   2.331
 3418SOL     OW11152   4.371   5.867   0.827
 3418SOL    HW111153   4.374   5.905   0.919
 3418SOL    HW211154   4.442   5.909   0.771
 3419SOL     OW11155   2.911   4.831   5.197
 3419SOL    HW111156   2.931   4.862   5.104
 3419SOL    HW211157   2.906   4.731   5.199
 3420SOL     OW11158   4.246   0.802   2.265
 3420SOL    HW111159   4.187   0.764   2.194
 3420SOL    HW211160   4.340   0.808   2.231
 3421SOL     OW11161   0.173   1.855   4.954
 3421SOL    HW111162   0.175   1.910   4.870
 3421SOL    HW211163   0.146   1.761   4.932
 3422SOL     OW11164   3.332   5.851   1.596
 3422SOL    HW111165   3.345   5.950   1.587
 3422SOL    HW211166   3.388   5.804   1.527
 3423SOL     OW11167   2.763   4.237   5.715
 3423SOL    HW111168   2.726   4.322   5.753
 3423SOL    HW211169   2.775   4.247   5.616
 3424SOL     OW11170   5.200   1.084   2.217
 3424SOL    HW111171   5.164   1.026   2.143
 3424SOL    HW211172   5.300   1.081   2.215
 3425SOL     OW11173   6.518   2.927   6.430
 3425SOL    HW111174   6.601   2.938   6.375
 3425SOL    HW211175   6.438   2.953   6.375
 3426SOL     OW11176   6.437   4.938   0.220
 3426SOL    HW111177   6.527   4.977   0.242
 3426SOL    HW211178   6.444   4.887   0.134
 3427SOL     OW11179   1.792   1.593   6.431
 3427SOL    HW111180   1.815   1.639   6.517
 3427SOL    HW211181   1.864   1.610   6.364
 3428SOL     OW11182   5.216   0.395   4.558
 3428SOL    HW111183   5.199   0.326   4.628
 3428SOL    HW211184   5.227   0.350   4.469
 3429SOL     OW11185   4.057   6.790   0.615
 3429SOL    HW111186   3.999   6.747   0.685
 3429SOL    HW211187   4.004   6.858   0.565
 3430SOL     OW11188   2.832   4.155   6.413
 3430SOL    HW111189   2.833   4.122   6.507
 3430SOL    HW211190   2.801   4.083   6.351
 3431SOL     OW11191   0.610   4.658   2.915
 3431SOL    HW111192   0.700   4.684   2.880
 3431SOL    HW211193   0.610   4.561   2.938
 3432SOL     OW11194   0.519   5.013   0.165
 3432SOL    HW111195   0.565   4.969   0.087
 3432SOL    HW211196   0.576   5.088   0.199
 3433SOL     OW11197   0.896   0.992   0.410
 3433SOL    HW111198   0.935   0.940   0.334
 3433SOL    HW211199   0.929   0.956   0.496
 3434SOL     OW11200   3.719   2.384   1.625
 3434SOL    HW111201   3.779   2.464   1.634
 3434SOL    HW211202   3.686   2.356   1.715
 3435SOL     OW11203   1.709   2.375   1.288
 3435SOL    HW111204   1.745   2.293   1.244
 3435SOL    HW211205   1.636   2.350   1.352
 3436SOL     OW11206   3.950   6.416   6.162
 3436SOL    HW111207   4.044   6.415   6.128
 3436SOL    HW211208   3.889   6.446   6.089
 3437SOL     OW11209   1.362   6.523   0.476
 3437SOL    HW111210   1.397   6.610   0.442
 3437SOL    HW211211   1.339   6.533   0.573
 3438SOL     OW11212   2.515   4.362   0.846
 3438SOL    HW111213   2.544   4.284   0.791
 3438SOL    HW211214   2.420   4.384   0.825
 3439SOL     OW11215   3.391   5.721   0.130
 3439SOL    HW111216   3.471   5.662   0.128
 3439SOL    HW211217   3.420   5.816   0.141
 3440SOL     OW11218   3.908   3.903   5.486
 3440SOL    HW111219   3.869   3.987   5.523
 3440SOL    HW211220   3.869   3.824   5.534
 3441SOL     OW11221   6.993   4.821   4.587
 3441SOL    HW111222   0.011   4.864   4.506
 3441SOL    HW211223   0.028   4.744   4.615
 3442SOL     OW11224   1.008   2.629   0.707
 3442SOL    HW111225   1.061   2.709   0.681
 3442SOL    HW211226   1.055   2.546   0.675
 3443SOL     OW11227   0.544   6.251   2.445
 3443SOL    HW111228   0.552   6.349   2.462
 3443SOL    HW211229   0.497   6.236   2.358
 3444SOL     OW11230   0.269   3.806   6.012
 3444SOL    HW111231   0.245   3.711   5.996
 3444SOL    HW211232   0.186   3.861   6.022
 3445SOL     OW11233   6.163   4.742   4.661
 3445SOL    HW111234   6.230   4.787   4.602
 3445SOL    HW211235   6.071   4.758   4.625
 3446SOL     OW11236   4.423   1.541   0.743
 3446SOL    HW111237   4.498   1.597   0.777
 3446SOL    HW211238   4.382   1.490   0.819
 3447SOL     OW11239   4.860   1.653   5.951
 3447SOL    HW111240   4.886   1.556   5.948
 3447SOL    HW211241   4.911   1.704   5.882
 3448SOL     OW11242   0.749   5.175   5.444
 3448SOL    HW111243   0.807   5.163   5.525
 3448SOL    HW211244   0.738   5.087   5.398
 3449SOL     OW11245   0.947   3.701   5.586
 3449SOL    HW111246   0.903   3.776   5.536
 3449SOL    HW211247   0.886   3.622   5.586
 3450SOL     OW11248   2.589   6.893   2.287
 3450SOL    HW111249   2.620   6.863   2.377
 3450SOL    HW211250   2.602   6.819   2.221
 3451SOL     OW11251   1.898   2.231   0.989
 3451SOL    HW111252   1.849   2.205   0.906
 3451SOL    HW211253   1.924   2.327   0.984
 3452SOL     OW11254   4.343   1.608   5.965
 3452SOL    HW111255   4.331   1.700   5.927
 3452SOL    HW211256   4.430   1.570   5.934
 3453SOL     OW11257   4.590   6.298   6.042
 3453SOL    HW111258   4.655   6.223   6.033
 3453SOL    HW211259   4.564   6.308   6.137
 3454SOL     OW11260   0.975   3.347   2.515
 3454SOL    HW111261   0.945   3.439   2.491
 3454SOL    HW211262   0.895   3.288   2.526
 3455SOL     OW11263   0.902   3.958   6.335
 3455SOL    HW111264   0.875   3.873   6.290
 3455SOL    HW211265   0.988   3.944   6.383
 3456SOL     OW11266   4.258   5.701   3.091
 3456SOL    HW111267   4.214   5.699   3.001
 3456SOL    HW211268   4.218   5.630   3.148
 3457SOL     OW11269   4.202   4.616   0.432
 3457SOL    HW111270   4.147   4.638   0.513
 3457SOL    HW211271   4.231   4.520   0.437
 3458SOL     OW11272   4.547   1.603   1.388
 3458SOL    HW111273   4.475   1.534   1.395
 3458SOL    HW211274   4.553   1.653   1.474
 3459SOL     OW11275   6.113   6.396   2.058
 3459SOL    HW111276   6.154   6.485   2.081
 3459SOL    HW211277   6.061   6.405   1.973
 3460SOL     OW11278   3.736   1.970   5.342
 3460SOL    HW111279   3.666   2.001   5.278
 3460SOL    HW211280   3.813   1.932   5.292
 3461SOL     OW11281   4.671   4.960   3.908
 3461SOL    HW111282   4.760   4.983   3.946
 3461SOL    HW211283   4.598   4.990   3.970
 3462SOL     OW11284   0.870   4.742   6.498
 3462SOL    HW111285   0.941   4.672   6.492
 3462SOL    HW211286   0.815   4.741   6.414
 3463SOL     OW11287   5.535   3.895   0.191
 3463SOL    HW111288   5.504   3.906   0.097
 3463SOL    HW211289   5.456   3.877   0.250
 3464SOL     OW11290   0.138   4.485   3.771
 3464SOL    HW111291   0.083   4.507   3.852
 3464SOL    HW211292   0.216   4.547   3.766
 3465SOL     OW11293   0.516   2.919   2.602
 3465SOL    HW111294   0.615   2.908   2.613
 3465SOL    HW211295   0.497   2.965   2.516
 3466SOL     OW11296   6.379   3.325   3.564
 3466SOL    HW111297   6.351   3.420   3.576
 3466SOL    HW211298   6.304   3.272   3.525
 3467SOL     OW11299   1.689   2.609   6.043
 3467SOL    HW111300   1.614   2.632   6.105
 3467SOL    HW211301   1.757   2.683   6.045
 3468SOL     OW11302   4.987   6.080   1.941
 3468SOL    HW111303   4.893   6.069   1.973
 3468SOL    HW211304   5.000   6.029   1.856
 3469SOL     OW11305   5.518   4.290   0.324
 3469SOL    HW111306   5.617   4.284   0.338
 3469SOL    HW211307   5.499   4.311   0.229
 3470SOL     OW11308   6.365   4.822   1.401
 3470SOL    HW111309   6.343   4.918   1.383
 3470SOL    HW211310   6.319   4.764   1.334
 3471SOL     OW11311   4.570   6.840   4.515
 3471SOL    HW111312   4.551   6.848   4.613
 3471SOL    HW211313   4.555   6.928   4.470
 3472SOL     OW11314   3.994   1.228   5.040
 3472SOL    HW111315   3.978   1.268   4.950
 3472SOL    HW211316   3.989   1.129   5.033
 3473SOL     OW11317   4.604   0.182   3.932
 3473SOL    HW111318   4.662   0.137   3.863
 3473SOL    HW211319   4.597   0.124   4.013
 3474SOL     OW11320   4.617   4.365   0.377
 3474SOL    HW111321   4.575   4.316   0.301
 3474SOL    HW211322   4.565   4.348   0.461
 3475SOL     OW11323   1.681   5.224   4.942
 3475SOL    HW111324   1.676   5.269   5.031
 3475SOL    HW211325   1.776   5.202   4.921
 3476SOL     OW11326   4.380   1.970   4.284
 3476SOL    HW111327   4.436   1.953   4.365
 3476SOL    HW211328   4.322   1.890   4.268
 3477SOL     OW11329   4.523   5.274   1.692
 3477SOL    HW111330   4.580   5.256   1.772
 3477SOL    HW211331   4.573   5.249   1.609
 3478SOL     OW11332   4.121   4.000   0.399
 3478SOL    HW111333   4.039   3.946   0.418
 3478SOL    HW211334   4.135   4.005   0.300
 3479SOL     OW11335   1.500   0.178   0.589
 3479SOL    HW111336   1.530   0.271   0.608
 3479SOL    HW211337   1.516   0.121   0.670
 3480SOL     OW11338   1.320   7.013   3.964
 3480SOL    HW111339   1.392   0.002   4.032
 3480SOL    HW211340   1.266   6.931   3.984
 3481SOL     OW11341   2.010   6.109   6.797
 3481SOL    HW111342   2.046   6.026   6.754
 3481SOL    HW211343   1.939   6.149   6.739
 3482SOL     OW11344   0.415   2.392   2.039
 3482SOL    HW111345   0.371   2.366   1.953
 3482SOL    HW211346   0.440   2.309   2.089
 3483SOL     OW11347   3.510   1.399   0.431
 3483SOL    HW111348   3.431   1.341   0.408
 3483SOL    HW211349   3.571   1.350   0.493
 3484SOL     OW11350   3.857   4.048   3.632
 3484SOL    HW111351   3.930   3.981   3.644
 3484SOL    HW211352   3.839   4.094   3.719
 3485SOL     OW11353   6.023   1.600   5.151
 3485SOL    HW111354   6.087   1.530   5.185
 3485SOL    HW211355   6.012   1.590   5.052
 3486SOL     OW11356   5.639   0.718   3.145
 3486SOL    HW111357   5.540   0.710   3.132
 3486SOL    HW211358   5.658   0.798   3.201
 3487SOL     OW11359   0.594   0.403   0.663
 3487SOL    HW111360   0.601   0.494   0.624
 3487SOL    HW211361   0.503   0.366   0.644
 3488SOL     OW11362   6.150   4.052   4.372
 3488SOL    HW111363   6.188   3.959   4.365
 3488SOL    HW211364   6.175   4.103   4.290
 3489SOL     OW11365   2.622   5.215   6.924
 3489SOL    HW111366   2.681   5.186   6.999
 3489SOL    HW211367   2.624   5.315   6.917
 3490SOL     OW11368   4.509   3.476   0.833
 3490SOL    HW111369   4.574   3.536   0.879
 3490SOL    HW211370   4.470   3.523   0.754
 3491SOL     OW11371   6.510   3.187   5.504
 3491SOL    HW111372   6.600   3.198   5.548
 3491SOL    HW211373   6.491   3.089   5.493
 3492SOL     OW11374   6.193   4.873   6.903
 3492SOL    HW111375   6.188   4.927   6.819
 3492SOL    HW211376   6.268   4.807   6.896
 3493SOL     OW11377   6.835   4.926   1.950
 3493SOL    HW111378   6.849   5.023   1.928
 3493SOL    HW211379   6.877   4.870   1.879
 3494SOL     OW11380   3.009   6.350   1.265
 3494SOL    HW111381   3.018   6.282   1.337
 3494SOL    HW211382   3.092   6.348   1.208
 3495SOL     OW11383   5.716   4.181   6.571
 3495SOL    HW111384   5.807   4.221   6.560
 3495SOL    HW211385   5.709   4.139   6.662
 3496SOL     OW11386   0.546   4.728   0.420
 3496SOL    HW111387   0.495   4.699   0.339
 3496SOL    HW211388   0.640   4.694   0.415
 3497SOL     OW11389   4.840   0.099   4.531
 3497SOL    HW111390   4.842   0.056   4.441
 3497SOL    HW211391   4.866   0.195   4.524
 3498SOL     OW11392   0.867   1.724   0.555
 3498SOL    HW111393   0.904   1.814   0.578
 3498SOL    HW211394   0.768   1.731   0.545
 3499SOL     OW11395   0.424   4.152   4.475
 3499SOL    HW111396   0.467   4.067   4.505
 3499SOL    HW211397   0.415   4.152   4.376
 3500SOL     OW11398   5.764   2.892   0.908
 3500SOL    HW111399   5.775   2.802   0.866
 3500SOL    HW211400   5.721   2.954   0.843
 3501SOL     OW11401   0.627   5.158   2.943
 3501SOL    HW111402   0.544   5.145   2.887
 3501SOL    HW211403   0.600   5.185   3.035
 3502SOL     OW11404   0.627   5.223   1.718
 3502SOL    HW111405   0.616   5.306   1.773
 3502SOL    HW211406   0.538   5.181   1.703
 3503SOL     OW11407   3.458   6.892   3.353
 3503SOL    HW111408   3.393   6.835   3.404
 3503SOL    HW211409   3.481   6.847   3.267
 3504SOL     OW11410   2.055   3.003   2.697
 3504SOL    HW111411   1.977   2.990   2.635
 3504SOL    HW211412   2.140   2.981   2.649
 3505SOL     OW11413   4.979   6.839   4.909
 3505SOL    HW111414   5.009   6.892   4.988
 3505SOL    HW211415   4.988   6.741   4.929
 3506SOL     OW11416   6.243   4.905   2.274
 3506SOL    HW111417   6.224   4.941   2.365
 3506SOL    HW211418   6.222   4.807   2.272
 3507SOL     OW11419   6.791   0.349   6.000
 3507SOL    HW111420   6.692   0.357   6.000
 3507SOL    HW211421   6.820   0.289   6.074
 3508SOL     OW11422   6.531   4.407   0.236
 3508SOL    HW111423   6.588   4.439   0.312
 3508SOL    HW211424   6.504   4.312   0.251
 3509SOL     OW11425   5.418   0.226   6.773
 3509SOL    HW111426   5.390   0.167   6.698
 3509SOL    HW211427   5.424   0.321   6.741
 3510SOL     OW11428   1.541   1.980   2.149
 3510SOL    HW111429   1.579   2.035   2.224
 3510SOL    HW211430   1.484   1.908   2.187
 3511SOL     OW11431   0.674   0.674   4.513
 3511SOL    HW111432   0.709   0.718   4.429
 3511SOL    HW211433   0.598   0.614   4.490
 3512SOL     OW11434   3.657   2.941   1.218
 3512SOL    HW111435   3.575   2.986   1.254
 3512SOL    HW211436   3.690   2.874   1.285
 3513SOL     OW11437   5.604   4.235   0.976
 3513SOL    HW111438   5.572   4.179   0.899
 3513SOL    HW211439   5.590   4.332   0.955
 3514SOL     OW11440   2.309   6.588   1.907
 3514SOL    HW111441   2.291   6.562   1.812
 3514SOL    HW211442   2.386   6.534   1.942
 3515SOL     OW11443   3.944   6.344   3.066
 3515SOL    HW111444   4.020   6.288   3.034
 3515SOL    HW211445   3.941   6.343   3.166
 3516SOL     OW11446   1.950   1.107   0.296
 3516SOL    HW111447   2.031   1.141   0.344
 3516SOL    HW211448   1.975   1.028   0.240
 3517SOL     OW11449   0.831   0.414   6.650
 3517SOL    HW111450   0.758   0.445   6.711
 3517SOL    HW211451   0.816   0.318   6.627
 3518SOL     OW11452   4.199   3.545   6.040
 3518SOL    HW111453   4.107   3.531   6.004
 3518SOL    HW211454   4.256   3.590   5.972
 3519SOL     OW11455   3.505   6.841   0.180
 3519SOL    HW111456   3.507   6.872   0.275
 3519SOL    HW211457   3.482   6.744   0.178
 3520SOL     OW11458   3.542   5.302   1.469
 3520SOL    HW111459   3.500   5.348   1.548
 3520SOL    HW211460   3.490   5.324   1.386
 3521SOL     OW11461   6.695   2.499   6.204
 3521SOL    HW111462   6.685   2.573   6.270
 3521SOL    HW211463   6.638   2.518   6.124
 3522SOL     OW11464   2.733   0.620   0.659
 3522SOL    HW111465   2.733   0.577   0.568
 3522SOL    HW211466   2.664   0.577   0.716
 3523SOL     OW11467   2.674   4.494   5.267
 3523SOL    HW111468   2.638   4.552   5.340
 3523SOL    HW211469   2.766   4.525   5.243
 3524SOL     OW11470   2.396   0.749   2.738
 3524SOL    HW111471   2.339   0.718   2.813
 3524SOL    HW211472   2.341   0.753   2.654
 3525SOL     OW11473   1.309   3.236   2.821
 3525SOL    HW111474   1.311   3.256   2.723
 3525SOL    HW211475   1.248   3.159   2.837
 3526SOL     OW11476   3.532   6.594   3.391
 3526SOL    HW111477   3.584   6.512   3.414
 3526SOL    HW211478   3.464   6.612   3.461
 3527SOL     OW11479   5.396   3.577   6.843
 3527SOL    HW111480   5.431   3.657   6.892
 3527SOL    HW211481   5.460   3.501   6.851
 3528SOL     OW11482   1.795   6.622   4.761
 3528SOL    HW111483   1.700   6.591   4.768
 3528SOL    HW211484   1.841   6.610   4.849
 3529SOL     OW11485   3.895   5.904   0.077
 3529SOL    HW111486   3.960   5.942   0.143
 3529SOL    HW211487   3.802   5.912   0.114
 3530SOL     OW11488   1.939   6.675   2.977
 3530SOL    HW111489   1.901   6.716   2.895
 3530SOL    HW211490   2.022   6.624   2.954
 3531SOL     OW11491   4.900   4.501   6.843
 3531SOL    HW111492   4.867   4.515   6.936
 3531SOL    HW211493   4.920   4.404   6.829
 3532SOL     OW11494   2.200   6.576   0.989
 3532SOL    HW111495   2.197   6.623   0.900
 3532SOL    HW211496   2.280   6.516   0.993
 3533SOL     OW11497   1.457   0.681   3.449
 3533SOL    HW111498   1.498   0.771   3.437
 3533SOL    HW211499   1.383   0.687   3.517
 3534SOL     OW11500   5.400   0.511   5.244
 3534SOL    HW111501   5.387   0.528   5.341
 3534SOL    HW211502   5.356   0.425   5.218
 3535SOL     OW11503   4.966   6.666   0.074
 3535SOL    HW111504   5.054   6.684   0.030
 3535SOL    HW211505   4.975   6.680   0.173
 3536SOL     OW11506   0.768   3.170   2.526
 3536SOL    HW111507   0.702   3.214   2.465
 3536SOL    HW211508   0.772   3.072   2.507
 3537SOL     OW11509   3.023   4.788   1.379
 3537SOL    HW111510   2.956   4.730   1.425
 3537SOL    HW211511   3.059   4.740   1.299
 3538SOL     OW11512   3.840   0.796   3.805
 3538SOL    HW111513   3.835   0.838   3.714
 3538SOL    HW211514   3.890   0.857   3.867
 3539SOL     OW11515   4.724   5.414   5.953
 3539SOL    HW111516   4.632   5.453   5.948
 3539SOL    HW211517   4.729   5.334   5.893
 3540SOL     OW11518   3.657   4.471   6.337
 3540SOL    HW111519   3.685   4.394   6.395
 3540SOL    HW211520   3.580   4.443   6.280
 3541SOL     OW11521   1.469   2.671   2.088
 3541SOL    HW111522   1.406   2.747   2.103
 3541SOL    HW211523   1.436   2.617   2.010
 3542SOL     OW11524   5.958   1.566   0.088
 3542SOL    HW111525   6.017   1.587   0.010
 3542SOL    HW211526   5.906   1.483   0.069
 3543SOL     OW11527   0.641   2.449   3.822
 3543SOL    HW111528   0.649   2.490   3.731
 3543SOL    HW211529   0.676   2.513   3.891
 3544SOL     OW11530   2.670   4.136   0.293
 3544SOL    HW111531   2.683   4.049   0.341
 3544SOL    HW211532   2.631   4.204   0.355
 3545SOL     OW11533   3.853   6.541   0.591
 3545SOL    HW111534   3.841   6.607   0.665
 3545SOL    HW211535   3.803   6.571   0.510
 3546SOL     OW11536   6.638   4.741   1.197
 3546SOL    HW111537   6.609   4.834   1.175
 3546SOL    HW211538   6.694   4.743   1.281
 3547SOL     OW11539   1.063   4.298   5.032
 3547SOL    HW111540   0.986   4.311   4.970
 3547SOL    HW211541   1.081   4.200   5.042
 3548SOL     OW11542   6.209   0.077   6.030
 3548SOL    HW111543   6.303   0.070   6.063
 3548SOL    HW211544   6.147   0.083   6.108
 3549SOL     OW11545   2.143   6.488   6.827
 3549SOL    HW111546   2.050   6.468   6.796
 3549SOL    HW211547   2.206   6.482   6.749
 3550SOL     OW11548   5.663   1.592   5.603
 3550SOL    HW111549   5.688   1.686   5.625
 3550SOL    HW211550   5.735   1.550   5.549
 3551SOL     OW11551   5.686   1.939   5.064
 3551SOL    HW111552   5.663   1.969   5.157
 3551SOL    HW211553   5.739   1.854   5.069
 3552SOL     OW11554   6.831   6.917   2.990
 3552SOL    HW111555   6.849   6.821   2.969
 3552SOL    HW211556   6.827   6.929   3.089
 3553SOL     OW11557   6.084   5.837   6.400
 3553SOL    HW111558   6.024   5.761   6.424
 3553SOL    HW211559   6.087   5.849   6.301
 3554SOL     OW11560   4.576   4.229   6.815
 3554SOL    HW111561   4.495   4.231   6.757
 3554SOL    HW211562   4.610   4.135   6.822
 3555SOL     OW11563   2.938   1.714   5.550
 3555SOL    HW111564   2.998   1.757   5.483
 3555SOL    HW211565   2.992   1.664   5.618
 3556SOL     OW11566   5.832   1.132   0.219
 3556SOL    HW111567   5.899   1.125   0.294
 3556SOL    HW211568   5.836   1.224   0.179
 3557SOL     OW11569   5.303   6.533   1.932
 3557SOL    HW111570   5.289   6.632   1.937
 3557SOL    HW211571   5.219   6.487   1.962
 3558SOL     OW11572   3.474   5.813   2.272
 3558SOL    HW111573   3.446   5.767   2.188
 3558SOL    HW211574   3.497   5.908   2.253
 3559SOL     OW11575   3.878   6.456   6.530
 3559SOL    HW111576   3.854   6.360   6.515
 3559SOL    HW211577   3.797   6.513   6.516
 3560SOL     OW11578   2.426   5.726   4.489
 3560SOL    HW111579   2.482   5.644   4.474
 3560SOL    HW211580   2.344   5.701   4.541
 3561SOL     OW11581   4.617   3.362   5.326
 3561SOL    HW111582   4.610   3.449   5.374
 3561SOL    HW211583   4.587   3.288   5.386
 3562SOL     OW11584   2.776   1.338   0.509
 3562SOL    HW111585   2.841   1.265   0.489
 3562SOL    HW211586   2.705   1.340   0.438
 3563SOL     OW11587   0.191   2.242   6.651
 3563SOL    HW111588   0.246   2.232   6.569
 3563SOL    HW211589   0.245   2.217   6.731
 3564SOL     OW11590   6.291   3.644   2.745
 3564SOL    HW111591   6.250   3.570   2.691
 3564SOL    HW211592   6.377   3.672   2.703
 3565SOL     OW11593   4.987   6.562   5.734
 3565SOL    HW111594   4.967   6.498   5.659
 3565SOL    HW211595   4.953   6.523   5.820
 3566SOL     OW11596   1.413   1.072   5.458
 3566SOL    HW111597   1.420   0.972   5.460
 3566SOL    HW211598   1.340   1.099   5.394
 3567SOL     OW11599   6.769   3.880   6.831
 3567SOL    HW111600   6.822   3.823   6.894
 3567SOL    HW211601   6.786   3.976   6.850
 3568SOL     OW11602   4.287   3.439   5.692
 3568SOL    HW111603   4.373   3.455   5.741
 3568SOL    HW211604   4.232   3.372   5.743
 3569SOL     OW11605   1.769   0.581   3.402
 3569SOL    HW111606   1.851   0.617   3.446
 3569SOL    HW211607   1.788   0.562   3.306
 3570SOL     OW11608   6.009   1.532   4.508
 3570SOL    HW111609   5.985   1.625   4.537
 3570SOL    HW211610   5.965   1.512   4.420
 3571SOL     OW11611   6.459   5.172   4.517
 3571SOL    HW111612   6.485   5.266   4.495
 3571SOL    HW211613   6.517   5.138   4.591
 3572SOL     OW11614   6.143   6.624   5.438
 3572SOL    HW111615   6.118   6.669   5.353
 3572SOL    HW211616   6.160   6.692   5.509
 3573SOL     OW11617   0.070   1.737   1.481
 3573SOL    HW111618   0.122   1.664   1.436
 3573SOL    HW211619   0.133   1.803   1.522
 3574SOL     OW11620   6.090   3.707   0.372
 3574SOL    HW111621   6.030   3.631   0.397
 3574SOL    HW211622   6.177   3.699   0.420
 3575SOL     OW11623   6.178   6.657   2.088
 3575SOL    HW111624   6.144   6.750   2.073
 3575SOL    HW211625   6.266   6.646   2.043
 3576SOL     OW11626   6.196   1.016   6.946
 3576SOL    HW111627   6.276   1.014   7.006
 3576SOL    HW211628   6.195   0.935   6.888
 3577SOL     OW11629   2.747   3.870   0.422
 3577SOL    HW111630   2.659   3.822   0.419
 3577SOL    HW211631   2.817   3.814   0.376
 3578SOL     OW11632   3.567   4.241   1.900
 3578SOL    HW111633   3.582   4.333   1.938
 3578SOL    HW211634   3.515   4.248   1.815
 3579SOL     OW11635   1.931   4.256   5.304
 3579SOL    HW111636   2.002   4.305   5.254
 3579SOL    HW211637   1.973   4.184   5.360
 3580SOL     OW11638   6.379   2.927   1.175
 3580SOL    HW111639   6.419   2.973   1.254
 3580SOL    HW211640   6.333   2.995   1.118
 3581SOL     OW11641   6.421   0.692   3.559
 3581SOL    HW111642   6.377   0.754   3.494
 3581SOL    HW211643   6.518   0.714   3.565
 3582SOL     OW11644   0.010   0.164   5.400
 3582SOL    HW111645   0.057   0.112   5.471
 3582SOL    HW211646   6.945   0.119   5.379
 3583SOL     OW11647   1.333   5.370   1.783
 3583SOL    HW111648   1.383   5.293   1.824
 3583SOL    HW211649   1.245   5.337   1.748
 3584SOL     OW11650   5.997   0.145   5.266
 3584SOL    HW111651   5.983   0.229   5.319
 3584SOL    HW211652   5.978   0.163   5.170
 3585SOL     OW11653   2.228   4.720   3.523
 3585SOL    HW111654   2.151   4.757   3.574
 3585SOL    HW211655   2.302   4.788   3.520
 3586SOL     OW11656   1.202   0.715   6.009
 3586SOL    HW111657   1.136   0.664   5.954
 3586SOL    HW211658   1.286   0.662   6.018
 3587SOL     OW11659   3.714   6.247   6.463
 3587SOL    HW111660   3.632   6.256   6.407
 3587SOL    HW211661   3.697   6.185   6.539
 3588SOL     OW11662   1.686   1.768   5.259
 3588SOL    HW111663   1.592   1.799   5.245
 3588SOL    HW211664   1.737   1.840   5.306
 3589SOL     OW11665   3.636   0.315   4.499
 3589SOL    HW111666   3.726   0.321   4.455
 3589SOL    HW211667   3.630   0.231   4.552
 3590SOL     OW11668   1.417   4.969   6.844
 3590SOL    HW111669   1.331   4.920   6.861
 3590SOL    HW211670   1.494   4.911   6.871
 3591SOL     OW11671   5.441   2.161   5.117
 3591SOL    HW111672   5.424   2.109   5.200
 3591SOL    HW211673   5.490   2.245   5.139
 3592SOL     OW11674   5.301   2.421   2.129
 3592SOL    HW111675   5.269   2.368   2.050
 3592SOL    HW211676   5.262   2.383   2.212
 3593SOL     OW11677   1.377   5.680   4.209
 3593SOL    HW111678   1.381   5.714   4.115
 3593SOL    HW211679   1.282   5.680   4.241
 3594SOL     OW11680   3.874   1.894   4.468
 3594SOL    HW111681   3.786   1.854   4.440
 3594SOL    HW211682   3.878   1.989   4.436
 3595SOL     OW11683   2.028   6.856   5.607
 3595SOL    HW111684   1.954   6.889   5.549
 3595SOL    HW211685   2.070   6.934   5.655
 3596SOL     OW11686   0.455   3.913   3.641
 3596SOL    HW111687   0.491   3.890   3.731
 3596SOL    HW211688   0.488   4.003   3.613
 3597SOL     OW11689   3.737   0.035   3.758
 3597SOL    HW111690   3.660   0.099   3.754
 3597SOL    HW211691   3.817   0.078   3.716
 3598SOL     OW11692   1.465   0.441   6.945
 3598SOL    HW111693   1.545   0.399   6.988
 3598SOL    HW211694   1.405   0.370   6.909
 3599SOL     OW11695   6.939   1.631   4.703
 3599SOL    HW111696   6.956   1.720   4.746
 3599SOL    HW211697   6.871   1.642   4.631
 3600SOL     OW11698   6.707   0.108   1.378
 3600SOL    HW111699   6.786   0.131   1.321
 3600SOL    HW211700   6.625   0.106   1.321
 3601SOL     OW11701   6.284   3.732   5.484
 3601SOL    HW111702   6.221   3.788   5.431
 3601SOL    HW211703   6.261   3.739   5.581
 3602SOL     OW11704   2.790   1.610   1.411
 3602SOL    HW111705   2.814   1.571   1.322
 3602SOL    HW211706   2.712   1.671   1.401
 3603SOL     OW11707   4.138   5.602   4.428
 3603SOL    HW111708   4.082   5.667   4.377
 3603SOL    HW211709   4.180   5.650   4.506
 3604SOL     OW11710   6.321   4.023   3.755
 3604SOL    HW111711   6.291   3.999   3.663
 3604SOL    HW211712   6.244   4.056   3.808
 3605SOL     OW11713   6.203   2.796   6.509
 3605SOL    HW111714   6.275   2.726   6.509
 3605SOL    HW211715   6.145   2.784   6.429
 3606SOL     OW11716   1.573   4.431   3.237
 3606SOL    HW111717   1.516   4.349   3.232
 3606SOL    HW211718   1.627   4.429   3.321
 3607SOL     OW11719   4.285   7.003   6.953
 3607SOL    HW111720   4.211   6.987   6.888
 3607SOL    HW211721   4.260   6.964   0.019
 3608SOL     OW11722   0.667   3.214   3.140
 3608SOL    HW111723   0.609   3.291   3.167
 3608SOL    HW211724   0.619   3.159   3.072
 3609SOL     OW11725   6.470   6.952   4.748
 3609SOL    HW111726   6.383   6.923   4.788
 3609SOL    HW211727   6.453   7.003   4.664
 3610SOL     OW11728   1.935   5.449   5.539
 3610SOL    HW111729   1.923   5.497   5.452
 3610SOL    HW211730   1.950   5.352   5.522
 3611SOL     OW11731   4.518   5.449   5.652
 3611SOL    HW111732   4.429   5.450   5.605
 3611SOL    HW211733   4.585   5.403   5.594
 3612SOL     OW11734   2.141   6.357   1.224
 3612SOL    HW111735   2.135   6.456   1.225
 3612SOL    HW211736   2.097   6.319   1.306
 3613SOL     OW11737   4.927   5.075   6.312
 3613SOL    HW111738   4.998   5.005   6.302
 3613SOL    HW211739   4.890   5.097   6.222
 3614SOL     OW11740   3.792   3.335   4.832
 3614SOL    HW111741   3.759   3.397   4.761
 3614SOL    HW211742   3.880   3.296   4.803
 3615SOL     OW11743   5.948   6.538   5.945
 3615SOL    HW111744   6.011   6.615   5.935
 3615SOL    HW211745   5.995   6.462   5.990
 3616SOL     OW11746   5.870   0.974   5.088
 3616SOL    HW111747   5.842   0.924   5.170
 3616SOL    HW211748   5.806   0.955   5.014
 3617SOL     OW11749   6.831   0.664   0.522
 3617SOL    HW111750   6.856   0.663   0.425
 3617SOL    HW211751   6.905   0.705   0.575
 3618SOL     OW11752   2.805   6.598   6.569
 3618SOL    HW111753   2.844   6.511   6.601
 3618SOL    HW211754   2.850   6.673   6.617
 3619SOL     OW11755   5.095   4.453   4.045
 3619SOL    HW111756   5.177   4.512   4.048
 3619SOL    HW211757   5.095   4.392   4.124
 3620SOL     OW11758   6.017   1.611   4.870
 3620SOL    HW111759   6.080   1.687   4.853
 3620SOL    HW211760   5.930   1.630   4.822
 3621SOL     OW11761   1.463   3.282   5.882
 3621SOL    HW111762   1.529   3.209   5.902
 3621SOL    HW211763   1.483   3.322   5.793
 3622SOL     OW11764   0.527   3.372   1.364
 3622SOL    HW111765   0.430   3.348   1.365
 3622SOL    HW211766   0.548   3.425   1.282
 3623SOL     OW11767   6.777   5.047   3.720
 3623SOL    HW111768   6.713   5.018   3.791
 3623SOL    HW211769   6.732   5.113   3.660
 3624SOL     OW11770   1.886   1.484   1.789
 3624SOL    HW111771   1.813   1.543   1.824
 3624SOL    HW211772   1.871   1.465   1.692
 3625SOL     OW11773   0.634   3.319   4.257
 3625SOL    HW111774   0.578   3.319   4.174
 3625SOL    HW211775   0.727   3.293   4.234
 3626SOL     OW11776   2.745   3.969   5.252
 3626SOL    HW111777   2.661   4.017   5.227
 3626SOL    HW211778   2.725   3.903   5.324
 3627SOL     OW11779   3.480   3.203   3.921
 3627SOL    HW111780   3.386   3.225   3.895
 3627SOL    HW211781   3.501   3.246   4.009
 3628SOL     OW11782   2.854   5.491   2.999
 3628SOL    HW111783   2.926   5.482   2.930
 3628SOL    HW211784   2.848   5.586   3.028
 3629SOL     OW11785   5.442   2.951   5.312
 3629SOL    HW111786   5.521   3.007   5.287
 3629SOL    HW211787   5.395   2.992   5.390
 3630SOL     OW11788   5.728   1.444   4.992
 3630SOL    HW111789   5.730   1.353   4.952
 3630SOL    HW211790   5.773   1.509   4.930
 3631SOL     OW11791   2.167   1.049   3.796
 3631SOL    HW111792   2.214   0.975   3.843
 3631SOL    HW211793   2.073   1.020   3.774
 3632SOL     OW11794   3.790   6.964   6.228
 3632SOL    HW111795   3.713   0.004   6.213
 3632SOL    HW211796   3.834   6.944   6.141
 3633SOL     OW11797   1.424   3.115   5.362
 3633SOL    HW111798   1.497   3.147   5.421
 3633SOL    HW211799   1.356   3.066   5.416
 3634SOL     OW11800   3.190   5.724   6.182
 3634SOL    HW111801   3.223   5.748   6.091
 3634SOL    HW211802   3.205   5.626   6.198
 3635SOL     OW11803   1.724   1.171   5.084
 3635SOL    HW111804   1.776   1.091   5.115
 3635SOL    HW211805   1.785   1.234   5.036
 3636SOL     OW11806   1.717   5.912   6.472
 3636SOL    HW111807   1.619   5.909   6.494
 3636SOL    HW211808   1.738   5.995   6.420
 3637SOL     OW11809   5.058   1.238   1.597
 3637SOL    HW111810   5.096   1.291   1.521
 3637SOL    HW211811   5.071   1.289   1.682
 3638SOL     OW11812   6.055   4.829   3.365
 3638SOL    HW111813   6.088   4.882   3.286
 3638SOL    HW211814   6.078   4.733   3.352
 3639SOL     OW11815   2.693   5.723   6.697
 3639SOL    HW111816   2.599   5.691   6.704
 3639SOL    HW211817   2.755   5.644   6.698
 3640SOL     OW11818   2.568   6.982   1.587
 3640SOL    HW111819   2.483   0.004   1.615
 3640SOL    HW211820   2.557   6.883   1.589
 3641SOL     OW11821   2.163   0.696   4.768
 3641SOL    HW111822   2.150   0.791   4.795
 3641SOL    HW211823   2.098   0.672   4.696
 3642SOL     OW11824   6.001   6.692   2.311
 3642SOL    HW111825   6.066   6.688   2.235
 3642SOL    HW211826   5.951   6.779   2.308
 3643SOL     OW11827   3.733   4.941   5.761
 3643SOL    HW111828   3.704   4.848   5.786
 3643SOL    HW211829   3.655   4.991   5.723
 3644SOL     OW11830   6.722   0.145   0.351
 3644SOL    HW111831   6.716   0.207   0.273
 3644SOL    HW211832   6.751   0.195   0.432
 3645SOL     OW11833   3.773   6.523   2.754
 3645SOL    HW111834   3.730   6.468   2.826
 3645SOL    HW211835   3.785   6.616   2.787
 3646SOL     OW11836   6.752   5.548   4.054
 3646SOL    HW111837   6.799   5.461   4.041
 3646SOL    HW211838   6.807   5.621   4.012
 3647SOL     OW11839   2.355   2.413   1.527
 3647SOL    HW111840   2.268   2.460   1.513
 3647SOL    HW211841   2.430   2.477   1.509
 3648SOL     OW11842   3.181   5.864   3.416
 3648SOL    HW111843   3.134   5.843   3.502
 3648SOL    HW211844   3.277   5.885   3.434
 3649SOL     OW11845   3.339   3.244   2.545
 3649SOL    HW111846   3.375   3.155   2.573
 3649SOL    HW211847   3.314   3.241   2.449
 3650SOL     OW11848   5.486   6.695   1.411
 3650SOL    HW111849   5.476   6.598   1.389
 3650SOL    HW211850   5.542   6.705   1.493
 3651SOL     OW11851   1.199   6.245   2.499
 3651SOL    HW111852   1.142   6.165   2.479
 3651SOL    HW211853   1.153   6.303   2.566
 3652SOL     OW11854   4.418   5.182   2.488
 3652SOL    HW111855   4.491   5.116   2.508
 3652SOL    HW211856   4.340   5.135   2.447
 3653SOL     OW11857   0.018   2.906   4.724
 3653SOL    HW111858   0.042   3.003   4.721
 3653SOL    HW211859   6.966   2.892   4.790
 3654SOL     OW11860   1.095   5.437   1.371
 3654SOL    HW111861   1.136   5.466   1.285
 3654SOL    HW211862   1.103   5.510   1.438
 3655SOL     OW11863   0.331   1.115   3.753
 3655SOL    HW111864   0.402   1.180   3.780
 3655SOL    HW211865   0.319   1.046   3.825
 3656SOL     OW11866   2.755   1.214   2.762
 3656SOL    HW111867   2.693   1.277   2.715
 3656SOL    HW211868   2.830   1.189   2.701
 3657SOL     OW11869   4.183   4.840   1.942
 3657SOL    HW111870   4.100   4.785   1.938
 3657SOL    HW211871   4.262   4.781   1.960
 3658SOL     OW11872   2.262   5.425   5.503
 3658SOL    HW111873   2.353   5.382   5.504
 3658SOL    HW211874   2.207   5.387   5.578
 3659SOL     OW11875   0.950   4.031   0.294
 3659SOL    HW111876   1.043   4.002   0.273
 3659SOL    HW211877   0.922   3.991   0.381
 3660SOL     OW11878   4.468   5.271   1.091
 3660SOL    HW111879   4.403   5.237   1.024
 3660SOL    HW211880   4.506   5.195   1.143
 3661SOL     OW11881   4.843   1.838   1.017
 3661SOL    HW111882   4.920   1.798   1.067
 3661SOL    HW211883   4.757   1.806   1.056
 3662SOL     OW11884   2.809   6.302   4.919
 3662SOL    HW111885   2.772   6.303   5.011
 3662SOL    HW211886   2.863   6.385   4.903
 3663SOL     OW11887   1.517   3.608   6.401
 3663SOL    HW111888   1.515   3.529   6.463
 3663SOL    HW211889   1.446   3.596   6.332
 3664SOL     OW11890   4.257   0.329   0.908
 3664SOL    HW111891   4.166   0.347   0.944
 3664SOL    HW211892   4.304   0.264   0.967
 3665SOL     OW11893   1.584   0.138   5.324
 3665SOL    HW111894   1.560   0.046   5.353
 3665SOL    HW211895   1.591   0.141   5.224
 3666SOL     OW11896   0.925   4.732   4.153
 3666SOL    HW111897   0.837   4.757   4.113
 3666SOL    HW211898   0.929   4.767   4.247
 3667SOL     OW11899   0.197   1.510   6.734
 3667SOL    HW111900   0.151   1.567   6.802
 3667SOL    HW211901   0.231   1.569   6.660
 3668SOL     OW11902   1.742   6.100   2.156
 3668SOL    HW111903   1.647   6.070   2.154
 3668SOL    HW211904   1.784   6.076   2.243
 3669SOL     OW11905   5.856   1.752   3.744
 3669SOL    HW111906   5.928   1.821   3.752
 3669SOL    HW211907   5.889   1.665   3.780
 3670SOL     OW11908   2.077   5.306   6.131
 3670SOL    HW111909   2.017   5.300   6.210
 3670SOL    HW211910   2.080   5.401   6.099
 3671SOL     OW11911   1.529   1.018   2.649
 3671SOL    HW111912   1.497   0.951   2.717
 3671SOL    HW211913   1.476   1.008   2.565
 3672SOL     OW11914   6.556   7.010   0.543
 3672SOL    HW111915   6.605   0.057   0.490
 3672SOL    HW211916   6.610   6.926   0.546
 3673SOL     OW11917   4.100   0.441   6.626
 3673SOL    HW111918   4.179   0.498   6.603
 3673SOL    HW211919   4.020   0.472   6.575
 3674SOL     OW11920   1.665   6.464   0.937
 3674SOL    HW111921   1.759   6.440   0.964
 3674SOL    HW211922   1.628   6.393   0.878
 3675SOL     OW11923   1.515   1.771   4.505
 3675SOL    HW111924   1.596   1.821   4.536
 3675SOL    HW211925   1.538   1.674   4.494
 3676SOL     OW11926   2.016   4.915   2.927
 3676SOL    HW111927   1.938   4.853   2.923
 3676SOL    HW211928   1.988   5.005   2.895
 3677SOL     OW11929   6.656   6.752   3.675
 3677SOL    HW111930   6.604   6.810   3.738
 3677SOL    HW211931   6.696   6.676   3.726
 3678SOL     OW11932   0.989   1.565   3.409
 3678SOL    HW111933   1.029   1.507   3.338
 3678SOL    HW211934   1.054   1.636   3.436
 3679SOL     OW11935   0.327   0.729   1.391
 3679SOL    HW111936   0.389   0.655   1.366
 3679SOL    HW211937   0.274   0.756   1.310
 3680SOL     OW11938   6.462   4.166   4.511
 3680SOL    HW111939   6.460   4.140   4.607
 3680SOL    HW211940   6.512   4.096   4.459
 3681SOL     OW11941   5.449   6.327   5.075
 3681SOL    HW111942   5.393   6.244   5.079
 3681SOL    HW211943   5.546   6.303   5.072
 3682SOL     OW11944   0.385   2.268   6.422
 3682SOL    HW111945   0.338   2.328   6.357
 3682SOL    HW211946   0.478   2.302   6.438
 3683SOL     OW11947   5.087   5.983   3.570
 3683SOL    HW111948   5.144   6.060   3.599
 3683SOL    HW211949   5.143   5.921   3.514
 3684SOL     OW11950   1.597   2.943   0.966
 3684SOL    HW111951   1.680   2.904   0.925
 3684SOL    HW211952   1.590   3.040   0.943
 3685SOL     OW11953   6.451   6.687   6.451
 3685SOL    HW111954   6.394   6.605   6.458
 3685SOL    HW211955   6.460   6.730   6.541
 3686SOL     OW11956   5.712   4.565   1.442
 3686SOL    HW111957   5.765   4.645   1.414
 3686SOL    HW211958   5.740   4.486   1.387
 3687SOL     OW11959   3.067   1.071   6.759
 3687SOL    HW111960   3.151   1.016   6.762
 3687SOL    HW211961   3.018   1.051   6.674
 3688SOL     OW11962   6.929   3.216   6.977
 3688SOL    HW111963   6.954   3.182   6.887
 3688SOL    HW211964   7.012   3.228   0.010
 3689SOL     OW11965   2.844   0.274   3.747
 3689SOL    HW111966   2.847   0.206   3.820
 3689SOL    HW211967   2.781   0.244   3.675
 3690SOL     OW11968   4.384   6.316   5.272
 3690SOL    HW111969   4.478   6.346   5.286
 3690SOL    HW211970   4.362   6.244   5.338
 3691SOL     OW11971   3.687   2.561   0.140
 3691SOL    HW111972   3.627   2.489   0.175
 3691SOL    HW211973   3.780   2.547   0.173
 3692SOL     OW11974   1.358   0.172   6.581
 3692SOL    HW111975   1.446   0.134   6.551
 3692SOL    HW211976   1.366   0.271   6.592
 3693SOL     OW11977   2.600   1.566   3.476
 3693SOL    HW111978   2.617   1.509   3.395
 3693SOL    HW211979   2.684   1.576   3.529
 3694SOL     OW11980   2.197   5.948   2.894
 3694SOL    HW111981   2.152   5.927   2.981
 3694SOL    HW211982   2.291   5.976   2.911
 3695SOL     OW11983   1.777   2.602   1.485
 3695SOL    HW111984   1.697   2.580   1.541
 3695SOL    HW211985   1.853   2.543   1.511
 3696SOL     OW11986   2.918   5.800   5.803
 3696SOL    HW111987   3.007   5.768   5.770
 3696SOL    HW211988   2.929   5.891   5.843
 3697SOL     OW11989   5.308   0.218   4.361
 3697SOL    HW111990   5.401   0.205   4.328
 3697SOL    HW211991   5.258   0.132   4.356
 3698SOL     OW11992   2.886   0.239   5.941
 3698SOL    HW111993   2.838   0.257   6.027
 3698SOL    HW211994   2.847   0.296   5.868
 3699SOL     OW11995   1.553   4.088   2.221
 3699SOL    HW111996   1.598   4.177   2.216
 3699SOL    HW211997   1.537   4.064   2.317
 3700SOL     OW11998   0.603   0.176   4.198
 3700SOL    HW111999   0.505   0.171   4.216
 3700SOL    HW212000   0.619   0.173   4.100
 3701SOL     OW12001   5.496   0.396   3.571
 3701SOL    HW112002   5.413   0.416   3.622
 3701SOL    HW212003   5.572   0.448   3.611
 3702SOL     OW12004   4.269   0.845   6.779
 3702SOL    HW112005   4.180   0.853   6.825
 3702SOL    HW212006   4.258   0.789   6.696
 3703SOL     OW12007   4.322   4.349   0.162
 3703SOL    HW112008   4.406   4.294   0.161
 3703SOL    HW212009   4.318   4.405   0.079
 3704SOL     OW12010   2.491   0.406   2.179
 3704SOL    HW112011   2.518   0.334   2.116
 3704SOL    HW212012   2.520   0.495   2.144
 3705SOL     OW12013   5.687   1.277   4.270
 3705SOL    HW112014   5.596   1.288   4.310
 3705SOL    HW212015   5.719   1.184   4.284
 3706SOL     OW12016   2.279   2.116   3.542
 3706SOL    HW112017   2.305   2.194   3.485
 3706SOL    HW212018   2.184   2.127   3.571
 3707SOL     OW12019   4.397   2.380   5.215
 3707SOL    HW112020   4.347   2.383   5.130
 3707SOL    HW212021   4.438   2.289   5.227
 3708SOL     OW12022   6.251   6.642   6.007
 3708SOL    HW112023   6.311   6.612   5.933
 3708SOL    HW212024   6.204   6.726   5.980
 3709SOL     OW12025   4.662   0.302   6.901
 3709SOL    HW112026   4.674   0.376   6.835
 3709SOL    HW212027   4.705   0.328   6.988
 3710SOL     OW12028   6.914   5.237   0.437
 3710SOL    HW112029   6.972   5.203   0.511
 3710SOL    HW212030   6.969   5.244   0.353
 3711SOL     OW12031   6.627   5.154   2.856
 3711SOL    HW112032   6.646   5.060   2.885
 3711SOL    HW212033   6.530   5.163   2.833
 3712SOL     OW12034   1.802   0.121   0.707
 3712SOL    HW112035   1.719   0.066   0.719
 3712SOL    HW212036   1.822   0.170   0.791
 3713SOL     OW12037   4.260   5.939   6.112
 3713SOL    HW112038   4.204   5.973   6.188
 3713SOL    HW212039   4.271   6.011   6.043
 3714SOL     OW12040   4.086   1.381   5.503
 3714SOL    HW112041   4.035   1.381   5.417
 3714SOL    HW212042   4.155   1.453   5.501
 3715SOL     OW12043   5.235   4.079   3.943
 3715SOL    HW112044   5.252   3.995   3.891
 3715SOL    HW212045   5.227   4.156   3.880
 3716SOL     OW12046   0.298   1.944   4.701
 3716SOL    HW112047   0.300   1.942   4.601
 3716SOL    HW212048   0.387   1.915   4.737
 3717SOL     OW12049   6.017   0.212   0.065
 3717SOL    HW112050   6.019   0.248   0.158
 3717SOL    HW212051   5.960   0.270   0.007
 3718SOL     OW12052   0.902   5.452   0.351
 3718SOL    HW112053   0.922   5.382   0.420
 3718SOL    HW212054   0.805   5.474   0.352
 3719SOL     OW12055   3.807   5.373   6.176
 3719SOL    HW112056   3.717   5.354   6.138
 3719SOL    HW212057   3.876   5.363   6.104
 3720SOL     OW12058   0.376   1.786   6.036
 3720SOL    HW112059   0.445   1.722   6.070
 3720SOL    HW212060   0.408   1.880   6.049
 3721SOL     OW12061   4.581   3.223   0.773
 3721SOL    HW112062   4.488   3.187   0.785
 3721SOL    HW212063   4.578   3.322   0.771
 3722SOL     OW12064   5.933   5.835   1.476
 3722SOL    HW112065   5.983   5.912   1.515
 3722SOL    HW212066   5.983   5.750   1.494
 3723SOL     OW12067   4.054   1.326   0.580
 3723SOL    HW112068   4.003   1.316   0.495
 3723SOL    HW212069   4.061   1.238   0.626
 3724SOL     OW12070   6.975   4.933   5.890
 3724SOL    HW112071   0.021   4.877   5.843
 3724SOL    HW212072   6.885   4.917   5.850
 3725SOL     OW12073   6.410   0.365   0.711
 3725SOL    HW112074   6.478   0.402   0.775
 3725SOL    HW212075   6.429   0.268   0.695
 3726SOL     OW12076   5.826   3.249   1.765
 3726SOL    HW112077   5.760   3.206   1.826
 3726SOL    HW212078   5.800   3.345   1.750
 3727SOL     OW12079   2.633   2.783   5.321
 3727SOL    HW112080   2.671   2.730   5.245
 3727SOL    HW212081   2.595   2.869   5.286
 3728SOL     OW12082   0.389   3.337   6.802
 3728SOL    HW112083   0.449   3.412   6.773
 3728SOL    HW212084   0.297   3.351   6.764
 3729SOL     OW12085   0.264   2.806   3.259
 3729SOL    HW112086   0.285   2.882   3.197
 3729SOL    HW212087   0.262   2.839   3.353
 3730SOL     OW12088   2.201   0.700   0.616
 3730SOL    HW112089   2.229   0.793   0.641
 3730SOL    HW212090   2.143   0.663   0.688
 3731SOL     OW12091   3.125   6.262   6.154
 3731SOL    HW112092   3.047   6.313   6.118
 3731SOL    HW212093   3.108   6.163   6.144
 3732SOL     OW12094   2.055   3.665   4.513
 3732SOL    HW112095   2.106   3.695   4.432
 3732SOL    HW212096   2.118   3.648   4.588
 3733SOL     OW12097   2.995   3.544   1.170
 3733SOL    HW112098   3.085   3.514   1.139
 3733SOL    HW212099   2.944   3.583   1.093
 3734SOL     OW12100   5.151   0.039   3.409
 3734SOL    HW112101   5.108   6.983   3.366
 3734SOL    HW212102   5.149   0.028   3.509
 3735SOL     OW12103   3.374   1.823   1.805
 3735SOL    HW112104   3.399   1.752   1.739
 3735SOL    HW212105   3.451   1.886   1.817
 3736SOL     OW12106   4.599   1.496   5.972
 3736SOL    HW112107   4.625   1.406   5.939
 3736SOL    HW212108   4.682   1.549   5.991
 3737SOL     OW12109   3.803   6.700   3.298
 3737SOL    HW112110   3.811   6.798   3.279
 3737SOL    HW212111   3.718   6.683   3.348
 3738SOL     OW12112   6.864   6.705   4.125
 3738SOL    HW112113   6.858   6.786   4.066
 3738SOL    HW212114   6.957   6.697   4.160
 3739SOL     OW12115   0.489   3.877   1.835
 3739SOL    HW112116   0.431   3.901   1.757
 3739SOL    HW212117   0.503   3.778   1.837
 3740SOL     OW12118   5.418   1.030   0.160
 3740SOL    HW112119   5.403   1.113   0.105
 3740SOL    HW212120   5.511   0.998   0.147
 3741SOL     OW12121   3.369   2.242   6.814
 3741SOL    HW112122   3.408   2.218   6.903
 3741SOL    HW212123   3.352   2.159   6.762
 3742SOL     OW12124   3.085   3.661   5.383
 3742SOL    HW112125   2.989   3.659   5.411
 3742SOL    HW212126   3.101   3.738   5.322
 3743SOL     OW12127   0.827   5.986   6.029
 3743SOL    HW112128   0.772   5.955   5.952
 3743SOL    HW212129   0.768   6.004   6.108
 3744SOL     OW12130   6.993   5.613   3.166
 3744SOL    HW112131   6.922   5.602   3.097
 3744SOL    HW212132   0.060   5.591   3.126
 3745SOL     OW12133   5.161   5.659   1.679
 3745SOL    HW112134   5.230   5.730   1.665
 3745SOL    HW212135   5.121   5.670   1.770
 3746SOL     OW12136   4.182   1.535   2.305
 3746SOL    HW112137   4.259   1.598   2.315
 3746SOL    HW212138   4.104   1.568   2.359
 3747SOL     OW12139   2.615   0.441   0.844
 3747SOL    HW112140   2.659   0.368   0.793
 3747SOL    HW212141   2.516   0.429   0.841
 3748SOL     OW12142   5.732   0.961   2.465
 3748SOL    HW112143   5.786   1.026   2.520
 3748SOL    HW212144   5.724   0.874   2.515
 3749SOL     OW12145   1.652   0.632   4.497
 3749SOL    HW112146   1.650   0.607   4.401
 3749SOL    HW212147   1.593   0.570   4.549
 3750SOL     OW12148   0.190   4.816   6.918
 3750SOL    HW112149   0.177   4.719   6.939
 3750SOL    HW212150   0.102   4.862   6.917
 3751SOL     OW12151   1.785   3.961   1.280
 3751SOL    HW112152   1.691   3.933   1.261
 3751SOL    HW212153   1.798   3.968   1.379
 3752SOL     OW12154   5.537   6.369   6.874
 3752SOL    HW112155   5.539   6.381   6.775
 3752SOL    HW212156   5.613   6.311   6.902
 3753SOL     OW12157   6.856   7.012   3.615
 3753SOL    HW112158   6.872   0.033   3.526
 3753SOL    HW212159   6.903   0.041   3.687
 3754SOL     OW12160   1.881   1.175   1.304
 3754SOL    HW112161   1.869   1.191   1.402
 3754SOL    HW212162   1.967   1.217   1.274
 3755SOL     OW12163   3.269   5.270   4.240
 3755SOL    HW112164   3.224   5.315   4.317
 3755SOL    HW212165   3.275   5.172   4.257
 3756SOL     OW12166   1.837   6.476   0.608
 3756SOL    HW112167   1.926   6.431   0.608
 3756SOL    HW212168   1.781   6.439   0.681
 3757SOL     OW12169   0.301   4.579   1.295
 3757SOL    HW112170   0.280   4.575   1.197
 3757SOL    HW212171   0.270   4.667   1.331
 3758SOL     OW12172   1.997   0.103   3.867
 3758SOL    HW112173   2.017   0.088   3.770
 3758SOL    HW212174   2.025   0.196   3.893
 3759SOL     OW12175   5.376   0.344   3.988
 3759SOL    HW112176   5.323   0.259   3.995
 3759SOL    HW212177   5.364   0.398   4.071
 3760SOL     OW12178   0.980   1.134   2.935
 3760SOL    HW112179   0.894   1.183   2.949
 3760SOL    HW212180   1.016   1.156   2.844
 3761SOL     OW12181   4.361   1.846   5.266
 3761SOL    HW112182   4.345   1.750   5.288
 3761SOL    HW212183   4.296   1.875   5.195
 3762SOL     OW12184   0.097   2.993   3.821
 3762SOL    HW112185   0.113   2.915   3.881
 3762SOL    HW212186   0.152   2.984   3.739
 3763SOL     OW12187   0.730   4.748   6.837
 3763SOL    HW112188   0.710   4.728   6.741
 3763SOL    HW212189   0.660   4.708   6.895
 3764SOL     OW12190   2.659   0.635   2.778
 3764SOL    HW112191   2.573   0.682   2.758
 3764SOL    HW212192   2.720   0.696   2.830
 3765SOL     OW12193   5.749   2.459   3.095
 3765SOL    HW112194   5.759   2.360   3.101
 3765SOL    HW212195   5.815   2.503   3.156
 3766SOL     OW12196   1.480   3.399   1.948
 3766SOL    HW112197   1.409   3.329   1.938
 3766SOL    HW212198   1.436   3.490   1.948
 3767SOL     OW12199   1.666   5.997   6.129
 3767SOL    HW112200   1.700   6.066   6.193
 3767SOL    HW212201   1.585   6.033   6.082
 3768SOL     OW12202   1.413   0.080   2.611
 3768SOL    HW112203   1.443   7.014   2.574
 3768SOL    HW212204   1.380   0.068   2.705
 3769SOL     OW12205   5.337   5.535   4.394
 3769SOL    HW112206   5.350   5.605   4.324
 3769SOL    HW212207   5.417   5.534   4.455
 3770SOL     OW12208   2.331   0.925   1.230
 3770SOL    HW112209   2.407   0.973   1.273
 3770SOL    HW212210   2.249   0.933   1.288
 3771SOL     OW12211   6.405   5.262   5.469
 3771SOL    HW112212   6.344   5.330   5.508
 3771SOL    HW212213   6.418   5.282   5.372
 3772SOL     OW12214   1.468   5.750   1.541
 3772SOL    HW112215   1.403   5.758   1.616
 3772SOL    HW212216   1.510   5.839   1.523
 3773SOL     OW12217   4.945   4.962   6.997
 3773SOL    HW112218   4.861   4.908   6.987
 3773SOL    HW212219   4.951   5.029   6.924
 3774SOL     OW12220   6.381   4.867   1.917
 3774SOL    HW112221   6.291   4.836   1.885
 3774SOL    HW212222   6.394   4.963   1.892
 3775SOL     OW12223   4.707   4.993   5.205
 3775SOL    HW112224   4.610   5.011   5.189
 3775SOL    HW212225   4.759   5.078   5.193
 3776SOL     OW12226   4.427   3.056   6.311
 3776SOL    HW112227   4.402   3.035   6.406
 3776SOL    HW212228   4.514   3.012   6.289
 3777SOL     OW12229   3.030   4.940   4.509
 3777SOL    HW112230   2.942   4.892   4.503
 3777SOL    HW212231   3.076   4.936   4.421
 3778SOL     OW12232   3.290   5.335   6.558
 3778SOL    HW112233   3.234   5.418   6.556
 3778SOL    HW212234   3.346   5.335   6.641
 3779SOL     OW12235   6.746   4.427   6.900
 3779SOL    HW112236   6.678   4.469   6.960
 3779SOL    HW212237   6.805   4.498   6.862
 3780SOL     OW12238   5.726   3.496   2.299
 3780SOL    HW112239   5.739   3.549   2.215
 3780SOL    HW212240   5.787   3.530   2.370
 3781SOL     OW12241   1.907   5.796   5.092
 3781SOL    HW112242   1.927   5.856   5.014
 3781SOL    HW212243   1.824   5.744   5.074
 3782SOL     OW12244   4.132   4.852   1.132
 3782SOL    HW112245   4.079   4.830   1.214
 3782SOL    HW212246   4.218   4.800   1.132
 3783SOL     OW12247   4.612   5.218   4.713
 3783SOL    HW112248   4.593   5.131   4.757
 3783SOL    HW212249   4.538   5.240   4.648
 3784SOL     OW12250   5.960   2.893   5.429
 3784SOL    HW112251   5.939   2.990   5.419
 3784SOL    HW212252   5.899   2.852   5.497
 3785SOL     OW12253   1.492   2.656   2.931
 3785SOL    HW112254   1.445   2.610   3.006
 3785SOL    HW212255   1.448   2.633   2.844
 3786SOL     OW12256   2.170   3.273   4.646
 3786SOL    HW112257   2.173   3.216   4.728
 3786SOL    HW212258   2.199   3.366   4.669
 3787SOL     OW12259   5.194   6.428   3.941
 3787SOL    HW112260   5.293   6.417   3.931
 3787SOL    HW212261   5.150   6.338   3.940
 3788SOL     OW12262   5.123   2.944   6.120
 3788SOL    HW112263   5.053   2.889   6.074
 3788SOL    HW212264   5.200   2.885   6.146
 3789SOL     OW12265   2.584   2.771   1.043
 3789SOL    HW112266   2.488   2.769   1.015
 3789SOL    HW212267   2.627   2.853   1.006
 3790SOL     OW12268   0.740   6.468   1.362
 3790SOL    HW112269   0.807   6.519   1.308
 3790SOL    HW212270   0.782   6.385   1.399
 3791SOL     OW12271   5.050   0.539   5.785
 3791SOL    HW112272   4.958   0.530   5.749
 3791SOL    HW212273   5.067   0.633   5.813
 3792SOL     OW12274   6.822   0.078   4.348
 3792SOL    HW112275   6.754   0.096   4.277
 3792SOL    HW212276   6.872   7.017   4.325
 3793SOL     OW12277   3.839   4.657   0.540
 3793SOL    HW112278   3.833   4.591   0.465
 3793SOL    HW212279   3.920   4.637   0.596
 3794SOL     OW12280   1.016   4.918   6.271
 3794SOL    HW112281   1.021   4.903   6.370
 3794SOL    HW212282   0.926   4.954   6.247
 3795SOL     OW12283   2.972   6.011   0.908
 3795SOL    HW112284   2.952   5.927   0.958
 3795SOL    HW212285   3.060   6.048   0.938
 3796SOL     OW12286   4.602   0.744   0.340
 3796SOL    HW112287   4.530   0.729   0.272
 3796SOL    HW212288   4.691   0.739   0.296
 3797SOL     OW12289   0.272   3.299   1.393
 3797SOL    HW112290   0.201   3.306   1.463
 3797SOL    HW212291   0.246   3.355   1.314
 3798SOL     OW12292   1.548   5.354   3.936
 3798SOL    HW112293   1.466   5.333   3.990
 3798SOL    HW212294   1.627   5.359   3.997
 3799SOL     OW12295   6.889   1.217   3.487
 3799SOL    HW112296   6.864   1.305   3.447
 3799SOL    HW212297   6.984   1.220   3.517
 3800SOL     OW12298   5.710   2.176   3.100
 3800SOL    HW112299   5.686   2.126   3.017
 3800SOL    HW212300   5.747   2.112   3.168
 3801SOL     OW12301   6.173   0.747   1.242
 3801SOL    HW112302   6.124   0.668   1.278
 3801SOL    HW212303   6.260   0.717   1.203
 3802SOL     OW12304   6.358   3.538   1.652
 3802SOL    HW112305   6.334   3.626   1.610
 3802SOL    HW212306   6.398   3.555   1.743
 3803SOL     OW12307   3.502   3.859   4.909
 3803SOL    HW112308   3.448   3.800   4.849
 3803SOL    HW212309   3.491   3.829   5.003
 3804SOL     OW12310   3.694   6.353   3.435
 3804SOL    HW112311   3.699   6.347   3.535
 3804SOL    HW212312   3.786   6.344   3.397
 3805SOL     OW12313   2.436   2.598   6.698
 3805SOL    HW112314   2.355   2.589   6.755
 3805SOL    HW212315   2.427   2.679   6.639
 3806SOL     OW12316   2.302   5.068   1.493
 3806SOL    HW112317   2.227   5.061   1.558
 3806SOL    HW212318   2.377   5.008   1.521
 3807SOL     OW12319   1.631   4.134   3.981
 3807SOL    HW112320   1.649   4.150   4.077
 3807SOL    HW212321   1.663   4.043   3.955
 3808SOL     OW12322   2.898   6.563   5.125
 3808SOL    HW112323   2.898   6.634   5.054
 3808SOL    HW212324   2.935   6.601   5.209
 3809SOL     OW12325   5.531   1.904   2.058
 3809SOL    HW112326   5.597   1.950   1.999
 3809SOL    HW212327   5.576   1.826   2.103
 3810SOL     OW12328   4.713   2.010   3.020
 3810SOL    HW112329   4.739   1.914   3.012
 3810SOL    HW212330   4.706   2.051   2.929
 3811SOL     OW12331   6.976   5.331   5.191
 3811SOL    HW112332   6.976   5.233   5.211
 3811SOL    HW212333   0.048   5.363   5.183
 3812SOL     OW12334   4.604   5.217   0.411
 3812SOL    HW112335   4.633   5.123   0.392
 3812SOL    HW212336   4.540   5.247   0.340
 3813SOL     OW12337   6.180   4.249   0.343
 3813SOL    HW112338   6.119   4.170   0.338
 3813SOL    HW212339   6.267   4.222   0.384
 3814SOL     OW12340   6.860   0.266   4.569
 3814SOL    HW112341   6.860   0.215   4.483
 3814SOL    HW212342   6.811   0.352   4.556
 3815SOL     OW12343   6.005   3.410   6.074
 3815SOL    HW112344   5.959   3.321   6.081
 3815SOL    HW212345   6.045   3.434   6.163
 3816SOL     OW12346   6.673   6.101   1.715
 3816SOL    HW112347   6.583   6.095   1.758
 3816SOL    HW212348   6.739   6.138   1.781
 3817SOL     OW12349   4.572   3.490   1.524
 3817SOL    HW112350   4.524   3.573   1.552
 3817SOL    HW212351   4.516   3.441   1.457
 3818SOL     OW12352   6.108   6.163   2.737
 3818SOL    HW112353   6.036   6.098   2.712
 3818SOL    HW212354   6.171   6.120   2.802
 3819SOL     OW12355   5.914   3.474   3.557
 3819SOL    HW112356   5.967   3.422   3.623
 3819SOL    HW212357   5.905   3.569   3.588
 3820SOL     OW12358   3.334   6.495   5.018
 3820SOL    HW112359   3.277   6.448   5.086
 3820SOL    HW212360   3.310   6.462   4.926
 3821SOL     OW12361   1.630   6.918   0.268
 3821SOL    HW112362   1.649   7.011   0.300
 3821SOL    HW212363   1.653   6.910   0.171
 3822SOL     OW12364   5.005   0.370   1.993
 3822SOL    HW112365   4.923   0.317   2.014
 3822SOL    HW212366   5.038   0.347   1.902
 3823SOL     OW12367   6.042   6.084   5.842
 3823SOL    HW112368   6.119   6.144   5.859
 3823SOL    HW212369   5.976   6.130   5.783
 3824SOL     OW12370   2.306   2.795   0.903
 3824SOL    HW112371   2.335   2.829   0.813
 3824SOL    HW212372   2.297   2.872   0.966
 3825SOL     OW12373   0.738   4.921   5.707
 3825SOL    HW112374   0.695   4.904   5.796
 3825SOL    HW212375   0.723   4.842   5.647
 3826SOL     OW12376   5.347   4.162   3.689
 3826SOL    HW112377   5.355   4.162   3.590
 3826SOL    HW212378   5.356   4.068   3.723
 3827SOL     OW12379   0.330   2.149   0.528
 3827SOL    HW112380   0.327   2.237   0.574
 3827SOL    HW212381   0.425   2.120   0.517
 3828SOL     OW12382   3.957   3.295   3.526
 3828SOL    HW112383   3.966   3.201   3.559
 3828SOL    HW212384   3.983   3.358   3.600
 3829SOL     OW12385   0.781   3.736   2.208
 3829SOL    HW112386   0.707   3.785   2.253
 3829SOL    HW212387   0.773   3.638   2.226
 3830SOL     OW12388   5.751   0.400   3.730
 3830SOL    HW112389   5.718   0.471   3.667
 3830SOL    HW212390   5.849   0.413   3.747
 3831SOL     OW12391   4.644   2.390   3.562
 3831SOL    HW112392   4.556   2.349   3.587
 3831SOL    HW212393   4.670   2.458   3.630
 3832SOL     OW12394   6.684   0.799   3.548
 3832SOL    HW112395   6.668   0.894   3.577
 3832SOL    HW212396   6.697   0.797   3.449
 3833SOL     OW12397   1.298   2.647   5.337
 3833SOL    HW112398   1.287   2.623   5.241
 3833SOL    HW212399   1.295   2.747   5.347
 3834SOL     OW12400   4.886   4.231   0.602
 3834SOL    HW112401   4.843   4.207   0.689
 3834SOL    HW212402   4.826   4.203   0.527
 3835SOL     OW12403   4.128   5.857   4.853
 3835SOL    HW112404   4.155   5.791   4.782
 3835SOL    HW212405   4.052   5.819   4.905
 3836SOL     OW12406   6.954   6.082   5.294
 3836SOL    HW112407   0.031   6.091   5.280
 3836SOL    HW212408   6.937   6.045   5.386
 3837SOL     OW12409   4.529   4.375   5.873
 3837SOL    HW112410   4.437   4.373   5.835
 3837SOL    HW212411   4.548   4.466   5.910
 3838SOL     OW12412   0.425   0.593   4.183
 3838SOL    HW112413   0.467   0.544   4.107
 3838SOL    HW212414   0.443   0.543   4.269
 3839SOL     OW12415   5.318   0.471   3.779
 3839SOL    HW112416   5.361   0.561   3.787
 3839SOL    HW212417   5.333   0.419   3.863
 3840SOL     OW12418   2.902   1.107   6.542
 3840SOL    HW112419   2.831   1.083   6.475
 3840SOL    HW212420   2.867   1.179   6.602
 3841SOL     OW12421   6.403   4.562   4.379
 3841SOL    HW112422   6.386   4.596   4.471
 3841SOL    HW212423   6.400   4.462   4.379
 3842SOL     OW12424   1.877   3.879   5.228
 3842SOL    HW112425   1.882   3.835   5.318
 3842SOL    HW212426   1.812   3.956   5.233
 3843SOL     OW12427   4.850   2.355   0.017
 3843SOL    HW112428   4.928   2.392   6.988
 3843SOL    HW212429   4.799   2.431   0.058
 3844SOL     OW12430   0.228   6.888   1.315
 3844SOL    HW112431   0.152   6.825   1.297
 3844SOL    HW212432   0.250   6.888   1.412
 3845SOL     OW12433   2.252   5.262   0.352
 3845SOL    HW112434   2.344   5.230   0.328
 3845SOL    HW212435   2.256   5.360   0.373
 3846SOL     OW12436   0.319   3.190   3.099
 3846SOL    HW112437   0.297   3.246   3.179
 3846SOL    HW212438   0.339   3.250   3.022
 3847SOL     OW12439   6.842   1.964   0.131
 3847SOL    HW112440   6.895   2.024   0.192
 3847SOL    HW212441   6.778   2.020   0.078
 3848SOL     OW12442   5.468   4.038   2.401
 3848SOL    HW112443   5.389   4.081   2.445
 3848SOL    HW212444   5.443   3.945   2.373
 3849SOL     OW12445   6.698   4.563   6.405
 3849SOL    HW112446   6.722   4.648   6.357
 3849SOL    HW212447   6.759   4.490   6.375
 3850SOL     OW12448   2.757   2.424   1.435
 3850SOL    HW112449   2.752   2.402   1.338
 3850SOL    HW212450   2.751   2.341   1.489
 3851SOL     OW12451   0.280   6.387   2.413
 3851SOL    HW112452   0.290   6.447   2.492
 3851SOL    HW212453   0.231   6.304   2.439
 3852SOL     OW12454   1.962   6.796   5.230
 3852SOL    HW112455   1.910   6.847   5.300
 3852SOL    HW212456   2.000   6.861   5.164
 3853SOL     OW12457   2.862   6.824   3.001
 3853SOL    HW112458   2.790   6.879   3.043
 3853SOL    HW212459   2.829   6.788   2.913
 3854SOL     OW12460   0.945   2.536   2.135
 3854SOL    HW112461   0.973   2.466   2.069
 3854SOL    HW212462   0.846   2.533   2.147
 3855SOL     OW12463   3.560   6.829   0.451
 3855SOL    HW112464   3.605   6.871   0.530
 3855SOL    HW212465   3.603   6.741   0.431
 3856SOL     OW12466   0.270   2.774   6.709
 3856SOL    HW112467   0.255   2.851   6.771
 3856SOL    HW212468   0.268   2.688   6.761
 3857SOL     OW12469   1.987   0.263   6.213
 3857SOL    HW112470   2.064   0.225   6.263
 3857SOL    HW212471   2.014   0.349   6.170
 3858SOL     OW12472   5.026   0.433   3.981
 3858SOL    HW112473   5.095   0.506   3.987
 3858SOL    HW212474   4.981   0.438   3.892
 3859SOL     OW12475   6.451   6.939   1.934
 3859SOL    HW112476   6.515   6.870   1.968
 3859SOL    HW212477   6.373   6.894   1.891
 3860SOL     OW12478   1.633   6.788   4.030
 3860SOL    HW112479   1.676   6.829   3.949
 3860SOL    HW212480   1.549   6.741   4.002
 3861SOL     OW12481   2.841   5.510   1.543
 3861SOL    HW112482   2.821   5.555   1.630
 3861SOL    HW212483   2.939   5.511   1.526
 3862SOL     OW12484   1.812   0.383   3.927
 3862SOL    HW112485   1.753   0.341   3.996
 3862SOL    HW212486   1.905   0.393   3.964
 3863SOL     OW12487   3.356   6.994   0.547
 3863SOL    HW112488   3.387   7.015   0.640
 3863SOL    HW212489   3.424   6.938   0.501
 3864SOL     OW12490   1.881   0.631   5.093
 3864SOL    HW112491   1.954   0.625   5.025
 3864SOL    HW212492   1.795   0.600   5.052
 3865SOL     OW12493   3.665   1.021   0.661
 3865SOL    HW112494   3.651   0.982   0.752
 3865SOL    HW212495   3.641   0.953   0.591
 3866SOL     OW12496   2.628   2.102   6.626
 3866SOL    HW112497   2.715   2.053   6.621
 3866SOL    HW212498   2.642   2.191   6.668
 3867SOL     OW12499   0.754   2.837   2.120
 3867SOL    HW112500   0.656   2.832   2.141
 3867SOL    HW212501   0.783   2.752   2.075
 3868SOL     OW12502   4.416   0.785   0.148
 3868SOL    HW112503   4.338   0.847   0.139
 3868SOL    HW212504   4.479   0.798   0.071
 3869SOL     OW12505   5.249   2.276   3.561
 3869SOL    HW112506   5.285   2.211   3.495
 3869SOL    HW212507   5.150   2.279   3.554
 3870SOL     OW12508   0.201   0.663   4.546
 3870SOL    HW112509   0.111   0.706   4.554
 3870SOL    HW212510   0.256   0.712   4.478
 3871SOL     OW12511   2.855   5.530   4.698
 3871SOL    HW112512   2.929   5.485   4.748
 3871SOL    HW212513   2.793   5.461   4.660
 3872SOL     OW12514   2.751   3.374   5.228
 3872SOL    HW112515   2.693   3.442   5.273
 3872SOL    HW212516   2.831   3.355   5.285
 3873SOL     OW12517   4.204   2.005   0.509
 3873SOL    HW112518   4.241   1.922   0.551
 3873SOL    HW212519   4.244   2.017   0.418
 3874SOL     OW12520   2.619   1.162   0.079
 3874SOL    HW112521   2.551   1.131   0.013
 3874SOL    HW212522   2.693   1.094   0.084
 3875SOL     OW12523   1.243   2.387   6.396
 3875SOL    HW112524   1.255   2.291   6.424
 3875SOL    HW212525   1.300   2.405   6.316
 3876SOL     OW12526   3.934   5.196   2.030
 3876SOL    HW112527   3.967   5.182   2.123
 3876SOL    HW212528   3.900   5.109   1.993
 3877SOL     OW12529   6.518   1.313   0.061
 3877SOL    HW112530   6.494   1.255   0.140
 3877SOL    HW212531   6.455   1.390   0.056
 3878SOL     OW12532   4.834   0.805   4.714
 3878SOL    HW112533   4.769   0.869   4.755
 3878SOL    HW212534   4.794   0.764   4.632
 3879SOL     OW12535   6.133   5.763   0.785
 3879SOL    HW112536   6.224   5.786   0.750
 3879SOL    HW212537   6.127   5.789   0.881
 3880SOL     OW12538   4.398   5.017   4.049
 3880SOL    HW112539   4.367   4.975   4.135
 3880SOL    HW212540   4.372   5.114   4.048
 3881SOL     OW12541   0.801   3.468   0.527
 3881SOL    HW112542   0.885   3.432   0.486
 3881SOL    HW212543   0.723   3.411   0.499
 3882SOL     OW12544   0.655   1.791   6.976
 3882SOL    HW112545   0.702   1.705   6.956
 3882SOL    HW212546   0.613   1.826   6.893
 3883SOL     OW12547   5.077   5.618   3.108
 3883SOL    HW112548   5.011   5.581   3.174
 3883SOL    HW212549   5.165   5.631   3.154
 3884SOL     OW12550   0.526   4.622   2.040
 3884SOL    HW112551   0.622   4.604   2.060
 3884SOL    HW212552   0.518   4.671   1.953
 3885SOL     OW12553   5.222   5.586   2.811
 3885SOL    HW112554   5.292   5.521   2.841
 3885SOL    HW212555   5.132   5.543   2.815
 3886SOL     OW12556   3.202   6.572   5.568
 3886SOL    HW112557   3.125   6.510   5.549
 3886SOL    HW212558   3.288   6.529   5.541
 3887SOL     OW12559   0.730   6.582   2.016
 3887SOL    HW112560   0.784   6.503   2.045
 3887SOL    HW212561   0.791   6.657   1.990
 3888SOL     OW12562   6.086   5.325   4.148
 3888SOL    HW112563   6.119   5.349   4.239
 3888SOL    HW212564   6.163   5.319   4.085
 3889SOL     OW12565   4.680   3.488   6.521
 3889SOL    HW112566   4.585   3.459   6.505
 3889SOL    HW212567   4.727   3.419   6.577
 3890SOL     OW12568   5.584   2.760   4.276
 3890SOL    HW112569   5.565   2.730   4.370
 3890SOL    HW212570   5.499   2.789   4.232
 3891SOL     OW12571   6.181   5.554   3.020
 3891SOL    HW112572   6.088   5.541   2.983
 3891SOL    HW212573   6.212   5.646   2.997
 3892SOL     OW12574   6.833   1.609   1.508
 3892SOL    HW112575   6.899   1.680   1.483
 3892SOL    HW212576   6.740   1.643   1.495
 3893SOL     OW12577   4.058   3.448   2.385
 3893SOL    HW112578   4.105   3.378   2.439
 3893SOL    HW212579   4.030   3.523   2.445
 3894SOL     OW12580   4.353   0.839   5.961
 3894SOL    HW112581   4.436   0.894   5.968
 3894SOL    HW212582   4.368   0.750   6.004
 3895SOL     OW12583   1.796   0.267   4.337
 3895SOL    HW112584   1.835   0.220   4.258
 3895SOL    HW212585   1.799   0.206   4.417
 3896SOL     OW12586   0.754   0.798   6.792
 3896SOL    HW112587   0.684   0.729   6.812
 3896SOL    HW212588   0.786   0.838   6.878
 3897SOL     OW12589   4.418   6.496   1.752
 3897SOL    HW112590   4.397   6.520   1.658
 3897SOL    HW212591   4.424   6.580   1.807
 3898SOL     OW12592   4.095   2.999   0.331
 3898SOL    HW112593   4.142   2.911   0.323
 3898SOL    HW212594   4.154   3.063   0.380
 3899SOL     OW12595   3.374   6.421   6.206
 3899SOL    HW112596   3.439   6.441   6.134
 3899SOL    HW212597   3.297   6.368   6.169
 3900SOL     OW12598   5.013   3.865   3.621
 3900SOL    HW112599   5.093   3.900   3.572
 3900SOL    HW212600   4.965   3.941   3.664
 3901SOL     OW12601   2.728   0.221   0.124
 3901SOL    HW112602   2.744   0.128   0.092
 3901SOL    HW212603   2.671   0.219   0.206
 3902SOL     OW12604   6.434   3.119   2.751
 3902SOL    HW112605   6.443   3.165   2.840
 3902SOL    HW212606   6.346   3.073   2.745
 3903SOL     OW12607   3.258   4.927   6.734
 3903SOL    HW112608   3.235   4.989   6.659
 3903SOL    HW212609   3.177   4.911   6.790
 3904SOL     OW12610   1.140   0.609   0.216
 3904SOL    HW112611   1.222   0.628   0.160
 3904SOL    HW212612   1.083   0.542   0.169
 3905SOL     OW12613   6.926   5.860   5.067
 3905SOL    HW112614   7.015   5.884   5.028
 3905SOL    HW212615   6.940   5.815   5.155
 3906SOL     OW12616   6.713   6.499   5.266
 3906SOL    HW112617   6.797   6.518   5.216
 3906SOL    HW212618   6.718   6.543   5.356
 3907SOL     OW12619   6.615   1.083   4.372
 3907SOL    HW112620   6.626   1.131   4.285
 3907SOL    HW212621   6.521   1.096   4.405
 3908SOL     OW12622   1.596   3.040   5.953
 3908SOL    HW112623   1.604   2.949   5.994
 3908SOL    HW212624   1.562   3.032   5.860
 3909SOL     OW12625   5.835   5.427   4.146
 3909SOL    HW112626   5.819   5.525   4.161
 3909SOL    HW212627   5.933   5.408   4.148
 3910SOL     OW12628   4.150   3.715   2.730
 3910SOL    HW112629   4.212   3.775   2.779
 3910SOL    HW212630   4.150   3.624   2.773
 3911SOL     OW12631   6.253   2.092   5.699
 3911SOL    HW112632   6.158   2.118   5.681
 3911SOL    HW212633   6.255   1.999   5.735
 3912SOL     OW12634   5.433   2.691   6.749
 3912SOL    HW112635   5.491   2.764   6.713
 3912SOL    HW212636   5.462   2.604   6.709
 3913SOL     OW12637   1.308   6.613   0.723
 3913SOL    HW112638   1.388   6.665   0.753
 3913SOL    HW212639   1.239   6.676   0.687
 3914SOL     OW12640   3.024   5.412   5.885
 3914SOL    HW112641   2.972   5.490   5.917
 3914SOL    HW212642   2.964   5.332   5.876
 3915SOL     OW12643   6.635   5.691   1.470
 3915SOL    HW112644   6.602   5.771   1.419
 3915SOL    HW212645   6.730   5.705   1.496
 3916SOL     OW12646   0.936   0.532   2.931
 3916SOL    HW112647   0.983   0.523   3.019
 3916SOL    HW212648   0.955   0.621   2.891
 3917SOL     OW12649   2.192   6.954   6.557
 3917SOL    HW112650   2.155   6.873   6.511
 3917SOL    HW212651   2.277   6.930   6.604
 3918SOL     OW12652   5.815   3.676   0.857
 3918SOL    HW112653   5.861   3.697   0.771
 3918SOL    HW212654   5.821   3.755   0.918
 3919SOL     OW12655   3.229   6.361   6.852
 3919SOL    HW112656   3.157   6.293   6.839
 3919SOL    HW212657   3.203   6.424   6.925
 3920SOL     OW12658   2.058   1.687   6.606
 3920SOL    HW112659   1.988   1.750   6.573
 3920SOL    HW212660   2.057   1.686   6.706
 3921SOL     OW12661   1.253   3.757   1.723
 3921SOL    HW112662   1.245   3.696   1.803
 3921SOL    HW212663   1.321   3.827   1.741
 3922SOL     OW12664   0.918   4.674   0.953
 3922SOL    HW112665   0.899   4.625   1.038
 3922SOL    HW212666   1.000   4.730   0.964
 3923SOL     OW12667   6.587   0.315   6.942
 3923SOL    HW112668   6.560   0.411   6.951
 3923SOL    HW212669   6.590   0.273   0.011
 3924SOL     OW12670   0.091   4.597   4.712
 3924SOL    HW112671   0.040   4.519   4.750
 3924SOL    HW212672   0.186   4.592   4.743
 3925SOL     OW12673   1.720   5.267   2.263
 3925SOL    HW112674   1.779   5.197   2.303
 3925SOL    HW212675   1.775   5.331   2.210
 3926SOL     OW12676   4.548   4.449   2.169
 3926SOL    HW112677   4.598   4.515   2.112
 3926SOL    HW212678   4.517   4.373   2.112
 3927SOL     OW12679   0.720   3.534   6.486
 3927SOL    HW112680   0.652   3.599   6.453
 3927SOL    HW212681   0.696   3.442   6.455
 3928SOL     OW12682   5.351   5.713   6.134
 3928SOL    HW112683   5.261   5.744   6.166
 3928SOL    HW212684   5.344   5.678   6.041
 3929SOL     OW12685   1.042   1.789   4.565
 3929SOL    HW112686   0.990   1.794   4.480
 3929SOL    HW212687   1.128   1.839   4.554
 3930SOL     OW12688   2.295   1.651   3.479
 3930SOL    HW112689   2.392   1.651   3.454
 3930SOL    HW212690   2.251   1.569   3.441
 3931SOL     OW12691   5.653   1.119   1.489
 3931SOL    HW112692   5.717   1.042   1.497
 3931SOL    HW212693   5.700   1.196   1.446
 3932SOL     OW12694   1.747   2.242   4.118
 3932SOL    HW112695   1.667   2.190   4.151
 3932SOL    HW212696   1.716   2.323   4.069
 3933SOL     OW12697   1.174   6.910   5.351
 3933SOL    HW112698   1.117   6.914   5.269
 3933SOL    HW212699   1.123   6.869   5.426
 3934SOL     OW12700   5.156   0.182   6.531
 3934SOL    HW112701   5.059   0.187   6.555
 3934SOL    HW212702   5.189   0.273   6.505
 3935SOL     OW12703   4.965   0.748   0.707
 3935SOL    HW112704   4.915   0.763   0.792
 3935SOL    HW212705   4.992   0.837   0.668
 3936SOL     OW12706   0.308   5.153   3.348
 3936SOL    HW112707   0.337   5.244   3.377
 3936SOL    HW212708   0.256   5.110   3.422
 3937SOL     OW12709   0.393   1.382   2.517
 3937SOL    HW112710   0.486   1.387   2.482
 3937SOL    HW212711   0.379   1.456   2.584
 3938SOL     OW12712   0.199   1.963   2.228
 3938SOL    HW112713   0.168   1.885   2.172
 3938SOL    HW212714   0.120   2.016   2.258
 3939SOL     OW12715   2.985   1.943   1.672
 3939SOL    HW112716   3.020   1.985   1.756
 3939SOL    HW212717   2.887   1.926   1.683
 3940SOL     OW12718   3.806   3.273   1.455
 3940SOL    HW112719   3.832   3.280   1.359
 3940SOL    HW212720   3.866   3.207   1.501
 3941SOL     OW12721   4.231   4.008   6.339
 3941SOL    HW112722   4.219   4.017   6.438
 3941SOL    HW212723   4.172   4.073   6.292
 3942SOL     OW12724   6.851   6.372   6.246
 3942SOL    HW112725   6.810   6.282   6.235
 3942SOL    HW212726   6.788   6.431   6.297
 3943SOL     OW12727   0.369   3.678   3.956
 3943SOL    HW112728   0.324   3.589   3.966
 3943SOL    HW212729   0.301   3.750   3.968
 3944SOL     OW12730   5.315   2.483   4.953
 3944SOL    HW112731   5.368   2.448   4.876
 3944SOL    HW212732   5.218   2.462   4.939
 3945SOL     OW12733   6.759   0.421   0.800
 3945SOL    HW112734   6.693   0.494   0.820
 3945SOL    HW212735   6.849   0.446   0.837
 3946SOL     OW12736   4.184   4.829   2.997
 3946SOL    HW112737   4.201   4.772   2.917
 3946SOL    HW212738   4.134   4.911   2.969
 3947SOL     OW12739   5.918   5.544   6.877
 3947SOL    HW112740   5.975   5.487   6.818
 3947SOL    HW212741   5.825   5.507   6.879
 3948SOL     OW12742   6.463   4.453   0.880
 3948SOL    HW112743   6.465   4.438   0.979
 3948SOL    HW212744   6.540   4.407   0.838
 3949SOL     OW12745   4.913   6.639   3.386
 3949SOL    HW112746   4.972   6.624   3.465
 3949SOL    HW212747   4.901   6.554   3.335
 3950SOL     OW12748   1.595   5.728   0.354
 3950SOL    HW112749   1.640   5.817   0.369
 3950SOL    HW212750   1.503   5.743   0.319
 3951SOL     OW12751   5.548   0.516   2.222
 3951SOL    HW112752   5.638   0.472   2.222
 3951SOL    HW212753   5.506   0.506   2.312
 3952SOL     OW12754   6.381   2.289   0.399
 3952SOL    HW112755   6.328   2.372   0.414
 3952SOL    HW212756   6.352   2.246   0.313
 3953SOL     OW12757   3.664   4.016   2.539
 3953SOL    HW112758   3.668   4.048   2.633
 3953SOL    HW212759   3.613   4.081   2.484
 3954SOL     OW12760   3.869   4.654   5.626
 3954SOL    HW112761   3.943   4.587   5.623
 3954SOL    HW212762   3.897   4.732   5.683
 3955SOL     OW12763   3.844   0.932   5.159
 3955SOL    HW112764   3.941   0.909   5.150
 3955SOL    HW212765   3.826   0.963   5.252
 3956SOL     OW12766   1.923   0.960   1.538
 3956SOL    HW112767   1.933   1.015   1.621
 3956SOL    HW212768   2.006   0.968   1.483
 3957SOL     OW12769   3.354   0.867   4.675
 3957SOL    HW112770   3.269   0.912   4.649
 3957SOL    HW212771   3.412   0.857   4.594
 3958SOL     OW12772   5.462   0.924   5.404
 3958SOL    HW112773   5.544   0.976   5.428
 3958SOL    HW212774   5.488   0.842   5.353
 3959SOL     OW12775   4.740   5.074   0.718
 3959SOL    HW112776   4.682   5.119   0.785
 3959SOL    HW212777   4.696   4.989   0.688
 3960SOL     OW12778   5.279   2.300   4.368
 3960SOL    HW112779   5.282   2.385   4.421
 3960SOL    HW212780   5.356   2.242   4.394
 3961SOL     OW12781   5.610   6.306   3.711
 3961SOL    HW112782   5.705   6.320   3.684
 3961SOL    HW212783   5.550   6.338   3.637
 3962SOL     OW12784   0.038   5.044   5.512
 3962SOL    HW112785   0.080   5.063   5.424
 3962SOL    HW212786   0.086   5.095   5.584
 3963SOL     OW12787   4.615   6.885   2.007
 3963SOL    HW112788   4.657   6.953   2.067
 3963SOL    HW212789   4.613   6.796   2.054
 3964SOL     OW12790   5.423   3.636   3.306
 3964SOL    HW112791   5.504   3.588   3.340
 3964SOL    HW212792   5.395   3.596   3.218
 3965SOL     OW12793   4.882   3.849   4.532
 3965SOL    HW112794   4.894   3.838   4.631
 3965SOL    HW212795   4.785   3.867   4.512
 3966SOL     OW12796   2.477   5.954   6.282
 3966SOL    HW112797   2.531   5.903   6.349
 3966SOL    HW212798   2.481   5.907   6.194
 3967SOL     OW12799   2.246   4.819   3.082
 3967SOL    HW112800   2.317   4.855   3.022
 3967SOL    HW212801   2.156   4.833   3.040
 3968SOL     OW12802   4.013   0.109   0.798
 3968SOL    HW112803   4.060   0.151   0.720
 3968SOL    HW212804   3.914   0.121   0.788
 3969SOL     OW12805   1.428   5.442   2.072
 3969SOL    HW112806   1.462   5.348   2.078
 3969SOL    HW212807   1.328   5.441   2.070
 3970SOL     OW12808   5.402   6.267   2.394
 3970SOL    HW112809   5.448   6.204   2.332
 3970SOL    HW212810   5.370   6.347   2.342
 3971SOL     OW12811   2.604   5.717   3.953
 3971SOL    HW112812   2.614   5.809   3.914
 3971SOL    HW212813   2.514   5.681   3.929
 3972SOL     OW12814   2.151   4.003   0.184
 3972SOL    HW112815   2.106   4.092   0.195
 3972SOL    HW212816   2.218   4.009   0.110
 3973SOL     OW12817   1.117   5.622   0.371
 3973SOL    HW112818   1.054   5.546   0.352
 3973SOL    HW212819   1.186   5.592   0.436
 3974SOL     OW12820   2.070   1.045   5.445
 3974SOL    HW112821   2.074   0.978   5.520
 3974SOL    HW212822   2.035   1.132   5.481
 3975SOL     OW12823   5.946   2.173   6.330
 3975SOL    HW112824   5.920   2.137   6.419
 3975SOL    HW212825   5.875   2.151   6.263
 3976SOL     OW12826   2.280   5.431   2.245
 3976SOL    HW112827   2.249   5.496   2.175
 3976SOL    HW212828   2.325   5.353   2.202
 3977SOL     OW12829   0.606   3.484   6.737
 3977SOL    HW112830   0.641   3.507   6.646
 3977SOL    HW212831   0.682   3.485   6.803
 3978SOL     OW12832   6.601   4.302   3.577
 3978SOL    HW112833   6.521   4.361   3.583
 3978SOL    HW212834   6.632   4.279   3.670
 3979SOL     OW12835   3.457   0.381   6.323
 3979SOL    HW112836   3.485   0.309   6.260
 3979SOL    HW212837   3.412   0.340   6.402
 3980SOL     OW12838   5.995   6.435   5.649
 3980SOL    HW112839   6.024   6.488   5.569
 3980SOL    HW212840   5.970   6.497   5.723
 3981SOL     OW12841   4.812   6.795   0.335
 3981SOL    HW112842   4.742   6.798   0.406
 3981SOL    HW212843   4.885   6.733   0.363
 3982SOL     OW12844   3.122   5.920   2.401
 3982SOL    HW112845   3.070   5.937   2.485
 3982SOL    HW212846   3.203   5.865   2.422
 3983SOL     OW12847   3.733   5.801   3.487
 3983SOL    HW112848   3.791   5.868   3.441
 3983SOL    HW212849   3.769   5.783   3.579
 3984SOL     OW12850   6.596   2.660   3.031
 3984SOL    HW112851   6.579   2.673   3.128
 3984SOL    HW212852   6.509   2.660   2.982
 3985SOL     OW12853   3.812   5.523   6.415
 3985SOL    HW112854   3.871   5.603   6.403
 3985SOL    HW212855   3.820   5.463   6.335
 3986SOL     OW12856   5.026   0.572   1.688
 3986SOL    HW112857   5.107   0.630   1.691
 3986SOL    HW212858   5.053   0.476   1.690
 3987SOL     OW12859   3.173   5.164   5.071
 3987SOL    HW112860   3.213   5.085   5.026
 3987SOL    HW212861   3.119   5.216   5.005
 3988SOL     OW12862   4.253   5.228   0.512
 3988SOL    HW112863   4.323   5.270   0.571
 3988SOL    HW212864   4.166   5.225   0.561
 3989SOL     OW12865   6.302   2.137   0.195
 3989SOL    HW112866   6.345   2.047   0.193
 3989SOL    HW212867   6.268   2.159   0.104
 3990SOL     OW12868   6.246   2.357   2.495
 3990SOL    HW112869   6.169   2.334   2.435
 3990SOL    HW212870   6.222   2.434   2.553
 3991SOL     OW12871   6.748   0.734   3.278
 3991SOL    HW112872   6.814   0.795   3.235
 3991SOL    HW212873   6.675   0.713   3.213
 3992SOL     OW12874   3.349   2.309   0.991
 3992SOL    HW112875   3.316   2.243   1.059
 3992SOL    HW212876   3.272   2.347   0.940
 3993SOL     OW12877   1.206   3.162   1.627
 3993SOL    HW112878   1.270   3.170   1.550
 3993SOL    HW212879   1.116   3.194   1.599
 3994SOL     OW12880   2.562   6.432   4.856
 3994SOL    HW112881   2.606   6.502   4.801
 3994SOL    HW212882   2.632   6.375   4.899
 3995SOL     OW12883   1.650   2.753   5.426
 3995SOL    HW112884   1.650   2.736   5.524
 3995SOL    HW212885   1.654   2.667   5.376
 3996SOL     OW12886   0.215   6.053   4.856
 3996SOL    HW112887   0.189   6.149   4.851
 3996SOL    HW212888   0.225   6.016   4.763
 3997SOL     OW12889   5.441   0.117   4.695
 3997SOL    HW112890   5.482   0.208   4.695
 3997SOL    HW212891   5.512   0.048   4.686
 3998SOL     OW12892   4.376   2.333   3.674
 3998SOL    HW112893   4.339   2.400   3.739
 3998SOL    HW212894   4.324   2.335   3.589
 3999SOL     OW12895   5.400   2.114   4.857
 3999SOL    HW112896   5.406   2.127   4.956
 3999SOL    HW212897   5.343   2.035   4.837
 4000SOL     OW12898   4.014   0.095   3.639
 4000SOL    HW112899   4.089   0.159   3.623
 4000SOL    HW212900   3.960   0.085   3.555
 4001SOL     OW12901   1.015   2.373   3.416
 4001SOL    HW112902   1.073   2.421   3.481
 4001SOL    HW212903   1.070   2.341   3.339
 4002SOL     OW12904   2.097   3.701   1.845
 4002SOL    HW112905   2.114   3.669   1.751
 4002SOL    HW212906   2.143   3.639   1.909
 4003SOL     OW12907   3.326   1.130   4.911
 4003SOL    HW112908   3.260   1.166   4.846
 4003SOL    HW212909   3.359   1.203   4.970
 4004SOL     OW12910   0.016   1.860   5.405
 4004SOL    HW112911   0.079   1.783   5.391
 4004SOL    HW212912   6.968   1.834   5.472
 4005SOL     OW12913   5.722   5.345   5.644
 4005SOL    HW112914   5.772   5.425   5.611
 4005SOL    HW212915   5.664   5.371   5.720
 4006SOL     OW12916   3.581   6.444   2.537
 4006SOL    HW112917   3.663   6.449   2.594
 4006SOL    HW212918   3.606   6.417   2.444
 4007SOL     OW12919   6.870   1.978   6.470
 4007SOL    HW112920   6.928   1.897   6.482
 4007SOL    HW212921   6.909   2.054   6.522
 4008SOL     OW12922   2.571   2.263   5.264
 4008SOL    HW112923   2.657   2.313   5.268
 4008SOL    HW212924   2.577   2.180   5.320
 4009SOL     OW12925   3.754   3.047   2.716
 4009SOL    HW112926   3.663   3.019   2.686
 4009SOL    HW212927   3.818   3.038   2.639
 4010SOL     OW12928   2.178   2.949   6.576
 4010SOL    HW112929   2.170   3.008   6.495
 4010SOL    HW212930   2.120   2.868   6.565
 4011SOL     OW12931   0.629   2.470   1.240
 4011SOL    HW112932   0.677   2.446   1.323
 4011SOL    HW212933   0.610   2.568   1.239
 4012SOL     OW12934   6.795   3.108   3.638
 4012SOL    HW112935   6.703   3.130   3.605
 4012SOL    HW212936   6.805   3.142   3.732
 4013SOL     OW12937   4.510   2.515   3.318
 4013SOL    HW112938   4.512   2.459   3.401
 4013SOL    HW212939   4.604   2.540   3.292
 4014SOL     OW12940   5.636   5.784   2.413
 4014SOL    HW112941   5.679   5.700   2.381
 4014SOL    HW212942   5.546   5.794   2.370
 4015SOL     OW12943   4.621   3.401   7.008
 4015SOL    HW112944   4.715   3.434   6.999
 4015SOL    HW212945   4.570   3.420   6.924
 4016SOL     OW12946   3.317   6.739   4.880
 4016SOL    HW112947   3.399   6.747   4.823
 4016SOL    HW212948   3.324   6.659   4.939
 4017SOL     OW12949   6.875   6.202   6.784
 4017SOL    HW112950   6.854   6.262   6.862
 4017SOL    HW212951   6.790   6.178   6.738
 4018SOL     OW12952   2.739   6.239   0.385
 4018SOL    HW112953   2.832   6.203   0.380
 4018SOL    HW212954   2.703   6.252   0.292
 4019SOL     OW12955   5.270   5.180   3.272
 4019SOL    HW112956   5.360   5.144   3.299
 4019SOL    HW212957   5.270   5.279   3.279
 4020SOL     OW12958   5.435   2.455   5.191
 4020SOL    HW112959   5.393   2.460   5.100
 4020SOL    HW212960   5.365   2.435   5.259
 4021SOL     OW12961   4.158   4.762   6.714
 4021SOL    HW112962   4.140   4.855   6.683
 4021SOL    HW212963   4.219   4.764   6.793
 4022SOL     OW12964   5.426   0.327   1.298
 4022SOL    HW112965   5.387   0.290   1.213
 4022SOL    HW212966   5.358   0.319   1.371
 4023SOL     OW12967   6.696   0.211   5.547
 4023SOL    HW112968   6.678   0.155   5.628
 4023SOL    HW212969   6.694   0.153   5.465
 4024SOL     OW12970   3.898   5.027   4.371
 4024SOL    HW112971   3.905   5.052   4.467
 4024SOL    HW212972   3.923   5.105   4.314
 4025SOL     OW12973   1.530   3.966   2.713
 4025SOL    HW112974   1.595   3.903   2.754
 4025SOL    HW212975   1.525   3.949   2.614
 4026SOL     OW12976   5.181   0.017   4.742
 4026SOL    HW112977   5.126   0.080   4.795
 4026SOL    HW212978   5.276   0.047   4.742
 4027SOL     OW12979   4.479   5.464   1.471
 4027SOL    HW112980   4.407   5.530   1.448
 4027SOL    HW212981   4.472   5.439   1.567
 4028SOL     OW12982   2.561   6.573   3.970
 4028SOL    HW112983   2.604   6.661   3.992
 4028SOL    HW212984   2.462   6.581   3.982
 4029SOL     OW12985   2.208   4.072   3.968
 4029SOL    HW112986   2.225   3.997   3.904
 4029SOL    HW212987   2.114   4.066   4.001
 4030SOL     OW12988   1.345   1.541   6.256
 4030SOL    HW112989   1.319   1.473   6.187
 4030SOL    HW212990   1.429   1.512   6.302
 4031SOL     OW12991   5.208   5.857   4.051
 4031SOL    HW112992   5.254   5.795   3.987
 4031SOL    HW212993   5.237   5.951   4.034
 4032SOL     OW12994   4.872   6.880   4.661
 4032SOL    HW112995   4.939   6.873   4.734
 4032SOL    HW212996   4.848   6.976   4.646
 4033SOL     OW12997   3.234   3.911   5.527
 4033SOL    HW112998   3.168   3.891   5.600
 4033SOL    HW212999   3.285   3.994   5.549
 4034SOL     OW13000   6.326   2.550   4.027
 4034SOL    HW113001   6.363   2.614   4.096
 4034SOL    HW213002   6.401   2.515   3.971
 4035SOL     OW13003   0.605   5.461   0.915
 4035SOL    HW113004   0.586   5.472   0.817
 4035SOL    HW213005   0.616   5.551   0.957
 4036SOL     OW13006   6.578   6.152   2.831
 4036SOL    HW113007   6.535   6.210   2.761
 4036SOL    HW213008   6.596   6.061   2.792
 4037SOL     OW13009   6.406   3.847   6.046
 4037SOL    HW113010   6.410   3.807   5.954
 4037SOL    HW213011   6.314   3.836   6.083
 4038SOL     OW13012   6.384   5.204   3.380
 4038SOL    HW113013   6.366   5.129   3.316
 4038SOL    HW213014   6.370   5.171   3.473
 4039SOL     OW13015   4.369   6.026   1.077
 4039SOL    HW113016   4.388   6.124   1.085
 4039SOL    HW213017   4.281   6.006   1.118
 4040SOL     OW13018   3.435   6.451   0.510
 4040SOL    HW113019   3.398   6.497   0.591
 4040SOL    HW213020   3.535   6.455   0.512
 4041SOL     OW13021   1.192   0.213   3.823
 4041SOL    HW113022   1.248   0.140   3.864
 4041SOL    HW213023   1.237   0.301   3.834
 4042SOL     OW13024   5.973   5.363   2.008
 4042SOL    HW113025   6.034   5.370   1.929
 4042SOL    HW213026   5.935   5.271   2.013
 4043SOL     OW13027   6.212   4.080   1.905
 4043SOL    HW113028   6.141   4.151   1.899
 4043SOL    HW213029   6.212   4.043   1.998
 4044SOL     OW13030   6.726   5.353   2.670
 4044SOL    HW113031   6.679   5.276   2.712
 4044SOL    HW213032   6.684   5.439   2.701
 4045SOL     OW13033   2.079   4.709   5.966
 4045SOL    HW113034   2.002   4.692   6.026
 4045SOL    HW213035   2.161   4.665   6.002
 4046SOL     OW13036   0.224   2.714   0.898
 4046SOL    HW113037   0.320   2.692   0.878
 4046SOL    HW213038   0.210   2.813   0.887
 4047SOL     OW13039   3.045   3.995   1.949
 4047SOL    HW113040   3.009   3.928   2.015
 4047SOL    HW213041   3.145   3.996   1.956
 4048SOL     OW13042   4.648   2.452   1.323
 4048SOL    HW113043   4.671   2.355   1.332
 4048SOL    HW213044   4.731   2.505   1.307
 4049SOL     OW13045   6.769   0.651   5.610
 4049SOL    HW113046   6.791   0.676   5.705
 4049SOL    HW213047   6.790   0.728   5.550
 4050SOL     OW13048   2.533   0.397   1.515
 4050SOL    HW113049   2.567   0.343   1.437
 4050SOL    HW213050   2.453   0.351   1.554
 4051SOL     OW13051   1.488   4.416   0.916
 4051SOL    HW113052   1.565   4.472   0.884
 4051SOL    HW213053   1.420   4.475   0.959
 4052SOL     OW13054   1.570   6.008   1.582
 4052SOL    HW113055   1.557   6.042   1.675
 4052SOL    HW213056   1.543   6.078   1.516
 4053SOL     OW13057   2.946   4.873   3.310
 4053SOL    HW113058   2.884   4.821   3.252
 4053SOL    HW213059   2.960   4.825   3.396
 4054SOL     OW13060   5.375   1.695   6.897
 4054SOL    HW113061   5.345   1.678   6.803
 4054SOL    HW213062   5.340   1.784   6.927
 4055SOL     OW13063   4.328   3.115   0.719
 4055SOL    HW113064   4.318   3.031   0.666
 4055SOL    HW213065   4.342   3.093   0.816
 4056SOL     OW13066   3.662   2.897   0.907
 4056SOL    HW113067   3.671   2.798   0.910
 4056SOL    HW213068   3.656   2.933   1.001
 4057SOL     OW13069   6.242   1.897   0.850
 4057SOL    HW113070   6.282   1.954   0.777
 4057SOL    HW213071   6.151   1.931   0.872
 4058SOL     OW13072   1.359   1.355   4.697
 4058SOL    HW113073   1.359   1.330   4.794
 4058SOL    HW213074   1.444   1.401   4.674
 4059SOL     OW13075   5.937   1.884   5.465
 4059SOL    HW113076   6.027   1.842   5.450
 4059SOL    HW213077   5.929   1.911   5.561
 4060SOL     OW13078   3.615   6.252   5.107
 4060SOL    HW113079   3.630   6.158   5.136
 4060SOL    HW213080   3.638   6.262   5.010
 4061SOL     OW13081   2.585   3.071   1.407
 4061SOL    HW113082   2.583   2.971   1.395
 4061SOL    HW213083   2.563   3.115   1.321
 4062SOL     OW13084   4.026   6.420   2.696
 4062SOL    HW113085   4.055   6.460   2.610
 4062SOL    HW213086   3.928   6.434   2.708
 4063SOL     OW13087   2.687   4.873   6.316
 4063SOL    HW113088   2.752   4.876   6.241
 4063SOL    HW213089   2.734   4.888   6.403
 4064SOL     OW13090   5.936   6.798   4.161
 4064SOL    HW113091   5.842   6.828   4.174
 4064SOL    HW213092   5.961   6.807   4.064
 4065SOL     OW13093   6.786   4.684   0.164
 4065SOL    HW113094   6.796   4.693   0.263
 4065SOL    HW213095   6.841   4.754   0.118
 4066SOL     OW13096   6.252   5.299   1.244
 4066SOL    HW113097   6.230   5.221   1.185
 4066SOL    HW213098   6.350   5.319   1.238
 4067SOL     OW13099   5.838   0.890   1.506
 4067SOL    HW113100   5.851   0.791   1.509
 4067SOL    HW213101   5.927   0.934   1.497
 4068SOL     OW13102   6.103   1.352   4.867
 4068SOL    HW113103   6.019   1.315   4.828
 4068SOL    HW213104   6.094   1.451   4.881
 4069SOL     OW13105   6.665   5.910   0.890
 4069SOL    HW113106   6.659   6.010   0.885
 4069SOL    HW213107   6.700   5.884   0.980
 4070SOL     OW13108   6.797   3.585   2.748
 4070SOL    HW113109   6.723   3.640   2.710
 4070SOL    HW213110   6.868   3.646   2.785
 4071SOL     OW13111   2.347   0.596   3.633
 4071SOL    HW113112   2.252   0.574   3.610
 4071SOL    HW213113   2.396   0.512   3.654
 4072SOL     OW13114   1.020   0.472   3.883
 4072SOL    HW113115   1.033   0.435   3.791
 4072SOL    HW213116   0.936   0.435   3.922
 4073SOL     OW13117   2.699   4.775   1.346
 4073SOL    HW113118   2.613   4.727   1.365
 4073SOL    HW213119   2.718   4.840   1.420
 4074SOL     OW13120   0.499   2.978   0.797
 4074SOL    HW113121   0.589   2.987   0.753
 4074SOL    HW213122   0.498   3.031   0.882
 4075SOL     OW13123   5.140   0.229   3.661
 4075SOL    HW113124   5.168   0.314   3.708
 4075SOL    HW213125   5.043   0.234   3.639
 4076SOL     OW13126   2.018   2.441   3.125
 4076SOL    HW113127   1.958   2.492   3.063
 4076SOL    HW213128   1.970   2.360   3.158
 4077SOL     OW13129   3.236   0.988   0.891
 4077SOL    HW113130   3.246   1.086   0.910
 4077SOL    HW213131   3.264   0.936   0.972
 4078SOL     OW13132   4.773   4.123   2.869
 4078SOL    HW113133   4.843   4.179   2.824
 4078SOL    HW213134   4.727   4.066   2.801
 4079SOL     OW13135   5.942   0.313   4.503
 4079SOL    HW113136   6.018   0.289   4.563
 4079SOL    HW213137   5.877   0.237   4.499
 4080SOL     OW13138   3.551   2.835   3.041
 4080SOL    HW113139   3.538   2.771   2.965
 4080SOL    HW213140   3.644   2.871   3.039
 4081SOL     OW13141   2.721   2.605   6.558
 4081SOL    HW113142   2.692   2.683   6.613
 4081SOL    HW213143   2.642   2.548   6.536
 4082SOL     OW13144   1.191   2.382   5.741
 4082SOL    HW113145   1.123   2.446   5.776
 4082SOL    HW213146   1.162   2.347   5.652
 4083SOL     OW13147   6.080   5.145   2.849
 4083SOL    HW113148   5.993   5.096   2.857
 4083SOL    HW213149   6.065   5.231   2.799
 4084SOL     OW13150   4.776   0.527   2.439
 4084SOL    HW113151   4.861   0.567   2.405
 4084SOL    HW213152   4.737   0.587   2.509
 4085SOL     OW13153   2.636   4.560   2.515
 4085SOL    HW113154   2.594   4.586   2.427
 4085SOL    HW213155   2.676   4.469   2.507
 4086SOL     OW13156   5.920   4.788   4.576
 4086SOL    HW113157   5.874   4.735   4.505
 4086SOL    HW213158   5.852   4.833   4.634
 4087SOL     OW13159   1.974   1.061   1.998
 4087SOL    HW113160   1.896   1.006   2.028
 4087SOL    HW213161   2.058   1.011   2.018
 4088SOL     OW13162   0.403   1.992   5.774
 4088SOL    HW113163   0.469   1.925   5.741
 4088SOL    HW213164   0.318   1.983   5.721
 4089SOL     OW13165   0.932   0.753   2.293
 4089SOL    HW113166   0.925   0.760   2.193
 4089SOL    HW213167   1.021   0.713   2.317
 4090SOL     OW13168   2.584   2.639   5.803
 4090SOL    HW113169   2.522   2.564   5.827
 4090SOL    HW213170   2.595   2.642   5.704
 4091SOL     OW13171   3.077   6.038   1.966
 4091SOL    HW113172   3.092   6.025   1.868
 4091SOL    HW213173   3.039   6.129   1.982
 4092SOL     OW13174   5.328   1.953   6.149
 4092SOL    HW113175   5.398   1.909   6.092
 4092SOL    HW213176   5.242   1.904   6.139
 4093SOL     OW13177   5.352   4.156   3.404
 4093SOL    HW113178   5.303   4.228   3.355
 4093SOL    HW213179   5.340   4.069   3.355
 4094SOL     OW13180   0.069   6.663   6.911
 4094SOL    HW113181   0.070   6.699   6.817
 4094SOL    HW213182   0.076   6.740   6.975
 4095SOL     OW13183   1.434   4.873   0.374
 4095SOL    HW113184   1.378   4.791   0.358
 4095SOL    HW213185   1.374   4.953   0.382
 4096SOL     OW13186   0.847   0.564   6.399
 4096SOL    HW113187   0.878   0.533   6.489
 4096SOL    HW213188   0.812   0.486   6.347
 4097SOL     OW13189   0.562   3.705   4.651
 4097SOL    HW113190   0.657   3.709   4.682
 4097SOL    HW213191   0.515   3.631   4.698
 4098SOL     OW13192   1.111   5.662   1.566
 4098SOL    HW113193   1.102   5.715   1.650
 4098SOL    HW213194   1.142   5.721   1.492
 4099SOL     OW13195   6.565   3.277   5.828
 4099SOL    HW113196   6.516   3.196   5.795
 4099SOL    HW213197   6.662   3.270   5.803
 4100SOL     OW13198   2.037   1.766   2.876
 4100SOL    HW113199   2.040   1.862   2.905
 4100SOL    HW213200   2.115   1.747   2.816
 4101SOL     OW13201   6.625   6.160   6.657
 4101SOL    HW113202   6.530   6.160   6.687
 4101SOL    HW213203   6.654   6.066   6.637
 4102SOL     OW13204   1.352   5.672   0.213
 4102SOL    HW113205   1.327   5.610   0.140
 4102SOL    HW213206   1.282   5.670   0.285
 4103SOL     OW13207   2.169   5.943   3.172
 4103SOL    HW113208   2.223   5.867   3.208
 4103SOL    HW213209   2.167   6.017   3.238
 4104SOL     OW13210   2.078   5.868   5.289
 4104SOL    HW113211   2.007   5.873   5.359
 4104SOL    HW213212   2.037   5.840   5.202
 4105SOL     OW13213   4.470   0.529   2.407
 4105SOL    HW113214   4.560   0.506   2.444
 4105SOL    HW213215   4.477   0.546   2.309
 4106SOL     OW13216   1.583   0.121   2.059
 4106SOL    HW113217   1.554   0.210   2.094
 4106SOL    HW213218   1.503   0.069   2.029
 4107SOL     OW13219   1.633   0.791   0.702
 4107SOL    HW113220   1.649   0.728   0.778
 4107SOL    HW213221   1.615   0.882   0.739
 4108SOL     OW13222   6.521   5.854   5.788
 4108SOL    HW113223   6.443   5.793   5.804
 4108SOL    HW213224   6.565   5.830   5.702
 4109SOL     OW13225   5.448   6.190   4.584
 4109SOL    HW113226   5.470   6.144   4.669
 4109SOL    HW213227   5.516   6.262   4.566
 4110SOL     OW13228   4.961   2.893   0.532
 4110SOL    HW113229   4.921   2.802   0.545
 4110SOL    HW213230   4.888   2.962   0.533
 4111SOL     OW13231   5.882   4.991   4.038
 4111SOL    HW113232   5.867   4.910   3.981
 4111SOL    HW213233   5.854   5.073   3.988
 4112SOL     OW13234   4.610   6.251   4.360
 4112SOL    HW113235   4.650   6.334   4.321
 4112SOL    HW213236   4.557   6.203   4.291
 4113SOL     OW13237   4.410   5.411   4.837
 4113SOL    HW113238   4.477   5.414   4.911
 4113SOL    HW213239   4.452   5.448   4.753
 4114SOL     OW13240   0.403   0.920   1.568
 4114SOL    HW113241   0.375   0.856   1.496
 4114SOL    HW213242   0.476   0.978   1.534
 4115SOL     OW13243   4.501   5.901   3.489
 4115SOL    HW113244   4.429   5.948   3.438
 4115SOL    HW213245   4.479   5.804   3.495
 4116SOL     OW13246   5.562   3.117   3.634
 4116SOL    HW113247   5.601   3.043   3.689
 4116SOL    HW213248   5.581   3.205   3.677
 4117SOL     OW13249   0.840   1.249   3.616
 4117SOL    HW113250   0.787   1.320   3.570
 4117SOL    HW213251   0.779   1.193   3.672
 4118SOL     OW13252   1.628   6.735   0.952
 4118SOL    HW113253   1.620   6.757   0.855
 4118SOL    HW213254   1.637   6.636   0.963
 4119SOL     OW13255   6.539   0.505   4.214
 4119SOL    HW113256   6.536   0.584   4.153
 4119SOL    HW213257   6.491   0.428   4.170
 4120SOL     OW13258   2.475   0.540   6.264
 4120SOL    HW113259   2.521   0.625   6.289
 4120SOL    HW213260   2.416   0.510   6.340
 4121SOL     OW13261   6.603   0.766   2.327
 4121SOL    HW113262   6.631   0.697   2.260
 4121SOL    HW213263   6.507   0.789   2.314
 4122SOL     OW13264   1.103   5.400   3.344
 4122SOL    HW113265   1.158   5.341   3.285
 4122SOL    HW213266   1.123   5.380   3.440
 4123SOL     OW13267   5.254   4.168   1.140
 4123SOL    HW113268   5.241   4.168   1.041
 4123SOL    HW213269   5.305   4.086   1.167
 4124SOL     OW13270   6.444   6.452   6.999
 4124SOL    HW113271   6.419   6.367   6.952
 4124SOL    HW213272   6.384   6.466   0.055
 4125SOL     OW13273   6.737   2.461   0.259
 4125SOL    HW113274   6.721   2.430   0.353
 4125SOL    HW213275   6.651   2.459   0.208
 4126SOL     OW13276   1.125   3.875   3.869
 4126SOL    HW113277   1.212   3.898   3.912
 4126SOL    HW213278   1.142   3.820   3.788
 4127SOL     OW13279   5.356   2.488   4.147
 4127SOL    HW113280   5.330   2.416   4.211
 4127SOL    HW213281   5.287   2.560   4.148
 4128SOL     OW13282   6.980   2.598   6.638
 4128SOL    HW113283   0.036   2.652   6.668
 4128SOL    HW213284   6.912   2.595   6.711
 4129SOL     OW13285   2.874   1.662   1.120
 4129SOL    HW113286   2.871   1.739   1.057
 4129SOL    HW213287   2.968   1.633   1.133
 4130SOL     OW13288   6.412   2.517   0.211
 4130SOL    HW113289   6.358   2.499   0.129
 4130SOL    HW213290   6.353   2.515   0.292
 4131SOL     OW13291   4.550   6.579   3.162
 4131SOL    HW113292   4.568   6.482   3.176
 4131SOL    HW213293   4.518   6.620   3.247
 4132SOL     OW13294   6.418   4.690   3.165
 4132SOL    HW113295   6.393   4.779   3.128
 4132SOL    HW213296   6.456   4.633   3.092
 4133SOL     OW13297   5.488   6.599   2.536
 4133SOL    HW113298   5.450   6.687   2.505
 4133SOL    HW213299   5.519   6.547   2.456
 4134SOL     OW13300   1.728   3.510   1.373
 4134SOL    HW113301   1.652   3.527   1.435
 4134SOL    HW213302   1.808   3.561   1.404
 4135SOL     OW13303   6.049   0.944   1.117
 4135SOL    HW113304   6.070   0.865   1.175
 4135SOL    HW213305   5.950   0.955   1.110
 4136SOL     OW13306   0.245   4.509   1.036
 4136SOL    HW113307   0.169   4.445   1.043
 4136SOL    HW213308   0.331   4.461   1.055
 4137SOL     OW13309   0.431   2.780   6.314
 4137SOL    HW113310   0.378   2.732   6.244
 4137SOL    HW213311   0.521   2.737   6.322
 4138SOL     OW13312   4.124   6.880   6.541
 4138SOL    HW113313   4.218   6.858   6.568
 4138SOL    HW213314   4.124   6.923   6.451
 4139SOL     OW13315   1.973   4.326   2.593
 4139SOL    HW113316   2.072   4.322   2.601
 4139SOL    HW213317   1.931   4.317   2.683
 4140SOL     OW13318   2.170   0.154   6.381
 4140SOL    HW113319   2.166   0.087   6.455
 4140SOL    HW213320   2.236   0.123   6.311
 4141SOL     OW13321   5.169   1.583   5.967
 4141SOL    HW113322   5.118   1.521   5.907
 4141SOL    HW213323   5.123   1.588   6.056
 4142SOL     OW13324   6.218   5.204   1.699
 4142SOL    HW113325   6.143   5.221   1.635
 4142SOL    HW213326   6.288   5.150   1.653
 4143SOL     OW13327   6.156   3.738   6.491
 4143SOL    HW113328   6.179   3.691   6.577
 4143SOL    HW213329   6.237   3.786   6.457
 4144SOL     OW13330   4.157   0.982   1.492
 4144SOL    HW113331   4.157   0.882   1.492
 4144SOL    HW213332   4.230   1.015   1.551
 4145SOL     OW13333   6.267   0.128   1.450
 4145SOL    HW113334   6.309   0.143   1.539
 4145SOL    HW213335   6.236   0.033   1.443
 4146SOL     OW13336   4.592   6.976   1.396
 4146SOL    HW113337   4.546   6.907   1.341
 4146SOL    HW213338   4.646   6.931   1.467
 4147SOL     OW13339   4.621   4.665   6.710
 4147SOL    HW113340   4.655   4.588   6.764
 4147SOL    HW213341   4.648   4.652   6.614
 4148SOL     OW13342   2.753   1.448   5.735
 4148SOL    HW113343   2.719   1.408   5.650
 4148SOL    HW213344   2.681   1.447   5.804
 4149SOL     OW13345   1.406   3.833   6.670
 4149SOL    HW113346   1.317   3.789   6.673
 4149SOL    HW213347   1.447   3.818   6.580
 4150SOL     OW13348   5.191   1.526   0.071
 4150SOL    HW113349   5.213   1.430   0.054
 4150SOL    HW213350   5.271   1.582   0.049
 4151SOL     OW13351   2.472   6.040   4.815
 4151SOL    HW113352   2.541   6.111   4.799
 4151SOL    HW213353   2.421   6.024   4.731
 4152SOL     OW13354   2.456   4.281   1.466
 4152SOL    HW113355   2.487   4.312   1.556
 4152SOL    HW213356   2.503   4.332   1.395
 4153SOL     OW13357   6.846   5.925   2.120
 4153SOL    HW113358   6.872   5.964   2.032
 4153SOL    HW213359   6.822   5.828   2.108
 4154SOL     OW13360   0.364   6.585   3.776
 4154SOL    HW113361   0.392   6.667   3.826
 4154SOL    HW213362   0.434   6.562   3.709
 4155SOL     OW13363   6.690   0.282   1.900
 4155SOL    HW113364   6.615   0.348   1.911
 4155SOL    HW213365   6.738   0.272   1.988
 4156SOL     OW13366   0.213   5.195   5.666
 4156SOL    HW113367   0.311   5.176   5.677
 4156SOL    HW213368   0.199   5.294   5.666
 4157SOL     OW13369   5.531   6.106   0.463
 4157SOL    HW113370   5.469   6.143   0.531
 4157SOL    HW213371   5.545   6.009   0.479
 4158SOL     OW13372   0.361   2.933   1.116
 4158SOL    HW113373   0.432   2.886   1.063
 4158SOL    HW213374   0.286   2.869   1.134
 4159SOL     OW13375   3.018   0.883   4.440
 4159SOL    HW113376   2.976   0.952   4.381
 4159SOL    HW213377   3.042   0.924   4.528
 4160SOL     OW13378   0.853   6.640   6.072
 4160SOL    HW113379   0.936   6.615   6.122
 4160SOL    HW213380   0.869   6.725   6.021
 4161SOL     OW13381   3.210   3.387   3.148
 4161SOL    HW113382   3.141   3.455   3.173
 4161SOL    HW213383   3.165   3.299   3.129
 4162SOL     OW13384   5.471   5.820   1.368
 4162SOL    HW113385   5.376   5.798   1.389
 4162SOL    HW213386   5.495   5.783   1.278
 4163SOL     OW13387   3.974   6.098   1.447
 4163SOL    HW113388   3.886   6.055   1.430
 4163SOL    HW213389   4.022   6.048   1.520
 4164SOL     OW13390   5.521   1.678   6.274
 4164SOL    HW113391   5.483   1.719   6.191
 4164SOL    HW213392   5.579   1.601   6.249
 4165SOL     OW13393   3.522   1.377   4.394
 4165SOL    HW113394   3.563   1.303   4.447
 4165SOL    HW213395   3.567   1.384   4.305
 4166SOL     OW13396   6.515   1.624   1.433
 4166SOL    HW113397   6.432   1.665   1.396
 4166SOL    HW213398   6.570   1.585   1.359
 4167SOL     OW13399   4.228   5.286   4.643
 4167SOL    HW113400   4.230   5.193   4.680
 4167SOL    HW213401   4.315   5.305   4.597
 4168SOL     OW13402   5.050   4.389   0.063
 4168SOL    HW113403   5.007   4.480   0.062
 4168SOL    HW213404   5.072   4.364   0.157
 4169SOL     OW13405   5.526   3.097   6.431
 4169SOL    HW113406   5.559   3.003   6.416
 4169SOL    HW213407   5.561   3.156   6.359
 4170SOL     OW13408   0.747   2.519   5.416
 4170SOL    HW113409   0.751   2.463   5.334
 4170SOL    HW213410   0.715   2.464   5.493
 4171SOL     OW13411   0.587   1.721   6.491
 4171SOL    HW113412   0.610   1.774   6.409
 4171SOL    HW213413   0.615   1.773   6.572
 4172SOL     OW13414   2.828   2.756   6.854
 4172SOL    HW113415   2.773   2.735   6.935
 4172SOL    HW213416   2.769   2.794   6.783
 4173SOL     OW13417   4.541   1.702   5.706
 4173SOL    HW113418   4.584   1.788   5.677
 4173SOL    HW213419   4.580   1.674   5.794
 4174SOL     OW13420   4.640   0.045   4.150
 4174SOL    HW113421   4.714   7.001   4.160
 4174SOL    HW213422   4.571   0.029   4.221
 4175SOL     OW13423   1.471   4.835   6.191
 4175SOL    HW113424   1.557   4.818   6.142
 4175SOL    HW213425   1.401   4.863   6.126
 4176SOL     OW13426   5.163   6.735   5.910
 4176SOL    HW113427   5.101   6.656   5.920
 4176SOL    HW213428   5.247   6.717   5.960
 4177SOL     OW13429   3.906   4.827   2.775
 4177SOL    HW113430   3.986   4.851   2.831
 4177SOL    HW213431   3.852   4.757   2.822
 4178SOL     OW13432   4.373   6.449   1.386
 4178SOL    HW113433   4.348   6.531   1.437
 4178SOL    HW213434   4.472   6.436   1.389
 4179SOL     OW13435   4.048   2.526   7.012
 4179SOL    HW113436   3.994   2.535   6.929
 4179SOL    HW213437   4.047   2.431   0.021
 4180SOL     OW13438   4.402   3.495   0.389
 4180SOL    HW113439   4.322   3.483   0.331
 4180SOL    HW213440   4.373   3.510   0.483
 4181SOL     OW13441   5.711   6.802   5.969
 4181SOL    HW113442   5.709   6.702   5.957
 4181SOL    HW213443   5.646   6.828   6.040
 4182SOL     OW13444   0.968   5.647   5.039
 4182SOL    HW113445   0.984   5.718   4.970
 4182SOL    HW213446   1.048   5.587   5.044
 4183SOL     OW13447   4.252   1.929   0.888
 4183SOL    HW113448   4.168   1.875   0.893
 4183SOL    HW213449   4.331   1.868   0.898
 4184SOL     OW13450   3.679   5.560   3.350
 4184SOL    HW113451   3.678   5.640   3.410
 4184SOL    HW213452   3.632   5.484   3.396
 4185SOL     OW13453   4.581   4.330   3.321
 4185SOL    HW113454   4.513   4.378   3.265
 4185SOL    HW213455   4.634   4.269   3.263
 4186SOL     OW13456   1.913   5.988   7.022
 4186SOL    HW113457   1.937   5.893   0.021
 4186SOL    HW213458   1.957   6.015   6.936
 4187SOL     OW13459   2.145   3.378   5.852
 4187SOL    HW113460   2.202   3.337   5.781
 4187SOL    HW213461   2.165   3.476   5.859
 4188SOL     OW13462   4.448   6.630   6.899
 4188SOL    HW113463   4.491   6.610   6.810
 4188SOL    HW213464   4.350   6.641   6.886
 4189SOL     OW13465   4.271   4.970   3.396
 4189SOL    HW113466   4.249   4.991   3.491
 4189SOL    HW213467   4.324   5.046   3.357
 4190SOL     OW13468   6.224   6.447   1.498
 4190SOL    HW113469   6.198   6.514   1.428
 4190SOL    HW213470   6.322   6.426   1.488
 4191SOL     OW13471   4.443   3.404   6.800
 4191SOL    HW113472   4.498   3.368   6.724
 4191SOL    HW213473   4.347   3.387   6.781
 4192SOL     OW13474   1.603   3.599   7.000
 4192SOL    HW113475   1.564   3.691   7.007
 4192SOL    HW213476   1.539   3.539   6.953
 4193SOL     OW13477   0.376   0.341   0.012
 4193SOL    HW113478   0.337   0.317   0.101
 4193SOL    HW213479   0.403   0.257   6.987
 4194SOL     OW13480   5.283   1.963   5.754
 4194SOL    HW113481   5.361   2.025   5.746
 4194SOL    HW213482   5.284   1.921   5.845
 4195SOL     OW13483   3.226   6.775   1.070
 4195SOL    HW113484   3.181   6.798   1.156
 4195SOL    HW213485   3.322   6.803   1.074
 4196SOL     OW13486   6.446   2.872   2.364
 4196SOL    HW113487   6.457   2.773   2.363
 4196SOL    HW213488   6.536   2.915   2.358
 4197SOL     OW13489   3.191   0.784   6.949
 4197SOL    HW113490   3.211   0.771   0.024
 4197SOL    HW213491   3.196   0.695   6.902
 4198SOL     OW13492   6.445   2.607   2.411
 4198SOL    HW113493   6.353   2.585   2.443
 4198SOL    HW213494   6.496   2.523   2.397
 4199SOL     OW13495   0.541   3.714   6.392
 4199SOL    HW113496   0.526   3.740   6.487
 4199SOL    HW213497   0.489   3.774   6.332
 4200SOL     OW13498   4.731   1.987   3.901
 4200SOL    HW113499   4.718   2.021   3.994
 4200SOL    HW213500   4.667   2.035   3.840
 4201SOL     OW13501   5.926   6.921   3.907
 4201SOL    HW113502   5.856   6.851   3.919
 4201SOL    HW213503   5.883   7.012   3.905
 4202SOL     OW13504   4.692   3.778   1.696
 4202SOL    HW113505   4.608   3.739   1.734
 4202SOL    HW213506   4.679   3.798   1.599
 4203SOL     OW13507   5.993   4.408   5.433
 4203SOL    HW113508   6.016   4.312   5.450
 4203SOL    HW213509   5.946   4.445   5.513
 4204SOL     OW13510   1.631   4.309   6.788
 4204SOL    HW113511   1.654   4.284   6.694
 4204SOL    HW213512   1.672   4.243   6.851
 4205SOL     OW13513   4.479   6.424   6.264
 4205SOL    HW113514   4.537   6.504   6.251
 4205SOL    HW213515   4.452   6.417   6.360
 4206SOL     OW13516   1.860   2.011   3.993
 4206SOL    HW113517   1.829   2.099   4.028
 4206SOL    HW213518   1.954   2.021   3.958
 4207SOL     OW13519   0.442   2.045   2.658
 4207SOL    HW113520   0.475   2.136   2.684
 4207SOL    HW213521   0.350   2.053   2.619
 4208SOL     OW13522   1.890   2.323   3.580
 4208SOL    HW113523   1.926   2.231   3.594
 4208SOL    HW213524   1.944   2.389   3.632
 4209SOL     OW13525   0.000   6.539   2.154
 4209SOL    HW113526   0.099   6.522   2.163
 4209SOL    HW213527   6.972   6.472   2.208
 4210SOL     OW13528   2.896   3.853   5.033
 4210SOL    HW113529   2.872   3.757   5.018
 4210SOL    HW213530   2.842   3.890   5.108
 4211SOL     OW13531   4.048   2.787   5.298
 4211SOL    HW113532   4.105   2.730   5.239
 4211SOL    HW213533   4.075   2.774   5.393
 4212SOL     OW13534   0.014   2.134   3.219
 4212SOL    HW113535   6.970   2.180   3.159
 4212SOL    HW213536   0.082   2.200   3.251
 4213SOL     OW13537   3.493   0.204   4.039
 4213SOL    HW113538   3.499   0.205   3.939
 4213SOL    HW213539   3.533   0.288   4.076
 4214SOL     OW13540   6.996   5.883   3.030
 4214SOL    HW113541   6.940   5.823   3.087
 4214SOL    HW213542   6.955   5.889   2.939
 4215SOL     OW13543   5.856   6.717   5.717
 4215SOL    HW113544   5.806   6.672   5.643
 4215SOL    HW213545   5.793   6.739   5.792
 4216SOL     OW13546   2.444   5.334   1.719
 4216SOL    HW113547   2.510   5.304   1.651
 4216SOL    HW213548   2.489   5.389   1.789
 4217SOL     OW13549   1.101   0.105   3.103
 4217SOL    HW113550   1.034   0.032   3.087
 4217SOL    HW213551   1.142   0.092   3.194
 4218SOL     OW13552   2.369   0.974   0.724
 4218SOL    HW113553   2.451   1.027   0.703
 4218SOL    HW213554   2.391   0.904   0.793
 4219SOL     OW13555   3.816   5.445   2.836
 4219SOL    HW113556   3.865   5.433   2.923
 4219SOL    HW213557   3.718   5.448   2.853
 4220SOL     OW13558   5.259   1.594   1.033
 4220SOL    HW113559   5.308   1.674   0.999
 4220SOL    HW213560   5.163   1.601   1.005
 4221SOL     OW13561   1.153   6.413   0.822
 4221SOL    HW113562   1.162   6.353   0.743
 4221SOL    HW213563   1.216   6.490   0.813
 4222SOL     OW13564   4.894   3.278   4.028
 4222SOL    HW113565   4.852   3.366   4.050
 4222SOL    HW213566   4.978   3.266   4.081
 4223SOL     OW13567   3.861   3.879   2.361
 4223SOL    HW113568   3.902   3.802   2.410
 4223SOL    HW213569   3.807   3.934   2.425
 4224SOL     OW13570   4.503   5.298   4.454
 4224SOL    HW113571   4.588   5.305   4.402
 4224SOL    HW213572   4.426   5.292   4.391
 4225SOL     OW13573   1.080   1.585   6.318
 4225SOL    HW113574   1.165   1.572   6.268
 4225SOL    HW213575   1.087   1.543   6.408
 4226SOL     OW13576   0.735   5.250   4.990
 4226SOL    HW113577   0.770   5.170   4.941
 4226SOL    HW213578   0.798   5.273   5.064
 4227SOL     OW13579   5.065   5.227   1.970
 4227SOL    HW113580   5.079   5.254   2.065
 4227SOL    HW213581   5.051   5.128   1.966
 4228SOL     OW13582   1.731   4.940   4.216
 4228SOL    HW113583   1.745   4.977   4.308
 4228SOL    HW213584   1.729   4.841   4.219
 4229SOL     OW13585   5.846   5.601   5.422
 4229SOL    HW113586   5.833   5.622   5.519
 4229SOL    HW213587   5.928   5.546   5.410
 4230SOL     OW13588   7.013   0.939   1.742
 4230SOL    HW113589   7.020   0.924   1.841
 4230SOL    HW213590   0.011   0.853   1.694
 4231SOL     OW13591   0.294   1.696   6.543
 4231SOL    HW113592   0.394   1.697   6.543
 4231SOL    HW213593   0.260   1.716   6.452
 4232SOL     OW13594   1.822   5.112   3.938
 4232SOL    HW113595   1.807   5.105   4.037
 4232SOL    HW213596   1.817   5.021   3.897
 4233SOL     OW13597   4.655   5.639   2.218
 4233SOL    HW113598   4.633   5.665   2.312
 4233SOL    HW213599   4.584   5.673   2.157
 4234SOL     OW13600   3.507   5.118   5.682
 4234SOL    HW113601   3.544   5.211   5.676
 4234SOL    HW213602   3.412   5.118   5.649
 4235SOL     OW13603   0.136   5.997   6.295
 4235SOL    HW113604   0.068   6.040   6.354
 4235SOL    HW213605   0.115   6.017   6.200
 4236SOL     OW13606   0.877   5.787   2.749
 4236SOL    HW113607   0.791   5.795   2.699
 4236SOL    HW213608   0.940   5.727   2.699
 4237SOL     OW13609   0.304   4.687   4.334
 4237SOL    HW113610   0.267   4.747   4.263
 4237SOL    HW213611   0.239   4.613   4.351
 4238SOL     OW13612   3.491   6.595   2.196
 4238SOL    HW113613   3.495   6.507   2.242
 4238SOL    HW213614   3.444   6.662   2.255
 4239SOL     OW13615   4.265   1.744   3.939
 4239SOL    HW113616   4.310   1.658   3.914
 4239SOL    HW213617   4.295   1.817   3.878
 4240SOL     OW13618   5.823   6.600   1.905
 4240SOL    HW113619   5.736   6.600   1.857
 4240SOL    HW213620   5.830   6.682   1.962
 4241SOL     OW13621   6.239   4.109   0.611
 4241SOL    HW113622   6.249   4.208   0.604
 4241SOL    HW213623   6.149   4.088   0.650
 4242SOL     OW13624   3.177   2.118   3.605
 4242SOL    HW113625   3.221   2.126   3.695
 4242SOL    HW213626   3.187   2.024   3.572
 4243SOL     OW13627   4.662   1.264   2.962
 4243SOL    HW113628   4.687   1.340   3.022
 4243SOL    HW213629   4.593   1.296   2.896
 4244SOL     OW13630   3.246   3.027   4.414
 4244SOL    HW113631   3.238   3.089   4.492
 4244SOL    HW213632   3.239   2.933   4.445
 4245SOL     OW13633   5.407   0.463   6.661
 4245SOL    HW113634   5.381   0.494   6.570
 4245SOL    HW213635   5.423   0.543   6.720
 4246SOL     OW13636   0.164   3.647   6.870
 4246SOL    HW113637   0.137   3.553   6.891
 4246SOL    HW213638   0.166   3.661   6.771
 4247SOL     OW13639   0.486   5.577   5.084
 4247SOL    HW113640   0.450   5.614   5.170
 4247SOL    HW213641   0.584   5.560   5.094
 4248SOL     OW13642   2.205   3.828   5.914
 4248SOL    HW113643   2.225   3.894   5.986
 4248SOL    HW213644   2.252   3.855   5.830
 4249SOL     OW13645   5.502   4.509   5.761
 4249SOL    HW113646   5.561   4.524   5.840
 4249SOL    HW213647   5.407   4.502   5.791
 4250SOL     OW13648   1.055   4.812   2.967
 4250SOL    HW113649   1.079   4.768   3.054
 4250SOL    HW213650   0.992   4.888   2.985
 4251SOL     OW13651   5.317   3.904   0.341
 4251SOL    HW113652   5.360   3.967   0.406
 4251SOL    HW213653   5.256   3.842   0.390
 4252SOL     OW13654   0.493   5.609   5.385
 4252SOL    HW113655   0.489   5.644   5.478
 4252SOL    HW213656   0.563   5.538   5.378
 4253SOL     OW13657   4.192   6.748   3.002
 4253SOL    HW113658   4.098   6.733   3.033
 4253SOL    HW213659   4.195   6.745   2.902
 4254SOL     OW13660   2.780   4.357   1.522
 4254SOL    HW113661   2.872   4.329   1.496
 4254SOL    HW213662   2.785   4.411   1.606
 4255SOL     OW13663   0.668   2.137   4.700
 4255SOL    HW113664   0.644   2.125   4.604
 4255SOL    HW213665   0.624   2.219   4.736
 4256SOL     OW13666   1.872   0.713   1.446
 4256SOL    HW113667   1.871   0.803   1.492
 4256SOL    HW213668   1.923   0.720   1.361
 4257SOL     OW13669   4.081   2.155   4.691
 4257SOL    HW113670   4.113   2.247   4.709
 4257SOL    HW213671   4.067   2.143   4.592
 4258SOL     OW13672   5.065   6.819   2.105
 4258SOL    HW113673   5.105   6.811   2.014
 4258SOL    HW213674   5.138   6.811   2.174
 4259SOL     OW13675   1.515   2.515   1.134
 4259SOL    HW113676   1.539   2.611   1.148
 4259SOL    HW213677   1.553   2.460   1.208
 4260SOL     OW13678   4.330   5.947   3.202
 4260SOL    HW113679   4.326   5.854   3.167
 4260SOL    HW213680   4.238   5.978   3.227
 4261SOL     OW13681   2.156   1.451   3.384
 4261SOL    HW113682   2.147   1.498   3.296
 4261SOL    HW213683   2.165   1.353   3.369
 4262SOL     OW13684   6.986   5.915   6.591
 4262SOL    HW113685   0.020   5.910   6.673
 4262SOL    HW213686   6.965   6.010   6.569
 4263SOL     OW13687   4.126   5.387   6.080
 4263SOL    HW113688   4.174   5.472   6.101
 4263SOL    HW213689   4.093   5.389   5.986
 4264SOL     OW13690   0.080   0.125   0.753
 4264SOL    HW113691   0.087   0.149   0.656
 4264SOL    HW213692   0.155   0.167   0.803
 4265SOL     OW13693   0.334   2.468   0.259
 4265SOL    HW113694   0.425   2.428   0.272
 4265SOL    HW213695   0.316   2.535   0.331
 4266SOL     OW13696   3.398   4.640   1.318
 4266SOL    HW113697   3.319   4.662   1.261
 4266SOL    HW213698   3.435   4.551   1.292
 4267SOL     OW13699   2.250   4.271   6.056
 4267SOL    HW113700   2.273   4.362   6.091
 4267SOL    HW213701   2.151   4.259   6.057
 4268SOL     OW13702   1.618   1.112   0.224
 4268SOL    HW113703   1.532   1.163   0.226
 4268SOL    HW213704   1.645   1.089   0.318
 4269SOL     OW13705   2.757   3.725   0.686
 4269SOL    HW113706   2.671   3.757   0.725
 4269SOL    HW213707   2.764   3.757   0.591
 4270SOL     OW13708   3.855   2.809   5.633
 4270SOL    HW113709   3.803   2.785   5.714
 4270SOL    HW213710   3.870   2.728   5.576
 4271SOL     OW13711   1.147   6.876   0.077
 4271SOL    HW113712   1.176   6.971   0.068
 4271SOL    HW213713   1.051   6.868   0.050
 4272SOL     OW13714   6.804   4.121   3.541
 4272SOL    HW113715   6.746   4.203   3.546
 4272SOL    HW213716   6.812   4.092   3.446
 4273SOL     OW13717   5.507   6.085   4.832
 4273SOL    HW113718   5.480   6.041   4.917
 4273SOL    HW213719   5.605   6.071   4.817
 4274SOL     OW13720   2.073   0.418   4.011
 4274SOL    HW113721   2.128   0.369   4.079
 4274SOL    HW213722   2.119   0.504   3.987
 4275SOL     OW13723   1.336   6.724   6.479
 4275SOL    HW113724   1.319   6.643   6.534
 4275SOL    HW213725   1.281   6.800   6.513
 4276SOL     OW13726   1.705   4.350   2.510
 4276SOL    HW113727   1.664   4.348   2.419
 4276SOL    HW213728   1.801   4.321   2.504
 4277SOL     OW13729   0.833   5.177   4.231
 4277SOL    HW113730   0.873   5.113   4.166
 4277SOL    HW213731   0.804   5.260   4.182
 4278SOL     OW13732   0.828   6.336   5.527
 4278SOL    HW113733   0.846   6.246   5.567
 4278SOL    HW213734   0.738   6.336   5.483
 4279SOL     OW13735   3.577   5.653   4.144
 4279SOL    HW113736   3.493   5.603   4.166
 4279SOL    HW213737   3.604   5.632   4.050
 4280SOL     OW13738   4.988   3.569   3.622
 4280SOL    HW113739   5.071   3.575   3.677
 4280SOL    HW213740   4.973   3.655   3.574
 4281SOL     OW13741   2.473   3.735   5.300
 4281SOL    HW113742   2.397   3.745   5.365
 4281SOL    HW213743   2.471   3.811   5.235
 4282SOL     OW13744   0.733   3.183   1.358
 4282SOL    HW113745   0.783   3.175   1.273
 4282SOL    HW213746   0.645   3.229   1.341
 4283SOL     OW13747   2.104   0.621   4.265
 4283SOL    HW113748   2.124   0.606   4.168
 4283SOL    HW213749   2.175   0.578   4.321
 4284SOL     OW13750   6.437   1.441   3.008
 4284SOL    HW113751   6.389   1.506   2.949
 4284SOL    HW213752   6.467   1.363   2.954
 4285SOL     OW13753   1.070   6.293   5.180
 4285SOL    HW113754   1.118   6.231   5.242
 4285SOL    HW213755   1.125   6.376   5.165
 4286SOL     OW13756   5.630   5.674   6.953
 4286SOL    HW113757   5.645   5.759   6.903
 4286SOL    HW213758   5.692   5.671   0.009
 4287SOL     OW13759   3.942   6.531   5.016
 4287SOL    HW113760   4.033   6.565   5.041
 4287SOL    HW213761   3.930   6.537   4.917
 4288SOL     OW13762   1.422   6.576   2.589
 4288SOL    HW113763   1.390   6.506   2.525
 4288SOL    HW213764   1.429   6.537   2.681
 4289SOL     OW13765   6.105   3.503   0.815
 4289SOL    HW113766   6.187   3.447   0.803
 4289SOL    HW213767   6.058   3.477   0.899
 4290SOL     OW13768   2.159   1.373   2.386
 4290SOL    HW113769   2.112   1.306   2.329
 4290SOL    HW213770   2.257   1.356   2.383
 4291SOL     OW13771   6.205   4.705   1.184
 4291SOL    HW113772   6.139   4.762   1.135
 4291SOL    HW213773   6.283   4.684   1.124
 4292SOL     OW13774   5.954   5.801   5.832
 4292SOL    HW113775   5.974   5.755   5.918
 4292SOL    HW213776   6.000   5.890   5.831
 4293SOL     OW13777   0.220   2.520   6.808
 4293SOL    HW113778   0.213   2.453   6.734
 4293SOL    HW213779   0.277   2.484   6.881
 4294SOL     OW13780   5.179   2.631   6.313
 4294SOL    HW113781   5.216   2.697   6.248
 4294SOL    HW213782   5.148   2.549   6.263
 4295SOL     OW13783   3.866   6.515   4.694
 4295SOL    HW113784   3.953   6.468   4.705
 4295SOL    HW213785   3.824   6.488   4.607
 4296SOL     OW13786   2.126   1.268   1.220
 4296SOL    HW113787   2.186   1.278   1.141
 4296SOL    HW213788   2.170   1.308   1.301
 4297SOL     OW13789   5.816   0.887   6.399
 4297SOL    HW113790   5.903   0.880   6.350
 4297SOL    HW213791   5.807   0.978   6.440
 4298SOL     OW13792   2.766   5.195   1.185
 4298SOL    HW113793   2.732   5.207   1.278
 4298SOL    HW213794   2.865   5.213   1.183
 4299SOL     OW13795   1.213   3.946   6.381
 4299SOL    HW113796   1.191   4.043   6.371
 4299SOL    HW213797   1.216   3.902   6.291
 4300SOL     OW13798   5.753   0.034   6.209
 4300SOL    HW113799   5.807   0.049   6.292
 4300SOL    HW213800   5.814   0.038   6.129
 4301SOL     OW13801   2.599   1.734   0.383
 4301SOL    HW113802   2.570   1.825   0.352
 4301SOL    HW213803   2.630   1.681   0.304
 4302SOL     OW13804   0.994   6.551   6.955
 4302SOL    HW113805   0.997   6.606   0.016
 4302SOL    HW213806   1.012   6.610   6.876
 4303SOL     OW13807   6.924   3.606   1.905
 4303SOL    HW113808   6.968   3.660   1.834
 4303SOL    HW213809   6.889   3.521   1.864
 4304SOL     OW13810   3.256   2.851   5.082
 4304SOL    HW113811   3.327   2.868   5.150
 4304SOL    HW213812   3.296   2.809   5.000
 4305SOL     OW13813   6.348   1.169   4.451
 4305SOL    HW113814   6.271   1.114   4.419
 4305SOL    HW213815   6.314   1.254   4.492
 4306SOL     OW13816   6.165   5.988   6.151
 4306SOL    HW113817   6.122   5.993   6.060
 4306SOL    HW213818   6.265   5.992   6.140
 4307SOL     OW13819   5.122   3.198   6.802
 4307SOL    HW113820   5.041   3.169   6.854
 4307SOL    HW213821   5.097   3.209   6.706
 4308SOL     OW13822   4.181   6.680   5.041
 4308SOL    HW113823   4.244   6.648   4.970
 4308SOL    HW213824   4.180   6.615   5.117
 4309SOL     OW13825   1.694   1.377   0.851
 4309SOL    HW113826   1.714   1.331   0.765
 4309SOL    HW213827   1.773   1.367   0.913
 4310SOL     OW13828   1.405   1.058   2.399
 4310SOL    HW113829   1.321   1.006   2.384
 4310SOL    HW213830   1.383   1.146   2.441
 4311SOL     OW13831   1.435   6.115   3.937
 4311SOL    HW113832   1.433   6.206   3.897
 4311SOL    HW213833   1.518   6.067   3.908
 4312SOL     OW13834   1.554   5.217   2.044
 4312SOL    HW113835   1.610   5.207   2.126
 4312SOL    HW213836   1.563   5.134   1.988
 4313SOL     OW13837   4.736   0.277   1.589
 4313SOL    HW113838   4.819   0.277   1.534
 4313SOL    HW213839   4.747   0.339   1.667
 4314SOL     OW13840   4.965   3.493   2.982
 4314SOL    HW113841   4.997   3.453   3.067
 4314SOL    HW213842   4.950   3.592   2.994
 4315SOL     OW13843   2.516   1.869   1.929
 4315SOL    HW113844   2.516   1.770   1.916
 4315SOL    HW213845   2.463   1.913   1.856
 4316SOL     OW13846   0.384   0.269   2.443
 4316SOL    HW113847   0.345   0.315   2.523
 4316SOL    HW213848   0.329   0.289   2.362
 4317SOL     OW13849   4.148   0.569   3.115
 4317SOL    HW113850   4.062   0.574   3.165
 4317SOL    HW213851   4.217   0.523   3.171
 4318SOL     OW13852   0.307   3.023   4.192
 4318SOL    HW113853   0.336   3.070   4.109
 4318SOL    HW213854   0.240   2.952   4.169
 4319SOL     OW13855   2.566   3.349   5.679
 4319SOL    HW113856   2.599   3.395   5.597
 4319SOL    HW213857   2.617   3.263   5.691
 4320SOL     OW13858   0.622   6.476   2.812
 4320SOL    HW113859   0.676   6.392   2.819
 4320SOL    HW213860   0.597   6.491   2.716
 4321SOL     OW13861   0.866   0.543   4.937
 4321SOL    HW113862   0.802   0.589   4.876
 4321SOL    HW213863   0.926   0.484   4.884
 4322SOL     OW13864   5.543   1.196   0.580
 4322SOL    HW113865   5.471   1.223   0.517
 4322SOL    HW213866   5.508   1.199   0.674
 4323SOL     OW13867   6.732   2.560   4.167
 4323SOL    HW113868   6.669   2.635   4.150
 4323SOL    HW213869   6.781   2.537   4.083
 4324SOL     OW13870   6.539   3.545   5.916
 4324SOL    HW113871   6.467   3.591   5.864
 4324SOL    HW213872   6.517   3.448   5.925
 4325SOL     OW13873   2.011   1.743   5.605
 4325SOL    HW113874   2.050   1.831   5.578
 4325SOL    HW213875   2.008   1.737   5.705
 4326SOL     OW13876   6.199   2.383   5.735
 4326SOL    HW113877   6.139   2.413   5.661
 4326SOL    HW213878   6.162   2.414   5.822
 4327SOL     OW13879   5.403   0.111   3.400
 4327SOL    HW113880   5.311   0.073   3.411
 4327SOL    HW213881   5.429   0.158   3.484
 4328SOL     OW13882   5.547   5.373   0.529
 4328SOL    HW113883   5.500   5.355   0.443
 4328SOL    HW213884   5.642   5.397   0.512
 4329SOL     OW13885   3.923   1.438   6.173
 4329SOL    HW113886   3.844   1.496   6.151
 4329SOL    HW213887   3.986   1.438   6.096
 4330SOL     OW13888   0.987   0.299   6.296
 4330SOL    HW113889   0.904   0.254   6.265
 4330SOL    HW213890   1.066   0.261   6.248
 4331SOL     OW13891   5.429   2.597   0.713
 4331SOL    HW113892   5.421   2.593   0.813
 4331SOL    HW213893   5.344   2.566   0.671
 4332SOL     OW13894   5.456   3.653   1.186
 4332SOL    HW113895   5.438   3.556   1.168
 4332SOL    HW213896   5.395   3.709   1.129
 4333SOL     OW13897   5.267   1.747   5.292
 4333SOL    HW113898   5.191   1.739   5.356
 4333SOL    HW213899   5.242   1.705   5.205
 4334SOL     OW13900   4.400   0.439   1.923
 4334SOL    HW113901   4.419   0.513   1.987
 4334SOL    HW213902   4.311   0.455   1.879
 4335SOL     OW13903   3.588   3.858   5.402
 4335SOL    HW113904   3.659   3.795   5.369
 4335SOL    HW213905   3.524   3.808   5.460
 4336SOL     OW13906   2.038   6.594   4.231
 4336SOL    HW113907   1.979   6.539   4.172
 4336SOL    HW213908   1.987   6.623   4.313
 4337SOL     OW13909   0.304   4.925   0.647
 4337SOL    HW113910   0.378   4.984   0.681
 4337SOL    HW213911   0.282   4.856   0.716
 4338SOL     OW13912   6.665   6.155   3.789
 4338SOL    HW113913   6.667   6.056   3.803
 4338SOL    HW213914   6.752   6.195   3.820
 4339SOL     OW13915   5.962   1.266   6.243
 4339SOL    HW113916   6.058   1.282   6.264
 4339SOL    HW213917   5.905   1.312   6.311
 4340SOL     OW13918   4.808   2.910   2.239
 4340SOL    HW113919   4.762   2.928   2.152
 4340SOL    HW213920   4.878   2.840   2.226
 4341SOL     OW13921   0.621   3.771   0.269
 4341SOL    HW113922   0.540   3.828   0.283
 4341SOL    HW213923   0.682   3.780   0.348
 4342SOL     OW13924   6.913   2.848   3.074
 4342SOL    HW113925   6.956   2.921   3.021
 4342SOL    HW213926   6.819   2.874   3.095
 4343SOL     OW13927   2.286   1.859   1.696
 4343SOL    HW113928   2.297   1.842   1.598
 4343SOL    HW213929   2.190   1.878   1.716
 4344SOL     OW13930   2.262   4.152   3.147
 4344SOL    HW113931   2.207   4.075   3.115
 4344SOL    HW213932   2.201   4.226   3.175
 4345SOL     OW13933   2.002   1.686   6.271
 4345SOL    HW113934   1.947   1.754   6.224
 4345SOL    HW213935   2.084   1.729   6.309
 4346SOL     OW13936   0.544   2.647   1.645
 4346SOL    HW113937   0.486   2.624   1.567
 4346SOL    HW213938   0.569   2.744   1.640
 4347SOL     OW13939   6.319   5.801   2.930
 4347SOL    HW113940   6.418   5.817   2.932
 4347SOL    HW213941   6.285   5.818   2.838
 4348SOL     OW13942   1.156   3.668   7.009
 4348SOL    HW113943   1.107   3.729   6.948
 4348SOL    HW213944   1.098   3.647   0.066
 4349SOL     OW13945   6.999   0.146   3.409
 4349SOL    HW113946   0.042   0.215   3.442
 4349SOL    HW213947   0.024   0.085   3.344
 4350SOL     OW13948   5.378   1.397   3.968
 4350SOL    HW113949   5.400   1.419   4.063
 4350SOL    HW213950   5.451   1.431   3.908
 4351SOL     OW13951   3.110   6.396   0.618
 4351SOL    HW113952   3.176   6.320   0.623
 4351SOL    HW213953   3.024   6.368   0.661
 4352SOL     OW13954   6.261   1.341   2.150
 4352SOL    HW113955   6.216   1.343   2.060
 4352SOL    HW213956   6.356   1.371   2.140
 4353SOL     OW13957   3.356   5.586   0.812
 4353SOL    HW113958   3.456   5.582   0.812
 4353SOL    HW213959   3.320   5.497   0.840
 4354SOL     OW13960   1.451   0.269   1.219
 4354SOL    HW113961   1.361   0.239   1.189
 4354SOL    HW213962   1.451   0.369   1.231
 4355SOL     OW13963   4.864   1.360   0.982
 4355SOL    HW113964   4.772   1.393   1.005
 4355SOL    HW213965   4.871   1.263   1.005
 4356SOL     OW13966   4.208   4.047   0.152
 4356SOL    HW113967   4.175   4.002   0.069
 4356SOL    HW213968   4.215   4.145   0.137
 4357SOL     OW13969   6.330   1.144   6.570
 4357SOL    HW113970   6.358   1.193   6.653
 4357SOL    HW213971   6.335   1.046   6.586
 4358SOL     OW13972   0.129   0.181   1.455
 4358SOL    HW113973   0.080   0.146   1.376
 4358SOL    HW213974   0.109   0.123   1.535
 4359SOL     OW13975   6.430   2.565   4.287
 4359SOL    HW113976   6.446   2.466   4.290
 4359SOL    HW213977   6.334   2.582   4.268
 4360SOL     OW13978   2.514   3.188   1.162
 4360SOL    HW113979   2.466   3.276   1.163
 4360SOL    HW213980   2.447   3.114   1.158
 4361SOL     OW13981   5.365   1.547   2.107
 4361SOL    HW113982   5.304   1.475   2.141
 4361SOL    HW213983   5.315   1.634   2.104
 4362SOL     OW13984   5.617   4.636   3.793
 4362SOL    HW113985   5.662   4.604   3.709
 4362SOL    HW213986   5.594   4.558   3.850
 4363SOL     OW13987   4.934   1.612   5.664
 4363SOL    HW113988   4.841   1.584   5.640
 4363SOL    HW213989   4.999   1.546   5.627
 4364SOL     OW13990   3.346   3.490   5.276
 4364SOL    HW113991   3.361   3.394   5.301
 4364SOL    HW213992   3.282   3.494   5.199
 4365SOL     OW13993   3.093   1.270   1.474
 4365SOL    HW113994   3.055   1.332   1.542
 4365SOL    HW213995   3.149   1.322   1.409
 4366SOL     OW13996   5.279   5.360   1.124
 4366SOL    HW113997   5.329   5.412   1.055
 4366SOL    HW213998   5.204   5.310   1.081
 4367SOL     OW13999   0.415   6.273   0.369
 4367SOL    HW114000   0.425   6.370   0.393
 4367SOL    HW214001   0.496   6.223   0.400
 4368SOL     OW14002   5.160   3.345   1.723
 4368SOL    HW114003   5.071   3.324   1.766
 4368SOL    HW214004   5.224   3.373   1.794
 4369SOL     OW14005   3.048   5.781   1.587
 4369SOL    HW114006   3.129   5.820   1.630
 4369SOL    HW214007   3.065   5.685   1.563
 4370SOL     OW14008   5.307   5.026   2.910
 4370SOL    HW114009   5.382   4.977   2.954
 4370SOL    HW214010   5.331   5.044   2.815
 4371SOL     OW14011   6.939   1.587   2.185
 4371SOL    HW114012   6.900   1.495   2.187
 4371SOL    HW214013   6.870   1.653   2.217
 4372SOL     OW14014   4.766   6.843   3.693
 4372SOL    HW114015   4.848   6.802   3.733
 4372SOL    HW214016   4.746   6.799   3.606
 4373SOL     OW14017   0.179   1.730   6.271
 4373SOL    HW114018   0.129   1.646   6.251
 4373SOL    HW214019   0.219   1.765   6.186
 4374SOL     OW14020   2.930   2.060   1.143
 4374SOL    HW114021   2.898   2.020   1.229
 4374SOL    HW214022   2.887   2.012   1.066
 4375SOL     OW14023   3.554   6.872   4.346
 4375SOL    HW114024   3.633   6.919   4.386
 4375SOL    HW214025   3.478   6.935   4.337
 4376SOL     OW14026   6.465   1.666   4.039
 4376SOL    HW114027   6.391   1.650   4.105
 4376SOL    HW214028   6.458   1.600   3.964
 4377SOL     OW14029   5.998   5.397   6.628
 4377SOL    HW114030   6.028   5.306   6.654
 4377SOL    HW214031   5.958   5.394   6.536
 4378SOL     OW14032   2.160   1.427   3.662
 4378SOL    HW114033   2.079   1.437   3.603
 4378SOL    HW214034   2.241   1.410   3.605
 4379SOL     OW14035   2.884   2.008   5.321
 4379SOL    HW114036   2.789   2.017   5.290
 4379SOL    HW214037   2.945   2.008   5.242
 4380SOL     OW14038   0.260   1.470   2.110
 4380SOL    HW114039   0.229   1.428   2.195
 4380SOL    HW214040   0.216   1.425   2.033
 4381SOL     OW14041   1.785   6.142   6.325
 4381SOL    HW114042   1.784   6.241   6.310
 4381SOL    HW214043   1.879   6.108   6.317
 4382SOL     OW14044   0.761   4.279   5.182
 4382SOL    HW114045   0.825   4.249   5.111
 4382SOL    HW214046   0.811   4.324   5.256
 4383SOL     OW14047   6.456   3.445   6.781
 4383SOL    HW114048   6.451   3.436   6.880
 4383SOL    HW214049   6.487   3.359   6.741
 4384SOL     OW14050   5.502   6.676   3.882
 4384SOL    HW114051   5.593   6.717   3.883
 4384SOL    HW214052   5.456   6.697   3.796
 4385SOL     OW14053   4.116   1.620   5.253
 4385SOL    HW114054   4.029   1.623   5.203
 4385SOL    HW214055   4.100   1.640   5.349
 4386SOL     OW14056   2.095   3.664   5.140
 4386SOL    HW114057   2.105   3.721   5.059
 4386SOL    HW214058   2.005   3.678   5.181
 4387SOL     OW14059   6.628   1.730   0.153
 4387SOL    HW114060   6.626   1.729   0.253
 4387SOL    HW214061   6.720   1.707   0.121
 4388SOL     OW14062   5.145   3.506   6.783
 4388SOL    HW114063   5.138   3.410   6.759
 4388SOL    HW214064   5.225   3.521   6.841
 4389SOL     OW14065   0.695   3.331   1.006
 4389SOL    HW114066   0.769   3.286   1.057
 4389SOL    HW214067   0.610   3.279   1.018
 4390SOL     OW14068   0.189   1.157   0.862
 4390SOL    HW114069   0.174   1.210   0.779
 4390SOL    HW214070   0.117   1.088   0.871
 4391SOL     OW14071   1.565   5.719   0.633
 4391SOL    HW114072   1.465   5.714   0.629
 4391SOL    HW214073   1.603   5.713   0.541
 4392SOL     OW14074   1.509   2.973   5.723
 4392SOL    HW114075   1.549   2.884   5.743
 4392SOL    HW214076   1.419   2.960   5.681
 4393SOL     OW14077   5.223   0.826   2.069
 4393SOL    HW114078   5.305   0.810   2.124
 4393SOL    HW214079   5.250   0.855   1.977
 4394SOL     OW14080   1.409   0.307   2.275
 4394SOL    HW114081   1.508   0.294   2.270
 4394SOL    HW214082   1.370   0.243   2.341
 4395SOL     OW14083   2.480   4.907   1.616
 4395SOL    HW114084   2.566   4.954   1.596
 4395SOL    HW214085   2.464   4.908   1.714
 4396SOL     OW14086   3.042   0.697   3.093
 4396SOL    HW114087   3.104   0.760   3.139
 4396SOL    HW214088   3.013   0.626   3.157
 4397SOL     OW14089   3.279   1.862   4.446
 4397SOL    HW114090   3.319   1.771   4.435
 4397SOL    HW214091   3.184   1.853   4.475
 4398SOL     OW14092   1.913   2.891   5.336
 4398SOL    HW114093   1.853   2.812   5.324
 4398SOL    HW214094   2.005   2.869   5.306
 4399SOL     OW14095   2.618   6.430   1.625
 4399SOL    HW114096   2.704   6.469   1.659
 4399SOL    HW214097   2.589   6.356   1.686
 4400SOL     OW14098   1.960   5.611   4.491
 4400SOL    HW114099   2.050   5.614   4.534
 4400SOL    HW214100   1.900   5.549   4.542
 4401SOL     OW14101   3.468   6.302   6.997
 4401SOL    HW114102   3.388   6.313   6.938
 4401SOL    HW214103   3.550   6.335   6.949
 4402SOL     OW14104   1.780   0.261   2.926
 4402SOL    HW114105   1.682   0.276   2.933
 4402SOL    HW214106   1.818   0.321   2.855
 4403SOL     OW14107   0.870   5.059   2.081
 4403SOL    HW114108   0.814   4.987   2.041
 4403SOL    HW214109   0.893   5.126   2.010
 4404SOL     OW14110   0.197   6.763   6.291
 4404SOL    HW114111   0.150   6.693   6.236
 4404SOL    HW214112   0.294   6.764   6.266
 4405SOL     OW14113   2.290   5.919   2.618
 4405SOL    HW114114   2.251   5.909   2.710
 4405SOL    HW214115   2.232   5.870   2.552
 4406SOL     OW14116   5.461   4.100   2.095
 4406SOL    HW114117   5.443   4.095   2.193
 4406SOL    HW214118   5.522   4.024   2.069
 4407SOL     OW14119   6.105   6.810   1.553
 4407SOL    HW114120   6.036   6.879   1.574
 4407SOL    HW214121   6.126   6.813   1.455
 4408SOL     OW14122   4.198   0.946   0.121
 4408SOL    HW114123   4.159   0.856   0.102
 4408SOL    HW214124   4.125   1.011   0.141
 4409SOL     OW14125   2.733   0.746   3.312
 4409SOL    HW114126   2.785   0.831   3.305
 4409SOL    HW214127   2.794   0.668   3.304
 4410SOL     OW14128   0.546   6.701   0.947
 4410SOL    HW114129   0.559   6.763   1.024
 4410SOL    HW214130   0.449   6.682   0.935
 4411SOL     OW14131   3.678   4.643   5.282
 4411SOL    HW114132   3.720   4.561   5.321
 4411SOL    HW214133   3.580   4.628   5.269
 4412SOL     OW14134   4.638   6.621   2.449
 4412SOL    HW114135   4.591   6.614   2.361
 4412SOL    HW214136   4.721   6.676   2.439
 4413SOL     OW14137   4.895   6.043   3.779
 4413SOL    HW114138   4.805   6.035   3.738
 4413SOL    HW214139   4.964   6.004   3.718
 4414SOL     OW14140   5.023   3.673   1.543
 4414SOL    HW114141   4.988   3.655   1.635
 4414SOL    HW214142   5.119   3.702   1.550
 4415SOL     OW14143   2.230   3.154   1.840
 4415SOL    HW114144   2.194   3.229   1.785
 4415SOL    HW214145   2.285   3.094   1.783
 4416SOL     OW14146   5.060   2.433   3.077
 4416SOL    HW114147   5.077   2.411   2.981
 4416SOL    HW214148   4.964   2.414   3.099
 4417SOL     OW14149   6.867   4.160   2.433
 4417SOL    HW114150   6.884   4.087   2.498
 4417SOL    HW214151   6.908   4.136   2.345
 4418SOL     OW14152   6.426   6.515   5.801
 4418SOL    HW114153   6.497   6.459   5.843
 4418SOL    HW214154   6.435   6.514   5.702
 4419SOL     OW14155   6.480   5.671   6.574
 4419SOL    HW114156   6.405   5.607   6.560
 4419SOL    HW214157   6.508   5.669   6.670
 4420SOL     OW14158   3.573   2.161   0.994
 4420SOL    HW114159   3.480   2.194   0.977
 4420SOL    HW214160   3.631   2.237   1.023
 4421SOL     OW14161   1.802   2.646   0.603
 4421SOL    HW114162   1.791   2.697   0.518
 4421SOL    HW214163   1.827   2.551   0.581
 4422SOL     OW14164   6.663   3.702   6.297
 4422SOL    HW114165   6.669   3.786   6.243
 4422SOL    HW214166   6.737   3.641   6.272
 4423SOL     OW14167   6.252   4.095   4.995
 4423SOL    HW114168   6.196   4.159   5.048
 4423SOL    HW214169   6.289   4.141   4.915
 4424SOL     OW14170   5.073   5.897   2.313
 4424SOL    HW114171   5.076   5.877   2.411
 4424SOL    HW214172   5.079   5.996   2.300
 4425SOL     OW14173   1.262   5.220   1.282
 4425SOL    HW114174   1.300   5.178   1.364
 4425SOL    HW214175   1.220   5.308   1.305
 4426SOL     OW14176   0.512   0.424   4.428
 4426SOL    HW114177   0.513   0.430   4.528
 4426SOL    HW214178   0.447   0.353   4.400
 4427SOL     OW14179   2.474   5.647   1.972
 4427SOL    HW114180   2.375   5.654   1.962
 4427SOL    HW214181   2.503   5.554   1.951
 4428SOL     OW14182   5.769   5.811   3.709
 4428SOL    HW114183   5.674   5.790   3.731
 4428SOL    HW214184   5.774   5.900   3.663
 4429SOL     OW14185   2.770   6.107   3.495
 4429SOL    HW114186   2.773   6.009   3.513
 4429SOL    HW214187   2.703   6.126   3.424
 4430SOL     OW14188   5.546   3.883   5.106
 4430SOL    HW114189   5.468   3.945   5.094
 4430SOL    HW214190   5.532   3.828   5.188
 4431SOL     OW14191   4.023   6.741   4.414
 4431SOL    HW114192   3.975   6.657   4.441
 4431SOL    HW214193   4.046   6.737   4.317
 4432SOL     OW14194   0.953   3.683   6.492
 4432SOL    HW114195   1.004   3.622   6.432
 4432SOL    HW214196   0.861   3.645   6.508
 4433SOL     OW14197   1.182   1.022   5.736
 4433SOL    HW114198   1.088   0.988   5.730
 4433SOL    HW214199   1.183   1.120   5.716
 4434SOL     OW14200   0.284   0.318   2.695
 4434SOL    HW114201   0.201   0.311   2.750
 4434SOL    HW214202   0.363   0.299   2.752
 4435SOL     OW14203   2.508   3.849   0.619
 4435SOL    HW114204   2.472   3.845   0.526
 4435SOL    HW214205   2.439   3.816   0.683
 4436SOL     OW14206   4.624   2.023   1.558
 4436SOL    HW114207   4.629   1.925   1.535
 4436SOL    HW214208   4.587   2.034   1.650
 4437SOL     OW14209   6.609   4.098   6.980
 4437SOL    HW114210   6.685   4.127   6.922
 4437SOL    HW214211   6.525   4.144   6.950
 4438SOL     OW14212   3.891   0.872   5.528
 4438SOL    HW114213   3.928   0.876   5.621
 4438SOL    HW214214   3.836   0.954   5.511
 4439SOL     OW14215   2.721   6.247   2.766
 4439SOL    HW114216   2.654   6.176   2.743
 4439SOL    HW214217   2.811   6.205   2.781
 4440SOL     OW14218   1.282   4.566   6.725
 4440SOL    HW114219   1.217   4.595   6.655
 4440SOL    HW214220   1.370   4.611   6.710
 4441SOL     OW14221   6.994   1.951   1.296
 4441SOL    HW114222   0.060   1.995   1.282
 4441SOL    HW214223   7.004   1.875   1.361
 4442SOL     OW14224   2.217   5.186   6.966
 4442SOL    HW114225   2.263   5.265   7.007
 4442SOL    HW214226   2.256   5.168   6.875
 4443SOL     OW14227   0.676   5.541   5.853
 4443SOL    HW114228   0.750   5.548   5.919
 4443SOL    HW214229   0.598   5.595   5.884
 4444SOL     OW14230   5.890   5.356   0.175
 4444SOL    HW114231   5.978   5.358   0.222
 4444SOL    HW214232   5.893   5.289   0.100
 4445SOL     OW14233   0.822   4.677   0.442
 4445SOL    HW114234   0.847   4.637   0.531
 4445SOL    HW214235   0.835   4.608   0.370
 4446SOL     OW14236   4.493   1.797   0.919
 4446SOL    HW114237   4.556   1.869   0.889
 4446SOL    HW214238   4.525   1.760   1.006
 4447SOL     OW14239   4.115   5.795   5.318
 4447SOL    HW114240   4.194   5.753   5.272
 4447SOL    HW214241   4.042   5.727   5.326
 4448SOL     OW14242   3.774   6.432   1.302
 4448SOL    HW114243   3.768   6.520   1.255
 4448SOL    HW214244   3.866   6.421   1.339
 4449SOL     OW14245   3.460   1.573   5.849
 4449SOL    HW114246   3.366   1.550   5.874
 4449SOL    HW214247   3.471   1.672   5.848
 4450SOL     OW14248   2.648   6.697   0.263
 4450SOL    HW114249   2.606   6.782   0.233
 4450SOL    HW214250   2.629   6.624   0.197
 4451SOL     OW14251   4.583   5.420   3.303
 4451SOL    HW114252   4.598   5.409   3.204
 4451SOL    HW214253   4.665   5.391   3.352
 4452SOL     OW14254   4.796   6.086   4.189
 4452SOL    HW114255   4.869   6.141   4.229
 4452SOL    HW214256   4.758   6.133   4.110
 4453SOL     OW14257   6.917   4.418   0.493
 4453SOL    HW114258   6.901   4.321   0.507
 4453SOL    HW214259   6.937   4.436   0.397
 4454SOL     OW14260   1.294   3.129   0.593
 4454SOL    HW114261   1.282   3.174   0.505
 4454SOL    HW214262   1.325   3.035   0.578
 4455SOL     OW14263   1.192   0.121   4.860
 4455SOL    HW114264   1.120   0.105   4.792
 4455SOL    HW214265   1.280   0.089   4.824
 4456SOL     OW14266   2.456   6.844   4.422
 4456SOL    HW114267   2.436   6.931   4.467
 4456SOL    HW214268   2.521   6.859   4.348
 4457SOL     OW14269   1.585   1.502   4.470
 4457SOL    HW114270   1.654   1.518   4.399
 4457SOL    HW214271   1.626   1.448   4.544
 4458SOL     OW14272   1.149   3.414   6.866
 4458SOL    HW114273   1.200   3.469   6.932
 4458SOL    HW214274   1.061   3.388   6.906
 4459SOL     OW14275   0.451   3.037   3.350
 4459SOL    HW114276   0.436   3.079   3.260
 4459SOL    HW214277   0.395   3.085   3.418
 4460SOL     OW14278   0.257   2.303   5.107
 4460SOL    HW114279   0.171   2.259   5.082
 4460SOL    HW214280   0.333   2.245   5.077
 4461SOL     OW14281   1.781   0.498   0.805
 4461SOL    HW114282   1.807   0.418   0.860
 4461SOL    HW214283   1.863   0.539   0.765
 4462SOL     OW14284   6.800   4.016   3.274
 4462SOL    HW114285   6.731   3.943   3.273
 4462SOL    HW214286   6.887   3.981   3.241
 4463SOL     OW14287   5.885   1.768   0.303
 4463SOL    HW114288   5.834   1.768   0.217
 4463SOL    HW214289   5.960   1.834   0.297
 4464SOL     OW14290   0.241   3.997   1.380
 4464SOL    HW114291   0.250   4.097   1.374
 4464SOL    HW214292   0.154   3.974   1.423
 4465SOL     OW14293   3.490   5.522   1.661
 4465SOL    HW114294   3.492   5.585   1.584
 4465SOL    HW214295   3.555   5.553   1.731
 4466SOL     OW14296   1.084   2.357   1.987
 4466SOL    HW114297   1.062   2.344   1.890
 4466SOL    HW214298   1.181   2.377   1.997
 4467SOL     OW14299   5.072   5.251   2.575
 4467SOL    HW114300   5.158   5.296   2.552
 4467SOL    HW214301   5.044   5.278   2.667
 4468SOL     OW14302   1.813   3.236   1.408
 4468SOL    HW114303   1.843   3.234   1.504
 4468SOL    HW214304   1.791   3.330   1.382
 4469SOL     OW14305   2.445   5.788   1.626
 4469SOL    HW114306   2.376   5.798   1.555
 4469SOL    HW214307   2.514   5.722   1.597
 4470SOL     OW14308   1.482   0.202   2.953
 4470SOL    HW114309   1.532   0.137   3.012
 4470SOL    HW214310   1.401   0.156   2.915
 4471SOL     OW14311   1.223   6.964   6.529
 4471SOL    HW114312   1.132   6.980   6.491
 4471SOL    HW214313   1.270   0.029   6.542
 4472SOL     OW14314   1.801   2.795   0.855
 4472SOL    HW114315   1.828   2.754   0.767
 4472SOL    HW214316   1.834   2.737   0.929
 4473SOL     OW14317   0.417   3.351   4.446
 4473SOL    HW114318   0.494   3.338   4.384
 4473SOL    HW214319   0.447   3.336   4.540
 4474SOL     OW14320   3.207   5.787   0.907
 4474SOL    HW114321   3.259   5.705   0.882
 4474SOL    HW214322   3.153   5.768   0.989
 4475SOL     OW14323   0.897   3.898   0.923
 4475SOL    HW114324   0.916   3.819   0.864
 4475SOL    HW214325   0.977   3.916   0.980
 4476SOL     OW14326   5.481   0.746   4.209
 4476SOL    HW114327   5.404   0.803   4.180
 4476SOL    HW214328   5.543   0.733   4.131
 4477SOL     OW14329   0.647   0.715   4.810
 4477SOL    HW114330   0.627   0.728   4.713
 4477SOL    HW214331   0.638   0.802   4.858
 4478SOL     OW14332   1.473   0.088   1.646
 4478SOL    HW114333   1.528   0.095   1.563
 4478SOL    HW214334   1.418   0.004   1.642
 4479SOL     OW14335   1.707   2.251   0.147
 4479SOL    HW114336   1.783   2.250   0.212
 4479SOL    HW214337   1.713   2.171   0.086
 4480SOL     OW14338   1.111   6.860   3.486
 4480SOL    HW114339   1.112   6.779   3.427
 4480SOL    HW214340   1.184   6.853   3.554
 4481SOL     OW14341   1.834   3.679   5.939
 4481SOL    HW114342   1.886   3.663   6.022
 4481SOL    HW214343   1.748   3.629   5.943
 4482SOL     OW14344   2.271   6.882   1.619
 4482SOL    HW114345   2.289   6.903   1.715
 4482SOL    HW214346   2.179   6.845   1.609
 4483SOL     OW14347   1.380   3.647   0.894
 4483SOL    HW114348   1.347   3.560   0.931
 4483SOL    HW214349   1.394   3.638   0.795
 4484SOL     OW14350   2.410   0.966   0.040
 4484SOL    HW114351   2.502   0.927   0.049
 4484SOL    HW214352   2.365   0.967   0.129
 4485SOL     OW14353   6.558   2.539   5.226
 4485SOL    HW114354   6.613   2.534   5.309
 4485SOL    HW214355   6.537   2.635   5.206
 4486SOL     OW14356   4.721   4.919   4.480
 4486SOL    HW114357   4.746   5.015   4.490
 4486SOL    HW214358   4.772   4.878   4.404
 4487SOL     OW14359   0.741   2.734   6.658
 4487SOL    HW114360   0.655   2.772   6.692
 4487SOL    HW214361   0.816   2.759   6.719
 4488SOL     OW14362   0.057   4.096   3.339
 4488SOL    HW114363   0.069   4.107   3.437
 4488SOL    HW214364   0.004   4.173   3.303
 4489SOL     OW14365   3.822   6.387   5.932
 4489SOL    HW114366   3.778   6.307   5.891
 4489SOL    HW214367   3.892   6.422   5.869
 4490SOL     OW14368   5.457   1.151   1.679
 4490SOL    HW114369   5.456   1.226   1.745
 4490SOL    HW214370   5.524   1.171   1.607
 4491SOL     OW14371   0.886   2.961   3.304
 4491SOL    HW114372   0.847   2.918   3.223
 4491SOL    HW214373   0.965   3.017   3.278
 4492SOL     OW14374   0.079   0.917   2.455
 4492SOL    HW114375   0.136   0.999   2.460
 4492SOL    HW214376   0.028   0.918   2.369
 4493SOL     OW14377   5.420   1.671   5.845
 4493SOL    HW114378   5.326   1.658   5.877
 4493SOL    HW214379   5.452   1.586   5.802
 4494SOL     OW14380   1.269   0.245   1.674
 4494SOL    HW114381   1.230   0.249   1.766
 4494SOL    HW214382   1.360   0.205   1.678
 4495SOL     OW14383   4.307   6.644   1.033
 4495SOL    HW114384   4.355   6.556   1.031
 4495SOL    HW214385   4.293   6.676   0.939
 4496SOL     OW14386   2.784   6.186   5.509
 4496SOL    HW114387   2.776   6.086   5.515
 4496SOL    HW214388   2.751   6.227   5.593
 4497SOL     OW14389   3.644   0.971   6.042
 4497SOL    HW114390   3.625   0.904   5.970
 4497SOL    HW214391   3.559   0.996   6.088
 4498SOL     OW14392   0.540   4.574   4.277
 4498SOL    HW114393   0.449   4.608   4.301
 4498SOL    HW214394   0.567   4.613   4.189
 4499SOL     OW14395   5.638   1.454   2.469
 4499SOL    HW114396   5.651   1.543   2.513
 4499SOL    HW214397   5.542   1.443   2.445
 4500SOL     OW14398   4.134   5.987   0.524
 4500SOL    HW114399   4.039   6.008   0.547
 4500SOL    HW214400   4.158   5.897   0.560
 4501SOL     OW14401   5.954   0.514   2.476
 4501SOL    HW114402   5.977   0.493   2.571
 4501SOL    HW214403   6.038   0.533   2.425
 4502SOL     OW14404   0.203   3.737   6.621
 4502SOL    HW114405   0.303   3.741   6.632
 4502SOL    HW214406   0.171   3.820   6.576
 4503SOL     OW14407   3.335   1.664   2.783
 4503SOL    HW114408   3.424   1.625   2.760
 4503SOL    HW214409   3.342   1.764   2.783
 4504SOL     OW14410   0.693   2.332   2.307
 4504SOL    HW114411   0.685   2.400   2.381
 4504SOL    HW214412   0.781   2.344   2.262
 4505SOL     OW14413   5.660   3.371   3.714
 4505SOL    HW114414   5.743   3.347   3.664
 4505SOL    HW214415   5.675   3.455   3.765
 4506SOL     OW14416   5.187   3.284   6.288
 4506SOL    HW114417   5.218   3.213   6.225
 4506SOL    HW214418   5.195   3.251   6.382
 4507SOL     OW14419   6.387   2.240   3.384
 4507SOL    HW114420   6.332   2.183   3.323
 4507SOL    HW214421   6.472   2.266   3.339
 4508SOL     OW14422   0.066   4.575   0.643
 4508SOL    HW114423   0.019   4.512   0.581
 4508SOL    HW214424   0.133   4.629   0.591
 4509SOL     OW14425   4.986   2.374   2.220
 4509SOL    HW114426   5.056   2.321   2.268
 4509SOL    HW214427   5.014   2.469   2.214
 4510SOL     OW14428   4.002   1.318   4.770
 4510SOL    HW114429   4.089   1.281   4.738
 4510SOL    HW214430   4.001   1.417   4.755
 4511SOL     OW14431   6.714   5.046   6.606
 4511SOL    HW114432   6.735   5.140   6.632
 4511SOL    HW214433   6.799   4.995   6.590
 4512SOL     OW14434   3.031   3.032   5.561
 4512SOL    HW114435   3.025   3.122   5.604
 4512SOL    HW214436   2.990   3.036   5.469
 4513SOL     OW14437   0.348   0.157   0.562
 4513SOL    HW114438   0.352   0.100   0.643
 4513SOL    HW214439   0.257   0.150   0.521
 4514SOL     OW14440   4.277   4.837   6.979
 4514SOL    HW114441   4.277   4.917   6.919
 4514SOL    HW214442   4.281   4.866   0.052
 4515SOL     OW14443   3.905   0.957   6.313
 4515SOL    HW114444   3.944   0.943   6.404
 4515SOL    HW214445   3.825   0.899   6.302
 4516SOL     OW14446   3.040   2.463   5.871
 4516SOL    HW114447   3.028   2.521   5.951
 4516SOL    HW214448   3.132   2.474   5.834
 4517SOL     OW14449   4.281   1.002   5.174
 4517SOL    HW114450   4.282   0.932   5.246
 4517SOL    HW214451   4.248   0.962   5.089
 4518SOL     OW14452   0.424   6.303   0.911
 4518SOL    HW114453   0.413   6.251   0.826
 4518SOL    HW214454   0.354   6.374   0.917
 4519SOL     OW14455   4.636   6.712   0.162
 4519SOL    HW114456   4.715   6.755   0.206
 4519SOL    HW214457   4.612   6.628   0.210
 4520SOL     OW14458   4.662   5.332   5.272
 4520SOL    HW114459   4.621   5.394   5.205
 4520SOL    HW214460   4.752   5.302   5.240
 4521SOL     OW14461   4.210   2.293   4.171
 4521SOL    HW114462   4.253   2.297   4.261
 4521SOL    HW214463   4.259   2.352   4.107
 4522SOL     OW14464   5.640   3.860   3.731
 4522SOL    HW114465   5.559   3.914   3.708
 4522SOL    HW214466   5.676   3.890   3.819
 4523SOL     OW14467   6.692   2.755   6.017
 4523SOL    HW114468   6.643   2.839   6.041
 4523SOL    HW214469   6.787   2.763   6.048
 4524SOL     OW14470   2.013   3.822   2.311
 4524SOL    HW114471   2.069   3.743   2.287
 4524SOL    HW214472   2.057   3.871   2.388
 4525SOL     OW14473   3.516   2.795   5.712
 4525SOL    HW114474   3.468   2.760   5.632
 4525SOL    HW214475   3.572   2.722   5.752
 4526SOL     OW14476   1.086   0.276   5.050
 4526SOL    HW114477   1.156   0.294   5.119
 4526SOL    HW214478   1.123   0.214   4.980
 4527SOL     OW14479   0.458   1.664   2.608
 4527SOL    HW114480   0.543   1.648   2.559
 4527SOL    HW214481   0.426   1.757   2.591
 4528SOL     OW14482   5.166   0.384   5.024
 4528SOL    HW114483   5.234   0.402   4.953
 4528SOL    HW214484   5.206   0.324   5.094
 4529SOL     OW14485   2.103   2.013   3.861
 4529SOL    HW114486   2.124   1.935   3.921
 4529SOL    HW214487   2.186   2.066   3.846
 4530SOL     OW14488   4.256   5.929   6.450
 4530SOL    HW114489   4.230   6.007   6.393
 4530SOL    HW214490   4.351   5.904   6.431
 4531SOL     OW14491   1.503   6.384   5.078
 4531SOL    HW114492   1.420   6.437   5.094
 4531SOL    HW214493   1.555   6.375   5.163
 4532SOL     OW14494   6.528   1.535   2.704
 4532SOL    HW114495   6.453   1.582   2.658
 4532SOL    HW214496   6.500   1.442   2.727
 4533SOL     OW14497   2.972   0.355   1.440
 4533SOL    HW114498   3.029   0.389   1.514
 4533SOL    HW214499   2.940   0.262   1.462
 4534SOL     OW14500   4.946   1.792   4.263
 4534SOL    HW114501   5.027   1.768   4.210
 4534SOL    HW214502   4.897   1.867   4.217
 4535SOL     OW14503   1.680   0.246   0.096
 4535SOL    HW114504   1.774   0.234   0.064
 4535SOL    HW214505   1.672   0.213   0.190
 4536SOL     OW14506   3.359   0.279   5.977
 4536SOL    HW114507   3.323   0.238   6.060
 4536SOL    HW214508   3.422   0.353   6.001
 4537SOL     OW14509   2.981   3.287   3.418
 4537SOL    HW114510   3.000   3.201   3.464
 4537SOL    HW214511   3.028   3.361   3.466
 4538SOL     OW14512   0.223   2.260   0.894
 4538SOL    HW114513   0.139   2.206   0.891
 4538SOL    HW214514   0.236   2.308   0.808
 4539SOL     OW14515   1.628   5.599   5.170
 4539SOL    HW114516   1.584   5.509   5.171
 4539SOL    HW214517   1.594   5.652   5.092
 4540SOL     OW14518   1.189   2.136   0.509
 4540SOL    HW114519   1.284   2.104   0.513
 4540SOL    HW214520   1.154   2.127   0.416
 4541SOL     OW14521   4.056   3.156   6.758
 4541SOL    HW114522   3.965   3.146   6.796
 4541SOL    HW214523   4.124   3.142   6.830
 4542SOL     OW14524   0.292   1.415   6.256
 4542SOL    HW114525   0.328   1.382   6.343
 4542SOL    HW214526   0.214   1.475   6.272
 4543SOL     OW14527   3.458   1.981   0.831
 4543SOL    HW114528   3.505   2.049   0.887
 4543SOL    HW214529   3.451   2.014   0.737
 4544SOL     OW14530   4.509   6.858   0.742
 4544SOL    HW114531   4.548   6.864   0.834
 4544SOL    HW214532   4.420   6.903   0.740
 4545SOL     OW14533   2.429   2.926   5.648
 4545SOL    HW114534   2.492   3.003   5.654
 4545SOL    HW214535   2.375   2.933   5.564
 4546SOL     OW14536   3.352   0.374   5.708
 4546SOL    HW114537   3.281   0.424   5.657
 4546SOL    HW214538   3.312   0.339   5.793
 4547SOL     OW14539   0.648   0.539   6.814
 4547SOL    HW114540   0.708   0.491   6.877
 4547SOL    HW214541   0.587   0.474   6.768
 4548SOL     OW14542   3.146   1.728   1.978
 4548SOL    HW114543   3.153   1.784   2.060
 4548SOL    HW214544   3.229   1.738   1.924
 4549SOL     OW14545   0.603   3.812   3.874
 4549SOL    HW114546   0.528   3.747   3.893
 4549SOL    HW214547   0.690   3.764   3.879
 4550SOL     OW14548   2.203   5.622   4.634
 4550SOL    HW114549   2.235   5.528   4.645
 4550SOL    HW214550   2.202   5.668   4.723
 4551SOL     OW14551   2.637   2.401   5.616
 4551SOL    HW114552   2.665   2.490   5.579
 4551SOL    HW214553   2.716   2.357   5.658
 4552SOL     OW14554   4.415   1.298   0.573
 4552SOL    HW114555   4.422   1.392   0.604
 4552SOL    HW214556   4.438   1.236   0.648
 4553SOL     OW14557   0.241   6.103   0.177
 4553SOL    HW114558   0.285   6.160   0.247
 4553SOL    HW214559   0.281   6.012   0.179
 4554SOL     OW14560   5.757   0.117   3.096
 4554SOL    HW114561   5.777   0.143   3.191
 4554SOL    HW214562   5.715   0.026   3.095
 4555SOL     OW14563   0.740   0.672   1.395
 4555SOL    HW114564   0.834   0.637   1.397
 4555SOL    HW214565   0.718   0.715   1.482
 4556SOL     OW14566   5.235   4.726   4.171
 4556SOL    HW114567   5.255   4.781   4.089
 4556SOL    HW214568   5.188   4.782   4.238
 4557SOL     OW14569   0.211   4.792   4.104
 4557SOL    HW114570   0.152   4.846   4.164
 4557SOL    HW214571   0.162   4.769   4.021
 4558SOL     OW14572   1.329   4.105   4.876
 4558SOL    HW114573   1.290   4.013   4.878
 4558SOL    HW214574   1.256   4.173   4.892
 4559SOL     OW14575   6.759   3.170   3.926
 4559SOL    HW114576   6.773   3.154   4.024
 4559SOL    HW214577   6.663   3.157   3.903
 4560SOL     OW14578   5.567   4.657   2.856
 4560SOL    HW114579   5.542   4.741   2.905
 4560SOL    HW214580   5.666   4.652   2.848
 4561SOL     OW14581   4.753   2.653   4.188
 4561SOL    HW114582   4.688   2.688   4.255
 4561SOL    HW214583   4.755   2.553   4.193
 4562SOL     OW14584   3.654   1.071   0.204
 4562SOL    HW114585   3.597   1.083   0.285
 4562SOL    HW214586   3.611   1.116   0.126
 4563SOL     OW14587   0.783   4.555   2.136
 4563SOL    HW114588   0.882   4.567   2.139
 4563SOL    HW214589   0.761   4.468   2.092
 4564SOL     OW14590   2.213   4.054   2.774
 4564SOL    HW114591   2.200   4.010   2.863
 4564SOL    HW214592   2.300   4.103   2.773
 4565SOL     OW14593   1.727   6.917   5.744
 4565SOL    HW114594   1.750   7.014   5.759
 4565SOL    HW214595   1.769   6.861   5.815
 4566SOL     OW14596   6.308   4.244   3.206
 4566SOL    HW114597   6.268   4.252   3.114
 4566SOL    HW214598   6.234   4.232   3.272
 4567SOL     OW14599   0.293   6.895   6.772
 4567SOL    HW114600   0.257   6.883   6.680
 4567SOL    HW214601   0.363   6.826   6.790
 4568SOL     OW14602   1.282   5.096   3.815
 4568SOL    HW114603   1.289   5.153   3.897
 4568SOL    HW214604   1.374   5.073   3.782
 4569SOL     OW14605   2.275   1.816   3.144
 4569SOL    HW114606   2.359   1.792   3.191
 4569SOL    HW214607   2.219   1.876   3.202
 4570SOL     OW14608   5.165   5.165   1.560
 4570SOL    HW114609   5.147   5.251   1.608
 4570SOL    HW214610   5.216   5.184   1.476
 4571SOL     OW14611   2.396   3.573   6.078
 4571SOL    HW114612   2.424   3.658   6.034
 4571SOL    HW214613   2.461   3.550   6.150
 4572SOL     OW14614   3.493   2.905   2.407
 4572SOL    HW114615   3.408   2.907   2.355
 4572SOL    HW214616   3.570   2.894   2.344
 4573SOL     OW14617   3.142   5.158   0.131
 4573SOL    HW114618   3.061   5.217   0.131
 4573SOL    HW214619   3.126   5.079   0.073
 4574SOL     OW14620   4.847   0.943   2.142
 4574SOL    HW114621   4.833   0.974   2.048
 4574SOL    HW214622   4.873   0.846   2.141
 4575SOL     OW14623   0.611   0.307   5.010
 4575SOL    HW114624   0.548   0.378   5.044
 4575SOL    HW214625   0.698   0.313   5.060
 4576SOL     OW14626   3.262   4.270   6.700
 4576SOL    HW114627   3.355   4.237   6.714
 4576SOL    HW214628   3.203   4.192   6.678
 4577SOL     OW14629   0.826   1.849   2.152
 4577SOL    HW114630   0.726   1.860   2.147
 4577SOL    HW214631   0.860   1.895   2.234
 4578SOL     OW14632   1.672   1.475   2.613
 4578SOL    HW114633   1.701   1.570   2.619
 4578SOL    HW214634   1.737   1.417   2.662
 4579SOL     OW14635   4.708   0.886   3.707
 4579SOL    HW114636   4.784   0.917   3.649
 4579SOL    HW214637   4.730   0.906   3.803
 4580SOL     OW14638   0.466   1.366   0.606
 4580SOL    HW114639   0.449   1.283   0.552
 4580SOL    HW214640   0.381   1.418   0.616
 4581SOL     OW14641   2.675   0.815   0.903
 4581SOL    HW114642   2.736   0.755   0.852
 4581SOL    HW214643   2.704   0.818   0.999
 4582SOL     OW14644   6.937   0.660   3.524
 4582SOL    HW114645   6.983   0.665   3.435
 4582SOL    HW214646   6.856   0.717   3.523
 4583SOL     OW14647   1.942   0.198   0.017
 4583SOL    HW114648   2.003   0.272   0.045
 4583SOL    HW214649   1.958   0.176   6.943
 4584SOL     OW14650   0.450   2.075   4.275
 4584SOL    HW114651   0.501   2.148   4.320
 4584SOL    HW214652   0.495   2.050   4.190
 4585SOL     OW14653   1.311   2.715   3.377
 4585SOL    HW114654   1.308   2.811   3.403
 4585SOL    HW214655   1.292   2.658   3.458
 4586SOL     OW14656   6.029   4.961   6.574
 4586SOL    HW114657   6.027   5.027   6.650
 4586SOL    HW214658   6.112   4.975   6.520
 4587SOL     OW14659   4.114   4.130   5.526
 4587SOL    HW114660   4.023   4.110   5.561
 4587SOL    HW214661   4.107   4.190   5.446
 4588SOL     OW14662   3.360   3.605   6.457
 4588SOL    HW114663   3.434   3.611   6.525
 4588SOL    HW214664   3.280   3.562   6.499
 4589SOL     OW14665   6.048   6.404   2.634
 4589SOL    HW114666   6.092   6.315   2.642
 4589SOL    HW214667   6.042   6.430   2.538
 4590SOL     OW14668   3.755   5.799   1.678
 4590SOL    HW114669   3.743   5.700   1.691
 4590SOL    HW214670   3.853   5.821   1.681
 4591SOL     OW14671   2.484   0.953   5.104
 4591SOL    HW114672   2.518   0.879   5.045
 4591SOL    HW214673   2.472   1.036   5.050
 4592SOL     OW14674   2.527   1.395   3.794
 4592SOL    HW114675   2.474   1.478   3.814
 4592SOL    HW214676   2.526   1.378   3.695
 4593SOL     OW14677   1.251   5.988   4.346
 4593SOL    HW114678   1.239   5.952   4.438
 4593SOL    HW214679   1.345   6.020   4.334
 4594SOL     OW14680   2.305   6.743   3.432
 4594SOL    HW114681   2.343   6.658   3.470
 4594SOL    HW214682   2.224   6.721   3.377
 4595SOL     OW14683   5.724   2.147   6.172
 4595SOL    HW114684   5.650   2.187   6.225
 4595SOL    HW214685   5.728   2.049   6.188
 4596SOL     OW14686   1.249   0.512   2.192
 4596SOL    HW114687   1.162   0.463   2.201
 4596SOL    HW214688   1.325   0.448   2.201
 4597SOL     OW14689   2.560   5.724   0.482
 4597SOL    HW114690   2.644   5.705   0.533
 4597SOL    HW214691   2.570   5.809   0.431
 4598SOL     OW14692   0.597   4.382   0.525
 4598SOL    HW114693   0.649   4.356   0.606
 4598SOL    HW214694   0.525   4.447   0.552
 4599SOL     OW14695   3.806   6.745   1.898
 4599SOL    HW114696   3.825   6.840   1.873
 4599SOL    HW214697   3.858   6.722   1.980
 4600SOL     OW14698   0.639   6.969   6.646
 4600SOL    HW114699   0.575   6.972   6.568
 4600SOL    HW214700   0.594   7.008   6.727
 4601SOL     OW14701   1.700   0.628   5.523
 4601SOL    HW114702   1.623   0.569   5.499
 4601SOL    HW214703   1.702   0.643   5.621
 4602SOL     OW14704   3.042   1.995   6.025
 4602SOL    HW114705   3.093   2.051   5.960
 4602SOL    HW214706   2.953   1.971   5.985
 4603SOL     OW14707   3.968   6.782   1.063
 4603SOL    HW114708   4.023   6.855   1.023
 4603SOL    HW214709   4.015   6.745   1.144
 4604SOL     OW14710   0.098   6.725   4.224
 4604SOL    HW114711   0.094   6.799   4.291
 4604SOL    HW214712   0.115   6.638   4.271
 4605SOL     OW14713   3.609   0.384   1.590
 4605SOL    HW114714   3.541   0.420   1.525
 4605SOL    HW214715   3.566   0.373   1.680
 4606SOL     OW14716   0.242   6.423   5.028
 4606SOL    HW114717   0.195   6.511   5.038
 4606SOL    HW214718   0.190   6.364   4.967
 4607SOL     OW14719   1.749   1.872   0.999
 4607SOL    HW114720   1.730   1.798   0.934
 4607SOL    HW214721   1.699   1.954   0.971
 4608SOL     OW14722   0.386   3.217   4.800
 4608SOL    HW114723   0.315   3.153   4.770
 4608SOL    HW214724   0.449   3.170   4.861
 4609SOL     OW14725   4.993   5.182   0.151
 4609SOL    HW114726   4.980   5.097   0.101
 4609SOL    HW214727   5.067   5.235   0.109
 4610SOL     OW14728   5.262   5.045   0.406
 4610SOL    HW114729   5.280   5.018   0.501
 4610SOL    HW214730   5.256   4.963   0.349
 4611SOL     OW14731   0.140   1.310   6.547
 4611SOL    HW114732   0.132   1.399   6.593
 4611SOL    HW214733   0.233   1.274   6.559
 4612SOL     OW14734   2.045   1.572   2.209
 4612SOL    HW114735   1.952   1.585   2.242
 4612SOL    HW214736   2.105   1.551   2.286
 4613SOL     OW14737   1.358   4.820   1.701
 4613SOL    HW114738   1.326   4.809   1.607
 4613SOL    HW214739   1.363   4.918   1.723
 4614SOL     OW14740   6.688   4.261   3.837
 4614SOL    HW114741   6.664   4.341   3.892
 4614SOL    HW214742   6.787   4.252   3.831
 4615SOL     OW14743   1.667   4.210   6.466
 4615SOL    HW114744   1.625   4.299   6.450
 4615SOL    HW214745   1.597   4.139   6.457
 4616SOL     OW14746   0.862   3.379   6.188
 4616SOL    HW114747   0.834   3.392   6.093
 4616SOL    HW214748   0.788   3.335   6.239
 4617SOL     OW14749   0.206   2.653   3.652
 4617SOL    HW114750   0.257   2.592   3.713
 4617SOL    HW214751   0.119   2.611   3.628
 4618SOL     OW14752   2.044   3.723   5.716
 4618SOL    HW114753   2.086   3.761   5.798
 4618SOL    HW214754   1.964   3.669   5.742
 4619SOL     OW14755   4.837   6.332   6.391
 4619SOL    HW114756   4.818   6.403   6.324
 4619SOL    HW214757   4.818   6.242   6.352
 4620SOL     OW14758   0.407   4.770   1.835
 4620SOL    HW114759   0.367   4.844   1.889
 4620SOL    HW214760   0.380   4.780   1.739
 4621SOL     OW14761   3.199   0.299   2.945
 4621SOL    HW114762   3.168   0.237   2.873
 4621SOL    HW214763   3.235   0.382   2.904
 4622SOL     OW14764   5.738   0.107   0.313
 4622SOL    HW114765   5.707   0.202   0.302
 4622SOL    HW214766   5.752   0.067   0.222
 4623SOL     OW14767   3.151   5.050   2.237
 4623SOL    HW114768   3.188   5.092   2.154
 4623SOL    HW214769   3.093   4.972   2.212
 4624SOL     OW14770   4.470   1.448   1.708
 4624SOL    HW114771   4.403   1.394   1.759
 4624SOL    HW214772   4.432   1.538   1.690
 4625SOL     OW14773   1.672   5.779   1.951
 4625SOL    HW114774   1.755   5.806   1.902
 4625SOL    HW214775   1.659   5.680   1.942
 4626SOL     OW14776   3.784   2.943   1.824
 4626SOL    HW114777   3.871   2.959   1.873
 4626SOL    HW214778   3.723   3.021   1.839
 4627SOL     OW14779   5.479   6.980   5.316
 4627SOL    HW114780   5.541   0.013   5.260
 4627SOL    HW214781   5.418   6.928   5.257
 4628SOL     OW14782   5.690   4.727   3.432
 4628SOL    HW114783   5.689   4.635   3.470
 4628SOL    HW214784   5.731   4.725   3.340
 4629SOL     OW14785   1.998   5.392   6.983
 4629SOL    HW114786   2.034   5.330   6.913
 4629SOL    HW214787   1.980   5.340   0.044
 4630SOL     OW14788   2.183   3.568   1.413
 4630SOL    HW114789   2.229   3.620   1.485
 4630SOL    HW214790   2.202   3.471   1.425
 4631SOL     OW14791   6.699   0.721   2.735
 4631SOL    HW114792   6.782   0.684   2.778
 4631SOL    HW214793   6.644   0.646   2.699
 4632SOL     OW14794   3.218   5.162   2.987
 4632SOL    HW114795   3.202   5.063   2.990
 4632SOL    HW214796   3.130   5.210   2.989
 4633SOL     OW14797   5.050   2.445   4.965
 4633SOL    HW114798   4.972   2.425   4.906
 4633SOL    HW214799   5.035   2.532   5.012
 4634SOL     OW14800   4.163   3.636   5.121
 4634SOL    HW114801   4.258   3.608   5.139
 4634SOL    HW214802   4.128   3.687   5.199
 4635SOL     OW14803   4.364   5.949   1.787
 4635SOL    HW114804   4.388   6.038   1.748
 4635SOL    HW214805   4.267   5.947   1.809
 4636SOL     OW14806   1.690   5.311   6.867
 4636SOL    HW114807   1.616   5.319   6.800
 4636SOL    HW214808   1.718   5.216   6.875
 4637SOL     OW14809   3.092   1.827   3.520
 4637SOL    HW114810   3.024   1.838   3.447
 4637SOL    HW214811   3.161   1.759   3.492
 4638SOL     OW14812   4.472   4.757   0.410
 4638SOL    HW114813   4.554   4.733   0.358
 4638SOL    HW214814   4.411   4.678   0.414
 4639SOL     OW14815   3.884   2.148   1.824
 4639SOL    HW114816   3.817   2.140   1.899
 4639SOL    HW214817   3.835   2.148   1.737
 4640SOL     OW14818   6.086   3.415   0.267
 4640SOL    HW114819   6.110   3.376   0.178
 4640SOL    HW214820   5.992   3.448   0.265
 4641SOL     OW14821   1.787   5.704   4.288
 4641SOL    HW114822   1.847   5.726   4.365
 4641SOL    HW214823   1.783   5.605   4.276
 4642SOL     OW14824   6.476   1.124   4.865
 4642SOL    HW114825   6.448   1.210   4.907
 4642SOL    HW214826   6.561   1.137   4.815
 4643SOL     OW14827   0.569   1.958   0.166
 4643SOL    HW114828   0.609   1.887   0.108
 4643SOL    HW214829   0.628   2.038   0.166
 4644SOL     OW14830   1.655   0.167   0.364
 4644SOL    HW114831   1.596   0.166   0.445
 4644SOL    HW214832   1.751   0.163   0.392
 4645SOL     OW14833   6.441   1.383   4.971
 4645SOL    HW114834   6.532   1.370   5.008
 4645SOL    HW214835   6.417   1.480   4.975
 4646SOL     OW14836   2.368   4.344   3.908
 4646SOL    HW114837   2.298   4.408   3.938
 4646SOL    HW214838   2.346   4.252   3.939
 4647SOL     OW14839   1.534   6.744   1.727
 4647SOL    HW114840   1.516   6.651   1.695
 4647SOL    HW214841   1.598   6.789   1.665
 4648SOL     OW14842   2.685   1.216   5.116
 4648SOL    HW114843   2.610   1.213   5.051
 4648SOL    HW214844   2.660   1.168   5.200
 4649SOL     OW14845   6.194   1.383   0.494
 4649SOL    HW114846   6.123   1.442   0.456
 4649SOL    HW214847   6.283   1.412   0.460
 4650SOL     OW14848   5.014   6.201   0.911
 4650SOL    HW114849   5.082   6.218   0.982
 4650SOL    HW214850   4.971   6.112   0.927
 4651SOL     OW14851   0.107   3.610   5.970
 4651SOL    HW114852   0.011   3.638   5.965
 4651SOL    HW214853   0.117   3.519   5.930
 4652SOL     OW14854   0.172   6.578   5.293
 4652SOL    HW114855   0.206   6.569   5.387
 4652SOL    HW214856   0.130   6.668   5.281
 4653SOL     OW14857   6.806   6.012   1.158
 4653SOL    HW114858   6.864   5.948   1.207
 4653SOL    HW214859   6.718   6.021   1.205
 4654SOL     OW14860   0.718   0.273   5.914
 4654SOL    HW114861   0.638   0.220   5.888
 4654SOL    HW214862   0.713   0.364   5.873
 4655SOL     OW14863   5.318   3.279   2.180
 4655SOL    HW114864   5.311   3.261   2.278
 4655SOL    HW214865   5.265   3.211   2.130
 4656SOL     OW14866   6.891   0.911   2.273
 4656SOL    HW114867   6.820   0.970   2.234
 4656SOL    HW214868   6.855   0.818   2.283
 4657SOL     OW14869   3.616   1.422   3.311
 4657SOL    HW114870   3.644   1.358   3.382
 4657SOL    HW214871   3.690   1.432   3.244
 4658SOL     OW14872   1.256   2.133   6.501
 4658SOL    HW114873   1.294   2.055   6.551
 4658SOL    HW214874   1.170   2.107   6.458
 4659SOL     OW14875   1.993   4.530   0.677
 4659SOL    HW114876   1.950   4.601   0.621
 4659SOL    HW214877   1.966   4.543   0.773
 4660SOL     OW14878   1.186   5.305   3.590
 4660SOL    HW114879   1.132   5.273   3.668
 4660SOL    HW214880   1.247   5.231   3.560
 4661SOL     OW14881   1.005   1.641   5.924
 4661SOL    HW114882   1.036   1.722   5.974
 4661SOL    HW214883   1.082   1.579   5.911
 4662SOL     OW14884   1.949   0.319   5.633
 4662SOL    HW114885   1.876   0.367   5.586
 4662SOL    HW214886   2.012   0.280   5.566
 4663SOL     OW14887   1.315   0.138   0.113
 4663SOL    HW114888   1.413   0.137   0.089
 4663SOL    HW214889   1.305   0.132   0.212
 4664SOL     OW14890   5.902   7.006   5.989
 4664SOL    HW114891   5.871   0.056   5.928
 4664SOL    HW214892   5.836   6.930   5.988
 4665SOL     OW14893   0.556   0.347   3.410
 4665SOL    HW114894   0.498   0.416   3.454
 4665SOL    HW214895   0.639   0.333   3.464
 4666SOL     OW14896   1.669   2.168   5.668
 4666SOL    HW114897   1.616   2.104   5.724
 4666SOL    HW214898   1.686   2.252   5.720
 4667SOL     OW14899   6.620   3.477   0.904
 4667SOL    HW114900   6.576   3.567   0.905
 4667SOL    HW214901   6.719   3.488   0.898
 4668SOL     OW14902   4.947   2.242   4.576
 4668SOL    HW114903   5.021   2.175   4.586
 4668SOL    HW214904   4.891   2.218   4.497
 4669SOL     OW14905   4.946   0.026   6.339
 4669SOL    HW114906   5.013   6.976   6.320
 4669SOL    HW214907   4.938   0.038   6.438
 4670SOL     OW14908   0.047   3.107   6.735
 4670SOL    HW114909   0.115   3.064   6.795
 4670SOL    HW214910   0.070   3.203   6.722
 4671SOL     OW14911   0.550   3.153   1.685
 4671SOL    HW114912   0.577   3.132   1.779
 4671SOL    HW214913   0.564   3.251   1.668
 4672SOL     OW14914   3.140   4.117   0.062
 4672SOL    HW114915   3.050   4.088   0.095
 4672SOL    HW214916   3.146   4.102   6.986
 4673SOL     OW14917   6.088   1.019   0.769
 4673SOL    HW114918   6.070   0.936   0.820
 4673SOL    HW214919   6.005   1.074   0.762
 4674SOL     OW14920   0.734   2.661   0.770
 4674SOL    HW114921   0.734   2.761   0.768
 4674SOL    HW214922   0.826   2.627   0.752
 4675SOL     OW14923   1.853   5.515   6.727
 4675SOL    HW114924   1.847   5.462   6.812
 4675SOL    HW214925   1.871   5.453   6.651
 4676SOL     OW14926   0.660   6.306   3.783
 4676SOL    HW114927   0.690   6.400   3.797
 4676SOL    HW214928   0.585   6.304   3.717
 4677SOL     OW14929   3.822   7.017   6.838
 4677SOL    HW114930   3.758   0.037   6.902
 4677SOL    HW214931   3.874   0.067   6.792
 4678SOL     OW14932   2.327   4.076   6.977
 4678SOL    HW114933   2.272   4.140   6.923
 4678SOL    HW214934   2.402   4.126   7.021
 4679SOL     OW14935   2.428   6.693   5.782
 4679SOL    HW114936   2.375   6.608   5.774
 4679SOL    HW214937   2.436   6.735   5.692
 4680SOL     OW14938   1.747   4.638   0.222
 4680SOL    HW114939   1.847   4.644   0.224
 4680SOL    HW214940   1.709   4.730   0.213
 4681SOL     OW14941   6.749   5.652   4.399
 4681SOL    HW114942   6.795   5.697   4.323
 4681SOL    HW214943   6.725   5.720   4.469
 4682SOL     OW14944   3.328   6.236   0.641
 4682SOL    HW114945   3.341   6.151   0.590
 4682SOL    HW214946   3.390   6.306   0.607
 4683SOL     OW14947   6.788   4.624   3.034
 4683SOL    HW114948   6.768   4.720   3.052
 4683SOL    HW214949   6.764   4.602   2.939
 4684SOL     OW14950   0.920   1.468   4.998
 4684SOL    HW114951   0.880   1.558   5.015
 4684SOL    HW214952   0.888   1.433   4.910
 4685SOL     OW14953   4.920   4.530   5.041
 4685SOL    HW114954   4.834   4.579   5.050
 4685SOL    HW214955   4.995   4.588   5.073
 4686SOL     OW14956   5.440   5.961   0.223
 4686SOL    HW114957   5.387   6.014   0.157
 4686SOL    HW214958   5.448   6.014   0.308
 4687SOL     OW14959   5.831   6.534   4.361
 4687SOL    HW114960   5.757   6.597   4.338
 4687SOL    HW214961   5.892   6.524   4.282
 4688SOL     OW14962   0.935   2.001   0.558
 4688SOL    HW114963   0.876   2.075   0.524
 4688SOL    HW214964   1.028   2.014   0.521
 4689SOL     OW14965   1.964   5.227   4.702
 4689SOL    HW114966   1.977   5.248   4.799
 4689SOL    HW214967   1.911   5.143   4.692
 4690SOL     OW14968   1.544   1.771   0.403
 4690SOL    HW114969   1.469   1.719   0.363
 4690SOL    HW214970   1.604   1.710   0.455
 4691SOL     OW14971   3.674   4.339   0.108
 4691SOL    HW114972   3.734   4.388   0.170
 4691SOL    HW214973   3.624   4.404   0.051
 4692SOL     OW14974   0.384   6.021   2.807
 4692SOL    HW114975   0.431   5.988   2.889
 4692SOL    HW214976   0.451   6.056   2.742
 4693SOL     OW14977   0.584   0.897   4.010
 4693SOL    HW114978   0.665   0.890   4.067
 4693SOL    HW214979   0.591   0.832   3.934
 4694SOL     OW14980   0.815   1.419   6.261
 4694SOL    HW114981   0.806   1.432   6.162
 4694SOL    HW214982   0.902   1.458   6.292
 4695SOL     OW14983   2.903   3.144   1.731
 4695SOL    HW114984   2.982   3.131   1.791
 4695SOL    HW214985   2.882   3.058   1.684
 4696SOL     OW14986   5.454   3.490   0.176
 4696SOL    HW114987   5.412   3.422   0.116
 4696SOL    HW214988   5.512   3.550   0.121
 4697SOL     OW14989   1.089   5.159   6.800
 4697SOL    HW114990   0.998   5.196   6.781
 4697SOL    HW214991   1.083   5.086   6.868
 4698SOL     OW14992   6.057   3.611   1.989
 4698SOL    HW114993   6.136   3.672   1.981
 4698SOL    HW214994   6.073   3.528   1.936
 4699SOL     OW14995   6.516   6.998   3.176
 4699SOL    HW114996   6.548   6.905   3.160
 4699SOL    HW214997   6.458   7.000   3.257
 4700SOL     OW14998   5.257   6.717   0.007
 4700SOL    HW114999   5.327   6.744   6.965
 4700SOL    HW215000   5.272   6.763   0.095
 4701SOL     OW15001   0.622   0.883   0.572
 4701SOL    HW115002   0.647   0.803   0.517
 4701SOL    HW215003   0.705   0.926   0.607
 4702SOL     OW15004   2.978   3.288   0.068
 4702SOL    HW115005   2.910   3.279   7.018
 4702SOL    HW215006   3.062   3.239   0.040
 4703SOL     OW15007   1.693   1.094   1.580
 4703SOL    HW115008   1.637   1.041   1.644
 4703SOL    HW215009   1.770   1.039   1.549
 4704SOL     OW15010   4.579   0.042   0.072
 4704SOL    HW115011   4.637   0.112   0.031
 4704SOL    HW215012   4.519   0.084   0.140
 4705SOL     OW15013   3.316   4.122   4.128
 4705SOL    HW115014   3.400   4.091   4.172
 4705SOL    HW215015   3.237   4.084   4.176
 4706SOL     OW15016   4.821   5.260   1.100
 4706SOL    HW115017   4.782   5.280   1.190
 4706SOL    HW215018   4.782   5.174   1.066
 4707SOL     OW15019   3.313   6.217   1.427
 4707SOL    HW115020   3.413   6.220   1.430
 4707SOL    HW215021   3.281   6.264   1.345
 4708SOL     OW15022   1.655   2.985   2.882
 4708SOL    HW115023   1.670   3.051   2.809
 4708SOL    HW215024   1.558   2.964   2.889
 4709SOL     OW15025   2.963   3.767   0.210
 4709SOL    HW115026   3.062   3.778   0.221
 4709SOL    HW215027   2.924   3.853   0.175
 4710SOL     OW15028   4.945   2.534   1.305
 4710SOL    HW115029   4.963   2.436   1.309
 4710SOL    HW215030   4.996   2.581   1.378
 4711SOL     OW15031   2.927   6.595   3.231
 4711SOL    HW115032   3.018   6.606   3.271
 4711SOL    HW215033   2.903   6.678   3.181
 4712SOL     OW15034   1.556   4.057   0.197
 4712SOL    HW115035   1.499   4.104   0.264
 4712SOL    HW215036   1.647   4.100   0.195
 4713SOL     OW15037   2.489   5.807   0.962
 4713SOL    HW115038   2.450   5.876   1.023
 4713SOL    HW215039   2.467   5.715   0.997
 4714SOL     OW15040   3.058   1.915   0.799
 4714SOL    HW115041   3.060   1.995   0.739
 4714SOL    HW215042   3.079   1.833   0.746
 4715SOL     OW15043   5.459   4.077   4.867
 4715SOL    HW115044   5.446   4.029   4.781
 4715SOL    HW215045   5.507   4.164   4.851
 4716SOL     OW15046   3.009   5.013   0.507
 4716SOL    HW115047   3.081   4.954   0.544
 4716SOL    HW215048   3.048   5.072   0.437
 4717SOL     OW15049   1.564   5.731   4.461
 4717SOL    HW115050   1.478   5.749   4.413
 4717SOL    HW215051   1.640   5.747   4.399
 4718SOL     OW15052   5.187   1.192   6.652
 4718SOL    HW115053   5.285   1.201   6.670
 4718SOL    HW215054   5.154   1.106   6.690
 4719SOL     OW15055   4.380   3.176   1.719
 4719SOL    HW115056   4.442   3.116   1.770
 4719SOL    HW215057   4.417   3.191   1.628
 4720SOL     OW15058   2.715   0.681   4.259
 4720SOL    HW115059   2.686   0.717   4.348
 4720SOL    HW215060   2.727   0.756   4.195
 4721SOL     OW15061   1.134   1.590   0.863
 4721SOL    HW115062   1.055   1.652   0.865
 4721SOL    HW215063   1.125   1.527   0.786
 4722SOL     OW15064   2.964   0.749   2.400
 4722SOL    HW115065   3.052   0.705   2.419
 4722SOL    HW215066   2.894   0.678   2.388
 4723SOL     OW15067   2.653   6.824   6.204
 4723SOL    HW115068   2.674   6.787   6.113
 4723SOL    HW215069   2.566   6.787   6.236
 4724SOL     OW15070   3.934   5.176   1.705
 4724SOL    HW115071   3.903   5.211   1.794
 4724SOL    HW215072   3.989   5.245   1.659
 4725SOL     OW15073   5.502   5.476   3.116
 4725SOL    HW115074   5.550   5.473   3.203
 4725SOL    HW215075   5.489   5.571   3.088
 4726SOL     OW15076   0.353   5.876   5.515
 4726SOL    HW115077   0.297   5.820   5.455
 4726SOL    HW215078   0.328   5.859   5.610
 4727SOL     OW15079   6.184   6.377   1.029
 4727SOL    HW115080   6.275   6.355   1.063
 4727SOL    HW215081   6.115   6.341   1.092
 4728SOL     OW15082   0.446   0.603   7.020
 4728SOL    HW115083   0.483   0.621   6.930
 4728SOL    HW215084   0.406   0.511   7.022
 4729SOL     OW15085   2.935   0.397   0.751
 4729SOL    HW115086   2.964   0.394   0.655
 4729SOL    HW215087   2.876   0.477   0.765
 4730SOL     OW15088   2.157   0.766   5.577
 4730SOL    HW115089   2.234   0.703   5.564
 4730SOL    HW215090   2.089   0.749   5.506
 4731SOL     OW15091   5.874   2.038   6.548
 4731SOL    HW115092   5.785   2.013   6.586
 4731SOL    HW215093   5.938   2.054   6.623
 4732SOL     OW15094   0.192   1.645   0.652
 4732SOL    HW115095   0.214   1.693   0.567
 4732SOL    HW215096   0.193   1.709   0.728
 4733SOL     OW15097   6.712   3.492   4.061
 4733SOL    HW115098   6.741   3.423   4.126
 4733SOL    HW215099   6.658   3.450   3.989
 4734SOL     OW15100   4.888   4.358   5.844
 4734SOL    HW115101   4.816   4.318   5.788
 4734SOL    HW215102   4.889   4.457   5.832
 4735SOL     OW15103   6.914   4.648   3.734
 4735SOL    HW115104   6.957   4.626   3.647
 4735SOL    HW215105   6.935   4.576   3.801
 4736SOL     OW15106   2.251   0.022   1.273
 4736SOL    HW115107   2.211   7.010   1.188
 4736SOL    HW215108   2.184   0.080   1.320
 4737SOL     OW15109   3.350   5.285   1.795
 4737SOL    HW115110   3.414   5.356   1.764
 4737SOL    HW215111   3.354   5.208   1.731
 4738SOL     OW15112   0.131   6.137   3.428
 4738SOL    HW115113   0.201   6.190   3.378
 4738SOL    HW215114   0.047   6.190   3.433
 4739SOL     OW15115   4.422   0.262   1.205
 4739SOL    HW115116   4.497   0.311   1.159
 4739SOL    HW215117   4.460   0.203   1.276
 4740SOL     OW15118   0.863   2.149   3.514
 4740SOL    HW115119   0.811   2.183   3.592
 4740SOL    HW215120   0.915   2.223   3.473
 4741SOL     OW15121   3.949   3.803   1.271
 4741SOL    HW115122   3.907   3.716   1.244
 4741SOL    HW215123   4.048   3.795   1.266
 4742SOL     OW15124   3.964   1.129   0.764
 4742SOL    HW115125   3.921   1.209   0.807
 4742SOL    HW215126   4.047   1.104   0.814
 4743SOL     OW15127   1.891   5.704   0.390
 4743SOL    HW115128   1.795   5.710   0.364
 4743SOL    HW215129   1.916   5.785   0.443
 4744SOL     OW15130   2.000   5.625   1.283
 4744SOL    HW115131   1.951   5.547   1.323
 4744SOL    HW215132   1.940   5.671   1.218
 4745SOL     OW15133   1.493   3.411   0.255
 4745SOL    HW115134   1.468   3.506   0.275
 4745SOL    HW215135   1.586   3.408   0.218
 4746SOL     OW15136   4.750   5.627   4.034
 4746SOL    HW115137   4.814   5.703   4.042
 4746SOL    HW215138   4.690   5.626   4.114
 4747SOL     OW15139   2.401   0.670   6.620
 4747SOL    HW115140   2.467   0.615   6.569
 4747SOL    HW215141   2.378   0.623   6.706
 4748SOL     OW15142   2.314   6.625   1.380
 4748SOL    HW115143   2.349   6.719   1.375
 4748SOL    HW215144   2.224   6.621   1.337
 4749SOL     OW15145   2.143   1.753   0.411
 4749SOL    HW115146   2.126   1.660   0.444
 4749SOL    HW215147   2.166   1.811   0.489
 4750SOL     OW15148   4.983   2.951   5.790
 4750SOL    HW115149   4.910   2.942   5.723
 4750SOL    HW215150   4.982   3.042   5.830
 4751SOL     OW15151   4.764   1.262   3.452
 4751SOL    HW115152   4.671   1.258   3.488
 4751SOL    HW215153   4.827   1.223   3.519
 4752SOL     OW15154   5.508   1.314   6.777
 4752SOL    HW115155   5.513   1.367   6.692
 4752SOL    HW215156   5.568   1.355   6.846
 4753SOL     OW15157   3.399   6.762   4.570
 4753SOL    HW115158   3.336   6.688   4.545
 4753SOL    HW215159   3.477   6.724   4.620
 4754SOL     OW15160   4.764   4.689   6.355
 4754SOL    HW115161   4.813   4.630   6.418
 4754SOL    HW215162   4.681   4.644   6.324
 4755SOL     OW15163   0.669   1.006   1.479
 4755SOL    HW115164   0.651   1.099   1.447
 4755SOL    HW215165   0.755   0.974   1.440
 4756SOL     OW15166   6.943   4.098   5.391
 4756SOL    HW115167   6.930   4.100   5.292
 4756SOL    HW215168   6.857   4.121   5.437
 4757SOL     OW15169   1.932   3.595   0.332
 4757SOL    HW115170   2.017   3.583   0.282
 4757SOL    HW215171   1.939   3.675   0.392
 4758SOL     OW15172   2.456   5.839   3.605
 4758SOL    HW115173   2.515   5.887   3.669
 4758SOL    HW215174   2.477   5.741   3.607
 4759SOL     OW15175   0.668   6.593   1.627
 4759SOL    HW115176   0.696   6.589   1.532
 4759SOL    HW215177   0.719   6.525   1.680
 4760SOL     OW15178   1.806   5.612   0.750
 4760SOL    HW115179   1.710   5.627   0.726
 4760SOL    HW215180   1.844   5.542   0.691
 4761SOL     OW15181   5.340   6.957   1.386
 4761SOL    HW115182   5.427   6.978   1.431
 4761SOL    HW215183   5.335   6.859   1.366
 4762SOL     OW15184   2.056   0.542   2.500
 4762SOL    HW115185   1.966   0.514   2.534
 4762SOL    HW215186   2.072   0.501   2.411
 4763SOL     OW15187   5.663   5.505   2.275
 4763SOL    HW115188   5.582   5.451   2.250
 4763SOL    HW215189   5.718   5.523   2.193
 4764SOL     OW15190   5.359   3.050   0.656
 4764SOL    HW115191   5.335   3.147   0.649
 4764SOL    HW215192   5.304   2.997   0.591
 4765SOL     OW15193   4.044   1.645   5.842
 4765SOL    HW115194   4.075   1.555   5.874
 4765SOL    HW215195   4.115   1.713   5.858
 4766SOL     OW15196   1.120   0.608   4.733
 4766SOL    HW115197   1.027   0.587   4.702
 4766SOL    HW215198   1.158   0.681   4.677
 4767SOL     OW15199   2.330   4.234   3.405
 4767SOL    HW115200   2.365   4.326   3.386
 4767SOL    HW215201   2.328   4.181   3.320
 4768SOL     OW15202   4.717   2.646   6.494
 4768SOL    HW115203   4.800   2.700   6.477
 4768SOL    HW215204   4.657   2.696   6.556
 4769SOL     OW15205   1.622   3.051   0.532
 4769SOL    HW115206   1.707   3.062   0.480
 4769SOL    HW215207   1.605   3.134   0.585
 4770SOL     OW15208   0.312   1.739   3.861
 4770SOL    HW115209   0.261   1.808   3.914
 4770SOL    HW215210   0.290   1.749   3.764
 4771SOL     OW15211   1.953   6.971   4.336
 4771SOL    HW115212   1.943   7.010   4.428
 4771SOL    HW215213   2.028   6.905   4.336
 4772SOL     OW15214   2.868   5.334   2.682
 4772SOL    HW115215   2.872   5.243   2.638
 4772SOL    HW215216   2.811   5.395   2.627
 4773SOL     OW15217   2.821   4.856   4.805
 4773SOL    HW115218   2.826   4.829   4.710
 4773SOL    HW215219   2.818   4.775   4.864
 4774SOL     OW15220   0.789   4.345   0.740
 4774SOL    HW115221   0.770   4.310   0.832
 4774SOL    HW215222   0.842   4.429   0.746
 4775SOL     OW15223   6.003   5.464   4.872
 4775SOL    HW115224   5.925   5.406   4.847
 4775SOL    HW215225   5.978   5.560   4.860
 4776SOL     OW15226   0.412   1.268   5.419
 4776SOL    HW115227   0.500   1.306   5.446
 4776SOL    HW215228   0.389   1.192   5.480
 4777SOL     OW15229   1.790   6.835   3.213
 4777SOL    HW115230   1.739   6.753   3.239
 4777SOL    HW215231   1.861   6.811   3.146
 4778SOL     OW15232   1.818   1.359   0.247
 4778SOL    HW115233   1.723   1.331   0.232
 4778SOL    HW215234   1.873   1.280   0.269
 4779SOL     OW15235   4.937   0.826   4.958
 4779SOL    HW115236   4.887   0.793   4.878
 4779SOL    HW215237   4.947   0.751   5.024
 4780SOL     OW15238   4.624   2.704   4.425
 4780SOL    HW115239   4.695   2.745   4.483
 4780SOL    HW215240   4.549   2.769   4.415
 4781SOL     OW15241   1.238   5.062   2.028
 4781SOL    HW115242   1.163   5.127   2.042
 4781SOL    HW215243   1.289   5.051   2.114
 4782SOL     OW15244   6.917   6.408   4.184
 4782SOL    HW115245   6.908   6.393   4.085
 4782SOL    HW215246   6.860   6.342   4.232
 4783SOL     OW15247   0.063   3.391   6.237
 4783SOL    HW115248   0.096   3.346   6.320
 4783SOL    HW215249   0.133   3.455   6.204
 4784SOL     OW15250   5.117   3.392   0.125
 4784SOL    HW115251   5.198   3.354   0.080
 4784SOL    HW215252   5.106   3.488   0.100
 4785SOL     OW15253   0.786   0.414   3.988
 4785SOL    HW115254   0.734   0.407   4.073
 4785SOL    HW215255   0.726   0.394   3.910
 4786SOL     OW15256   0.628   5.868   0.039
 4786SOL    HW115257   0.699   5.876   0.109
 4786SOL    HW215258   0.539   5.891   0.078
 4787SOL     OW15259   4.564   1.246   4.774
 4787SOL    HW115260   4.516   1.316   4.828
 4787SOL    HW215261   4.645   1.216   4.823
 4788SOL     OW15262   0.190   6.166   1.017
 4788SOL    HW115263   0.283   6.200   1.010
 4788SOL    HW215264   0.135   6.202   0.941
 4789SOL     OW15265   6.300   1.111   2.908
 4789SOL    HW115266   6.274   1.088   2.814
 4789SOL    HW215267   6.338   1.031   2.953
 4790SOL     OW15268   6.884   1.901   4.819
 4790SOL    HW115269   6.900   1.922   4.916
 4790SOL    HW215270   6.866   1.986   4.769
 4791SOL     OW15271   0.873   0.358   0.184
 4791SOL    HW115272   0.948   0.295   0.202
 4791SOL    HW215273   0.803   0.348   0.254
 4792SOL     OW15274   1.870   3.554   1.988
 4792SOL    HW115275   1.894   3.594   2.076
 4792SOL    HW215276   1.950   3.554   1.928
 4793SOL     OW15277   1.179   3.934   5.631
 4793SOL    HW115278   1.182   3.862   5.563
 4793SOL    HW215279   1.256   3.925   5.694
 4794SOL     OW15280   4.796   1.929   5.027
 4794SOL    HW115281   4.862   1.869   5.072
 4794SOL    HW215282   4.796   1.910   4.929
 4795SOL     OW15283   0.037   1.182   6.199
 4795SOL    HW115284   6.990   1.218   6.137
 4795SOL    HW215285   7.021   1.176   6.292
 4796SOL     OW15286   4.475   1.289   5.414
 4796SOL    HW115287   4.395   1.290   5.354
 4796SOL    HW215288   4.556   1.316   5.362
 4797SOL     OW15289   2.109   4.687   6.529
 4797SOL    HW115290   2.106   4.589   6.547
 4797SOL    HW215291   2.119   4.703   6.431
 4798SOL     OW15292   3.854   5.730   0.595
 4798SOL    HW115293   3.948   5.704   0.572
 4798SOL    HW215294   3.829   5.688   0.682
 4799SOL     OW15295   4.273   2.778   0.247
 4799SOL    HW115296   4.352   2.786   0.186
 4799SOL    HW215297   4.303   2.744   0.336
 4800SOL     OW15298   0.546   4.299   6.826
 4800SOL    HW115299   0.614   4.227   6.832
 4800SOL    HW215300   0.454   4.260   6.835
 4801SOL     OW15301   5.524   2.185   2.588
 4801SOL    HW115302   5.496   2.281   2.591
 4801SOL    HW215303   5.609   2.173   2.639
 4802SOL     OW15304   6.504   0.067   4.524
 4802SOL    HW115305   6.474   0.047   4.431
 4802SOL    HW215306   6.517   0.166   4.534
 4803SOL     OW15307   5.040   4.028   5.202
 4803SOL    HW115308   5.037   4.128   5.199
 4803SOL    HW215309   4.947   3.992   5.207
 4804SOL     OW15310   5.041   2.094   0.746
 4804SOL    HW115311   5.110   2.040   0.696
 4804SOL    HW215312   5.026   2.053   0.836
 4805SOL     OW15313   5.818   1.342   0.033
 4805SOL    HW115314   5.719   1.331   0.024
 4805SOL    HW215315   5.864   1.287   6.985
 4806SOL     OW15316   1.570   1.598   3.096
 4806SOL    HW115317   1.585   1.502   3.118
 4806SOL    HW215318   1.498   1.635   3.156
 4807SOL     OW15319   6.882   4.339   6.446
 4807SOL    HW115320   6.859   4.257   6.499
 4807SOL    HW215321   6.907   4.313   6.353
 4808SOL     OW15322   3.715   5.712   2.051
 4808SOL    HW115323   3.815   5.707   2.062
 4808SOL    HW215324   3.674   5.629   2.089
 4809SOL     OW15325   3.379   3.963   1.501
 4809SOL    HW115326   3.412   3.985   1.410
 4809SOL    HW215327   3.456   3.947   1.562
 4810SOL     OW15328   1.767   5.847   4.040
 4810SOL    HW115329   1.865   5.856   4.022
 4810SOL    HW215330   1.752   5.774   4.106
 4811SOL     OW15331   3.210   3.435   4.312
 4811SOL    HW115332   3.151   3.378   4.370
 4811SOL    HW215333   3.196   3.410   4.216
 4812SOL     OW15334   1.571   6.472   2.843
 4812SOL    HW115335   1.589   6.476   2.942
 4812SOL    HW215336   1.655   6.494   2.794
 4813SOL     OW15337   0.761   2.113   5.288
 4813SOL    HW115338   0.818   2.057   5.227
 4813SOL    HW215339   0.726   2.057   5.363
 4814SOL     OW15340   6.499   3.739   0.949
 4814SOL    HW115341   6.537   3.819   0.903
 4814SOL    HW215342   6.410   3.763   0.989
 4815SOL     OW15343   6.098   4.661   2.318
 4815SOL    HW115344   6.017   4.719   2.331
 4815SOL    HW215345   6.073   4.566   2.337
 4816SOL     OW15346   2.930   0.391   2.755
 4816SOL    HW115347   2.973   0.458   2.816
 4816SOL    HW215348   2.959   0.299   2.780
 4817SOL     OW15349   4.347   1.855   1.220
 4817SOL    HW115350   4.375   1.894   1.132
 4817SOL    HW215351   4.277   1.785   1.206
 4818SOL     OW15352   3.920   0.417   4.449
 4818SOL    HW115353   3.881   0.509   4.451
 4818SOL    HW215354   3.966   0.403   4.361
 4819SOL     OW15355   2.749   0.929   0.538
 4819SOL    HW115356   2.810   0.865   0.585
 4819SOL    HW215357   2.779   1.023   0.557
 4820SOL     OW15358   5.997   4.265   1.829
 4820SOL    HW115359   5.978   4.362   1.838
 4820SOL    HW215360   6.055   4.249   1.749
 4821SOL     OW15361   0.272   6.036   1.887
 4821SOL    HW115362   0.288   6.134   1.900
 4821SOL    HW215363   0.206   6.023   1.813
 4822SOL     OW15364   1.001   4.054   1.655
 4822SOL    HW115365   0.924   3.994   1.630
 4822SOL    HW215366   1.031   4.033   1.748
 4823SOL     OW15367   0.732   1.465   3.468
 4823SOL    HW115368   0.683   1.534   3.522
 4823SOL    HW215369   0.827   1.494   3.456
 4824SOL     OW15370   5.627   2.627   1.792
 4824SOL    HW115371   5.629   2.695   1.719
 4824SOL    HW215372   5.675   2.545   1.763
 4825SOL     OW15373   0.015   3.199   4.025
 4825SOL    HW115374   7.005   3.145   3.947
 4825SOL    HW215375   0.044   3.137   4.099
 4826SOL     OW15376   6.661   6.546   0.162
 4826SOL    HW115377   6.576   6.559   0.111
 4826SOL    HW215378   6.644   6.560   0.260
 4827SOL     OW15379   5.135   1.516   0.491
 4827SOL    HW115380   5.069   1.498   0.418
 4827SOL    HW215381   5.184   1.600   0.471
 4828SOL     OW15382   5.330   3.536   6.542
 4828SOL    HW115383   5.331   3.562   6.639
 4828SOL    HW215384   5.236   3.519   6.514
 4829SOL     OW15385   3.651   0.453   5.165
 4829SOL    HW115386   3.579   0.510   5.204
 4829SOL    HW215387   3.724   0.440   5.233
 4830SOL     OW15388   4.657   5.796   5.260
 4830SOL    HW115389   4.649   5.865   5.188
 4830SOL    HW215390   4.587   5.811   5.329
 4831SOL     OW15391   5.846   3.402   6.356
 4831SOL    HW115392   5.804   3.489   6.379
 4831SOL    HW215393   5.924   3.386   6.416
 4832SOL     OW15394   1.750   2.647   6.591
 4832SOL    HW115395   1.733   2.738   6.555
 4832SOL    HW215396   1.844   2.620   6.571
 4833SOL     OW15397   6.450   1.786   3.346
 4833SOL    HW115398   6.430   1.772   3.249
 4833SOL    HW215399   6.522   1.724   3.375
 4834SOL     OW15400   5.375   0.439   3.347
 4834SOL    HW115401   5.433   0.414   3.269
 4834SOL    HW215402   5.428   0.433   3.432
 4835SOL     OW15403   1.612   0.964   6.066
 4835SOL    HW115404   1.525   0.931   6.030
 4835SOL    HW215405   1.663   1.009   5.993
 4836SOL     OW15406   5.858   2.900   2.206
 4836SOL    HW115407   5.904   2.829   2.152
 4836SOL    HW215408   5.762   2.875   2.219
 4837SOL     OW15409   0.231   3.933   0.859
 4837SOL    HW115410   0.159   3.998   0.886
 4837SOL    HW215411   0.188   3.847   0.832
 4838SOL     OW15412   2.619   5.148   2.233
 4838SOL    HW115413   2.584   5.091   2.307
 4838SOL    HW215414   2.716   5.169   2.251
 4839SOL     OW15415   0.904   6.599   6.653
 4839SOL    HW115416   0.902   6.501   6.675
 4839SOL    HW215417   0.840   6.647   6.712
 4840SOL     OW15418   6.051   6.841   6.637
 4840SOL    HW115419   6.009   6.886   6.558
 4840SOL    HW215420   6.066   6.745   6.617
 4841SOL     OW15421   2.319   5.879   1.858
 4841SOL    HW115422   2.266   5.796   1.875
 4841SOL    HW215423   2.370   5.869   1.772
 4842SOL     OW15424   3.534   6.391   1.685
 4842SOL    HW115425   3.491   6.475   1.652
 4842SOL    HW215426   3.533   6.322   1.613
 4843SOL     OW15427   0.934   2.561   6.600
 4843SOL    HW115428   0.952   2.536   6.505
 4843SOL    HW215429   0.869   2.637   6.602
 4844SOL     OW15430   0.956   1.724   5.472
 4844SOL    HW115431   0.996   1.814   5.454
 4844SOL    HW215432   0.873   1.714   5.417
 4845SOL     OW15433   5.565   5.191   3.603
 4845SOL    HW115434   5.600   5.282   3.623
 4845SOL    HW215435   5.525   5.152   3.686
 4846SOL     OW15436   0.292   5.208   6.895
 4846SOL    HW115437   0.261   5.117   6.865
 4846SOL    HW215438   0.392   5.212   6.892
 4847SOL     OW15439   4.997   2.590   4.616
 4847SOL    HW115440   5.087   2.569   4.577
 4847SOL    HW215441   4.940   2.508   4.613
 4848SOL     OW15442   2.376   2.126   1.914
 4848SOL    HW115443   2.449   2.192   1.930
 4848SOL    HW215444   2.378   2.057   1.986
 4849SOL     OW15445   1.062   6.442   5.880
 4849SOL    HW115446   1.054   6.431   5.979
 4849SOL    HW215447   1.138   6.504   5.860
 4850SOL     OW15448   3.999   0.509   3.435
 4850SOL    HW115449   4.041   0.598   3.450
 4850SOL    HW215450   3.900   0.515   3.449
 4851SOL     OW15451   5.148   1.278   5.110
 4851SOL    HW115452   5.232   1.224   5.110
 4851SOL    HW215453   5.097   1.262   5.025
 4852SOL     OW15454   1.416   1.739   1.761
 4852SOL    HW115455   1.442   1.643   1.769
 4852SOL    HW215456   1.334   1.747   1.705
 4853SOL     OW15457   3.475   1.909   1.453
 4853SOL    HW115458   3.386   1.905   1.499
 4853SOL    HW215459   3.489   1.824   1.401
 4854SOL     OW15460   3.584   0.117   6.982
 4854SOL    HW115461   3.566   0.080   0.051
 4854SOL    HW215462   3.589   0.216   6.987
 4855SOL     OW15463   6.874   3.187   2.486
 4855SOL    HW115464   6.834   3.216   2.573
 4855SOL    HW215465   6.964   3.147   2.503
 4856SOL     OW15466   1.921   3.946   3.300
 4856SOL    HW115467   1.994   3.995   3.348
 4856SOL    HW215468   1.846   4.009   3.281
 4857SOL     OW15469   0.601   1.241   6.066
 4857SOL    HW115470   0.677   1.305   6.057
 4857SOL    HW215471   0.590   1.215   6.162
 4858SOL     OW15472   1.353   0.778   3.690
 4858SOL    HW115473   1.333   0.868   3.730
 4858SOL    HW215474   1.388   0.717   3.761
 4859SOL     OW15475   3.294   5.457   6.039
 4859SOL    HW115476   3.202   5.417   6.035
 4859SOL    HW215477   3.300   5.532   5.973
 4860SOL     OW15478   4.260   4.065   0.614
 4860SOL    HW115479   4.189   4.121   0.658
 4860SOL    HW215480   4.222   4.025   0.530
 4861SOL     OW15481   5.342   3.576   5.958
 4861SOL    HW115482   5.261   3.551   6.011
 4861SOL    HW215483   5.346   3.521   5.874
 4862SOL     OW15484   0.950   6.365   0.991
 4862SOL    HW115485   0.861   6.390   0.953
 4862SOL    HW215486   1.021   6.383   0.923
 4863SOL     OW15487   5.116   4.223   6.314
 4863SOL    HW115488   5.058   4.176   6.248
 4863SOL    HW215489   5.204   4.176   6.321
 4864SOL     OW15490   2.999   1.093   4.251
 4864SOL    HW115491   2.952   1.144   4.323
 4864SOL    HW215492   3.085   1.138   4.229
 4865SOL     OW15493   1.900   6.540   5.414
 4865SOL    HW115494   1.926   6.571   5.322
 4865SOL    HW215495   1.862   6.617   5.465
 4866SOL     OW15496   6.516   4.070   6.372
 4866SOL    HW115497   6.478   3.982   6.344
 4866SOL    HW215498   6.479   4.143   6.314
 4867SOL     OW15499   4.700   0.860   3.140
 4867SOL    HW115500   4.652   0.794   3.082
 4867SOL    HW215501   4.713   0.820   3.231
 4868SOL     OW15502   6.916   4.500   0.863
 4868SOL    HW115503   6.973   4.522   0.784
 4868SOL    HW215504   6.852   4.574   0.880
 4869SOL     OW15505   0.590   1.097   1.172
 4869SOL    HW115506   0.520   1.044   1.123
 4869SOL    HW215507   0.662   1.125   1.109
 4870SOL     OW15508   0.668   6.888   1.768
 4870SOL    HW115509   0.583   6.929   1.800
 4870SOL    HW215510   0.647   6.808   1.711
 4871SOL     OW15511   1.594   1.443   3.470
 4871SOL    HW115512   1.615   1.517   3.534
 4871SOL    HW215513   1.604   1.355   3.517
 4872SOL     OW15514   5.967   6.343   2.993
 4872SOL    HW115515   6.064   6.362   2.979
 4872SOL    HW215516   5.915   6.379   2.916
 4873SOL     OW15517   6.407   5.497   4.974
 4873SOL    HW115518   6.481   5.430   4.982
 4873SOL    HW215519   6.360   5.484   4.887
 4874SOL     OW15520   4.803   3.048   3.284
 4874SOL    HW115521   4.820   3.061   3.382
 4874SOL    HW215522   4.831   3.130   3.234
 4875SOL     OW15523   5.950   6.241   5.333
 4875SOL    HW115524   6.049   6.231   5.322
 4875SOL    HW215525   5.928   6.243   5.431
 4876SOL     OW15526   0.684   0.850   1.944
 4876SOL    HW115527   0.686   0.901   2.030
 4876SOL    HW215528   0.770   0.800   1.934
 4877SOL     OW15529   6.645   1.535   6.031
 4877SOL    HW115530   6.685   1.611   6.081
 4877SOL    HW215531   6.617   1.566   5.940
 4878SOL     OW15532   0.224   3.502   2.231
 4878SOL    HW115533   0.148   3.478   2.292
 4878SOL    HW215534   0.302   3.442   2.250
 4879SOL     OW15535   6.052   0.650   2.897
 4879SOL    HW115536   6.119   0.584   2.933
 4879SOL    HW215537   5.970   0.601   2.867
 4880SOL     OW15538   6.549   3.092   6.755
 4880SOL    HW115539   6.459   3.064   6.722
 4880SOL    HW215540   6.620   3.046   6.702
 4881SOL     OW15541   1.551   2.867   1.565
 4881SOL    HW115542   1.532   2.771   1.543
 4881SOL    HW215543   1.513   2.888   1.655
 4882SOL     OW15544   4.560   2.434   4.325
 4882SOL    HW115545   4.589   2.361   4.387
 4882SOL    HW215546   4.576   2.523   4.367
 4883SOL     OW15547   6.049   4.460   0.498
 4883SOL    HW115548   6.092   4.426   0.414
 4883SOL    HW215549   5.989   4.537   0.476
 4884SOL     OW15550   1.736   0.484   1.361
 4884SOL    HW115551   1.636   0.477   1.362
 4884SOL    HW215552   1.762   0.577   1.386
 4885SOL     OW15553   1.198   3.913   0.207
 4885SOL    HW115554   1.212   3.815   0.194
 4885SOL    HW215555   1.208   3.960   0.119
 4886SOL     OW15556   2.492   1.000   1.929
 4886SOL    HW115557   2.479   1.096   1.956
 4886SOL    HW215558   2.587   0.973   1.946
 4887SOL     OW15559   5.648   6.755   0.191
 4887SOL    HW115560   5.721   6.719   0.249
 4887SOL    HW215561   5.648   6.706   0.104
 4888SOL     OW15562   3.974   0.423   2.904
 4888SOL    HW115563   4.039   0.481   2.953
 4888SOL    HW215564   3.992   0.327   2.925
 4889SOL     OW15565   6.764   3.362   4.287
 4889SOL    HW115566   6.744   3.390   4.381
 4889SOL    HW215567   6.850   3.311   4.284
 4890SOL     OW15568   6.854   1.462   4.898
 4890SOL    HW115569   6.892   1.503   4.815
 4890SOL    HW215570   6.862   1.527   4.974
 4891SOL     OW15571   2.949   5.092   6.503
 4891SOL    HW115572   2.904   5.141   6.428
 4891SOL    HW215573   3.044   5.074   6.479
 4892SOL     OW15574   4.830   5.142   2.202
 4892SOL    HW115575   4.747   5.088   2.191
 4892SOL    HW215576   4.810   5.238   2.181
 4893SOL     OW15577   0.894   3.209   1.128
 4893SOL    HW115578   0.929   3.119   1.100
 4893SOL    HW215579   0.957   3.251   1.193
 4894SOL     OW15580   5.057   6.447   1.539
 4894SOL    HW115581   5.122   6.499   1.594
 4894SOL    HW215582   5.097   6.359   1.514
 4895SOL     OW15583   0.196   4.460   5.257
 4895SOL    HW115584   0.165   4.552   5.279
 4895SOL    HW215585   0.240   4.461   5.166
 4896SOL     OW15586   2.595   5.027   4.882
 4896SOL    HW115587   2.576   4.993   4.974
 4896SOL    HW215588   2.684   4.992   4.852
 4897SOL     OW15589   1.638   0.539   4.983
 4897SOL    HW115590   1.573   0.613   4.968
 4897SOL    HW215591   1.588   0.453   4.995
 4898SOL     OW15592   4.960   1.707   3.534
 4898SOL    HW115593   4.891   1.779   3.533
 4898SOL    HW215594   5.049   1.745   3.508
 4899SOL     OW15595   6.324   6.532   1.255
 4899SOL    HW115596   6.272   6.543   1.170
 4899SOL    HW215597   6.378   6.448   1.250
 4900SOL     OW15598   3.762   5.953   5.850
 4900SOL    HW115599   3.776   5.909   5.761
 4900SOL    HW215600   3.707   6.036   5.837
 4901SOL     OW15601   0.693   0.743   6.544
 4901SOL    HW115602   0.740   0.668   6.498
 4901SOL    HW215603   0.743   0.768   6.627
 4902SOL     OW15604   2.498   0.264   5.569
 4902SOL    HW115605   2.537   0.178   5.603
 4902SOL    HW215606   2.432   0.299   5.635
 4903SOL     OW15607   5.172   3.810   2.777
 4903SOL    HW115608   5.180   3.906   2.802
 4903SOL    HW215609   5.077   3.788   2.756
 4904SOL     OW15610   1.561   0.031   0.817
 4904SOL    HW115611   1.484   6.988   0.820
 4904SOL    HW215612   1.592   0.049   0.910
 4905SOL     OW15613   2.831   0.021   3.348
 4905SOL    HW115614   2.802   0.028   3.443
 4905SOL    HW215615   2.910   6.982   3.342
 4906SOL     OW15616   4.921   3.758   4.805
 4906SOL    HW115617   4.985   3.699   4.754
 4906SOL    HW215618   4.880   3.705   4.880
 4907SOL     OW15619   4.046   2.232   0.002
 4907SOL    HW115620   4.088   2.241   6.934
 4907SOL    HW215621   4.018   2.138   0.017
 4908SOL     OW15622   3.426   0.120   0.224
 4908SOL    HW115623   3.360   0.159   0.289
 4908SOL    HW215624   3.388   0.038   0.183
 4909SOL     OW15625   5.013   5.034   4.633
 4909SOL    HW115626   4.963   5.096   4.693
 4909SOL    HW215627   5.012   4.942   4.671
 4910SOL     OW15628   4.490   2.454   6.134
 4910SOL    HW115629   4.445   2.376   6.178
 4910SOL    HW215630   4.421   2.510   6.089
 4911SOL     OW15631   6.537   3.731   2.585
 4911SOL    HW115632   6.536   3.764   2.490
 4911SOL    HW215633   6.596   3.790   2.640
 4912SOL     OW15634   5.646   2.493   4.077
 4912SOL    HW115635   5.693   2.436   4.144
 4912SOL    HW215636   5.558   2.523   4.113
 4913SOL     OW15637   0.987   4.347   5.334
 4913SOL    HW115638   1.028   4.337   5.243
 4913SOL    HW215639   1.051   4.313   5.403
 4914SOL     OW15640   4.164   0.760   4.017
 4914SOL    HW115641   4.157   0.732   4.113
 4914SOL    HW215642   4.160   0.679   3.959
 4915SOL     OW15643   3.667   5.360   5.644
 4915SOL    HW115644   3.703   5.391   5.556
 4915SOL    HW215645   3.637   5.439   5.697
 4916SOL     OW15646   6.014   2.000   3.839
 4916SOL    HW115647   5.990   2.033   3.747
 4916SOL    HW215648   6.109   2.022   3.858
 4917SOL     OW15649   3.755   6.754   0.090
 4917SOL    HW115650   3.732   6.751   7.015
 4917SOL    HW215651   3.677   6.789   0.141
 4918SOL     OW15652   5.527   5.112   3.344
 4918SOL    HW115653   5.618   5.090   3.311
 4918SOL    HW215654   5.534   5.154   3.435
 4919SOL     OW15655   3.248   3.523   1.753
 4919SOL    HW115656   3.333   3.481   1.785
 4919SOL    HW215657   3.271   3.600   1.693
 4920SOL     OW15658   5.818   1.876   6.191
 4920SOL    HW115659   5.836   1.779   6.207
 4920SOL    HW215660   5.856   1.903   6.103
 4921SOL     OW15661   0.180   0.096   2.042
 4921SOL    HW115662   0.188   0.177   1.983
 4921SOL    HW215663   0.085   0.067   2.046
 4922SOL     OW15664   3.152   1.614   6.171
 4922SOL    HW115665   3.072   1.558   6.147
 4922SOL    HW215666   3.174   1.674   6.095
 4923SOL     OW15667   3.452   1.370   1.921
 4923SOL    HW115668   3.496   1.375   2.010
 4923SOL    HW215669   3.403   1.282   1.913
 4924SOL     OW15670   2.239   0.742   5.188
 4924SOL    HW115671   2.206   0.831   5.219
 4924SOL    HW215672   2.293   0.698   5.260
 4925SOL     OW15673   5.635   5.497   3.639
 4925SOL    HW115674   5.560   5.558   3.665
 4925SOL    HW215675   5.703   5.496   3.713
 4926SOL     OW15676   5.179   2.791   1.313
 4926SOL    HW115677   5.160   2.698   1.347
 4926SOL    HW215678   5.246   2.786   1.239
 4927SOL     OW15679   2.803   1.345   7.003
 4927SOL    HW115680   2.763   1.435   6.986
 4927SOL    HW215681   2.732   1.283   0.016
 4928SOL     OW15682   6.392   2.190   0.875
 4928SOL    HW115683   6.478   2.221   0.836
 4928SOL    HW215684   6.326   2.265   0.875
 4929SOL     OW15685   0.700   6.396   4.918
 4929SOL    HW115686   0.746   6.356   4.998
 4929SOL    HW215687   0.610   6.354   4.907
 4930SOL     OW15688   5.156   5.840   2.562
 4930SOL    HW115689   5.241   5.885   2.538
 4930SOL    HW215690   5.173   5.772   2.633
 4931SOL     OW15691   0.056   6.772   0.662
 4931SOL    HW115692   0.140   6.803   0.706
 4931SOL    HW215693   7.004   6.836   0.682
 4932SOL     OW15694   3.626   3.357   2.612
 4932SOL    HW115695   3.636   3.289   2.540
 4932SOL    HW215696   3.582   3.315   2.692
 4933SOL     OW15697   1.324   0.260   5.863
 4933SOL    HW115698   1.332   0.327   5.789
 4933SOL    HW215699   1.243   0.279   5.917
 4934SOL     OW15700   4.094   6.424   2.191
 4934SOL    HW115701   4.122   6.503   2.136
 4934SOL    HW215702   4.053   6.355   2.131
 4935SOL     OW15703   0.371   0.786   5.464
 4935SOL    HW115704   0.285   0.802   5.512
 4935SOL    HW215705   0.368   0.698   5.417
 4936SOL     OW15706   4.172   2.308   1.173
 4936SOL    HW115707   4.238   2.344   1.239
 4936SOL    HW215708   4.086   2.359   1.181
 4937SOL     OW15709   4.705   2.716   5.140
 4937SOL    HW115710   4.614   2.723   5.181
 4937SOL    HW215711   4.724   2.620   5.118
 4938SOL     OW15712   4.002   4.630   6.527
 4938SOL    HW115713   4.079   4.660   6.584
 4938SOL    HW215714   3.917   4.673   6.560
 4939SOL     OW15715   4.909   3.503   5.914
 4939SOL    HW115716   4.822   3.456   5.895
 4939SOL    HW215717   4.890   3.596   5.946
 4940SOL     OW15718   2.344   6.689   3.771
 4940SOL    HW115719   2.318   6.638   3.853
 4940SOL    HW215720   2.352   6.626   3.694
 4941SOL     OW15721   5.445   0.498   0.929
 4941SOL    HW115722   5.434   0.420   0.990
 4941SOL    HW215723   5.355   0.533   0.902
 4942SOL     OW15724   4.959   3.036   6.313
 4942SOL    HW115725   4.906   2.962   6.354
 4942SOL    HW215726   5.016   3.000   6.239
 4943SOL     OW15727   5.229   2.364   1.291
 4943SOL    HW115728   5.310   2.378   1.235
 4943SOL    HW215729   5.217   2.441   1.353
 4944SOL     OW15730   2.230   4.159   2.403
 4944SOL    HW115731   2.280   4.073   2.409
 4944SOL    HW215732   2.135   4.141   2.379
 4945SOL     OW15733   6.984   6.351   4.633
 4945SOL    HW115734   6.973   6.397   4.545
 4945SOL    HW215735   6.893   6.333   4.672
 4946SOL     OW15736   0.500   4.406   2.292
 4946SOL    HW115737   0.596   4.436   2.294
 4946SOL    HW215738   0.452   4.453   2.218
 4947SOL     OW15739   6.338   6.947   0.970
 4947SOL    HW115740   6.266   7.013   0.992
 4947SOL    HW215741   6.315   6.859   1.011
 4948SOL     OW15742   2.321   1.310   1.815
 4948SOL    HW115743   2.373   1.314   1.900
 4948SOL    HW215744   2.227   1.339   1.832
 4949SOL     OW15745   5.457   2.360   4.752
 4949SOL    HW115746   5.536   2.377   4.693
 4949SOL    HW215747   5.461   2.267   4.787
 4950SOL     OW15748   3.515   5.059   4.945
 4950SOL    HW115749   3.469   4.990   5.002
 4950SOL    HW215750   3.607   5.076   4.982
 4951SOL     OW15751   4.587   2.072   4.152
 4951SOL    HW115752   4.558   2.166   4.130
 4951SOL    HW215753   4.506   2.017   4.173
 4952SOL     OW15754   6.921   4.798   5.212
 4952SOL    HW115755   6.952   4.780   5.305
 4952SOL    HW215756   6.828   4.833   5.214
 4953SOL     OW15757   1.414   4.991   2.268
 4953SOL    HW115758   1.436   4.967   2.174
 4953SOL    HW215759   1.494   4.974   2.326
 4954SOL     OW15760   6.755   6.421   6.944
 4954SOL    HW115761   6.769   6.447   0.018
 4954SOL    HW215762   6.657   6.415   6.925
 4955SOL     OW15763   1.228   0.845   0.797
 4955SOL    HW115764   1.130   0.863   0.791
 4955SOL    HW215765   1.253   0.828   0.893
 4956SOL     OW15766   6.157   6.659   4.234
 4956SOL    HW115767   6.194   6.713   4.310
 4956SOL    HW215768   6.076   6.704   4.197
 4957SOL     OW15769   1.865   6.141   3.462
 4957SOL    HW115770   1.848   6.172   3.556
 4957SOL    HW215771   1.884   6.042   3.463
 4958SOL     OW15772   0.470   6.692   6.764
 4958SOL    HW115773   0.433   6.599   6.768
 4958SOL    HW215774   0.507   6.709   6.672
 4959SOL     OW15775   0.031   1.263   6.928
 4959SOL    HW115776   0.100   1.217   6.984
 4959SOL    HW215777   0.075   1.333   6.873
 4960SOL     OW15778   3.883   6.715   5.291
 4960SOL    HW115779   3.860   6.620   5.271
 4960SOL    HW215780   3.896   6.766   5.206
 4961SOL     OW15781   4.563   0.863   5.689
 4961SOL    HW115782   4.659   0.837   5.698
 4961SOL    HW215783   4.557   0.950   5.639
 4962SOL     OW15784   6.556   2.347   2.302
 4962SOL    HW115785   6.635   2.388   2.255
 4962SOL    HW215786   6.581   2.256   2.336
 4963SOL     OW15787   6.728   4.712   0.925
 4963SOL    HW115788   6.650   4.721   0.862
 4963SOL    HW215789   6.697   4.732   1.018
 4964SOL     OW15790   3.812   6.761   2.862
 4964SOL    HW115791   3.868   6.717   2.932
 4964SOL    HW215792   3.845   6.854   2.845
 4965SOL     OW15793   0.109   6.290   4.844
 4965SOL    HW115794   0.039   6.257   4.907
 4965SOL    HW215795   0.067   6.311   4.756
 4966SOL     OW15796   4.116   5.525   4.781
 4966SOL    HW115797   4.131   5.431   4.753
 4966SOL    HW215798   4.202   5.577   4.771
 4967SOL     OW15799   5.319   1.994   6.726
 4967SOL    HW115800   5.319   1.974   6.824
 4967SOL    HW215801   5.243   1.947   6.683
 4968SOL     OW15802   5.604   4.490   6.923
 4968SOL    HW115803   5.664   4.502   6.845
 4968SOL    HW215804   5.516   4.534   6.905
 4969SOL     OW15805   0.642   1.894   1.078
 4969SOL    HW115806   0.610   1.851   0.993
 4969SOL    HW215807   0.618   1.991   1.077
 4970SOL     OW15808   1.430   2.784   6.056
 4970SOL    HW115809   1.407   2.829   6.142
 4970SOL    HW215810   1.346   2.758   6.009
 4971SOL     OW15811   7.016   5.279   3.803
 4971SOL    HW115812   7.002   5.199   3.745
 4971SOL    HW215813   0.058   5.342   3.758
 4972SOL     OW15814   1.685   2.056   5.416
 4972SOL    HW115815   1.605   1.997   5.414
 4972SOL    HW215816   1.697   2.094   5.507
 4973SOL     OW15817   5.670   5.849   2.874
 4973SOL    HW115818   5.615   5.877   2.795
 4973SOL    HW215819   5.728   5.926   2.903
 4974SOL     OW15820   4.249   6.640   0.467
 4974SOL    HW115821   4.198   6.698   0.529
 4974SOL    HW215822   4.341   6.678   0.454
 4975SOL     OW15823   4.423   5.950   0.294
 4975SOL    HW115824   4.449   5.894   0.216
 4975SOL    HW215825   4.453   5.905   0.379
 4976SOL     OW15826   2.597   0.758   4.512
 4976SOL    HW115827   2.610   0.668   4.554
 4976SOL    HW215828   2.506   0.792   4.534
 4977SOL     OW15829   3.158   2.926   0.123
 4977SOL    HW115830   3.223   2.895   0.192
 4977SOL    HW215831   3.163   2.865   0.043
 4978SOL     OW15832   5.934   4.248   6.955
 4978SOL    HW115833   6.022   4.204   6.974
 4978SOL    HW215834   5.926   4.264   6.857
 4979SOL     OW15835   1.644   2.902   4.008
 4979SOL    HW115836   1.594   2.818   3.992
 4979SOL    HW215837   1.703   2.891   4.088
 4980SOL     OW15838   2.672   4.925   3.469
 4980SOL    HW115839   2.671   4.836   3.423
 4980SOL    HW215840   2.757   4.973   3.447
 4981SOL     OW15841   4.621   6.361   5.623
 4981SOL    HW115842   4.638   6.264   5.636
 4981SOL    HW215843   4.649   6.412   5.705
 4982SOL     OW15844   2.728   2.227   0.139
 4982SOL    HW115845   2.687   2.262   0.223
 4982SOL    HW215846   2.669   2.156   0.101
 4983SOL     OW15847   6.566   3.131   4.881
 4983SOL    HW115848   6.504   3.099   4.810
 4983SOL    HW215849   6.520   3.201   4.936
 4984SOL     OW15850   4.624   4.386   2.979
 4984SOL    HW115851   4.586   4.449   3.048
 4984SOL    HW215852   4.672   4.312   3.025
 4985SOL     OW15853   5.277   4.059   1.844
 4985SOL    HW115854   5.377   4.061   1.834
 4985SOL    HW215855   5.235   4.108   1.769
 4986SOL     OW15856   4.397   4.760   3.316
 4986SOL    HW115857   4.431   4.808   3.235
 4986SOL    HW215858   4.353   4.826   3.377
 4987SOL     OW15859   0.542   3.721   0.914
 4987SOL    HW115860   0.568   3.644   0.856
 4987SOL    HW215861   0.570   3.807   0.871
 4988SOL     OW15862   1.509   2.207   5.156
 4988SOL    HW115863   1.427   2.230   5.209
 4988SOL    HW215864   1.485   2.143   5.084
 4989SOL     OW15865   0.016   0.848   0.639
 4989SOL    HW115866   6.954   0.855   0.694
 4989SOL    HW215867   0.087   0.805   0.694
 4990SOL     OW15868   1.012   2.512   6.346
 4990SOL    HW115869   0.972   2.479   6.261
 4990SOL    HW215870   1.089   2.453   6.372
 4991SOL     OW15871   2.401   1.960   4.981
 4991SOL    HW115872   2.311   1.961   4.939
 4991SOL    HW215873   2.404   1.889   5.051
 4992SOL     OW15874   4.150   0.646   4.268
 4992SOL    HW115875   4.195   0.558   4.280
 4992SOL    HW215876   4.140   0.690   4.357
 4993SOL     OW15877   1.621   6.347   3.880
 4993SOL    HW115878   1.617   6.430   3.824
 4993SOL    HW215879   1.641   6.371   3.974
 4994SOL     OW15880   0.431   6.829   2.532
 4994SOL    HW115881   0.385   6.896   2.474
 4994SOL    HW215882   0.471   6.876   2.611
 4995SOL     OW15883   6.370   3.097   5.808
 4995SOL    HW115884   6.331   3.187   5.831
 4995SOL    HW215885   6.311   3.052   5.741
 4996SOL     OW15886   0.558   1.734   4.028
 4996SOL    HW115887   0.473   1.729   3.976
 4996SOL    HW215888   0.539   1.720   4.125
 4997SOL     OW15889   0.287   2.120   4.023
 4997SOL    HW115890   0.346   2.173   4.084
 4997SOL    HW215891   0.271   2.029   4.061
 4998SOL     OW15892   1.119   5.203   5.238
 4998SOL    HW115893   1.111   5.207   5.338
 4998SOL    HW215894   1.206   5.161   5.213
 4999SOL     OW15895   6.194   5.100   1.085
 4999SOL    HW115896   6.151   5.010   1.077
 4999SOL    HW215897   6.258   5.114   1.009
 5000SOL     OW15898   0.109   5.312   4.089
 5000SOL    HW115899   0.087   5.265   4.004
 5000SOL    HW215900   0.143   5.404   4.069
 5001SOL     OW15901   4.625   4.569   5.282
 5001SOL    HW115902   4.688   4.514   5.337
 5001SOL    HW215903   4.677   4.639   5.233
 5002SOL     OW15904   1.993   2.349   1.925
 5002SOL    HW115905   2.040   2.274   1.877
 5002SOL    HW215906   2.024   2.437   1.888
 5003SOL     OW15907   6.678   4.755   3.846
 5003SOL    HW115908   6.758   4.724   3.794
 5003SOL    HW215909   6.707   4.826   3.911
 5004SOL     OW15910   3.230   4.213   6.054
 5004SOL    HW115911   3.227   4.227   6.153
 5004SOL    HW215912   3.272   4.125   6.034
 5005SOL     OW15913   4.372   1.974   0.259
 5005SOL    HW115914   4.319   1.961   0.175
 5005SOL    HW215915   4.437   1.899   0.270
 5006SOL     OW15916   5.684   4.617   2.470
 5006SOL    HW115917   5.681   4.613   2.370
 5006SOL    HW215918   5.707   4.527   2.507
 5007SOL     OW15919   3.746   1.655   5.171
 5007SOL    HW115920   3.777   1.748   5.190
 5007SOL    HW215921   3.744   1.640   5.072
 5008SOL     OW15922   6.236   0.673   3.776
 5008SOL    HW115923   6.225   0.761   3.821
 5008SOL    HW215924   6.300   0.682   3.700
 5009SOL     OW15925   1.823   5.937   2.363
 5009SOL    HW115926   1.776   5.875   2.299
 5009SOL    HW215927   1.770   5.942   2.448
 5010SOL     OW15928   3.397   3.223   5.387
 5010SOL    HW115929   3.358   3.221   5.479
 5010SOL    HW215930   3.365   3.143   5.335
 5011SOL     OW15931   1.219   2.574   3.585
 5011SOL    HW115932   1.143   2.623   3.627
 5011SOL    HW215933   1.270   2.524   3.655
 5012SOL     OW15934   6.008   2.942   6.975
 5012SOL    HW115935   6.033   2.861   6.921
 5012SOL    HW215936   6.078   2.959   0.022
 5013SOL     OW15937   5.056   2.379   5.630
 5013SOL    HW115938   5.002   2.343   5.554
 5013SOL    HW215939   5.109   2.458   5.599
 5014SOL     OW15940   6.592   5.937   6.344
 5014SOL    HW115941   6.500   5.930   6.383
 5014SOL    HW215942   6.635   5.846   6.342
 5015SOL     OW15943   5.541   2.128   3.780
 5015SOL    HW115944   5.482   2.122   3.699
 5015SOL    HW215945   5.487   2.158   3.858
 5016SOL     OW15946   2.132   6.576   2.488
 5016SOL    HW115947   2.089   6.663   2.509
 5016SOL    HW215948   2.196   6.552   2.561
 5017SOL     OW15949   1.639   2.403   2.064
 5017SOL    HW115950   1.629   2.500   2.087
 5017SOL    HW215951   1.726   2.369   2.101
 5018SOL     OW15952   0.024   5.012   3.677
 5018SOL    HW115953   0.057   4.995   3.584
 5018SOL    HW215954   6.946   5.015   3.676
 5019SOL     OW15955   2.867   5.521   5.345
 5019SOL    HW115956   2.878   5.426   5.377
 5019SOL    HW215957   2.782   5.559   5.383
 5020SOL     OW15958   4.141   5.398   6.627
 5020SOL    HW115959   4.216   5.350   6.672
 5020SOL    HW215960   4.125   5.358   6.537
 5021SOL     OW15961   2.594   4.016   5.831
 5021SOL    HW115962   2.572   4.025   5.928
 5021SOL    HW215963   2.633   4.101   5.798
 5022SOL     OW15964   2.181   3.923   1.023
 5022SOL    HW115965   2.093   3.971   1.028
 5022SOL    HW215966   2.173   3.833   1.065
 5023SOL     OW15967   6.596   2.994   4.196
 5023SOL    HW115968   6.557   2.918   4.145
 5023SOL    HW215969   6.559   2.995   4.289
 5024SOL     OW15970   5.109   3.576   5.631
 5024SOL    HW115971   5.127   3.512   5.706
 5024SOL    HW215972   5.191   3.583   5.573
 5025SOL     OW15973   6.492   1.324   3.625
 5025SOL    HW115974   6.511   1.235   3.584
 5025SOL    HW215975   6.549   1.337   3.706
 5026SOL     OW15976   0.730   6.206   2.847
 5026SOL    HW115977   0.827   6.194   2.866
 5026SOL    HW215978   0.679   6.212   2.934
 5027SOL     OW15979   0.718   6.048   3.778
 5027SOL    HW115980   0.783   6.012   3.711
 5027SOL    HW215981   0.714   6.148   3.769
 5028SOL     OW15982   0.484   0.276   2.881
 5028SOL    HW115983   0.467   0.236   2.971
 5028SOL    HW215984   0.544   0.355   2.891
 5029SOL     OW15985   6.825   1.469   3.376
 5029SOL    HW115986   6.909   1.524   3.369
 5029SOL    HW215987   6.762   1.496   3.303
 5030SOL     OW15988   2.151   5.716   0.175
 5030SOL    HW115989   2.227   5.765   0.131
 5030SOL    HW215990   2.071   5.719   0.115
 5031SOL     OW15991   5.418   1.326   6.162
 5031SOL    HW115992   5.397   1.299   6.068
 5031SOL    HW215993   5.339   1.373   6.202
 5032SOL     OW15994   1.437   6.097   2.169
 5032SOL    HW115995   1.395   6.009   2.147
 5032SOL    HW215996   1.431   6.114   2.267
 5033SOL     OW15997   0.340   4.082   5.212
 5033SOL    HW115998   0.300   4.096   5.303
 5033SOL    HW215999   0.308   4.154   5.151
 5034SOL     OW16000   6.954   3.741   6.412
 5034SOL    HW116001   6.871   3.764   6.464
 5034SOL    HW216002   6.938   3.660   6.357
 5035SOL     OW16003   5.999   4.618   1.391
 5035SOL    HW116004   5.985   4.689   1.460
 5035SOL    HW216005   6.072   4.646   1.328
 5036SOL     OW16006   1.399   0.430   1.915
 5036SOL    HW116007   1.439   0.472   1.834
 5036SOL    HW216008   1.461   0.440   1.993
 5037SOL     OW16009   4.779   2.888   3.080
 5037SOL    HW116010   4.779   2.949   3.159
 5037SOL    HW216011   4.830   2.931   3.005
 5038SOL     OW16012   3.071   5.710   4.873
 5038SOL    HW116013   3.034   5.643   4.937
 5038SOL    HW216014   3.089   5.795   4.921
 5039SOL     OW16015   1.457   2.082   2.998
 5039SOL    HW116016   1.447   2.081   3.097
 5039SOL    HW216017   1.553   2.068   2.973
 5040SOL     OW16018   2.962   3.741   5.778
 5040SOL    HW116019   3.004   3.784   5.858
 5040SOL    HW216020   2.863   3.755   5.781
 5041SOL     OW16021   0.600   5.558   0.651
 5041SOL    HW116022   0.648   5.570   0.564
 5041SOL    HW216023   0.503   5.541   0.634
 5042SOL     OW16024   5.979   1.609   5.631
 5042SOL    HW116025   6.009   1.519   5.664
 5042SOL    HW216026   5.948   1.600   5.536
 5043SOL     OW16027   4.920   6.994   4.051
 5043SOL    HW116028   4.971   0.017   4.125
 5043SOL    HW216029   4.874   0.041   3.996
 5044SOL     OW16030   5.534   4.694   1.886
 5044SOL    HW116031   5.508   4.693   1.983
 5044SOL    HW216032   5.455   4.724   1.832
 5045SOL     OW16033   5.543   3.330   5.132
 5045SOL    HW116034   5.634   3.309   5.096
 5045SOL    HW216035   5.474   3.311   5.062
 5046SOL     OW16036   3.932   3.457   5.647
 5046SOL    HW116037   3.922   3.405   5.732
 5046SOL    HW216038   3.928   3.394   5.569
 5047SOL     OW16039   0.431   1.685   2.220
 5047SOL    HW116040   0.497   1.652   2.289
 5047SOL    HW216041   0.371   1.610   2.193
 5048SOL     OW16042   5.957   3.723   1.253
 5048SOL    HW116043   5.860   3.726   1.280
 5048SOL    HW216044   5.997   3.636   1.283
 5049SOL     OW16045   0.779   2.171   1.619
 5049SOL    HW116046   0.732   2.180   1.531
 5049SOL    HW216047   0.816   2.078   1.628
 5050SOL     OW16048   1.150   3.531   0.692
 5050SOL    HW116049   1.167   3.478   0.775
 5050SOL    HW216050   1.065   3.583   0.702
 5051SOL     OW16051   2.188   3.503   6.682
 5051SOL    HW116052   2.116   3.559   6.640
 5051SOL    HW216053   2.167   3.490   6.779
 5052SOL     OW16054   5.730   3.247   0.699
 5052SOL    HW116055   5.788   3.245   0.617
 5052SOL    HW216056   5.686   3.158   0.710
 5053SOL     OW16057   2.138   4.287   1.054
 5053SOL    HW116058   2.193   4.300   0.972
 5053SOL    HW216059   2.107   4.192   1.060
 5054SOL     OW16060   4.166   6.183   5.075
 5054SOL    HW116061   4.164   6.283   5.074
 5054SOL    HW216062   4.097   6.148   5.011
 5055SOL     OW16063   1.636   1.767   3.866
 5055SOL    HW116064   1.692   1.729   3.940
 5055SOL    HW216065   1.691   1.829   3.811
 5056SOL     OW16066   2.850   2.220   5.075
 5056SOL    HW116067   2.791   2.172   5.010
 5056SOL    HW216068   2.939   2.237   5.034
 5057SOL     OW16069   0.362   4.019   2.697
 5057SOL    HW116070   0.421   4.097   2.675
 5057SOL    HW216071   0.318   4.034   2.786
 5058SOL     OW16072   3.542   2.403   0.295
 5058SOL    HW116073   3.570   2.319   0.340
 5058SOL    HW216074   3.511   2.469   0.363
 5059SOL     OW16075   4.422   1.983   2.801
 5059SOL    HW116076   4.363   2.063   2.809
 5059SOL    HW216077   4.492   2.000   2.732
 5060SOL     OW16078   0.359   3.216   5.967
 5060SOL    HW116079   0.312   3.271   5.898
 5060SOL    HW216080   0.457   3.220   5.952
 5061SOL     OW16081   4.117   2.481   6.080
 5061SOL    HW116082   4.163   2.531   6.153
 5061SOL    HW216083   4.079   2.545   6.014
 5062SOL     OW16084   5.465   1.173   3.376
 5062SOL    HW116085   5.540   1.235   3.402
 5062SOL    HW216086   5.435   1.196   3.283
 5063SOL     OW16087   1.167   1.053   1.563
 5063SOL    HW116088   1.207   1.135   1.522
 5063SOL    HW216089   1.071   1.068   1.582
 5064SOL     OW16090   5.832   4.903   0.951
 5064SOL    HW116091   5.776   4.985   0.938
 5064SOL    HW216092   5.798   4.830   0.891
 5065SOL     OW16093   2.481   1.272   2.040
 5065SOL    HW116094   2.532   1.358   2.047
 5065SOL    HW216095   2.463   1.237   2.132
 5066SOL     OW16096   1.891   5.250   2.646
 5066SOL    HW116097   1.911   5.195   2.565
 5066SOL    HW216098   1.796   5.237   2.673
 5067SOL     OW16099   5.996   2.854   1.475
 5067SOL    HW116100   6.058   2.916   1.523
 5067SOL    HW216101   5.907   2.897   1.465
 5068SOL     OW16102   1.913   5.903   0.603
 5068SOL    HW116103   1.942   5.817   0.644
 5068SOL    HW216104   1.880   5.965   0.674
 5069SOL     OW16105   4.286   5.489   5.496
 5069SOL    HW116106   4.188   5.498   5.483
 5069SOL    HW216107   4.323   5.426   5.428
 5070SOL     OW16108   5.821   3.253   5.163
 5070SOL    HW116109   5.847   3.196   5.241
 5070SOL    HW216110   5.850   3.347   5.180
 5071SOL     OW16111   2.753   6.684   3.587
 5071SOL    HW116112   2.687   6.758   3.596
 5071SOL    HW216113   2.719   6.604   3.638
 5072SOL     OW16114   0.925   1.207   1.615
 5072SOL    HW116115   0.913   1.288   1.672
 5072SOL    HW216116   0.876   1.130   1.655
 5073SOL     OW16117   1.900   0.951   3.644
 5073SOL    HW116118   1.885   1.029   3.583
 5073SOL    HW216119   1.816   0.931   3.694
 5074SOL     OW16120   3.081   2.356   1.429
 5074SOL    HW116121   3.179   2.356   1.448
 5074SOL    HW216122   3.032   2.404   1.502
 5075SOL     OW16123   6.670   3.253   0.723
 5075SOL    HW116124   6.638   3.337   0.767
 5075SOL    HW216125   6.703   3.274   0.631
 5076SOL     OW16126   0.251   0.640   5.972
 5076SOL    HW116127   0.235   0.724   6.024
 5076SOL    HW216128   0.237   0.658   5.874
 5077SOL     OW16129   0.750   4.619   3.605
 5077SOL    HW116130   0.844   4.651   3.592
 5077SOL    HW216131   0.687   4.692   3.580
 5078SOL     OW16132   6.532   2.231   3.605
 5078SOL    HW116133   6.507   2.152   3.660
 5078SOL    HW216134   6.468   2.241   3.528
 5079SOL     OW16135   1.619   3.413   5.032
 5079SOL    HW116136   1.708   3.370   5.041
 5079SOL    HW216137   1.571   3.375   4.953
 5080SOL     OW16138   6.105   5.749   6.746
 5080SOL    HW116139   6.132   5.654   6.763
 5080SOL    HW216140   6.138   5.778   6.656
 5081SOL     OW16141   2.444   4.369   5.213
 5081SOL    HW116142   2.428   4.278   5.251
 5081SOL    HW216143   2.533   4.403   5.243
 5082SOL     OW16144   5.721   5.956   1.341
 5082SOL    HW116145   5.797   5.905   1.382
 5082SOL    HW216146   5.635   5.920   1.377
 5083SOL     OW16147   2.493   0.245   3.779
 5083SOL    HW116148   2.537   0.224   3.691
 5083SOL    HW216149   2.476   0.160   3.829
 5084SOL     OW16150   3.408   4.278   5.645
 5084SOL    HW116151   3.480   4.209   5.638
 5084SOL    HW216152   3.322   4.240   5.610
 5085SOL     OW16153   0.241   4.473   5.669
 5085SOL    HW116154   0.335   4.499   5.643
 5085SOL    HW216155   0.193   4.439   5.589
 5086SOL     OW16156   1.297   4.770   2.385
 5086SOL    HW116157   1.365   4.758   2.457
 5086SOL    HW216158   1.339   4.813   2.305
 5087SOL     OW16159   0.190   5.012   2.364
 5087SOL    HW116160   0.155   4.975   2.279
 5087SOL    HW216161   0.219   4.937   2.424
 5088SOL     OW16162   4.398   5.372   2.290
 5088SOL    HW116163   4.393   5.333   2.197
 5088SOL    HW216164   4.411   5.298   2.356
 5089SOL     OW16165   4.982   5.945   6.071
 5089SOL    HW116166   4.915   6.018   6.058
 5089SOL    HW216167   4.935   5.856   6.076
 5090SOL     OW16168   2.419   6.534   5.071
 5090SOL    HW116169   2.328   6.545   5.031
 5090SOL    HW216170   2.474   6.476   5.012
 5091SOL     OW16171   0.142   6.379   6.057
 5091SOL    HW116172   0.240   6.398   6.049
 5091SOL    HW216173   0.102   6.439   6.126
 5092SOL     OW16174   3.980   3.404   4.353
 5092SOL    HW116175   4.027   3.492   4.348
 5092SOL    HW216176   3.993   3.354   4.268
 5093SOL     OW16177   2.763   2.259   2.810
 5093SOL    HW116178   2.745   2.242   2.713
 5093SOL    HW216179   2.721   2.346   2.837
 5094SOL     OW16180   1.466   5.741   4.715
 5094SOL    HW116181   1.398   5.813   4.705
 5094SOL    HW216182   1.507   5.721   4.626
 5095SOL     OW16183   7.016   1.285   3.004
 5095SOL    HW116184   6.926   1.310   3.040
 5095SOL    HW216185   0.023   1.353   2.937
 5096SOL     OW16186   6.775   3.185   5.575
 5096SOL    HW116187   6.829   3.251   5.522
 5096SOL    HW216188   6.823   3.163   5.660
 5097SOL     OW16189   0.764   0.476   5.605
 5097SOL    HW116190   0.827   0.399   5.592
 5097SOL    HW216191   0.732   0.508   5.516
 5098SOL     OW16192   3.566   2.821   0.101
 5098SOL    HW116193   3.501   2.818   0.026
 5098SOL    HW216194   3.620   2.737   0.101
 5099SOL     OW16195   1.619   6.452   1.858
 5099SOL    HW116196   1.610   6.532   1.917
 5099SOL    HW216197   1.685   6.388   1.899
 5100SOL     OW16198   5.141   3.103   2.025
 5100SOL    HW116199   5.162   3.106   1.927
 5100SOL    HW216200   5.049   3.137   2.041
 5101SOL     OW16201   3.256   0.424   5.411
 5101SOL    HW116202   3.172   0.470   5.437
 5101SOL    HW216203   3.236   0.330   5.381
 5102SOL     OW16204   5.189   5.341   4.758
 5102SOL    HW116205   5.139   5.351   4.672
 5102SOL    HW216206   5.196   5.244   4.781
 5103SOL     OW16207   1.072   0.582   5.795
 5103SOL    HW116208   1.053   0.491   5.757
 5103SOL    HW216209   0.992   0.613   5.848
 5104SOL     OW16210   3.994   3.136   3.067
 5104SOL    HW116211   4.004   3.182   3.155
 5104SOL    HW216212   4.084   3.105   3.035
 5105SOL     OW16213   4.080   3.024   7.018
 5105SOL    HW116214   4.117   3.004   0.086
 5105SOL    HW216215   4.103   2.950   6.955
 5106SOL     OW16216   3.512   1.700   1.264
 5106SOL    HW116217   3.576   1.628   1.290
 5106SOL    HW216218   3.545   1.746   1.181
 5107SOL     OW16219   5.982   4.924   0.663
 5107SOL    HW116220   5.893   4.903   0.704
 5107SOL    HW216221   5.969   4.958   0.570
 5108SOL     OW16222   3.653   4.948   1.288
 5108SOL    HW116223   3.699   4.902   1.212
 5108SOL    HW216224   3.593   5.020   1.252
 5109SOL     OW16225   1.306   2.835   2.648
 5109SOL    HW116226   1.351   2.918   2.614
 5109SOL    HW216227   1.370   2.758   2.640
 5110SOL     OW16228   4.936   0.121   5.652
 5110SOL    HW116229   4.979   0.041   5.611
 5110SOL    HW216230   4.897   0.096   5.741
 5111SOL     OW16231   1.386   5.408   5.570
 5111SOL    HW116232   1.451   5.392   5.645
 5111SOL    HW216233   1.368   5.506   5.562
 5112SOL     OW16234   1.214   6.132   3.279
 5112SOL    HW116235   1.281   6.189   3.232
 5112SOL    HW216236   1.234   6.035   3.262
 5113SOL     OW16237   2.046   4.254   0.191
 5113SOL    HW116238   2.103   4.304   0.125
 5113SOL    HW216239   2.052   4.298   0.280
 5114SOL     OW16240   4.534   4.553   1.533
 5114SOL    HW116241   4.526   4.471   1.589
 5114SOL    HW216242   4.621   4.599   1.552
 5115SOL     OW16243   1.871   3.440   0.935
 5115SOL    HW116244   1.871   3.538   0.956
 5115SOL    HW216245   1.953   3.418   0.882
 5116SOL     OW16246   0.770   6.905   5.176
 5116SOL    HW116247   0.703   6.902   5.250
 5116SOL    HW216248   0.741   6.974   5.108
 5117SOL     OW16249   0.085   2.247   3.585
 5117SOL    HW116250   0.184   2.251   3.578
 5117SOL    HW216251   0.045   2.325   3.536
 5118SOL     OW16252   4.422   5.547   0.386
 5118SOL    HW116253   4.352   5.578   0.322
 5118SOL    HW216254   4.506   5.526   0.335
 5119SOL     OW16255   5.973   1.590   0.681
 5119SOL    HW116256   5.900   1.523   0.669
 5119SOL    HW216257   5.935   1.676   0.713
 5120SOL     OW16258   4.797   6.801   6.890
 5120SOL    HW116259   4.796   6.760   6.981
 5120SOL    HW216260   4.862   6.752   6.832
 5121SOL     OW16261   1.385   3.356   6.120
 5121SOL    HW116262   1.390   3.448   6.159
 5121SOL    HW216263   1.408   3.359   6.023
 5122SOL     OW16264   4.693   4.842   3.660
 5122SOL    HW116265   4.600   4.805   3.649
 5122SOL    HW216266   4.691   4.916   3.726
 5123SOL     OW16267   4.900   3.035   2.470
 5123SOL    HW116268   4.829   3.000   2.532
 5123SOL    HW216269   4.884   3.000   2.378
 5124SOL     OW16270   1.421   5.964   5.142
 5124SOL    HW116271   1.496   5.973   5.207
 5124SOL    HW216272   1.348   5.908   5.182
 5125SOL     OW16273   6.309   1.576   3.802
 5125SOL    HW116274   6.300   1.660   3.748
 5125SOL    HW216275   6.334   1.500   3.743
 5126SOL     OW16276   1.729   0.960   2.103
 5126SOL    HW116277   1.663   1.023   2.061
 5126SOL    HW216278   1.707   0.948   2.200
 5127SOL     OW16279   2.595   6.215   0.156
 5127SOL    HW116280   2.505   6.178   0.181
 5127SOL    HW216281   2.584   6.281   0.082
 5128SOL     OW16282   5.551   7.017   1.538
 5128SOL    HW116283   5.550   0.065   1.608
 5128SOL    HW216284   5.567   6.928   1.581
 5129SOL     OW16285   6.555   6.628   0.401
 5129SOL    HW116286   6.579   6.539   0.440
 5129SOL    HW216287   6.466   6.657   0.436
 5130SOL     OW16288   6.194   5.002   2.531
 5130SOL    HW116289   6.122   4.997   2.600
 5130SOL    HW216290   6.199   5.095   2.495
 5131SOL     OW16291   1.803   2.652   2.616
 5131SOL    HW116292   1.765   2.566   2.650
 5131SOL    HW216293   1.889   2.671   2.663
 5132SOL     OW16294   2.793   5.987   4.909
 5132SOL    HW116295   2.808   5.891   4.934
 5132SOL    HW216296   2.740   6.032   4.981
 5133SOL     OW16297   3.572   6.066   5.416
 5133SOL    HW116298   3.494   6.077   5.354
 5133SOL    HW216299   3.559   5.983   5.471
 5134SOL     OW16300   6.321   3.640   5.795
 5134SOL    HW116301   6.290   3.565   5.855
 5134SOL    HW216302   6.241   3.691   5.762
 5135SOL     OW16303   6.000   1.250   4.476
 5135SOL    HW116304   5.962   1.199   4.553
 5135SOL    HW216305   6.014   1.345   4.503
 5136SOL     OW16306   3.842   1.816   5.553
 5136SOL    HW116307   3.783   1.848   5.479
 5136SOL    HW216308   3.796   1.831   5.641
 5137SOL     OW16309   3.506   3.837   6.672
 5137SOL    HW116310   3.418   3.871   6.705
 5137SOL    HW216311   3.501   3.738   6.659
 5138SOL     OW16312   2.423   3.299   6.344
 5138SOL    HW116313   2.476   3.382   6.360
 5138SOL    HW216314   2.481   3.219   6.357
 5139SOL     OW16315   0.358   0.167   3.821
 5139SOL    HW116316   0.286   0.115   3.867
 5139SOL    HW216317   0.367   0.134   3.727
 5140SOL     OW16318   3.458   3.025   1.757
 5140SOL    HW116319   3.398   2.945   1.760
 5140SOL    HW216320   3.520   3.018   1.679
 5141SOL     OW16321   0.609   4.113   6.003
 5141SOL    HW116322   0.660   4.130   6.087
 5141SOL    HW216323   0.644   4.171   5.930
 5142SOL     OW16324   5.716   2.861   2.953
 5142SOL    HW116325   5.811   2.890   2.964
 5142SOL    HW216326   5.668   2.867   3.040
 5143SOL     OW16327   6.549   5.257   4.967
 5143SOL    HW116328   6.581   5.290   5.055
 5143SOL    HW216329   6.450   5.241   4.971
 5144SOL     OW16330   1.767   1.689   4.855
 5144SOL    HW116331   1.772   1.688   4.755
 5144SOL    HW216332   1.858   1.672   4.893
 5145SOL     OW16333   3.604   5.536   5.926
 5145SOL    HW116334   3.607   5.598   6.004
 5145SOL    HW216335   3.617   5.442   5.958
 5146SOL     OW16336   2.695   4.915   6.806
 5146SOL    HW116337   2.726   5.005   6.836
 5146SOL    HW216338   2.688   4.854   6.886
 5147SOL     OW16339   6.739   5.245   6.363
 5147SOL    HW116340   6.665   5.235   6.296
 5147SOL    HW216341   6.826   5.219   6.322
 5148SOL     OW16342   0.715   0.290   0.987
 5148SOL    HW116343   0.786   0.356   1.010
 5148SOL    HW216344   0.738   0.245   0.901
 5149SOL     OW16345   0.244   0.548   5.665
 5149SOL    HW116346   0.230   0.470   5.725
 5149SOL    HW216347   0.328   0.535   5.612
 5150SOL     OW16348   2.109   5.692   4.285
 5150SOL    HW116349   2.142   5.785   4.297
 5150SOL    HW216350   2.056   5.665   4.366
 5151SOL     OW16351   4.555   1.023   6.185
 5151SOL    HW116352   4.644   1.067   6.174
 5151SOL    HW216353   4.484   1.079   6.142
 5152SOL     OW16354   0.442   4.590   0.206
 5152SOL    HW116355   0.495   4.623   0.128
 5152SOL    HW216356   0.355   4.551   0.174
 5153SOL     OW16357   1.742   2.116   1.196
 5153SOL    HW116358   1.792   2.061   1.262
 5153SOL    HW216359   1.805   2.148   1.125
 5154SOL     OW16360   1.586   3.893   5.559
 5154SOL    HW116361   1.595   3.794   5.561
 5154SOL    HW216362   1.551   3.921   5.469
 5155SOL     OW16363   3.464   0.641   2.492
 5155SOL    HW116364   3.523   0.584   2.549
 5155SOL    HW216365   3.487   0.737   2.505
 5156SOL     OW16366   5.659   2.883   6.052
 5156SOL    HW116367   5.642   2.785   6.069
 5156SOL    HW216368   5.755   2.903   6.070
 5157SOL     OW16369   6.015   2.467   4.087
 5157SOL    HW116370   5.936   2.416   4.055
 5157SOL    HW216371   6.078   2.406   4.135
 5158SOL     OW16372   3.670   0.463   0.849
 5158SOL    HW116373   3.697   0.554   0.817
 5158SOL    HW216374   3.745   0.422   0.902
 5159SOL     OW16375   2.158   3.411   5.008
 5159SOL    HW116376   2.180   3.324   5.052
 5159SOL    HW216377   2.144   3.481   5.079
 5160SOL     OW16378   1.803   2.775   4.223
 5160SOL    HW116379   1.842   2.696   4.174
 5160SOL    HW216380   1.878   2.834   4.254
 5161SOL     OW16381   1.737   3.267   6.608
 5161SOL    HW116382   1.696   3.271   6.699
 5161SOL    HW216383   1.836   3.257   6.617
 5162SOL     OW16384   6.576   4.950   4.335
 5162SOL    HW116385   6.535   5.038   4.360
 5162SOL    HW216386   6.669   4.964   4.302
 5163SOL     OW16387   5.473   4.094   0.759
 5163SOL    HW116388   5.467   4.000   0.792
 5163SOL    HW216389   5.555   4.104   0.703
 5164SOL     OW16390   5.823   5.600   5.695
 5164SOL    HW116391   5.879   5.673   5.733
 5164SOL    HW216392   5.743   5.585   5.755
 5165SOL     OW16393   6.473   3.654   4.572
 5165SOL    HW116394   6.516   3.720   4.634
 5165SOL    HW216395   6.501   3.673   4.478
 5166SOL     OW16396   1.711   0.172   1.798
 5166SOL    HW116397   1.646   0.166   1.722
 5166SOL    HW216398   1.670   0.130   1.879
 5167SOL     OW16399   1.592   0.367   5.672
 5167SOL    HW116400   1.632   0.370   5.580
 5167SOL    HW216401   1.494   0.348   5.665
 5168SOL     OW16402   4.069   1.786   3.197
 5168SOL    HW116403   4.062   1.696   3.240
 5168SOL    HW216404   4.156   1.794   3.149
 5169SOL     OW16405   4.079   4.487   6.289
 5169SOL    HW116406   4.114   4.564   6.235
 5169SOL    HW216407   4.023   4.521   6.363
 5170SOL     OW16408   4.254   5.221   4.338
 5170SOL    HW116409   4.226   5.204   4.244
 5170SOL    HW216410   4.190   5.178   4.401
 5171SOL     OW16411   2.598   4.776   5.148
 5171SOL    HW116412   2.551   4.720   5.080
 5171SOL    HW216413   2.696   4.769   5.135
 5172SOL     OW16414   2.130   4.436   7.020
 5172SOL    HW116415   2.067   4.509   6.993
 5172SOL    HW216416   2.213   4.476   0.036
 5173SOL     OW16417   6.743   2.990   6.269
 5173SOL    HW116418   6.818   3.054   6.251
 5173SOL    HW216419   6.682   2.987   6.190
 5174SOL     OW16420   1.681   4.732   6.015
 5174SOL    HW116421   1.729   4.812   5.978
 5174SOL    HW216422   1.636   4.683   5.941
 5175SOL     OW16423   0.357   5.235   5.926
 5175SOL    HW116424   0.405   5.212   5.841
 5175SOL    HW216425   0.386   5.326   5.957
 5176SOL     OW16426   5.186   4.161   5.676
 5176SOL    HW116427   5.267   4.110   5.704
 5176SOL    HW216428   5.213   4.251   5.643
 5177SOL     OW16429   5.088   5.736   6.304
 5177SOL    HW116430   5.087   5.722   6.403
 5177SOL    HW216431   5.059   5.651   6.259
 5178SOL     OW16432   2.738   2.211   1.598
 5178SOL    HW116433   2.789   2.209   1.684
 5178SOL    HW216434   2.648   2.168   1.612
 5179SOL     OW16435   3.391   6.254   5.282
 5179SOL    HW116436   3.455   6.280   5.210
 5179SOL    HW216437   3.298   6.256   5.246
 5180SOL     OW16438   2.996   1.485   0.148
 5180SOL    HW116439   2.937   1.434   0.211
 5180SOL    HW216440   2.969   1.465   0.054
 5181SOL     OW16441   2.767   5.879   2.720
 5181SOL    HW116442   2.765   5.900   2.818
 5181SOL    HW216443   2.688   5.821   2.698
 5182SOL     OW16444   4.663   4.175   1.393
 5182SOL    HW116445   4.650   4.186   1.492
 5182SOL    HW216446   4.635   4.082   1.367
 5183SOL     OW16447   3.852   0.946   3.575
 5183SOL    HW116448   3.795   0.888   3.517
 5183SOL    HW216449   3.885   1.024   3.521
 5184SOL     OW16450   0.882   2.101   3.161
 5184SOL    HW116451   0.890   2.007   3.194
 5184SOL    HW216452   0.929   2.109   3.073
 5185SOL     OW16453   3.783   0.001   1.815
 5185SOL    HW116454   3.813   0.087   1.773
 5185SOL    HW216455   3.762   0.017   1.912
 5186SOL     OW16456   5.314   4.741   6.961
 5186SOL    HW116457   5.311   4.839   6.941
 5186SOL    HW216458   5.399   4.718   7.007
 5187SOL     OW16459   5.345   1.572   4.636
 5187SOL    HW116460   5.360   1.592   4.733
 5187SOL    HW216461   5.308   1.479   4.628
 5188SOL     OW16462   1.074   2.747   4.070
 5188SOL    HW116463   1.146   2.792   4.016
 5188SOL    HW216464   1.066   2.652   4.040
 5189SOL     OW16465   4.529   5.737   0.086
 5189SOL    HW116466   4.616   5.745   0.134
 5189SOL    HW216467   4.546   5.730   7.010
 5190SOL     OW16468   2.218   3.032   2.925
 5190SOL    HW116469   2.149   3.040   2.853
 5190SOL    HW216470   2.287   2.965   2.898
 5191SOL     OW16471   5.006   0.625   2.090
 5191SOL    HW116472   5.073   0.687   2.050
 5191SOL    HW216473   5.023   0.532   2.057
 5192SOL     OW16474   6.077   4.448   2.081
 5192SOL    HW116475   6.057   4.434   2.179
 5192SOL    HW216476   6.030   4.531   2.050
 5193SOL     OW16477   4.856   4.015   2.268
 5193SOL    HW116478   4.860   3.930   2.214
 5193SOL    HW216479   4.872   4.093   2.208
 5194SOL     OW16480   5.064   1.228   0.433
 5194SOL    HW116481   4.983   1.213   0.377
 5194SOL    HW216482   5.039   1.272   0.518
 5195SOL     OW16483   6.272   6.340   5.123
 5195SOL    HW116484   6.249   6.315   5.217
 5195SOL    HW216485   6.201   6.399   5.086
 5196SOL     OW16486   0.660   3.257   2.152
 5196SOL    HW116487   0.647   3.199   2.072
 5196SOL    HW216488   0.579   3.253   2.209
 5197SOL     OW16489   3.395   5.842   5.354
 5197SOL    HW116490   3.465   5.786   5.398
 5197SOL    HW216491   3.338   5.785   5.295
 5198SOL     OW16492   4.065   0.776   5.326
 5198SOL    HW116493   4.012   0.816   5.400
 5198SOL    HW216494   4.159   0.763   5.356
 5199SOL     OW16495   0.388   5.462   1.600
 5199SOL    HW116496   0.375   5.521   1.680
 5199SOL    HW216497   0.455   5.503   1.538
 5200SOL     OW16498   0.162   6.847   5.196
 5200SOL    HW116499   0.254   6.883   5.215
 5200SOL    HW216500   0.142   6.858   5.099
 5201SOL     OW16501   6.017   4.720   5.119
 5201SOL    HW116502   6.053   4.812   5.101
 5201SOL    HW216503   5.943   4.700   5.055
 5202SOL     OW16504   3.773   3.042   5.935
 5202SOL    HW116505   3.800   3.034   6.031
 5202SOL    HW216506   3.677   3.017   5.925
 5203SOL     OW16507   1.257   0.210   6.240
 5203SOL    HW116508   1.310   0.287   6.204
 5203SOL    HW216509   1.318   0.139   6.272
 5204SOL     OW16510   2.045   0.616   0.853
 5204SOL    HW116511   2.103   0.661   0.921
 5204SOL    HW216512   2.070   0.519   0.846
 5205SOL     OW16513   6.934   0.134   1.230
 5205SOL    HW116514   6.907   0.230   1.223
 5205SOL    HW216515   6.877   0.078   1.171
 5206SOL     OW16516   1.372   4.227   4.020
 5206SOL    HW116517   1.362   4.319   3.982
 5206SOL    HW216518   1.459   4.187   3.992
 5207SOL     OW16519   5.569   6.787   4.862
 5207SOL    HW116520   5.576   6.688   4.848
 5207SOL    HW216521   5.485   6.808   4.913
 5208SOL     OW16522   6.600   1.733   0.447
 5208SOL    HW116523   6.514   1.752   0.494
 5208SOL    HW216524   6.622   1.636   0.456
 5209SOL     OW16525   5.396   6.645   3.430
 5209SOL    HW116526   5.486   6.659   3.471
 5209SOL    HW216527   5.326   6.682   3.490
 5210SOL     OW16528   5.552   4.498   0.964
 5210SOL    HW116529   5.614   4.555   1.019
 5210SOL    HW216530   5.477   4.465   1.022
 5211SOL     OW16531   5.462   2.767   5.095
 5211SOL    HW116532   5.441   2.801   5.186
 5211SOL    HW216533   5.422   2.676   5.083
 5212SOL     OW16534   0.042   3.766   0.420
 5212SOL    HW116535   0.087   3.764   0.331
 5212SOL    HW216536   6.973   3.725   0.412
 5213SOL     OW16537   4.144   3.481   2.862
 5213SOL    HW116538   4.079   3.409   2.838
 5213SOL    HW216539   4.135   3.501   2.960
 5214SOL     OW16540   5.661   3.135   5.725
 5214SOL    HW116541   5.709   3.053   5.695
 5214SOL    HW216542   5.710   3.176   5.802
 5215SOL     OW16543   7.009   5.067   5.211
 5215SOL    HW116544   7.006   4.967   5.217
 5215SOL    HW216545   0.031   5.095   5.126
 5216SOL     OW16546   5.633   4.999   1.209
 5216SOL    HW116547   5.670   5.047   1.129
 5216SOL    HW216548   5.564   4.934   1.178
 5217SOL     OW16549   4.699   6.877   2.856
 5217SOL    HW116550   4.692   6.926   2.770
 5217SOL    HW216551   4.783   6.902   2.903
 5218SOL     OW16552   6.534   6.858   0.240
 5218SOL    HW116553   6.457   6.910   0.276
 5218SOL    HW216554   6.538   6.769   0.286
 5219SOL     OW16555   3.383   1.089   5.247
 5219SOL    HW116556   3.470   1.079   5.199
 5219SOL    HW216557   3.394   1.058   5.342
 5220SOL     OW16558   2.233   4.852   4.577
 5220SOL    HW116559   2.210   4.810   4.665
 5220SOL    HW216560   2.304   4.922   4.592
 5221SOL     OW16561   5.467   6.283   1.390
 5221SOL    HW116562   5.440   6.200   1.343
 5221SOL    HW216563   5.418   6.361   1.351
 5222SOL     OW16564   0.152   3.471   1.948
 5222SOL    HW116565   0.057   3.501   1.940
 5222SOL    HW216566   0.177   3.467   2.045
 5223SOL     OW16567   6.455   2.624   0.868
 5223SOL    HW116568   6.356   2.631   0.869
 5223SOL    HW216569   6.495   2.699   0.922
 5224SOL     OW16570   1.184   1.406   5.022
 5224SOL    HW116571   1.089   1.408   4.993
 5224SOL    HW216572   1.231   1.330   4.977
 5225SOL     OW16573   6.676   1.734   4.792
 5225SOL    HW116574   6.716   1.649   4.827
 5225SOL    HW216575   6.744   1.807   4.797
 5226SOL     OW16576   0.374   6.230   4.489
 5226SOL    HW116577   0.387   6.136   4.521
 5226SOL    HW216578   0.442   6.289   4.531
 5227SOL     OW16579   0.797   3.481   5.899
 5227SOL    HW116580   0.793   3.578   5.877
 5227SOL    HW216581   0.763   3.428   5.821
 5228SOL     OW16582   0.899   2.136   5.614
 5228SOL    HW116583   0.915   2.037   5.614
 5228SOL    HW216584   0.907   2.171   5.708
 5229SOL     OW16585   3.561   1.849   5.840
 5229SOL    HW116586   3.630   1.912   5.804
 5229SOL    HW216587   3.527   1.883   5.928
 5230SOL     OW16588   6.363   0.116   2.775
 5230SOL    HW116589   6.455   0.097   2.810
 5230SOL    HW216590   6.323   0.031   2.739
 5231SOL     OW16591   6.204   3.608   2.294
 5231SOL    HW116592   6.182   3.512   2.312
 5231SOL    HW216593   6.142   3.645   2.225
 5232SOL     OW16594   1.664   2.353   5.893
 5232SOL    HW116595   1.604   2.408   5.835
 5232SOL    HW216596   1.678   2.399   5.981
 5233SOL     OW16597   3.698   0.067   3.033
 5233SOL    HW116598   3.607   0.081   3.070
 5233SOL    HW216599   3.691   0.046   2.935
 5234SOL     OW16600   2.984   2.612   6.109
 5234SOL    HW116601   2.936   2.595   6.196
 5234SOL    HW216602   2.918   2.640   6.040
 5235SOL     OW16603   2.505   2.066   1.585
 5235SOL    HW116604   2.469   2.106   1.669
 5235SOL    HW216605   2.446   2.090   1.508
 5236SOL     OW16606   3.157   4.940   1.860
 5236SOL    HW116607   3.212   4.868   1.817
 5236SOL    HW216608   3.062   4.909   1.868
 5237SOL     OW16609   1.822   1.820   1.865
 5237SOL    HW116610   1.733   1.864   1.854
 5237SOL    HW216611   1.811   1.735   1.918
 5238SOL     OW16612   6.950   0.205   3.126
 5238SOL    HW116613   0.008   0.169   3.077
 5238SOL    HW216614   6.942   0.160   3.215
 5239SOL     OW16615   2.662   4.600   0.839
 5239SOL    HW116616   2.626   4.678   0.787
 5239SOL    HW216617   2.592   4.530   0.846
 5240SOL     OW16618   2.312   4.000   6.127
 5240SOL    HW116619   2.305   4.079   6.066
 5240SOL    HW216620   2.230   3.994   6.183
 5241SOL     OW16621   2.298   6.578   2.696
 5241SOL    HW116622   2.378   6.519   2.700
 5241SOL    HW216623   2.295   6.636   2.777
 5242SOL     OW16624   3.726   6.571   6.289
 5242SOL    HW116625   3.672   6.523   6.220
 5242SOL    HW216626   3.811   6.521   6.305
 5243SOL     OW16627   2.876   6.019   2.979
 5243SOL    HW116628   2.907   6.076   2.903
 5243SOL    HW216629   2.899   6.063   3.066
 5244SOL     OW16630   4.337   1.182   0.041
 5244SOL    HW116631   4.315   1.119   0.116
 5244SOL    HW216632   4.319   1.137   6.976
 5245SOL     OW16633   3.345   4.194   1.716
 5245SOL    HW116634   3.366   4.105   1.757
 5245SOL    HW216635   3.246   4.203   1.703
 5246SOL     OW16636   5.972   4.096   6.402
 5246SOL    HW116637   5.945   4.173   6.344
 5246SOL    HW216638   6.064   4.112   6.437
 5247SOL     OW16639   5.097   1.877   6.628
 5247SOL    HW116640   5.051   1.965   6.644
 5247SOL    HW216641   5.036   1.815   6.580
 5248SOL     OW16642   5.391   1.475   4.237
 5248SOL    HW116643   5.437   1.564   4.228
 5248SOL    HW216644   5.450   1.413   4.289
 5249SOL     OW16645   6.785   5.049   0.883
 5249SOL    HW116646   6.823   4.959   0.864
 5249SOL    HW216647   6.726   5.077   0.807
 5250SOL     OW16648   2.326   5.415   0.785
 5250SOL    HW116649   2.360   5.333   0.738
 5250SOL    HW216650   2.381   5.432   0.866
 5251SOL     OW16651   0.267   4.882   0.171
 5251SOL    HW116652   0.352   4.930   0.192
 5251SOL    HW216653   0.265   4.859   0.074
 5252SOL     OW16654   3.617   5.762   2.681
 5252SOL    HW116655   3.614   5.731   2.586
 5252SOL    HW216656   3.573   5.852   2.688
 5253SOL     OW16657   0.464   5.802   4.929
 5253SOL    HW116658   0.543   5.752   4.891
 5253SOL    HW216659   0.406   5.738   4.980
 5254SOL     OW16660   4.797   5.942   2.402
 5254SOL    HW116661   4.823   5.867   2.463
 5254SOL    HW216662   4.873   5.962   2.340
 5255SOL     OW16663   6.823   1.581   5.787
 5255SOL    HW116664   6.873   1.629   5.859
 5255SOL    HW216665   6.865   1.492   5.771
 5256SOL     OW16666   6.042   1.850   2.577
 5256SOL    HW116667   6.141   1.858   2.562
 5256SOL    HW216668   6.020   1.878   2.670
 5257SOL     OW16669   4.352   2.037   6.463
 5257SOL    HW116670   4.290   1.976   6.414
 5257SOL    HW216671   4.349   2.015   6.561
 5258SOL     OW16672   4.722   1.566   4.853
 5258SOL    HW116673   4.713   1.467   4.870
 5258SOL    HW216674   4.673   1.616   4.924
 5259SOL     OW16675   5.437   5.154   3.876
 5259SOL    HW116676   5.484   5.227   3.926
 5259SOL    HW216677   5.489   5.069   3.884
 5260SOL     OW16678   2.296   6.238   1.564
 5260SOL    HW116679   2.210   6.208   1.522
 5260SOL    HW216680   2.371   6.225   1.500
 5261SOL     OW16681   5.805   4.545   6.728
 5261SOL    HW116682   5.865   4.615   6.767
 5261SOL    HW216683   5.744   4.587   6.661
 5262SOL     OW16684   1.658   1.294   1.827
 5262SOL    HW116685   1.705   1.375   1.862
 5262SOL    HW216686   1.683   1.280   1.731
 5263SOL     OW16687   1.825   6.436   3.017
 5263SOL    HW116688   1.858   6.525   2.988
 5263SOL    HW216689   1.871   6.364   2.964
 5264SOL     OW16690   6.639   2.494   1.879
 5264SOL    HW116691   6.556   2.451   1.914
 5264SOL    HW216692   6.698   2.425   1.837
 5265SOL     OW16693   6.622   5.760   5.565
 5265SOL    HW116694   6.600   5.678   5.512
 5265SOL    HW216695   6.618   5.840   5.505
 5266SOL     OW16696   1.520   6.712   6.278
 5266SOL    HW116697   1.598   6.769   6.304
 5266SOL    HW216698   1.462   6.697   6.359
 5267SOL     OW16699   5.539   1.983   4.141
 5267SOL    HW116700   5.613   1.953   4.079
 5267SOL    HW216701   5.485   2.054   4.096
 5268SOL     OW16702   5.421   0.134   6.440
 5268SOL    HW116703   5.326   0.156   6.460
 5268SOL    HW216704   5.434   0.035   6.443
 5269SOL     OW16705   1.352   0.403   3.715
 5269SOL    HW116706   1.373   0.477   3.778
 5269SOL    HW216707   1.437   0.361   3.683
 5270SOL     OW16708   0.540   2.006   6.098
 5270SOL    HW116709   0.606   1.993   6.024
 5270SOL    HW216710   0.544   2.101   6.130
 5271SOL     OW16711   1.451   4.705   3.804
 5271SOL    HW116712   1.371   4.749   3.846
 5271SOL    HW216713   1.448   4.719   3.705
 5272SOL     OW16714   4.176   1.169   6.558
 5272SOL    HW116715   4.255   1.132   6.509
 5272SOL    HW216716   4.102   1.101   6.557
 5273SOL     OW16717   3.172   1.835   3.124
 5273SOL    HW116718   3.222   1.911   3.165
 5273SOL    HW216719   3.128   1.865   3.040
 5274SOL     OW16720   5.382   5.054   1.359
 5274SOL    HW116721   5.475   5.075   1.330
 5274SOL    HW216722   5.381   5.028   1.455
 5275SOL     OW16723   4.955   2.084   6.638
 5275SOL    HW116724   5.003   2.149   6.579
 5275SOL    HW216725   4.878   2.130   6.682
 5276SOL     OW16726   4.155   6.566   1.978
 5276SOL    HW116727   4.096   6.539   1.902
 5276SOL    HW216728   4.233   6.618   1.943
 5277SOL     OW16729   2.319   2.699   2.022
 5277SOL    HW116730   2.237   2.656   2.060
 5277SOL    HW216731   2.303   2.798   2.014
 5278SOL     OW16732   3.947   3.704   2.550
 5278SOL    HW116733   3.878   3.656   2.605
 5278SOL    HW216734   4.031   3.714   2.604
 5279SOL     OW16735   1.437   6.087   2.432
 5279SOL    HW116736   1.349   6.112   2.472
 5279SOL    HW216737   1.509   6.093   2.502
 5280SOL     OW16738   3.736   0.936   4.613
 5280SOL    HW116739   3.816   0.880   4.637
 5280SOL    HW216740   3.695   0.901   4.529
 5281SOL     OW16741   6.907   2.483   3.992
 5281SOL    HW116742   6.911   2.395   3.946
 5281SOL    HW216743   6.997   2.527   3.987
 5282SOL     OW16744   4.950   1.606   1.259
 5282SOL    HW116745   4.958   1.590   1.161
 5282SOL    HW216746   4.872   1.553   1.295
 5283SOL     OW16747   4.637   4.619   5.960
 5283SOL    HW116748   4.727   4.588   5.990
 5283SOL    HW216749   4.630   4.718   5.971
 5284SOL     OW16750   4.903   3.013   3.971
 5284SOL    HW116751   4.999   3.013   3.944
 5284SOL    HW216752   4.859   3.097   3.939
 5285SOL     OW16753   4.322   6.612   2.620
 5285SOL    HW116754   4.294   6.696   2.666
 5285SOL    HW216755   4.308   6.534   2.682
 5286SOL     OW16756   2.077   5.206   2.334
 5286SOL    HW116757   2.137   5.199   2.254
 5286SOL    HW216758   2.041   5.299   2.341
 5287SOL     OW16759   0.592   0.901   2.769
 5287SOL    HW116760   0.622   0.806   2.767
 5287SOL    HW216761   0.493   0.904   2.758
 5288SOL     OW16762   4.284   0.490   0.585
 5288SOL    HW116763   4.317   0.540   0.666
 5288SOL    HW216764   4.318   0.535   0.502
 5289SOL     OW16765   1.364   5.680   1.270
 5289SOL    HW116766   1.427   5.667   1.347
 5289SOL    HW216767   1.294   5.746   1.294
 5290SOL     OW16768   5.717   6.157   6.886
 5290SOL    HW116769   5.808   6.176   6.925
 5290SOL    HW216770   5.699   6.059   6.891
 5291SOL     OW16771   1.534   5.633   6.385
 5291SOL    HW116772   1.493   5.707   6.331
 5291SOL    HW216773   1.633   5.638   6.380
 5292SOL     OW16774   5.353   1.480   0.678
 5292SOL    HW116775   5.329   1.488   0.581
 5292SOL    HW216776   5.278   1.514   0.735
 5293SOL     OW16777   1.529   1.637   3.664
 5293SOL    HW116778   1.458   1.701   3.634
 5293SOL    HW216779   1.571   1.671   3.748
 5294SOL     OW16780   4.580   2.868   5.944
 5294SOL    HW116781   4.555   2.879   5.848
 5294SOL    HW216782   4.559   2.952   5.994
 5295SOL     OW16783   6.670   1.197   2.576
 5295SOL    HW116784   6.680   1.099   2.588
 5295SOL    HW216785   6.639   1.216   2.483
 5296SOL     OW16786   0.524   3.102   6.867
 5296SOL    HW116787   0.568   3.101   6.957
 5296SOL    HW216788   0.504   3.197   6.841
 5297SOL     OW16789   1.376   3.043   1.989
 5297SOL    HW116790   1.365   2.999   1.899
 5297SOL    HW216791   1.344   2.981   2.061
 5298SOL     OW16792   1.016   4.357   1.825
 5298SOL    HW116793   0.979   4.297   1.896
 5298SOL    HW216794   0.961   4.349   1.742
 5299SOL     OW16795   3.145   0.179   1.232
 5299SOL    HW116796   3.211   0.230   1.177
 5299SOL    HW216797   3.101   0.240   1.298
 5300SOL     OW16798   0.456   4.976   3.700
 5300SOL    HW116799   0.378   5.030   3.731
 5300SOL    HW216800   0.535   4.995   3.759
 5301SOL     OW16801   4.363   0.513   0.281
 5301SOL    HW116802   4.351   0.611   0.268
 5301SOL    HW216803   4.295   0.464   0.225
 5302SOL     OW16804   6.202   4.023   3.512
 5302SOL    HW116805   6.124   3.976   3.469
 5302SOL    HW216806   6.199   4.120   3.489
 5303SOL     OW16807   2.178   4.992   3.300
 5303SOL    HW116808   2.093   5.038   3.273
 5303SOL    HW216809   2.204   4.925   3.231
 5304SOL     OW16810   4.811   2.917   5.557
 5304SOL    HW116811   4.805   2.945   5.461
 5304SOL    HW216812   4.770   2.826   5.567
 5305SOL     OW16813   2.845   1.367   4.171
 5305SOL    HW116814   2.827   1.461   4.142
 5305SOL    HW216815   2.933   1.336   4.134
 5306SOL     OW16816   2.572   6.346   4.368
 5306SOL    HW116817   2.643   6.414   4.348
 5306SOL    HW216818   2.590   6.263   4.316
 5307SOL     OW16819   4.093   0.092   0.216
 5307SOL    HW116820   4.019   0.152   0.248
 5307SOL    HW216821   4.063   7.019   0.219
 5308SOL     OW16822   6.953   1.193   2.019
 5308SOL    HW116823   6.864   1.204   2.063
 5308SOL    HW216824   6.977   1.096   2.017
 5309SOL     OW16825   3.492   3.773   4.583
 5309SOL    HW116826   3.470   3.706   4.654
 5309SOL    HW216827   3.425   3.767   4.510
 5310SOL     OW16828   5.610   2.992   0.711
 5310SOL    HW116829   5.514   3.020   0.716
 5310SOL    HW216830   5.626   2.941   0.626
 5311SOL     OW16831   0.501   6.402   6.516
 5311SOL    HW116832   0.464   6.423   6.606
 5311SOL    HW216833   0.516   6.303   6.508
 5312SOL     OW16834   0.665   3.095   1.948
 5312SOL    HW116835   0.643   3.005   1.986
 5312SOL    HW216836   0.746   3.087   1.889
 5313SOL     OW16837   0.758   6.485   0.662
 5313SOL    HW116838   0.738   6.447   0.752
 5313SOL    HW216839   0.682   6.545   0.635
 5314SOL     OW16840   3.718   5.588   1.163
 5314SOL    HW116841   3.779   5.519   1.202
 5314SOL    HW216842   3.624   5.569   1.193
 5315SOL     OW16843   5.551   2.575   2.042
 5315SOL    HW116844   5.586   2.594   1.950
 5315SOL    HW216845   5.466   2.524   2.037
 5316SOL     OW16846   5.719   5.334   4.392
 5316SOL    HW116847   5.709   5.235   4.398
 5316SOL    HW216848   5.759   5.359   4.304
 5317SOL     OW16849   6.545   5.363   2.313
 5317SOL    HW116850   6.529   5.454   2.350
 5317SOL    HW216851   6.638   5.334   2.335
 5318SOL     OW16852   0.262   2.399   4.247
 5318SOL    HW116853   0.230   2.304   4.253
 5318SOL    HW216854   0.256   2.441   4.337
 5319SOL     OW16855   3.748   6.996   2.544
 5319SOL    HW116856   3.701   0.043   2.598
 5319SOL    HW216857   3.687   6.919   2.528
 5320SOL     OW16858   6.817   3.553   5.944
 5320SOL    HW116859   6.855   3.479   5.889
 5320SOL    HW216860   6.718   3.540   5.953
 5321SOL     OW16861   2.340   4.567   6.126
 5321SOL    HW116862   2.437   4.562   6.149
 5321SOL    HW216863   2.293   4.621   6.196
 5322SOL     OW16864   2.592   5.969   0.763
 5322SOL    HW116865   2.527   5.999   0.693
 5322SOL    HW216866   2.549   5.900   0.821
 5323SOL     OW16867   5.234   2.892   0.491
 5323SOL    HW116868   5.216   2.797   0.518
 5323SOL    HW216869   5.147   2.942   0.487
 5324SOL     OW16870   4.070   3.077   1.368
 5324SOL    HW116871   4.092   3.013   1.294
 5324SOL    HW216872   4.045   3.025   1.450
 5325SOL     OW16873   4.302   6.535   4.568
 5325SOL    HW116874   4.208   6.502   4.563
 5325SOL    HW216875   4.323   6.589   4.486
 5326SOL     OW16876   0.075   0.160   2.593
 5326SOL    HW116877   0.010   0.170   2.669
 5326SOL    HW216878   0.166   0.190   2.622
 5327SOL     OW16879   0.012   0.405   3.748
 5327SOL    HW116880   0.058   0.394   3.660
 5327SOL    HW216881   7.005   0.500   3.759
 5328SOL     OW16882   3.849   4.740   0.039
 5328SOL    HW116883   3.911   4.809   0.002
 5328SOL    HW216884   3.884   4.707   0.126
 5329SOL     OW16885   0.420   5.397   6.609
 5329SOL    HW116886   0.452   5.451   6.531
 5329SOL    HW216887   0.498   5.362   6.660
 5330SOL     OW16888   3.795   4.144   0.322
 5330SOL    HW116889   3.760   4.148   0.229
 5330SOL    HW216890   3.811   4.048   0.348
 5331SOL     OW16891   5.266   1.240   0.008
 5331SOL    HW116892   5.206   1.241   6.951
 5331SOL    HW216893   5.219   1.196   0.085
 5332SOL     OW16894   5.861   3.124   6.479
 5332SOL    HW116895   5.931   3.128   6.551
 5332SOL    HW216896   5.791   3.193   6.498
 5333SOL     OW16897   1.247   0.950   4.135
 5333SOL    HW116898   1.344   0.932   4.118
 5333SOL    HW216899   1.239   1.029   4.197
 5334SOL     OW16900   3.269   6.304   2.132
 5334SOL    HW116901   3.241   6.231   2.195
 5334SOL    HW216902   3.368   6.304   2.123
 5335SOL     OW16903   0.287   4.491   1.967
 5335SOL    HW116904   0.373   4.538   1.983
 5335SOL    HW216905   0.212   4.547   2.002
 5336SOL     OW16906   1.940   3.311   5.333
 5336SOL    HW116907   1.858   3.361   5.305
 5336SOL    HW216908   2.021   3.360   5.301
 5337SOL     OW16909   6.667   3.341   1.341
 5337SOL    HW116910   6.602   3.328   1.416
 5337SOL    HW216911   6.616   3.365   1.258
 5338SOL     OW16912   6.875   3.230   0.945
 5338SOL    HW116913   6.804   3.208   0.878
 5338SOL    HW216914   6.958   3.178   0.924
 5339SOL     OW16915   5.667   2.615   2.864
 5339SOL    HW116916   5.676   2.714   2.878
 5339SOL    HW216917   5.689   2.566   2.948
 5340SOL     OW16918   4.779   3.060   1.639
 5340SOL    HW116919   4.791   3.159   1.628
 5340SOL    HW216920   4.714   3.042   1.712
 5341SOL     OW16921   4.824   5.047   3.507
 5341SOL    HW116922   4.775   4.984   3.567
 5341SOL    HW216923   4.906   5.003   3.472
 5342SOL     OW16924   6.251   5.444   4.746
 5342SOL    HW116925   6.250   5.355   4.700
 5342SOL    HW216926   6.160   5.463   4.783
 5343SOL     OW16927   3.809   3.413   6.561
 5343SOL    HW116928   3.786   3.449   6.471
 5343SOL    HW216929   3.756   3.330   6.578
 5344SOL     OW16930   6.930   1.633   6.566
 5344SOL    HW116931   7.002   1.698   6.591
 5344SOL    HW216932   6.927   1.559   6.633
 5345SOL     OW16933   3.631   1.462   6.950
 5345SOL    HW116934   3.559   1.462   7.021
 5345SOL    HW216935   3.591   1.487   6.862
 5346SOL     OW16936   3.170   6.372   3.561
 5346SOL    HW116937   3.192   6.285   3.516
 5346SOL    HW216938   3.080   6.364   3.605
 5347SOL     OW16939   5.246   1.568   5.081
 5347SOL    HW116940   5.340   1.553   5.111
 5347SOL    HW216941   5.193   1.485   5.096
 5348SOL     OW16942   5.120   2.990   4.795
 5348SOL    HW116943   5.047   2.989   4.727
 5348SOL    HW216944   5.119   3.077   4.844
 5349SOL     OW16945   0.483   4.377   1.113
 5349SOL    HW116946   0.558   4.368   1.177
 5349SOL    HW216947   0.489   4.304   1.044
 5350SOL     OW16948   0.657   6.813   5.726
 5350SOL    HW116949   0.722   6.755   5.677
 5350SOL    HW216950   0.637   6.772   5.815
 5351SOL     OW16951   0.284   6.288   3.259
 5351SOL    HW116952   0.255   6.271   3.165
 5351SOL    HW216953   0.380   6.261   3.270
 5352SOL     OW16954   1.893   2.777   5.982
 5352SOL    HW116955   1.883   2.876   5.970
 5352SOL    HW216956   1.954   2.758   6.059
 5353SOL     OW16957   3.488   5.926   3.403
 5353SOL    HW116958   3.546   5.851   3.436
 5353SOL    HW216959   3.541   6.011   3.405
 5354SOL     OW16960   4.072   6.366   1.440
 5354SOL    HW116961   4.170   6.366   1.421
 5354SOL    HW216962   4.039   6.272   1.445
 5355SOL     OW16963   5.054   5.984   5.232
 5355SOL    HW116964   5.150   5.969   5.254
 5355SOL    HW216965   5.026   5.920   5.160
 5356SOL     OW16966   1.138   6.646   1.387
 5356SOL    HW116967   1.217   6.707   1.390
 5356SOL    HW216968   1.154   6.567   1.445
 5357SOL     OW16969   6.112   3.453   2.640
 5357SOL    HW116970   6.140   3.405   2.558
 5357SOL    HW216971   6.087   3.387   2.711
 5358SOL     OW16972   6.066   0.824   6.269
 5358SOL    HW116973   6.115   0.739   6.253
 5358SOL    HW216974   6.129   0.901   6.257
 5359SOL     OW16975   2.872   2.461   0.061
 5359SOL    HW116976   2.892   2.433   6.990
 5359SOL    HW216977   2.813   2.392   0.104
 5360SOL     OW16978   5.560   6.101   3.904
 5360SOL    HW116979   5.574   6.166   3.829
 5360SOL    HW216980   5.635   6.109   3.969
 5361SOL     OW16981   1.438   4.014   3.053
 5361SOL    HW116982   1.364   4.026   2.986
 5361SOL    HW216983   1.504   3.947   3.019
 5362SOL     OW16984   6.716   1.305   3.063
 5362SOL    HW116985   6.649   1.242   3.024
 5362SOL    HW216986   6.738   1.276   3.157
 5363SOL     OW16987   5.495   5.594   4.072
 5363SOL    HW116988   5.469   5.637   4.158
 5363SOL    HW216989   5.569   5.646   4.030
 5364SOL     OW16990   4.624   2.563   2.529
 5364SOL    HW116991   4.652   2.598   2.439
 5364SOL    HW216992   4.611   2.640   2.591
 5365SOL     OW16993   3.246   3.860   5.237
 5365SOL    HW116994   3.267   3.945   5.190
 5365SOL    HW216995   3.262   3.871   5.335
 5366SOL     OW16996   0.455   5.354   3.447
 5366SOL    HW116997   0.449   5.454   3.447
 5366SOL    HW216998   0.497   5.324   3.533
 5367SOL     OW16999   6.171   6.183   1.420
 5367SOL    HW117000   6.094   6.181   1.483
 5367SOL    HW217001   6.210   6.275   1.417
 5368SOL     OW17002   0.486   5.307   4.890
 5368SOL    HW117003   0.574   5.298   4.937
 5368SOL    HW217004   0.454   5.402   4.900
 5369SOL     OW17005   4.443   7.014   3.252
 5369SOL    HW117006   4.407   7.008   3.159
 5369SOL    HW217007   4.505   6.937   3.269
 5370SOL     OW17008   2.247   2.344   0.609
 5370SOL    HW117009   2.312   2.337   0.685
 5370SOL    HW217010   2.264   2.429   0.560
 5371SOL     OW17011   6.266   5.343   3.939
 5371SOL    HW117012   6.357   5.368   3.906
 5371SOL    HW217013   6.226   5.275   3.878
 5372SOL     OW17014   1.835   0.086   4.118
 5372SOL    HW117015   1.850   0.028   4.198
 5372SOL    HW217016   1.892   0.053   4.042
 5373SOL     OW17017   3.305   0.648   6.496
 5373SOL    HW117018   3.259   0.563   6.522
 5373SOL    HW217019   3.346   0.638   6.406
 5374SOL     OW17020   1.043   3.718   1.138
 5374SOL    HW117021   1.142   3.707   1.138
 5374SOL    HW217022   1.018   3.797   1.193
 5375SOL     OW17023   2.595   4.630   4.790
 5375SOL    HW117024   2.576   4.650   4.694
 5375SOL    HW217025   2.673   4.568   4.796
 5376SOL     OW17026   1.037   0.769   1.101
 5376SOL    HW117027   1.072   0.839   1.163
 5376SOL    HW217028   0.975   0.811   1.035
 5377SOL     OW17029   0.956   2.222   2.194
 5377SOL    HW117030   0.904   2.146   2.153
 5377SOL    HW217031   1.007   2.270   2.123
 5378SOL     OW17032   5.110   0.282   2.297
 5378SOL    HW117033   5.030   0.227   2.274
 5378SOL    HW217034   5.175   0.280   2.221
 5379SOL     OW17035   2.516   1.841   3.514
 5379SOL    HW117036   2.443   1.841   3.445
 5379SOL    HW217037   2.559   1.751   3.517
 5380SOL     OW17038   5.214   6.207   1.104
 5380SOL    HW117039   5.149   6.155   1.160
 5380SOL    HW217040   5.269   6.266   1.163
 5381SOL     OW17041   3.718   1.793   3.069
 5381SOL    HW117042   3.776   1.866   3.105
 5381SOL    HW217043   3.699   1.810   2.972
 5382SOL     OW17044   3.795   0.737   2.481
 5382SOL    HW117045   3.892   0.714   2.480
 5382SOL    HW217046   3.761   0.744   2.388
 5383SOL     OW17047   2.413   3.326   5.303
 5383SOL    HW117048   2.393   3.231   5.324
 5383SOL    HW217049   2.329   3.381   5.314
 5384SOL     OW17050   5.265   6.659   6.300
 5384SOL    HW117051   5.234   6.629   6.390
 5384SOL    HW217052   5.302   6.582   6.249
 5385SOL     OW17053   3.464   3.569   0.137
 5385SOL    HW117054   3.460   3.476   0.174
 5385SOL    HW217055   3.547   3.580   0.083
 5386SOL     OW17056   4.353   5.080   3.661
 5386SOL    HW117057   4.433   5.139   3.656
 5386SOL    HW217058   4.382   4.984   3.651
 5387SOL     OW17059   1.031   2.483   4.404
 5387SOL    HW117060   1.010   2.438   4.317
 5387SOL    HW217061   1.124   2.519   4.400
 5388SOL     OW17062   6.749   5.965   4.057
 5388SOL    HW117063   6.650   5.964   4.046
 5388SOL    HW217064   6.780   5.876   4.089
 5389SOL     OW17065   5.014   1.578   4.773
 5389SOL    HW117066   4.943   1.600   4.840
 5389SOL    HW217067   5.011   1.646   4.699
 5390SOL     OW17068   5.379   3.549   3.021
 5390SOL    HW117069   5.281   3.567   3.019
 5390SOL    HW217070   5.395   3.452   2.999
 5391SOL     OW17071   4.337   2.280   1.404
 5391SOL    HW117072   4.315   2.223   1.483
 5391SOL    HW217073   4.402   2.351   1.431
 5392SOL     OW17074   5.076   0.730   4.323
 5392SOL    HW117075   5.003   0.665   4.344
 5392SOL    HW217076   5.109   0.715   4.230
 5393SOL     OW17077   4.137   1.170   3.807
 5393SOL    HW117078   4.201   1.170   3.884
 5393SOL    HW217079   4.061   1.232   3.826
 5394SOL     OW17080   0.549   3.321   2.472
 5394SOL    HW117081   0.461   3.273   2.481
 5394SOL    HW217082   0.555   3.393   2.541
 5395SOL     OW17083   0.194   1.172   1.159
 5395SOL    HW117084   0.226   1.110   1.088
 5395SOL    HW217085   0.175   1.262   1.118
 5396SOL     OW17086   3.952   2.780   1.040
 5396SOL    HW117087   3.877   2.771   0.975
 5396SOL    HW217088   3.969   2.692   1.083
 5397SOL     OW17089   0.240   0.302   1.868
 5397SOL    HW117090   0.288   0.240   1.806
 5397SOL    HW217091   0.287   0.390   1.870
 5398SOL     OW17092   6.250   2.470   3.387
 5398SOL    HW117093   6.156   2.442   3.408
 5398SOL    HW217094   6.310   2.391   3.392
 5399SOL     OW17095   2.024   2.467   0.959
 5399SOL    HW117096   1.991   2.546   1.011
 5399SOL    HW217097   2.120   2.482   0.934
 5400SOL     OW17098   4.979   3.214   1.200
 5400SOL    HW117099   5.001   3.246   1.292
 5400SOL    HW217100   5.057   3.230   1.140
 5401SOL     OW17101   5.197   2.961   1.514
 5401SOL    HW117102   5.186   2.895   1.440
 5401SOL    HW217103   5.156   3.048   1.488
 5402SOL     OW17104   1.590   6.479   1.596
 5402SOL    HW117105   1.669   6.507   1.542
 5402SOL    HW217106   1.612   6.486   1.693
 5403SOL     OW17107   5.766   2.265   5.903
 5403SOL    HW117108   5.740   2.225   5.991
 5403SOL    HW217109   5.819   2.348   5.918
 5404SOL     OW17110   4.755   6.483   0.540
 5404SOL    HW117111   4.819   6.444   0.606
 5404SOL    HW217112   4.770   6.441   0.450
 5405SOL     OW17113   7.006   4.970   6.553
 5405SOL    HW117114   0.043   5.048   6.532
 5405SOL    HW217115   0.027   4.913   6.622
 5406SOL     OW17116   2.696   0.896   6.130
 5406SOL    HW117117   2.735   0.811   6.094
 5406SOL    HW217118   2.744   0.920   6.214
 5407SOL     OW17119   1.622   6.873   3.526
 5407SOL    HW117120   1.658   6.901   3.615
 5407SOL    HW217121   1.593   6.954   3.475
 5408SOL     OW17122   2.101   2.343   4.470
 5408SOL    HW117123   2.032   2.289   4.421
 5408SOL    HW217124   2.067   2.437   4.483
 5409SOL     OW17125   1.102   3.152   3.272
 5409SOL    HW117126   1.133   3.241   3.238
 5409SOL    HW217127   1.178   3.107   3.320
 5410SOL     OW17128   6.239   2.528   0.424
 5410SOL    HW117129   6.306   2.588   0.469
 5410SOL    HW217130   6.160   2.516   0.484
 5411SOL     OW17131   3.450   5.504   1.220
 5411SOL    HW117132   3.468   5.459   1.132
 5411SOL    HW217133   3.352   5.497   1.242
 5412SOL     OW17134   1.478   2.459   5.726
 5412SOL    HW117135   1.388   2.433   5.762
 5412SOL    HW217136   1.476   2.457   5.627
 5413SOL     OW17137   6.763   5.168   5.951
 5413SOL    HW117138   6.790   5.231   6.024
 5413SOL    HW217139   6.844   5.129   5.907
 5414SOL     OW17140   5.454   5.392   5.832
 5414SOL    HW117141   5.469   5.410   5.930
 5414SOL    HW217142   5.427   5.297   5.819
 5415SOL     OW17143   1.380   1.820   6.333
 5415SOL    HW117144   1.381   1.890   6.262
 5415SOL    HW217145   1.397   1.730   6.292
 5416SOL     OW17146   3.073   5.979   6.200
 5416SOL    HW117147   3.146   5.912   6.188
 5416SOL    HW217148   3.030   5.965   6.289
 5417SOL     OW17149   5.866   0.494   2.774
 5417SOL    HW117150   5.778   0.523   2.738
 5417SOL    HW217151   5.879   0.397   2.755
 5418SOL     OW17152   0.309   3.705   5.321
 5418SOL    HW117153   0.262   3.785   5.359
 5418SOL    HW217154   0.271   3.684   5.231
 5419SOL     OW17155   3.597   1.732   6.236
 5419SOL    HW117156   3.678   1.714   6.292
 5419SOL    HW217157   3.563   1.647   6.197
 5420SOL     OW17158   1.289   2.385   1.128
 5420SOL    HW117159   1.366   2.449   1.130
 5420SOL    HW217160   1.224   2.413   1.058
 5421SOL     OW17161   4.273   5.280   1.779
 5421SOL    HW117162   4.354   5.258   1.724
 5421SOL    HW217163   4.191   5.277   1.722
 5422SOL     OW17164   2.326   6.070   3.588
 5422SOL    HW117165   2.243   6.079   3.642
 5422SOL    HW217166   2.357   5.975   3.590
 5423SOL     OW17167   4.240   6.667   1.553
 5423SOL    HW117168   4.179   6.636   1.626
 5423SOL    HW217169   4.233   6.766   1.544
 5424SOL     OW17170   4.125   3.383   5.427
 5424SOL    HW117171   4.134   3.370   5.526
 5424SOL    HW217172   4.216   3.396   5.388
 5425SOL     OW17173   1.625   5.381   5.752
 5425SOL    HW117174   1.663   5.469   5.723
 5425SOL    HW217175   1.672   5.351   5.836
 5426SOL     OW17176   0.125   3.972   0.131
 5426SOL    HW117177   0.179   4.004   0.052
 5426SOL    HW217178   0.169   3.891   0.170
 5427SOL     OW17179   5.268   2.330   0.719
 5427SOL    HW117180   5.214   2.336   0.803
 5427SOL    HW217181   5.212   2.355   0.641
 5428SOL     OW17182   4.608   6.056   2.592
 5428SOL    HW117183   4.685   6.022   2.538
 5428SOL    HW217184   4.527   6.003   2.571
 5429SOL     OW17185   2.621   6.835   4.000
 5429SOL    HW117186   2.707   6.870   3.964
 5429SOL    HW217187   2.612   6.860   4.097
 5430SOL     OW17188   1.674   4.309   5.567
 5430SOL    HW117189   1.695   4.380   5.500
 5430SOL    HW217190   1.730   4.228   5.549
 5431SOL     OW17191   4.982   4.686   0.493
 5431SOL    HW117192   4.990   4.780   0.526
 5431SOL    HW217193   4.976   4.623   0.571
 5432SOL     OW17194   0.207   5.207   6.562
 5432SOL    HW117195   0.279   5.277   6.570
 5432SOL    HW217196   0.232   5.128   6.618
 5433SOL     OW17197   3.027   6.842   1.260
 5433SOL    HW117198   2.972   6.766   1.227
 5433SOL    HW217199   3.027   6.843   1.360
 5434SOL     OW17200   5.058   6.189   3.950
 5434SOL    HW117201   5.147   6.146   3.967
 5434SOL    HW217202   5.001   6.127   3.896
 5435SOL     OW17203   6.747   3.829   6.557
 5435SOL    HW117204   6.746   3.850   6.655
 5435SOL    HW217205   6.663   3.779   6.533
 5436SOL     OW17206   1.913   4.378   2.159
 5436SOL    HW117207   1.943   4.309   2.224
 5436SOL    HW217208   1.943   4.353   2.067
 5437SOL     OW17209   3.340   6.094   0.206
 5437SOL    HW117210   3.266   6.034   0.237
 5437SOL    HW217211   3.318   6.189   0.227
 5438SOL     OW17212   5.387   6.867   2.474
 5438SOL    HW117213   5.328   6.828   2.404
 5438SOL    HW217214   5.332   6.912   2.544
 5439SOL     OW17215   1.821   3.952   1.573
 5439SOL    HW117216   1.731   3.910   1.576
 5439SOL    HW217217   1.850   3.976   1.666
 5440SOL     OW17218   5.774   6.686   3.892
 5440SOL    HW117219   5.834   6.648   3.822
 5440SOL    HW217220   5.784   6.633   3.976
 5441SOL     OW17221   6.085   2.112   4.625
 5441SOL    HW117222   6.096   2.046   4.699
 5441SOL    HW217223   6.005   2.088   4.571
 5442SOL     OW17224   2.258   0.493   6.443
 5442SOL    HW117225   2.233   0.400   6.470
 5442SOL    HW217226   2.247   0.555   6.521
 5443SOL     OW17227   6.059   0.532   3.293
 5443SOL    HW117228   5.975   0.496   3.332
 5443SOL    HW217229   6.056   0.524   3.193
 5444SOL     OW17230   0.795   1.477   5.984
 5444SOL    HW117231   0.887   1.517   5.983
 5444SOL    HW217232   0.750   1.496   5.896
 5445SOL     OW17233   6.089   6.753   5.209
 5445SOL    HW117234   6.020   6.805   5.160
 5445SOL    HW217235   6.167   6.812   5.232
 5446SOL     OW17236   1.193   4.848   5.915
 5446SOL    HW117237   1.147   4.769   5.873
 5446SOL    HW217238   1.289   4.850   5.886
 5447SOL     OW17239   6.496   2.128   1.505
 5447SOL    HW117240   6.492   2.028   1.507
 5447SOL    HW217241   6.446   2.165   1.584
 5448SOL     OW17242   6.097   5.042   2.070
 5448SOL    HW117243   6.100   4.956   2.121
 5448SOL    HW217244   6.189   5.068   2.042
 5449SOL     OW17245   2.016   0.228   2.214
 5449SOL    HW117246   1.960   0.201   2.293
 5449SOL    HW217247   2.037   0.325   2.220
 5450SOL     OW17248   4.428   5.838   1.347
 5450SOL    HW117249   4.491   5.836   1.425
 5450SOL    HW217250   4.450   5.915   1.288
 5451SOL     OW17251   0.443   5.981   3.825
 5451SOL    HW117252   0.540   6.001   3.818
 5451SOL    HW217253   0.425   5.888   3.793
 5452SOL     OW17254   2.408   4.330   2.993
 5452SOL    HW117255   2.358   4.251   3.028
 5452SOL    HW217256   2.390   4.341   2.895
 5453SOL     OW17257   5.908   4.515   4.183
 5453SOL    HW117258   5.853   4.431   4.191
 5453SOL    HW217259   5.877   4.581   4.251
 5454SOL     OW17260   5.703   4.021   2.588
 5454SOL    HW117261   5.700   3.928   2.625
 5454SOL    HW217262   5.624   4.036   2.529
 5455SOL     OW17263   2.756   2.063   3.126
 5455SOL    HW117264   2.714   2.069   3.035
 5455SOL    HW217265   2.850   2.098   3.122
 5456SOL     OW17266   5.628   2.143   0.572
 5456SOL    HW117267   5.567   2.131   0.650
 5456SOL    HW217268   5.611   2.072   0.504
 5457SOL     OW17269   6.697   1.021   0.382
 5457SOL    HW117270   6.691   1.003   0.480
 5457SOL    HW217271   6.723   1.116   0.367
 5458SOL     OW17272   5.516   4.827   6.016
 5458SOL    HW117273   5.435   4.886   6.007
 5458SOL    HW217274   5.598   4.884   6.017
 5459SOL     OW17275   2.200   2.855   5.223
 5459SOL    HW117276   2.240   2.763   5.233
 5459SOL    HW217277   2.254   2.908   5.158
 5460SOL     OW17278   0.624   0.333   1.237
 5460SOL    HW117279   0.642   0.287   1.150
 5460SOL    HW217280   0.705   0.330   1.294
 5461SOL     OW17281   6.109   1.336   6.725
 5461SOL    HW117282   6.073   1.272   6.792
 5461SOL    HW217283   6.209   1.326   6.719
 5462SOL     OW17284   5.115   5.287   6.337
 5462SOL    HW117285   5.156   5.319   6.422
 5462SOL    HW217286   5.057   5.208   6.356
 5463SOL     OW17287   1.632   5.033   5.774
 5463SOL    HW117288   1.718   5.055   5.819
 5463SOL    HW217289   1.558   5.087   5.816
 5464SOL     OW17290   2.317   5.078   4.771
 5464SOL    HW117291   2.394   5.066   4.708
 5464SOL    HW217292   2.311   4.998   4.831
 5465SOL     OW17293   0.424   0.182   5.198
 5465SOL    HW117294   0.507   0.200   5.251
 5465SOL    HW217295   0.417   0.249   5.124
 5466SOL     OW17296   5.173   2.189   5.037
 5466SOL    HW117297   5.269   2.191   5.061
 5466SOL    HW217298   5.134   2.280   5.047
 5467SOL     OW17299   5.439   3.113   3.997
 5467SOL    HW117300   5.526   3.078   4.032
 5467SOL    HW217301   5.453   3.204   3.958
 5468SOL     OW17302   6.872   2.749   1.549
 5468SOL    HW117303   6.875   2.847   1.528
 5468SOL    HW217304   6.864   2.735   1.648
 5469SOL     OW17305   4.039   1.877   4.030
 5469SOL    HW117306   3.967   1.829   4.082
 5469SOL    HW217307   4.106   1.811   3.996
 5470SOL     OW17308   3.538   4.932   3.668
 5470SOL    HW117309   3.619   4.965   3.621
 5470SOL    HW217310   3.548   4.947   3.766
 5471SOL     OW17311   5.372   0.751   3.068
 5471SOL    HW117312   5.395   0.848   3.056
 5471SOL    HW217313   5.381   0.704   2.981
 5472SOL     OW17314   2.358   3.713   6.724
 5472SOL    HW117315   2.307   3.633   6.692
 5472SOL    HW217316   2.336   3.730   6.820
 5473SOL     OW17317   2.966   4.835   2.183
 5473SOL    HW117318   2.904   4.838   2.262
 5473SOL    HW217319   2.938   4.761   2.121
 5474SOL     OW17320   1.075   4.833   1.963
 5474SOL    HW117321   1.151   4.897   1.951
 5474SOL    HW217322   1.029   4.852   2.049
 5475SOL     OW17323   1.621   1.556   5.069
 5475SOL    HW117324   1.675   1.612   5.132
 5475SOL    HW217325   1.636   1.588   4.975
 5476SOL     OW17326   2.101   1.055   5.027
 5476SOL    HW117327   2.158   1.113   5.084
 5476SOL    HW217328   2.027   1.016   5.081
 5477SOL     OW17329   2.178   3.008   3.219
 5477SOL    HW117330   2.178   2.969   3.127
 5477SOL    HW217331   2.161   3.106   3.214
 5478SOL     OW17332   5.721   4.136   5.350
 5478SOL    HW117333   5.748   4.221   5.305
 5478SOL    HW217334   5.740   4.058   5.289
 5479SOL     OW17335   5.663   3.377   4.360
 5479SOL    HW117336   5.585   3.316   4.345
 5479SOL    HW217337   5.682   3.429   4.277
 5480SOL     OW17338   1.226   3.835   4.894
 5480SOL    HW117339   1.136   3.819   4.854
 5480SOL    HW217340   1.296   3.791   4.838
 5481SOL     OW17341   3.322   1.576   6.411
 5481SOL    HW117342   3.292   1.658   6.461
 5481SOL    HW217343   3.285   1.580   6.318
 5482SOL     OW17344   5.386   3.449   1.966
 5482SOL    HW117345   5.324   3.401   2.028
 5482SOL    HW217346   5.386   3.546   1.987
 5483SOL     OW17347   6.638   3.143   7.012
 5483SOL    HW117348   6.610   3.114   6.921
 5483SOL    HW217349   6.737   3.137   7.020
 5484SOL     OW17350   6.467   0.335   5.170
 5484SOL    HW117351   6.512   0.268   5.111
 5484SOL    HW217352   6.433   0.411   5.115
 5485SOL     OW17353   2.985   0.689   4.869
 5485SOL    HW117354   2.915   0.730   4.811
 5485SOL    HW217355   3.074   0.730   4.848
 5486SOL     OW17356   1.157   0.403   3.523
 5486SOL    HW117357   1.131   0.498   3.507
 5486SOL    HW217358   1.213   0.397   3.605
 5487SOL     OW17359   4.134   5.194   1.078
 5487SOL    HW117360   4.169   5.209   0.985
 5487SOL    HW217361   4.179   5.113   1.117
 5488SOL     OW17362   4.679   1.508   5.558
 5488SOL    HW117363   4.622   1.570   5.613
 5488SOL    HW217364   4.690   1.422   5.607
 5489SOL     OW17365   6.325   4.399   2.624
 5489SOL    HW117366   6.360   4.413   2.532
 5489SOL    HW217367   6.351   4.308   2.657
 5490SOL     OW17368   2.252   1.838   6.298
 5490SOL    HW117369   2.213   1.900   6.230
 5490SOL    HW217370   2.330   1.883   6.343
 5491SOL     OW17371   0.215   5.705   2.502
 5491SOL    HW117372   0.168   5.779   2.549
 5491SOL    HW217373   0.169   5.618   2.523
 5492SOL     OW17374   1.368   1.420   4.316
 5492SOL    HW117375   1.345   1.323   4.328
 5492SOL    HW217376   1.426   1.450   4.391
 5493SOL     OW17377   2.840   1.894   0.948
 5493SOL    HW117378   2.934   1.889   0.914
 5493SOL    HW217379   2.787   1.956   0.891
 5494SOL     OW17380   6.173   3.014   2.748
 5494SOL    HW117381   6.090   3.070   2.746
 5494SOL    HW217382   6.150   2.922   2.779
 5495SOL     OW17383   3.812   3.224   3.944
 5495SOL    HW117384   3.779   3.264   3.858
 5495SOL    HW217385   3.790   3.286   4.020
 5496SOL     OW17386   4.668   4.766   1.842
 5496SOL    HW117387   4.716   4.801   1.922
 5496SOL    HW217388   4.608   4.837   1.806
 5497SOL     OW17389   5.844   0.169   1.161
 5497SOL    HW117390   5.871   0.132   1.072
 5497SOL    HW217391   5.925   0.205   1.208
 5498SOL     OW17392   4.175   0.641   5.015
 5498SOL    HW117393   4.170   0.544   5.037
 5498SOL    HW217394   4.177   0.694   5.100
 5499SOL     OW17395   0.733   1.164   5.596
 5499SOL    HW117396   0.645   1.196   5.631
 5499SOL    HW217397   0.800   1.239   5.598
 5500SOL     OW17398   2.204   5.984   0.823
 5500SOL    HW117399   2.152   5.987   0.908
 5500SOL    HW217400   2.210   6.076   0.784
 5501SOL     OW17401   2.796   0.361   2.513
 5501SOL    HW117402   2.841   0.402   2.592
 5501SOL    HW217403   2.709   0.407   2.496
 5502SOL     OW17404   4.705   3.088   0.549
 5502SOL    HW117405   4.679   3.176   0.510
 5502SOL    HW217406   4.674   3.083   0.644
 5503SOL     OW17407   0.451   6.304   4.886
 5503SOL    HW117408   0.402   6.383   4.923
 5503SOL    HW217409   0.420   6.287   4.792
 5504SOL     OW17410   3.367   2.094   4.513
 5504SOL    HW117411   3.322   2.006   4.497
 5504SOL    HW217412   3.425   2.117   4.434
 5505SOL     OW17413   3.784   4.630   6.758
 5505SOL    HW117414   3.803   4.533   6.775
 5505SOL    HW217415   3.798   4.682   6.842
 5506SOL     OW17416   6.990   6.588   5.922
 5506SOL    HW117417   6.953   6.500   5.951
 5506SOL    HW217418   0.066   6.590   5.939
 5507SOL     OW17419   3.848   5.899   4.493
 5507SOL    HW117420   3.869   5.812   4.538
 5507SOL    HW217421   3.777   5.946   4.546
 5508SOL     OW17422   1.647   0.351   5.944
 5508SOL    HW117423   1.574   0.330   6.010
 5508SOL    HW217424   1.612   0.342   5.851
 5509SOL     OW17425   6.173   0.192   6.770
 5509SOL    HW117426   6.233   0.227   6.842
 5509SOL    HW217427   6.224   0.127   6.713
 5510SOL     OW17428   5.953   0.272   6.438
 5510SOL    HW117429   5.989   0.282   6.345
 5510SOL    HW217430   5.876   0.335   6.452
 5511SOL     OW17431   6.780   2.491   1.472
 5511SOL    HW117432   6.853   2.441   1.425
 5511SOL    HW217433   6.799   2.589   1.468
 5512SOL     OW17434   0.283   0.440   0.417
 5512SOL    HW117435   0.280   0.356   0.362
 5512SOL    HW217436   0.312   0.418   0.510
 5513SOL     OW17437   3.171   6.227   4.786
 5513SOL    HW117438   3.123   6.284   4.853
 5513SOL    HW217439   3.105   6.179   4.729
 5514SOL     OW17440   5.855   5.457   3.807
 5514SOL    HW117441   5.869   5.377   3.864
 5514SOL    HW217442   5.925   5.526   3.828
 5515SOL     OW17443   6.535   3.613   3.229
 5515SOL    HW117444   6.441   3.581   3.229
 5515SOL    HW217445   6.589   3.562   3.161
 5516SOL     OW17446   1.224   2.956   6.673
 5516SOL    HW117447   1.238   2.871   6.723
 5516SOL    HW217448   1.210   3.031   6.738
 5517SOL     OW17449   2.293   0.831   1.611
 5517SOL    HW117450   2.248   0.916   1.639
 5517SOL    HW217451   2.294   0.825   1.511
 5518SOL     OW17452   5.359   4.657   5.342
 5518SOL    HW117453   5.381   4.684   5.435
 5518SOL    HW217454   5.423   4.585   5.313
 5519SOL     OW17455   5.063   4.006   3.162
 5519SOL    HW117456   5.141   3.957   3.200
 5519SOL    HW217457   5.091   4.098   3.133
 5520SOL     OW17458   1.983   2.709   1.074
 5520SOL    HW117459   2.049   2.771   1.033
 5520SOL    HW217460   1.933   2.756   1.147
 5521SOL     OW17461   4.957   5.588   0.719
 5521SOL    HW117462   4.945   5.631   0.808
 5521SOL    HW217463   4.918   5.496   0.721
 5522SOL     OW17464   2.002   3.284   2.363
 5522SOL    HW117465   1.919   3.229   2.355
 5522SOL    HW217466   2.020   3.330   2.276
 5523SOL     OW17467   3.246   0.797   1.884
 5523SOL    HW117468   3.187   0.818   1.962
 5523SOL    HW217469   3.318   0.867   1.877
 5524SOL     OW17470   5.717   5.946   5.753
 5524SOL    HW117471   5.802   5.896   5.766
 5524SOL    HW217472   5.677   5.922   5.664
 5525SOL     OW17473   6.509   5.715   4.027
 5525SOL    HW117474   6.582   5.690   4.090
 5525SOL    HW217475   6.467   5.632   3.990
 5526SOL     OW17476   5.425   3.215   4.354
 5526SOL    HW117477   5.371   3.141   4.393
 5526SOL    HW217478   5.397   3.231   4.259
 5527SOL     OW17479   2.464   3.171   0.408
 5527SOL    HW117480   2.447   3.098   0.342
 5527SOL    HW217481   2.552   3.214   0.387
 5528SOL     OW17482   6.586   3.420   2.526
 5528SOL    HW117483   6.564   3.512   2.559
 5528SOL    HW217484   6.642   3.373   2.594
 5529SOL     OW17485   1.247   1.166   4.335
 5529SOL    HW117486   1.232   1.153   4.433
 5529SOL    HW217487   1.158   1.174   4.289
 5530SOL     OW17488   0.154   3.121   0.143
 5530SOL    HW117489   0.085   3.074   0.198
 5530SOL    HW217490   0.169   3.071   0.058
 5531SOL     OW17491   1.322   2.730   6.791
 5531SOL    HW117492   1.257   2.696   6.859
 5531SOL    HW217493   1.333   2.662   6.718
 5532SOL     OW17494   1.896   2.312   1.500
 5532SOL    HW117495   1.890   2.261   1.586
 5532SOL    HW217496   1.806   2.315   1.457
 5533SOL     OW17497   3.545   0.384   0.536
 5533SOL    HW117498   3.456   0.363   0.578
 5533SOL    HW217499   3.579   0.471   0.572
 5534SOL     OW17500   0.051   4.699   5.014
 5534SOL    HW117501   0.012   4.742   5.095
 5534SOL    HW217502   7.003   4.694   4.942
 5535SOL     OW17503   5.834   3.389   3.991
 5535SOL    HW117504   5.751   3.443   3.982
 5535SOL    HW217505   5.895   3.432   4.058
 5536SOL     OW17506   2.679   0.176   4.277
 5536SOL    HW117507   2.665   0.262   4.228
 5536SOL    HW217508   2.778   0.158   4.285
 5537SOL     OW17509   4.241   1.542   4.662
 5537SOL    HW117510   4.314   1.610   4.655
 5537SOL    HW217511   4.179   1.551   4.584
 5538SOL     OW17512   5.221   2.671   2.014
 5538SOL    HW117513   5.215   2.754   2.070
 5538SOL    HW217514   5.237   2.592   2.073
 5539SOL     OW17515   2.807   0.029   0.505
 5539SOL    HW117516   2.903   0.004   0.505
 5539SOL    HW217517   2.798   0.128   0.519
 5540SOL     OW17518   5.010   0.341   5.972
 5540SOL    HW117519   5.016   0.416   5.905
 5540SOL    HW217520   4.917   0.304   5.972
 5541SOL     OW17521   4.679   3.184   0.150
 5541SOL    HW117522   4.678   3.262   0.088
 5541SOL    HW217523   4.587   3.169   0.186
 5542SOL     OW17524   4.571   4.204   0.158
 5542SOL    HW117525   4.658   4.214   0.110
 5542SOL    HW217526   4.567   4.114   0.201
 5543SOL     OW17527   1.787   0.539   6.859
 5543SOL    HW117528   1.784   0.450   6.812
 5543SOL    HW217529   1.865   0.592   6.826
 5544SOL     OW17530   4.241   5.087   6.832
 5544SOL    HW117531   4.150   5.084   6.875
 5544SOL    HW217532   4.301   5.145   6.887
 5545SOL     OW17533   4.830   0.958   4.257
 5545SOL    HW117534   4.920   0.915   4.246
 5545SOL    HW217535   4.843   1.056   4.277
 5546SOL     OW17536   0.447   4.939   4.038
 5546SOL    HW117537   0.373   4.879   4.008
 5546SOL    HW217538   0.415   4.995   4.115
 5547SOL     OW17539   5.167   1.961   4.913
 5547SOL    HW117540   5.166   2.049   4.960
 5547SOL    HW217541   5.109   1.896   4.962
 5548SOL     OW17542   0.729   4.604   4.594
 5548SOL    HW117543   0.670   4.627   4.517
 5548SOL    HW217544   0.680   4.545   4.657
 5549SOL     OW17545   4.515   2.907   0.448
 5549SOL    HW117546   4.576   2.978   0.482
 5549SOL    HW217547   4.441   2.893   0.514
 5550SOL     OW17548   2.153   4.410   1.621
 5550SOL    HW117549   2.218   4.398   1.696
 5550SOL    HW217550   2.120   4.320   1.592
 5551SOL     OW17551   2.047   5.553   2.829
 5551SOL    HW117552   2.039   5.472   2.888
 5551SOL    HW217553   1.994   5.627   2.868
 5552SOL     OW17554   1.099   6.756   6.811
 5552SOL    HW117555   1.094   6.707   6.724
 5552SOL    HW217556   1.168   6.828   6.805
 5553SOL     OW17557   5.227   0.513   0.552
 5553SOL    HW117558   5.191   0.548   0.638
 5553SOL    HW217559   5.305   0.569   0.524
 5554SOL     OW17560   6.461   1.429   1.685
 5554SOL    HW117561   6.462   1.337   1.646
 5554SOL    HW217562   6.458   1.497   1.612
 5555SOL     OW17563   1.775   4.899   3.310
 5555SOL    HW117564   1.769   4.835   3.234
 5555SOL    HW217565   1.834   4.976   3.285
 5556SOL     OW17566   0.303   0.806   4.316
 5556SOL    HW117567   0.343   0.896   4.304
 5556SOL    HW217568   0.353   0.739   4.261
 5557SOL     OW17569   3.877   5.978   3.340
 5557SOL    HW117570   3.800   6.018   3.291
 5557SOL    HW217571   3.935   5.928   3.276
 5558SOL     OW17572   4.703   3.935   6.594
 5558SOL    HW117573   4.723   4.023   6.637
 5558SOL    HW217574   4.686   3.948   6.497
 5559SOL     OW17575   3.421   1.164   3.030
 5559SOL    HW117576   3.421   1.197   2.936
 5559SOL    HW217577   3.389   1.236   3.091
 5560SOL     OW17578   0.944   5.355   3.812
 5560SOL    HW117579   0.970   5.264   3.843
 5560SOL    HW217580   0.900   5.347   3.722
 5561SOL     OW17581   3.411   6.327   3.044
 5561SOL    HW117582   3.420   6.343   2.946
 5561SOL    HW217583   3.388   6.413   3.090
 5562SOL     OW17584   3.667   3.835   0.979
 5562SOL    HW117585   3.757   3.793   0.965
 5562SOL    HW217586   3.623   3.849   0.890
 5563SOL     OW17587   2.241   4.666   2.623
 5563SOL    HW117588   2.231   4.591   2.558
 5563SOL    HW217589   2.226   4.632   2.716
 5564SOL     OW17590   5.130   0.827   6.241
 5564SOL    HW117591   5.098   0.903   6.298
 5564SOL    HW217592   5.229   0.838   6.225
 5565SOL     OW17593   3.272   2.025   6.195
 5565SOL    HW117594   3.261   2.123   6.213
 5565SOL    HW217595   3.195   1.993   6.140
 5566SOL     OW17596   1.507   3.852   0.037
 5566SOL    HW117597   1.456   3.869   6.976
 5566SOL    HW217598   1.507   3.935   0.094
 5567SOL     OW17599   0.297   3.756   0.558
 5567SOL    HW117600   0.210   3.762   0.510
 5567SOL    HW217601   0.330   3.848   0.579
 5568SOL     OW17602   4.556   4.965   1.457
 5568SOL    HW117603   4.655   4.956   1.445
 5568SOL    HW217604   4.526   5.052   1.420
 5569SOL     OW17605   2.384   2.787   2.855
 5569SOL    HW117606   2.418   2.774   2.949
 5569SOL    HW217607   2.355   2.700   2.818
 5570SOL     OW17608   6.646   3.887   2.358
 5570SOL    HW117609   6.713   3.817   2.384
 5570SOL    HW217610   6.620   3.873   2.262
 5571SOL     OW17611   6.348   4.449   1.151
 5571SOL    HW117612   6.283   4.402   1.091
 5571SOL    HW217613   6.308   4.460   1.242
 5572SOL     OW17614   1.825   4.301   4.916
 5572SOL    HW117615   1.727   4.305   4.897
 5572SOL    HW217616   1.872   4.375   4.868
 5573SOL     OW17617   3.355   5.221   3.759
 5573SOL    HW117618   3.448   5.250   3.736
 5573SOL    HW217619   3.295   5.239   3.681
 5574SOL     OW17620   0.436   2.518   5.912
 5574SOL    HW117621   0.519   2.574   5.917
 5574SOL    HW217622   0.359   2.569   5.949
 5575SOL     OW17623   0.195   6.889   1.582
 5575SOL    HW117624   0.221   6.809   1.637
 5575SOL    HW217625   0.130   6.945   1.634
 5576SOL     OW17626   1.296   5.222   3.237
 5576SOL    HW117627   1.337   5.259   3.320
 5576SOL    HW217628   1.354   5.243   3.158
 5577SOL     OW17629   2.203   2.759   5.772
 5577SOL    HW117630   2.283   2.820   5.781
 5577SOL    HW217631   2.176   2.727   5.863
 5578SOL     OW17632   3.745   4.038   3.892
 5578SOL    HW117633   3.790   4.013   3.978
 5578SOL    HW217634   3.665   4.094   3.911
 5579SOL     OW17635   0.361   3.215   2.172
 5579SOL    HW117636   0.350   3.285   2.101
 5579SOL    HW217637   0.272   3.196   2.213
 5580SOL     OW17638   5.495   2.429   5.604
 5580SOL    HW117639   5.428   2.501   5.585
 5580SOL    HW217640   5.492   2.406   5.701
 5581SOL     OW17641   1.230   2.516   0.320
 5581SOL    HW117642   1.240   2.478   0.412
 5581SOL    HW217643   1.265   2.450   0.253
 5582SOL     OW17644   2.546   3.082   6.427
 5582SOL    HW117645   2.475   3.013   6.440
 5582SOL    HW217646   2.566   3.126   6.515
 5583SOL     OW17647   5.285   0.699   1.687
 5583SOL    HW117648   5.301   0.798   1.686
 5583SOL    HW217649   5.343   0.657   1.756
 5584SOL     OW17650   1.534   3.273   4.482
 5584SOL    HW117651   1.467   3.204   4.454
 5584SOL    HW217652   1.626   3.242   4.456
 5585SOL     OW17653   5.162   4.743   2.115
 5585SOL    HW117654   5.144   4.835   2.148
 5585SOL    HW217655   5.211   4.692   2.186
 5586SOL     OW17656   6.543   3.747   0.288
 5586SOL    HW117657   6.485   3.707   0.217
 5586SOL    HW217658   6.487   3.769   0.367
 5587SOL     OW17659   5.876   1.246   5.976
 5587SOL    HW117660   5.907   1.240   6.070
 5587SOL    HW217661   5.877   1.156   5.934
 5588SOL     OW17662   3.882   6.690   0.830
 5588SOL    HW117663   3.886   6.595   0.862
 5588SOL    HW217664   3.906   6.752   0.905
 5589SOL     OW17665   5.943   4.868   6.078
 5589SOL    HW117666   5.953   4.904   5.985
 5589SOL    HW217667   5.932   4.769   6.075
 5590SOL     OW17668   6.249   5.723   3.769
 5590SOL    HW117669   6.166   5.739   3.717
 5590SOL    HW217670   6.322   5.694   3.707
 5591SOL     OW17671   5.958   0.813   1.830
 5591SOL    HW117672   6.033   0.877   1.811
 5591SOL    HW217673   5.882   0.863   1.871
 5592SOL     OW17674   1.253   3.781   3.253
 5592SOL    HW117675   1.184   3.710   3.272
 5592SOL    HW217676   1.234   3.822   3.163
 5593SOL     OW17677   6.867   3.494   0.227
 5593SOL    HW117678   6.888   3.591   0.241
 5593SOL    HW217679   6.821   3.483   0.138
 5594SOL     OW17680   6.230   2.392   6.111
 5594SOL    HW117681   6.228   2.448   6.194
 5594SOL    HW217682   6.324   2.387   6.078
 5595SOL     OW17683   0.912   3.124   5.602
 5595SOL    HW117684   1.000   3.163   5.630
 5595SOL    HW217685   0.924   3.074   5.516
 5596SOL     OW17686   3.059   6.450   2.999
 5596SOL    HW117687   3.145   6.441   3.048
 5596SOL    HW217688   2.984   6.458   3.065
 5597SOL     OW17689   5.290   3.002   2.816
 5597SOL    HW117690   5.321   3.074   2.754
 5597SOL    HW217691   5.273   2.918   2.763
 5598SOL     OW17692   5.329   1.752   4.896
 5598SOL    HW117693   5.264   1.824   4.919
 5598SOL    HW217694   5.308   1.670   4.950
 5599SOL     OW17695   0.924   0.740   3.914
 5599SOL    HW117696   1.008   0.788   3.939
 5599SOL    HW217697   0.945   0.644   3.897
 5600SOL     OW17698   1.528   2.066   4.217
 5600SOL    HW117699   1.461   2.127   4.173
 5600SOL    HW217700   1.512   1.972   4.187
 5601SOL     OW17701   2.433   0.297   6.132
 5601SOL    HW117702   2.343   0.253   6.142
 5601SOL    HW217703   2.435   0.381   6.186
 5602SOL     OW17704   1.785   1.466   7.000
 5602SOL    HW117705   1.693   1.432   7.020
 5602SOL    HW217706   1.830   1.493   0.064
 5603SOL     OW17707   5.452   4.308   6.528
 5603SOL    HW117708   5.548   4.281   6.535
 5603SOL    HW217709   5.445   4.397   6.485
 5604SOL     OW17710   6.202   1.684   6.113
 5604SOL    HW117711   6.190   1.737   6.197
 5604SOL    HW217712   6.117   1.686   6.060
 5605SOL     OW17713   0.984   2.559   5.809
 5605SOL    HW117714   0.905   2.564   5.747
 5605SOL    HW217715   1.017   2.651   5.828
 5606SOL     OW17716   5.465   0.330   2.932
 5606SOL    HW117717   5.537   0.272   2.894
 5606SOL    HW217718   5.426   0.286   3.013
 5607SOL     OW17719   6.113   0.950   1.451
 5607SOL    HW117720   6.090   1.037   1.406
 5607SOL    HW217721   6.129   0.880   1.383
 5608SOL     OW17722   4.709   6.596   4.878
 5608SOL    HW117723   4.752   6.521   4.828
 5608SOL    HW217724   4.610   6.584   4.877
 5609SOL     OW17725   2.115   5.709   5.575
 5609SOL    HW117726   2.140   5.734   5.669
 5609SOL    HW217727   2.125   5.610   5.563
 5610SOL     OW17728   4.287   0.394   6.385
 5610SOL    HW117729   4.340   0.332   6.442
 5610SOL    HW217730   4.329   0.484   6.385
 5611SOL     OW17731   1.821   4.824   3.595
 5611SOL    HW117732   1.914   4.861   3.588
 5611SOL    HW217733   1.776   4.832   3.506
 5612SOL     OW17734   1.976   0.673   5.375
 5612SOL    HW117735   1.945   0.700   5.284
 5612SOL    HW217736   1.899   0.636   5.427
 5613SOL     OW17737   3.858   4.920   1.685
 5613SOL    HW117738   3.919   4.876   1.750
 5613SOL    HW217739   3.883   5.017   1.676
 5614SOL     OW17740   4.859   2.263   3.467
 5614SOL    HW117741   4.873   2.311   3.381
 5614SOL    HW217742   4.774   2.293   3.509
 5615SOL     OW17743   1.194   1.466   1.391
 5615SOL    HW117744   1.214   1.516   1.475
 5615SOL    HW217745   1.203   1.527   1.312
 5616SOL     OW17746   2.781   0.135   4.921
 5616SOL    HW117747   2.815   0.110   4.830
 5616SOL    HW217748   2.778   0.234   4.930
 5617SOL     OW17749   0.921   0.950   5.051
 5617SOL    HW117750   0.907   0.857   5.086
 5617SOL    HW217751   0.988   0.997   5.109
 5618SOL     OW17752   6.436   4.614   2.794
 5618SOL    HW117753   6.434   4.546   2.867
 5618SOL    HW217754   6.433   4.568   2.705
 5619SOL     OW17755   2.165   3.532   4.761
 5619SOL    HW117756   2.138   3.487   4.847
 5619SOL    HW217757   2.208   3.620   4.782
 5620SOL     OW17758   3.608   2.477   6.252
 5620SOL    HW117759   3.705   2.495   6.233
 5620SOL    HW217760   3.578   2.534   6.328
 5621SOL     OW17761   1.788   2.184   6.670
 5621SOL    HW117762   1.720   2.217   6.604
 5621SOL    HW217763   1.875   2.170   6.624
 5622SOL     OW17764   6.043   0.775   5.695
 5622SOL    HW117765   6.050   0.732   5.785
 5622SOL    HW217766   6.117   0.741   5.637
 5623SOL     OW17767   0.218   5.532   6.759
 5623SOL    HW117768   0.212   5.610   6.697
 5623SOL    HW217769   0.281   5.464   6.721
 5624SOL     OW17770   0.946   3.954   3.093
 5624SOL    HW117771   0.974   4.048   3.074
 5624SOL    HW217772   0.962   3.898   3.011
 5625SOL     OW17773   6.591   2.316   5.514
 5625SOL    HW117774   6.649   2.241   5.482
 5625SOL    HW217775   6.619   2.401   5.470
 5626SOL     OW17776   4.460   0.045   4.410
 5626SOL    HW117777   4.469   0.135   4.451
 5626SOL    HW217778   4.365   0.015   4.415
 5627SOL     OW17779   1.284   6.082   0.791
 5627SOL    HW117780   1.277   6.148   0.716
 5627SOL    HW217781   1.381   6.060   0.806
 5628SOL     OW17782   1.195   0.846   4.594
 5628SOL    HW117783   1.185   0.843   4.495
 5628SOL    HW217784   1.229   0.936   4.622
 5629SOL     OW17785   3.599   3.276   2.890
 5629SOL    HW117786   3.628   3.181   2.898
 5629SOL    HW217787   3.674   3.336   2.920
 5630SOL     OW17788   7.009   4.536   1.831
 5630SOL    HW117789   6.926   4.488   1.858
 5630SOL    HW217790   0.047   4.547   1.910
 5631SOL     OW17791   4.579   0.571   6.604
 5631SOL    HW117792   4.607   0.476   6.591
 5631SOL    HW217793   4.648   0.620   6.658
 5632SOL     OW17794   3.166   3.317   0.301
 5632SOL    HW117795   3.085   3.318   0.243
 5632SOL    HW217796   3.181   3.225   0.337
 5633SOL     OW17797   6.354   3.069   4.710
 5633SOL    HW117798   6.291   3.123   4.766
 5633SOL    HW217799   6.307   2.989   4.674
 5634SOL     OW17800   4.642   5.893   4.316
 5634SOL    HW117801   4.557   5.921   4.271
 5634SOL    HW217802   4.712   5.963   4.300
 5635SOL     OW17803   3.212   2.113   5.397
 5635SOL    HW117804   3.220   2.152   5.305
 5635SOL    HW217805   3.181   2.018   5.390
 5636SOL     OW17806   3.989   6.186   3.960
 5636SOL    HW117807   4.063   6.243   3.924
 5636SOL    HW217808   3.934   6.151   3.885
 5637SOL     OW17809   6.056   0.022   3.694
 5637SOL    HW117810   5.996   7.001   3.627
 5637SOL    HW217811   6.061   6.987   3.776
 5638SOL     OW17812   5.055   3.529   6.447
 5638SOL    HW117813   5.005   3.496   6.367
 5638SOL    HW217814   5.005   3.603   6.490
 5639SOL     OW17815   2.998   0.237   6.819
 5639SOL    HW117816   2.969   0.142   6.817
 5639SOL    HW217817   3.093   0.243   6.849
 5640SOL     OW17818   2.402   6.956   3.294
 5640SOL    HW117819   2.497   6.938   3.269
 5640SOL    HW217820   2.363   6.876   3.339
 5641SOL     OW17821   6.022   5.741   4.886
 5641SOL    HW117822   6.045   5.724   4.982
 5641SOL    HW217823   5.929   5.778   4.880
 5642SOL     OW17824   1.725   2.085   6.959
 5642SOL    HW117825   1.792   2.014   6.983
 5642SOL    HW217826   1.744   2.118   6.866
 5643SOL     OW17827   5.823   2.167   4.902
 5643SOL    HW117828   5.826   2.263   4.931
 5643SOL    HW217829   5.757   2.118   4.959
 5644SOL     OW17830   2.992   6.976   6.439
 5644SOL    HW117831   3.082   7.010   6.464
 5644SOL    HW217832   2.992   6.945   6.344
 5645SOL     OW17833   5.086   3.604   4.656
 5645SOL    HW117834   5.034   3.527   4.619
 5645SOL    HW217835   5.184   3.584   4.652
 5646SOL     OW17836   1.534   4.248   2.726
 5646SOL    HW117837   1.518   4.150   2.716
 5646SOL    HW217838   1.621   4.272   2.683
 5647SOL     OW17839   6.726   6.506   2.669
 5647SOL    HW117840   6.652   6.440   2.661
 5647SOL    HW217841   6.745   6.547   2.580
 5648SOL     OW17842   4.642   6.327   3.226
 5648SOL    HW117843   4.694   6.361   3.304
 5648SOL    HW217844   4.653   6.228   3.220
 5649SOL     OW17845   1.081   6.568   4.474
 5649SOL    HW117846   0.990   6.533   4.456
 5649SOL    HW217847   1.147   6.493   4.476
 5650SOL     OW17848   6.788   4.173   6.786
 5650SOL    HW117849   6.754   4.254   6.834
 5650SOL    HW217850   6.772   4.183   6.688
 5651SOL     OW17851   2.801   1.005   1.303
 5651SOL    HW117852   2.717   1.038   1.345
 5651SOL    HW217853   2.792   0.907   1.284
 5652SOL     OW17854   0.833   5.898   1.450
 5652SOL    HW117855   0.836   5.822   1.386
 5652SOL    HW217856   0.885   5.874   1.532
 5653SOL     OW17857   0.041   0.057   1.732
 5653SOL    HW117858   0.065   0.152   1.750
 5653SOL    HW217859   6.973   0.037   1.770
 5654SOL     OW17860   3.301   5.617   4.267
 5654SOL    HW117861   3.228   5.565   4.312
 5654SOL    HW217862   3.318   5.702   4.317
 5655SOL     OW17863   6.182   2.525   5.093
 5655SOL    HW117864   6.239   2.569   5.163
 5655SOL    HW217865   6.086   2.542   5.114
 5656SOL     OW17866   6.451   3.192   0.409
 5656SOL    HW117867   6.441   3.143   0.322
 5656SOL    HW217868   6.538   3.242   0.409
 5657SOL     OW17869   5.330   5.773   4.868
 5657SOL    HW117870   5.288   5.719   4.941
 5657SOL    HW217871   5.331   5.720   4.784
 5658SOL     OW17872   2.213   2.881   6.039
 5658SOL    HW117873   2.206   2.981   6.035
 5658SOL    HW217874   2.131   2.844   6.085
 5659SOL     OW17875   2.574   3.709   0.088
 5659SOL    HW117876   2.597   3.685   0.182
 5659SOL    HW217877   2.656   3.701   0.031
 5660SOL     OW17878   4.710   0.770   6.023
 5660SOL    HW117879   4.647   0.811   6.088
 5660SOL    HW217880   4.692   0.672   6.016
 5661SOL     OW17881   1.399   5.512   6.021
 5661SOL    HW117882   1.381   5.561   6.106
 5661SOL    HW217883   1.438   5.574   5.953
 5662SOL     OW17884   3.515   6.552   0.860
 5662SOL    HW117885   3.417   6.532   0.858
 5662SOL    HW217886   3.537   6.605   0.942
 5663SOL     OW17887   1.499   3.376   6.539
 5663SOL    HW117888   1.593   3.356   6.565
 5663SOL    HW217889   1.446   3.291   6.536
 5664SOL     OW17890   4.563   4.729   4.634
 5664SOL    HW117891   4.485   4.763   4.581
 5664SOL    HW217892   4.647   4.775   4.604
 5665SOL     OW17893   1.606   1.513   1.126
 5665SOL    HW117894   1.532   1.447   1.110
 5665SOL    HW217895   1.675   1.504   1.054
 5666SOL     OW17896   5.988   1.878   5.118
 5666SOL    HW117897   6.035   1.945   5.175
 5666SOL    HW217898   6.011   1.786   5.150
 5667SOL     OW17899   2.852   5.088   4.147
 5667SOL    HW117900   2.805   5.003   4.125
 5667SOL    HW217901   2.903   5.119   4.066
 5668SOL     OW17902   4.695   4.196   3.548
 5668SOL    HW117903   4.655   4.229   3.634
 5668SOL    HW217904   4.647   4.237   3.471
 5669SOL     OW17905   5.659   4.086   6.055
 5669SOL    HW117906   5.696   4.026   6.126
 5669SOL    HW217907   5.734   4.123   6.000
 5670SOL     OW17908   1.552   2.292   3.497
 5670SOL    HW117909   1.597   2.362   3.553
 5670SOL    HW217910   1.617   2.219   3.475
 5671SOL     OW17911   0.203   6.101   3.860
 5671SOL    HW117912   0.299   6.081   3.877
 5671SOL    HW217913   0.165   6.150   3.938
 5672SOL     OW17914   5.237   3.025   4.405
 5672SOL    HW117915   5.268   2.940   4.448
 5672SOL    HW217916   5.145   3.048   4.439
 5673SOL     OW17917   1.061   1.356   0.702
 5673SOL    HW117918   1.082   1.348   0.604
 5673SOL    HW217919   1.112   1.286   0.752
 5674SOL     OW17920   2.401   4.645   4.991
 5674SOL    HW117921   2.363   4.554   5.011
 5674SOL    HW217922   2.440   4.646   4.900
 5675SOL     OW17923   2.708   1.439   1.186
 5675SOL    HW117924   2.766   1.515   1.156
 5675SOL    HW217925   2.753   1.353   1.163
 5676SOL     OW17926   2.764   1.248   1.655
 5676SOL    HW117927   2.696   1.290   1.595
 5676SOL    HW217928   2.855   1.280   1.630
 5677SOL     OW17929   6.770   1.518   0.051
 5677SOL    HW117930   6.853   1.478   0.089
 5677SOL    HW217931   6.696   1.451   0.056
 5678SOL     OW17932   3.554   2.005   2.087
 5678SOL    HW117933   3.471   2.042   2.045
 5678SOL    HW217934   3.619   2.080   2.103
 5679SOL     OW17935   6.437   3.333   5.025
 5679SOL    HW117936   6.478   3.395   4.959
 5679SOL    HW217937   6.345   3.308   4.995
 5680SOL     OW17938   0.692   5.727   4.777
 5680SOL    HW117939   0.773   5.784   4.763
 5680SOL    HW217940   0.717   5.630   4.772
 5681SOL     OW17941   1.168   3.298   3.933
 5681SOL    HW117942   1.226   3.219   3.953
 5681SOL    HW217943   1.084   3.267   3.890
 5682SOL     OW17944   2.112   4.803   1.410
 5682SOL    HW117945   2.184   4.735   1.398
 5682SOL    HW217946   2.142   4.871   1.477
 5683SOL     OW17947   6.398   0.664   5.727
 5683SOL    HW117948   6.353   0.717   5.654
 5683SOL    HW217949   6.390   0.567   5.706
 5684SOL     OW17950   2.345   2.793   4.899
 5684SOL    HW117951   2.421   2.731   4.917
 5684SOL    HW217952   2.347   2.869   4.965
 5685SOL     OW17953   2.533   1.806   2.215
 5685SOL    HW117954   2.555   1.902   2.195
 5685SOL    HW217955   2.592   1.772   2.287
 5686SOL     OW17956   4.548   5.850   6.130
 5686SOL    HW117957   4.450   5.860   6.119
 5686SOL    HW217958   4.569   5.823   6.224
 5687SOL     OW17959   1.852   6.403   6.241
 5687SOL    HW117960   1.798   6.416   6.158
 5687SOL    HW217961   1.949   6.399   6.217
 5688SOL     OW17962   2.015   2.052   2.652
 5688SOL    HW117963   2.087   2.000   2.697
 5688SOL    HW217964   2.028   2.051   2.553
 5689SOL     OW17965   0.129   2.331   1.568
 5689SOL    HW117966   0.227   2.342   1.549
 5689SOL    HW217967   0.076   2.367   1.491
 5690SOL     OW17968   2.198   4.937   6.849
 5690SOL    HW117969   2.104   4.909   6.829
 5690SOL    HW217970   2.198   5.009   6.918
 5691SOL     OW17971   4.035   1.495   3.327
 5691SOL    HW117972   4.083   1.530   3.407
 5691SOL    HW217973   4.102   1.454   3.264
 5692SOL     OW17974   5.664   4.997   2.028
 5692SOL    HW117975   5.698   4.915   1.981
 5692SOL    HW217976   5.567   4.985   2.048
 5693SOL     OW17977   4.081   0.432   1.365
 5693SOL    HW117978   4.166   0.434   1.313
 5693SOL    HW217979   4.065   0.523   1.405
 5694SOL     OW17980   1.152   6.908   1.183
 5694SOL    HW117981   1.125   6.837   1.119
 5694SOL    HW217982   1.240   6.884   1.224
 5695SOL     OW17983   2.294   0.603   1.729
 5695SOL    HW117984   2.200   0.571   1.735
 5695SOL    HW217985   2.296   0.694   1.687
 5696SOL     OW17986   1.424   0.389   4.221
 5696SOL    HW117987   1.493   0.462   4.227
 5696SOL    HW217988   1.467   0.304   4.193
 5697SOL     OW17989   6.153   2.661   0.855
 5697SOL    HW117990   6.188   2.673   0.947
 5697SOL    HW217991   6.121   2.749   0.819
 5698SOL     OW17992   3.027   2.236   4.502
 5698SOL    HW117993   3.008   2.279   4.590
 5698SOL    HW217994   3.014   2.137   4.509
 5699SOL     OW17995   1.968   2.890   2.428
 5699SOL    HW117996   1.956   2.791   2.416
 5699SOL    HW217997   2.042   2.922   2.369
 5700SOL     OW17998   6.153   0.267   2.899
 5700SOL    HW117999   6.218   0.209   2.849
 5700SOL    HW218000   6.197   0.354   2.920
 5701SOL     OW18001   0.262   0.424   0.702
 5701SOL    HW118002   0.165   0.402   0.713
 5701SOL    HW218003   0.311   0.403   0.787
 5702SOL     OW18004   2.431   0.002   4.704
 5702SOL    HW118005   2.331   0.002   4.700
 5702SOL    HW218006   2.461   6.993   4.793
 5703SOL     OW18007   0.692   3.269   6.393
 5703SOL    HW118008   0.786   3.234   6.399
 5703SOL    HW218009   0.628   3.201   6.428
 5704SOL     OW18010   4.022   5.811   4.285
 5704SOL    HW118011   4.003   5.857   4.198
 5704SOL    HW218012   3.974   5.858   4.359
 5705SOL     OW18013   6.107   0.478   5.851
 5705SOL    HW118014   6.013   0.456   5.877
 5705SOL    HW218015   6.140   0.410   5.785
 5706SOL     OW18016   4.638   1.913   0.553
 5706SOL    HW118017   4.685   1.825   0.541
 5706SOL    HW218018   4.540   1.896   0.565
 5707SOL     OW18019   5.755   5.246   1.717
 5707SOL    HW118020   5.658   5.267   1.728
 5707SOL    HW218021   5.787   5.195   1.796
 5708SOL     OW18022   5.291   6.728   2.250
 5708SOL    HW118023   5.385   6.698   2.232
 5708SOL    HW218024   5.240   6.654   2.293
 5709SOL     OW18025   0.195   2.341   2.428
 5709SOL    HW118026   0.210   2.432   2.389
 5709SOL    HW218027   0.192   2.348   2.528
 5710SOL     OW18028   3.476   2.125   0.472
 5710SOL    HW118029   3.462   2.055   0.402
 5710SOL    HW218030   3.559   2.104   0.524
 5711SOL     OW18031   5.592   2.041   2.915
 5711SOL    HW118032   5.625   2.018   2.823
 5711SOL    HW218033   5.579   1.957   2.968
 5712SOL     OW18034   6.661   0.383   0.226
 5712SOL    HW118035   6.705   0.473   0.219
 5712SOL    HW218036   6.607   0.378   0.309
 5713SOL     OW18037   2.185   1.150   0.439
 5713SOL    HW118038   2.141   1.144   0.528
 5713SOL    HW218039   2.266   1.209   0.445
 5714SOL     OW18040   6.251   0.606   0.669
 5714SOL    HW118041   6.301   0.524   0.699
 5714SOL    HW218042   6.302   0.650   0.595
 5715SOL     OW18043   0.627   0.170   2.375
 5715SOL    HW118044   0.667   0.127   2.455
 5715SOL    HW218045   0.537   0.208   2.398
 5716SOL     OW18046   6.051   4.240   5.120
 5716SOL    HW118047   6.093   4.331   5.114
 5716SOL    HW218048   5.971   4.236   5.060
 5717SOL     OW18049   1.534   5.055   3.293
 5717SOL    HW118050   1.612   4.994   3.306
 5717SOL    HW218051   1.469   5.013   3.230
 5718SOL     OW18052   1.121   3.080   6.901
 5718SOL    HW118053   1.114   3.036   6.991
 5718SOL    HW218054   1.052   3.151   6.893
 5719SOL     OW18055   2.445   3.137   0.801
 5719SOL    HW118056   2.514   3.082   0.754
 5719SOL    HW218057   2.487   3.222   0.833
 5720SOL     OW18058   3.175   4.720   5.592
 5720SOL    HW118059   3.102   4.693   5.529
 5720SOL    HW218060   3.234   4.641   5.610
 5721SOL     OW18061   1.742   2.907   6.953
 5721SOL    HW118062   1.740   2.952   0.020
 5721SOL    HW218063   1.836   2.879   6.932
 5722SOL     OW18064   1.123   0.339   0.031
 5722SOL    HW118065   1.198   0.275   0.047
 5722SOL    HW218066   1.077   0.316   6.968
 5723SOL     OW18067   4.012   3.102   0.749
 5723SOL    HW118068   3.920   3.087   0.713
 5723SOL    HW218069   4.073   3.129   0.675
 5724SOL     OW18070   5.510   2.349   5.862
 5724SOL    HW118071   5.454   2.293   5.924
 5724SOL    HW218072   5.604   2.314   5.862
 5725SOL     OW18073   0.267   4.229   5.004
 5725SOL    HW118074   0.239   4.325   4.994
 5725SOL    HW218075   0.250   4.180   4.918
 5726SOL     OW18076   5.450   4.430   2.380
 5726SOL    HW118077   5.472   4.394   2.289
 5726SOL    HW218078   5.525   4.410   2.442
 5727SOL     OW18079   0.743   2.360   5.174
 5727SOL    HW118080   0.726   2.272   5.218
 5727SOL    HW218081   0.657   2.402   5.147
 5728SOL     OW18082   4.804   0.282   5.176
 5728SOL    HW118083   4.835   0.265   5.082
 5728SOL    HW218084   4.883   0.291   5.236
 5729SOL     OW18085   2.995   1.878   4.785
 5729SOL    HW118086   2.949   1.817   4.720
 5729SOL    HW218087   3.003   1.969   4.745
 5730SOL     OW18088   6.932   4.397   4.798
 5730SOL    HW118089   6.839   4.418   4.766
 5730SOL    HW218090   6.931   4.312   4.850
 5731SOL     OW18091   0.861   6.980   2.987
 5731SOL    HW118092   0.861   6.983   2.887
 5731SOL    HW218093   0.908   6.897   3.018
 5732SOL     OW18094   0.312   0.565   3.522
 5732SOL    HW118095   0.346   0.598   3.610
 5732SOL    HW218096   0.332   0.633   3.451
 5733SOL     OW18097   3.172   0.175   5.606
 5733SOL    HW118098   3.164   0.154   5.508
 5733SOL    HW218099   3.269   0.182   5.630
 5734SOL     OW18100   1.800   6.838   3.799
 5734SOL    HW118101   1.868   6.850   3.871
 5734SOL    HW218102   1.805   6.915   3.735
 5735SOL     OW18103   3.178   0.931   2.151
 5735SOL    HW118104   3.145   0.976   2.233
 5735SOL    HW218105   3.225   0.846   2.175
 5736SOL     OW18106   1.182   5.800   6.988
 5736SOL    HW118107   1.134   5.713   6.975
 5736SOL    HW218108   1.259   5.786   0.028
 5737SOL     OW18109   5.403   4.473   0.506
 5737SOL    HW118110   5.357   4.531   0.438
 5737SOL    HW218111   5.471   4.416   0.460
 5738SOL     OW18112   1.416   4.259   5.720
 5738SOL    HW118113   1.508   4.249   5.681
 5738SOL    HW218114   1.348   4.237   5.650
 5739SOL     OW18115   0.978   2.314   1.734
 5739SOL    HW118116   0.902   2.252   1.710
 5739SOL    HW218117   1.064   2.276   1.700
 5740SOL     OW18118   3.676   5.764   6.594
 5740SOL    HW118119   3.612   5.722   6.659
 5740SOL    HW218120   3.732   5.692   6.552
 5741SOL     OW18121   0.081   4.647   2.083
 5741SOL    HW118122   0.018   4.584   2.128
 5741SOL    HW218123   0.060   4.741   2.112
 5742SOL     OW18124   0.191   5.868   4.378
 5742SOL    HW118125   0.212   5.804   4.451
 5742SOL    HW218126   0.182   5.960   4.416
 5743SOL     OW18127   1.626   6.475   4.123
 5743SOL    HW118128   1.558   6.411   4.158
 5743SOL    HW218129   1.690   6.498   4.196
 5744SOL     OW18130   5.710   0.047   1.931
 5744SOL    HW118131   5.799   0.090   1.943
 5744SOL    HW218132   5.665   0.084   1.850
 5745SOL     OW18133   1.428   2.407   3.194
 5745SOL    HW118134   1.388   2.371   3.278
 5745SOL    HW218135   1.363   2.468   3.150
 5746SOL     OW18136   6.574   4.612   0.036
 5746SOL    HW118137   6.659   4.654   0.068
 5746SOL    HW218138   6.526   4.572   0.115
 5747SOL     OW18139   0.752   6.427   3.191
 5747SOL    HW118140   0.713   6.519   3.180
 5747SOL    HW218141   0.697   6.362   3.139
 5748SOL     OW18142   2.022   6.492   3.691
 5748SOL    HW118143   2.002   6.590   3.704
 5748SOL    HW218144   2.042   6.474   3.595
 5749SOL     OW18145   2.203   1.206   2.944
 5749SOL    HW118146   2.255   1.141   3.000
 5749SOL    HW218147   2.106   1.183   2.947
 5750SOL     OW18148   6.056   5.807   2.343
 5750SOL    HW118149   6.000   5.793   2.425
 5750SOL    HW218150   6.020   5.885   2.292
 5751SOL     OW18151   1.291   3.124   6.235
 5751SOL    HW118152   1.220   3.099   6.171
 5751SOL    HW218153   1.341   3.204   6.200
 5752SOL     OW18154   0.461   1.156   6.732
 5752SOL    HW118155   0.492   1.061   6.740
 5752SOL    HW218156   0.410   1.181   6.814
 5753SOL     OW18157   4.284   1.776   0.652
 5753SOL    HW118158   4.334   1.696   0.685
 5753SOL    HW218159   4.240   1.822   0.730
 5754SOL     OW18160   6.383   5.253   0.543
 5754SOL    HW118161   6.342   5.199   0.469
 5754SOL    HW218162   6.310   5.291   0.600
 5755SOL     OW18163   3.239   3.722   1.583
 5755SOL    HW118164   3.209   3.817   1.593
 5755SOL    HW218165   3.194   3.680   1.504
 5756SOL     OW18166   7.016   6.509   4.417
 5756SOL    HW118167   6.976   6.492   4.327
 5756SOL    HW218168   6.977   6.592   4.456
 5757SOL     OW18169   0.274   6.490   2.129
 5757SOL    HW118170   0.290   6.437   2.212
 5757SOL    HW218171   0.348   6.557   2.116
 5758SOL     OW18172   2.268   1.352   6.014
 5758SOL    HW118173   2.186   1.367   6.068
 5758SOL    HW218174   2.273   1.256   5.986
 5759SOL     OW18175   0.561   1.792   5.652
 5759SOL    HW118176   0.641   1.743   5.687
 5759SOL    HW218177   0.483   1.729   5.646
 5760SOL     OW18178   1.276   5.076   1.740
 5760SOL    HW118179   1.239   5.069   1.833
 5760SOL    HW218180   1.233   5.153   1.693
 5761SOL     OW18181   5.604   0.338   4.693
 5761SOL    HW118182   5.692   0.321   4.738
 5761SOL    HW218183   5.612   0.420   4.635
 5762SOL     OW18184   5.814   6.334   1.570
 5762SOL    HW118185   5.817   6.300   1.476
 5762SOL    HW218186   5.722   6.321   1.607
 5763SOL     OW18187   1.412   1.232   1.105
 5763SOL    HW118188   1.319   1.268   1.112
 5763SOL    HW218189   1.428   1.195   1.014
 5764SOL     OW18190   4.664   2.915   6.284
 5764SOL    HW118191   4.757   2.886   6.260
 5764SOL    HW218192   4.600   2.840   6.267
 5765SOL     OW18193   6.441   5.571   0.203
 5765SOL    HW118194   6.478   5.512   0.131
 5765SOL    HW218195   6.398   5.651   0.161
 5766SOL     OW18196   3.236   1.192   3.344
 5766SOL    HW118197   3.305   1.253   3.304
 5766SOL    HW218198   3.215   1.222   3.437
 5767SOL     OW18199   6.101   0.759   0.848
 5767SOL    HW118200   6.008   0.726   0.832
 5767SOL    HW218201   6.165   0.708   0.791
 5768SOL     OW18202   6.280   0.986   2.654
 5768SOL    HW118203   6.269   1.031   2.565
 5768SOL    HW218204   6.330   0.901   2.642
 5769SOL     OW18205   2.147   5.592   3.458
 5769SOL    HW118206   2.063   5.597   3.404
 5769SOL    HW218207   2.126   5.601   3.555
 5770SOL     OW18208   5.727   2.001   1.915
 5770SOL    HW118209   5.653   2.060   1.884
 5770SOL    HW218210   5.768   1.954   1.837
 5771SOL     OW18211   0.457   1.017   0.765
 5771SOL    HW118212   0.492   0.957   0.692
 5771SOL    HW218213   0.395   1.084   0.725
 5772SOL     OW18214   6.435   4.266   6.608
 5772SOL    HW118215   6.503   4.212   6.559
 5772SOL    HW218216   6.427   4.232   6.702
 5773SOL     OW18217   5.145   6.060   4.904
 5773SOL    HW118218   5.234   6.027   4.936
 5773SOL    HW218219   5.158   6.113   4.820
 5774SOL     OW18220   2.669   4.724   2.747
 5774SOL    HW118221   2.647   4.653   2.681
 5774SOL    HW218222   2.724   4.795   2.702
 5775SOL     OW18223   0.663   0.636   0.501
 5775SOL    HW118224   0.760   0.609   0.504
 5775SOL    HW218225   0.627   0.621   0.409
 5776SOL     OW18226   4.425   1.215   5.878
 5776SOL    HW118227   4.347   1.238   5.820
 5776SOL    HW218228   4.392   1.188   5.968
 5777SOL     OW18229   5.776   0.421   5.480
 5777SOL    HW118230   5.767   0.483   5.558
 5777SOL    HW218231   5.747   0.329   5.506
 5778SOL     OW18232   2.521   6.312   4.013
 5778SOL    HW118233   2.543   6.410   4.018
 5778SOL    HW218234   2.598   6.262   3.974
 5779SOL     OW18235   4.519   0.396   0.791
 5779SOL    HW118236   4.423   0.405   0.817
 5779SOL    HW218237   4.544   0.470   0.729
 5780SOL     OW18238   5.843   3.847   0.601
 5780SOL    HW118239   5.762   3.838   0.543
 5780SOL    HW218240   5.886   3.757   0.610
 5781SOL     OW18241   3.149   4.669   5.224
 5781SOL    HW118242   3.063   4.638   5.184
 5781SOL    HW218243   3.131   4.743   5.289
 5782SOL     OW18244   4.467   1.806   3.311
 5782SOL    HW118245   4.472   1.903   3.286
 5782SOL    HW218246   4.458   1.750   3.229
 5783SOL     OW18247   2.587   6.932   1.931
 5783SOL    HW118248   2.679   6.894   1.932
 5783SOL    HW218249   2.521   6.860   1.952
 5784SOL     OW18250   1.211   5.976   6.765
 5784SOL    HW118251   1.285   6.043   6.770
 5784SOL    HW218252   1.206   5.925   6.850
 5785SOL     OW18253   2.079   2.042   6.850
 5785SOL    HW118254   2.026   1.961   6.875
 5785SOL    HW218255   2.044   2.080   6.764
 5786SOL     OW18256   0.343   2.410   6.171
 5786SOL    HW118257   0.313   2.401   6.077
 5786SOL    HW218258   0.295   2.485   6.215
 5787SOL     OW18259   0.345   2.704   5.324
 5787SOL    HW118260   0.337   2.794   5.280
 5787SOL    HW218261   0.288   2.702   5.406
 5788SOL     OW18262   0.460   2.016   1.828
 5788SOL    HW118263   0.453   2.060   1.917
 5788SOL    HW218264   0.548   1.968   1.822
 5789SOL     OW18265   2.997   5.286   6.704
 5789SOL    HW118266   3.093   5.284   6.730
 5789SOL    HW218267   2.973   5.204   6.653
 5790SOL     OW18268   6.533   6.333   2.612
 5790SOL    HW118269   6.539   6.295   2.520
 5790SOL    HW218270   6.466   6.407   2.613
 5791SOL     OW18271   3.776   0.866   1.265
 5791SOL    HW118272   3.742   0.876   1.359
 5791SOL    HW218273   3.701   0.838   1.205
 5792SOL     OW18274   4.707   2.313   2.355
 5792SOL    HW118275   4.781   2.378   2.333
 5792SOL    HW218276   4.657   2.291   2.271
 5793SOL     OW18277   3.669   1.764   0.004
 5793SOL    HW118278   3.742   1.787   0.067
 5793SOL    HW218279   3.679   1.668   6.997
 5794SOL     OW18280   3.409   5.859   6.795
 5794SOL    HW118281   3.490   5.846   6.852
 5794SOL    HW218282   3.401   5.784   6.730
 5795SOL     OW18283   1.332   6.903   0.865
 5795SOL    HW118284   1.275   6.979   0.834
 5795SOL    HW218285   1.282   6.849   0.933
 5796SOL     OW18286   4.814   1.156   6.219
 5796SOL    HW118287   4.766   1.238   6.250
 5796SOL    HW218288   4.852   1.108   6.298
 5797SOL     OW18289   0.406   2.439   6.986
 5797SOL    HW118290   0.473   2.511   6.968
 5797SOL    HW218291   0.391   2.432   0.062
 5798SOL     OW18292   2.051   2.605   4.519
 5798SOL    HW118293   2.110   2.665   4.465
 5798SOL    HW218294   2.001   2.660   4.586
 5799SOL     OW18295   2.662   0.305   3.532
 5799SOL    HW118296   2.662   0.274   3.436
 5799SOL    HW218297   2.652   0.404   3.534
 5800SOL     OW18298   1.073   6.472   1.965
 5800SOL    HW118299   1.168   6.499   1.953
 5800SOL    HW218300   1.049   6.474   2.062
 5801SOL     OW18301   1.896   1.549   2.972
 5801SOL    HW118302   1.813   1.596   3.002
 5801SOL    HW218303   1.954   1.612   2.921
 5802SOL     OW18304   0.615   7.005   3.163
 5802SOL    HW118305   0.690   6.986   3.100
 5802SOL    HW218306   0.640   6.977   3.255
 5803SOL     OW18307   0.294   6.610   4.731
 5803SOL    HW118308   0.301   6.606   4.632
 5803SOL    HW218309   0.386   6.606   4.771
 5804SOL     OW18310   6.640   2.294   3.229
 5804SOL    HW118311   6.723   2.306   3.174
 5804SOL    HW218312   6.628   2.197   3.251
 5805SOL     OW18313   0.992   2.579   1.773
 5805SOL    HW118314   0.985   2.483   1.746
 5805SOL    HW218315   0.900   2.614   1.793
 5806SOL     OW18316   6.622   3.783   2.112
 5806SOL    HW118317   6.720   3.806   2.111
 5806SOL    HW218318   6.572   3.852   2.060
 5807SOL     OW18319   0.963   1.579   2.115
 5807SOL    HW118320   0.923   1.670   2.123
 5807SOL    HW218321   0.892   1.514   2.088
 5808SOL     OW18322   0.036   0.607   5.497
 5808SOL    HW118323   6.999   0.530   5.473
 5808SOL    HW218324   0.097   0.581   5.572
 5809SOL     OW18325   0.026   3.661   4.407
 5809SOL    HW118326   0.053   3.695   4.317
 5809SOL    HW218327   0.061   3.568   4.418
 5810SOL     OW18328   2.023   6.404   5.616
 5810SOL    HW118329   1.979   6.452   5.540
 5810SOL    HW218330   2.049   6.312   5.586
 5811SOL     OW18331   4.022   4.982   6.601
 5811SOL    HW118332   4.021   5.078   6.628
 5811SOL    HW218333   3.929   4.953   6.577
 5812SOL     OW18334   6.166   3.519   6.267
 5812SOL    HW118335   6.162   3.458   6.347
 5812SOL    HW218336   6.175   3.613   6.298
 5813SOL     OW18337   5.232   4.477   0.719
 5813SOL    HW118338   5.238   4.559   0.776
 5813SOL    HW218339   5.282   4.492   0.634
 5814SOL     OW18340   5.854   1.112   2.673
 5814SOL    HW118341   5.900   1.025   2.694
 5814SOL    HW218342   5.887   1.183   2.736
 5815SOL     OW18343   6.549   3.839   4.755
 5815SOL    HW118344   6.577   3.932   4.730
 5815SOL    HW218345   6.623   3.794   4.804
 5816SOL     OW18346   6.722   4.043   1.255
 5816SOL    HW118347   6.707   4.092   1.341
 5816SOL    HW218348   6.686   3.950   1.262
 5817SOL     OW18349   6.801   2.699   3.846
 5817SOL    HW118350   6.817   2.628   3.915
 5817SOL    HW218351   6.888   2.737   3.816
 5818SOL     OW18352   2.832   0.299   4.536
 5818SOL    HW118353   2.742   0.281   4.575
 5818SOL    HW218354   2.867   0.215   4.494
 5819SOL     OW18355   4.555   4.395   1.169
 5819SOL    HW118356   4.641   4.362   1.131
 5819SOL    HW218357   4.480   4.368   1.109
 5820SOL     OW18358   0.009   6.995   2.811
 5820SOL    HW118359   6.957   6.980   2.876
 5820SOL    HW218360   0.097   6.983   2.857
 5821SOL     OW18361   6.438   6.578   1.987
 5821SOL    HW118362   6.419   6.594   1.890
 5821SOL    HW218363   6.437   6.480   2.005
 5822SOL     OW18364   0.586   3.874   2.314
 5822SOL    HW118365   0.570   3.972   2.328
 5822SOL    HW218366   0.498   3.828   2.304
 5823SOL     OW18367   2.420   6.812   4.928
 5823SOL    HW118368   2.327   6.784   4.903
 5823SOL    HW218369   2.471   6.732   4.960
 5824SOL     OW18370   1.862   6.500   2.098
 5824SOL    HW118371   1.922   6.467   2.171
 5824SOL    HW218372   1.915   6.515   2.015
 5825SOL     OW18373   4.487   1.859   4.939
 5825SOL    HW118374   4.393   1.877   4.968
 5825SOL    HW218375   4.511   1.919   4.863
 5826SOL     OW18376   1.592   6.242   4.615
 5826SOL    HW118377   1.688   6.268   4.617
 5826SOL    HW218378   1.562   6.214   4.706
 5827SOL     OW18379   2.098   3.684   3.121
 5827SOL    HW118380   2.137   3.595   3.100
 5827SOL    HW218381   2.082   3.692   3.220
 5828SOL     OW18382   4.654   0.030   5.761
 5828SOL    HW118383   4.660   0.088   5.680
 5828SOL    HW218384   4.672   6.957   5.735
 5829SOL     OW18385   2.146   0.091   2.878
 5829SOL    HW118386   2.173   0.099   2.782
 5829SOL    HW218387   2.177   0.172   2.928
 5830SOL     OW18388   4.328   5.481   4.264
 5830SOL    HW118389   4.258   5.512   4.328
 5830SOL    HW218390   4.323   5.382   4.253
 5831SOL     OW18391   2.562   2.509   4.382
 5831SOL    HW118392   2.489   2.444   4.405
 5831SOL    HW218393   2.647   2.459   4.365
 5832SOL     OW18394   2.536   5.576   3.598
 5832SOL    HW118395   2.520   5.526   3.683
 5832SOL    HW218396   2.548   5.511   3.523
 5833SOL     OW18397   3.240   5.054   0.846
 5833SOL    HW118398   3.322   5.016   0.889
 5833SOL    HW218399   3.159   5.029   0.899
 5834SOL     OW18400   6.704   2.680   6.400
 5834SOL    HW118401   6.698   2.661   6.498
 5834SOL    HW218402   6.762   2.761   6.385
 5835SOL     OW18403   4.398   1.458   3.522
 5835SOL    HW118404   4.459   1.464   3.601
 5835SOL    HW218405   4.452   1.434   3.441
 5836SOL     OW18406   4.865   5.907   1.229
 5836SOL    HW118407   4.904   5.904   1.137
 5836SOL    HW218408   4.775   5.863   1.228
 5837SOL     OW18409   2.886   4.028   0.139
 5837SOL    HW118410   2.861   4.020   0.042
 5837SOL    HW218411   2.818   4.085   0.186
 5838SOL     OW18412   3.224   3.530   6.985
 5838SOL    HW118413   3.307   3.555   0.012
 5838SOL    HW218414   3.167   3.471   0.020
 5839SOL     OW18415   1.932   1.582   0.580
 5839SOL    HW118416   1.837   1.569   0.551
 5839SOL    HW218417   1.958   1.507   0.641
 5840SOL     OW18418   0.894   3.600   3.080
 5840SOL    HW118419   0.987   3.564   3.075
 5840SOL    HW218420   0.871   3.622   3.175
 5841SOL     OW18421   4.975   1.665   0.729
 5841SOL    HW118422   4.977   1.739   0.662
 5841SOL    HW218423   5.034   1.591   0.698
 5842SOL     OW18424   3.303   2.153   2.367
 5842SOL    HW118425   3.257   2.151   2.456
 5842SOL    HW218426   3.237   2.176   2.296
 5843SOL     OW18427   3.306   3.203   0.617
 5843SOL    HW118428   3.280   3.156   0.533
 5843SOL    HW218429   3.403   3.188   0.634
 5844SOL     OW18430   0.860   5.294   5.231
 5844SOL    HW118431   0.804   5.256   5.305
 5844SOL    HW218432   0.957   5.281   5.252
 5845SOL     OW18433   1.695   6.633   2.465
 5845SOL    HW118434   1.754   6.710   2.490
 5845SOL    HW218435   1.599   6.661   2.469
 5846SOL     OW18436   0.669   4.754   5.497
 5846SOL    HW118437   0.672   4.826   5.427
 5846SOL    HW218438   0.718   4.674   5.464
 5847SOL     OW18439   1.577   4.448   6.432
 5847SOL    HW118440   1.493   4.493   6.462
 5847SOL    HW218441   1.626   4.507   6.368
 5848SOL     OW18442   2.314   6.828   2.043
 5848SOL    HW118443   2.297   6.804   2.138
 5848SOL    HW218444   2.308   6.745   1.986
 5849SOL     OW18445   2.632   5.478   6.468
 5849SOL    HW118446   2.704   5.514   6.528
 5849SOL    HW218447   2.545   5.522   6.490
 5850SOL     OW18448   6.678   0.828   2.054
 5850SOL    HW118449   6.669   0.853   1.957
 5850SOL    HW218450   6.716   0.736   2.061
 5851SOL     OW18451   0.288   3.788   4.882
 5851SOL    HW118452   0.383   3.768   4.859
 5851SOL    HW218453   0.228   3.748   4.814
 5852SOL     OW18454   5.024   4.111   2.649
 5852SOL    HW118455   4.991   4.205   2.661
 5852SOL    HW218456   4.958   4.059   2.595
 5853SOL     OW18457   4.798   5.030   0.326
 5853SOL    HW118458   4.716   4.999   0.277
 5853SOL    HW218459   4.876   5.030   0.264
 5854SOL     OW18460   2.965   4.637   5.472
 5854SOL    HW118461   2.881   4.688   5.489
 5854SOL    HW218462   2.964   4.601   5.379
 5855SOL     OW18463   2.182   2.484   4.115
 5855SOL    HW118464   2.220   2.427   4.043
 5855SOL    HW218465   2.233   2.471   4.200
 5856SOL     OW18466   0.467   0.524   3.142
 5856SOL    HW118467   0.496   0.595   3.206
 5856SOL    HW218468   0.464   0.436   3.189
 5857SOL     OW18469   5.504   5.213   0.094
 5857SOL    HW118470   5.427   5.150   0.082
 5857SOL    HW218471   5.573   5.196   0.024
 5858SOL     OW18472   2.131   1.540   2.601
 5858SOL    HW118473   2.122   1.631   2.561
 5858SOL    HW218474   2.130   1.471   2.529
 5859SOL     OW18475   5.342   5.168   1.897
 5859SOL    HW118476   5.344   5.100   1.971
 5859SOL    HW218477   5.257   5.221   1.903
 5860SOL     OW18478   1.502   3.343   3.005
 5860SOL    HW118479   1.449   3.312   2.926
 5860SOL    HW218480   1.599   3.345   2.981
 5861SOL     OW18481   5.568   0.687   5.359
 5861SOL    HW118482   5.535   0.614   5.299
 5861SOL    HW218483   5.574   0.654   5.453
 5862SOL     OW18484   6.704   4.876   3.064
 5862SOL    HW118485   6.688   4.903   3.158
 5862SOL    HW218486   6.628   4.908   3.007
 5863SOL     OW18487   4.015   0.194   5.945
 5863SOL    HW118488   4.011   0.221   6.041
 5863SOL    HW218489   3.930   0.221   5.899
 5864SOL     OW18490   3.962   3.254   2.810
 5864SOL    HW118491   3.957   3.214   2.902
 5864SOL    HW218492   3.885   3.222   2.756
 5865SOL     OW18493   6.450   6.788   1.278
 5865SOL    HW118494   6.395   6.705   1.270
 5865SOL    HW218495   6.389   6.867   1.290
 5866SOL     OW18496   3.750   3.343   3.338
 5866SOL    HW118497   3.787   3.405   3.269
 5866SOL    HW218498   3.812   3.340   3.417
 5867SOL     OW18499   3.255   1.673   1.545
 5867SOL    HW118500   3.158   1.663   1.569
 5867SOL    HW218501   3.269   1.643   1.451
 5868SOL     OW18502   1.572   0.446   0.619
 5868SOL    HW118503   1.591   0.500   0.537
 5868SOL    HW218504   1.636   0.472   0.691
 5869SOL     OW18505   1.675   5.559   2.651
 5869SOL    HW118506   1.731   5.597   2.578
 5869SOL    HW218507   1.732   5.545   2.732
 5870SOL     OW18508   4.402   0.638   3.793
 5870SOL    HW118509   4.472   0.649   3.722
 5870SOL    HW218510   4.411   0.711   3.861
 5871SOL     OW18511   4.035   3.476   3.713
 5871SOL    HW118512   4.032   3.395   3.772
 5871SOL    HW218513   4.088   3.548   3.757
 5872SOL     OW18514   4.389   6.275   1.159
 5872SOL    HW118515   4.388   6.338   1.236
 5872SOL    HW218516   4.388   6.327   1.073
 5873SOL     OW18517   3.961   6.185   2.127
 5873SOL    HW118518   3.988   6.090   2.143
 5873SOL    HW218519   3.894   6.189   2.053
 5874SOL     OW18520   0.297   4.792   5.328
 5874SOL    HW118521   0.348   4.762   5.247
 5874SOL    HW218522   0.325   4.885   5.352
 5875SOL     OW18523   3.705   2.016   1.219
 5875SOL    HW118524   3.663   2.077   1.152
 5875SOL    HW218525   3.671   2.040   1.310
 5876SOL     OW18526   3.137   3.287   1.993
 5876SOL    HW118527   3.037   3.282   1.993
 5876SOL    HW218528   3.167   3.358   2.057
 5877SOL     OW18529   5.156   4.125   1.609
 5877SOL    HW118530   5.118   4.214   1.581
 5877SOL    HW218531   5.089   4.053   1.591
 5878SOL     OW18532   1.766   3.812   2.676
 5878SOL    HW118533   1.844   3.874   2.682
 5878SOL    HW218534   1.787   3.726   2.723
 5879SOL     OW18535   1.876   3.660   4.102
 5879SOL    HW118536   1.824   3.575   4.098
 5879SOL    HW218537   1.973   3.640   4.117
 5880SOL     OW18538   3.178   5.742   6.990
 5880SOL    HW118539   3.256   5.729   0.030
 5880SOL    HW218540   3.097   5.767   0.021
 5881SOL     OW18541   1.628   6.475   4.400
 5881SOL    HW118542   1.531   6.492   4.413
 5881SOL    HW218543   1.660   6.410   4.468
 5882SOL     OW18544   5.389   0.218   3.150
 5882SOL    HW118545   5.296   0.238   3.181
 5882SOL    HW218546   5.437   0.164   3.220
 5883SOL     OW18547   0.595   3.278   5.150
 5883SOL    HW118548   0.505   3.282   5.194
 5883SOL    HW218549   0.620   3.369   5.116
 5884SOL     OW18550   0.540   0.771   3.301
 5884SOL    HW118551   0.471   0.840   3.326
 5884SOL    HW218552   0.598   0.807   3.228
 5885SOL     OW18553   5.694   6.492   0.744
 5885SOL    HW118554   5.721   6.551   0.820
 5885SOL    HW218555   5.773   6.471   0.687
 5886SOL     OW18556   6.121   1.832   6.396
 5886SOL    HW118557   6.036   1.879   6.420
 5886SOL    HW218558   6.198   1.894   6.406
 5887SOL     OW18559   3.987   5.942   2.440
 5887SOL    HW118560   4.018   5.907   2.528
 5887SOL    HW218561   3.892   5.971   2.447
 5888SOL     OW18562   6.759   0.247   2.164
 5888SOL    HW118563   6.723   0.165   2.209
 5888SOL    HW218564   6.857   0.255   2.184
 5889SOL     OW18565   2.438   0.158   6.846
 5889SOL    HW118566   2.435   0.184   6.750
 5889SOL    HW218567   2.492   0.225   6.898
 5890SOL     OW18568   3.859   5.181   5.779
 5890SOL    HW118569   3.846   5.082   5.770
 5890SOL    HW218570   3.805   5.229   5.710
 5891SOL     OW18571   1.880   3.719   6.243
 5891SOL    HW118572   1.969   3.677   6.225
 5891SOL    HW218573   1.828   3.660   6.305
 5892SOL     OW18574   2.063   6.432   2.830
 5892SOL    HW118575   2.120   6.462   2.754
 5892SOL    HW218576   2.096   6.343   2.864
 5893SOL     OW18577   1.938   1.948   3.307
 5893SOL    HW118578   1.848   1.905   3.294
 5893SOL    HW218579   1.984   1.906   3.385
 5894SOL     OW18580   1.154   3.409   3.608
 5894SOL    HW118581   1.192   3.479   3.668
 5894SOL    HW218582   1.221   3.336   3.594
 5895SOL     OW18583   5.717   3.859   3.282
 5895SOL    HW118584   5.730   3.852   3.183
 5895SOL    HW218585   5.646   3.795   3.312
 5896SOL     OW18586   5.482   3.026   5.906
 5896SOL    HW118587   5.538   3.061   5.831
 5896SOL    HW218588   5.542   2.995   5.980
 5897SOL     OW18589   4.646   5.034   1.031
 5897SOL    HW118590   4.668   4.958   1.093
 5897SOL    HW218591   4.547   5.045   1.025
 5898SOL     OW18592   2.798   6.363   3.183
 5898SOL    HW118593   2.836   6.452   3.208
 5898SOL    HW218594   2.856   6.290   3.220
 5899SOL     OW18595   5.674   0.155   3.686
 5899SOL    HW118596   5.698   0.251   3.706
 5899SOL    HW218597   5.661   0.144   3.588
 5900SOL     OW18598   3.863   4.850   1.997
 5900SOL    HW118599   3.783   4.812   1.951
 5900SOL    HW218600   3.841   4.869   2.093
 5901SOL     OW18601   3.018   6.460   4.838
 5901SOL    HW118602   3.017   6.556   4.864
 5901SOL    HW218603   2.958   6.446   4.758
 5902SOL     OW18604   5.985   2.192   0.026
 5902SOL    HW118605   5.925   2.166   6.972
 5902SOL    HW218606   5.948   2.156   0.111
 5903SOL     OW18607   0.568   3.024   6.358
 5903SOL    HW118608   0.526   2.971   6.431
 5903SOL    HW218609   0.497   3.069   6.304
 5904SOL     OW18610   1.238   3.287   2.563
 5904SOL    HW118611   1.263   3.252   2.473
 5904SOL    HW218612   1.139   3.304   2.566
 5905SOL     OW18613   0.142   4.778   2.727
 5905SOL    HW118614   0.136   4.771   2.627
 5905SOL    HW218615   0.228   4.738   2.758
 5906SOL     OW18616   1.049   1.046   2.643
 5906SOL    HW118617   1.049   0.969   2.579
 5906SOL    HW218618   1.125   1.036   2.707
 5907SOL     OW18619   2.253   0.699   2.418
 5907SOL    HW118620   2.188   0.654   2.480
 5907SOL    HW218621   2.260   0.645   2.334
 5908SOL     OW18622   0.827   2.939   5.791
 5908SOL    HW118623   0.869   3.017   5.744
 5908SOL    HW218624   0.796   2.872   5.723
 5909SOL     OW18625   6.658   4.524   0.477
 5909SOL    HW118626   6.621   4.538   0.569
 5909SOL    HW218627   6.748   4.482   0.483
 5910SOL     OW18628   1.575   1.706   2.868
 5910SOL    HW118629   1.484   1.741   2.846
 5910SOL    HW218630   1.570   1.653   2.953
 5911SOL     OW18631   6.361   5.875   6.462
 5911SOL    HW118632   6.265   5.852   6.447
 5911SOL    HW218633   6.407   5.798   6.506
 5912SOL     OW18634   0.172   7.002   3.912
 5912SOL    HW118635   0.182   6.951   3.997
 5912SOL    HW218636   0.185   6.941   3.834
 5913SOL     OW18637   6.013   2.010   0.963
 5913SOL    HW118638   5.942   1.947   0.994
 5913SOL    HW218639   6.059   2.051   1.042
 5914SOL     OW18640   1.224   6.481   0.242
 5914SOL    HW118641   1.289   6.488   0.318
 5914SOL    HW218642   1.174   6.395   0.249
 5915SOL     OW18643   4.012   0.825   6.074
 5915SOL    HW118644   3.995   0.924   6.071
 5915SOL    HW218645   4.082   0.805   6.142
 5916SOL     OW18646   0.963   0.233   2.046
 5916SOL    HW118647   0.908   0.162   2.091
 5916SOL    HW218648   0.928   0.248   1.954
 5917SOL     OW18649   3.235   3.025   0.396
 5917SOL    HW118650   3.324   3.023   0.351
 5917SOL    HW218651   3.211   2.933   0.427
 5918SOL     OW18652   3.278   0.113   4.450
 5918SOL    HW118653   3.314   0.202   4.419
 5918SOL    HW218654   3.217   0.127   4.528
 5919SOL     OW18655   2.980   3.214   4.401
 5919SOL    HW118656   2.990   3.182   4.495
 5919SOL    HW218657   3.026   3.151   4.339
 5920SOL     OW18658   0.446   0.199   5.674
 5920SOL    HW118659   0.406   0.257   5.602
 5920SOL    HW218660   0.389   0.206   5.757
 5921SOL     OW18661   2.788   4.234   6.938
 5921SOL    HW118662   2.795   4.189   6.849
 5921SOL    HW218663   2.844   4.318   6.937
 5922SOL     OW18664   5.306   2.843   2.403
 5922SOL    HW118665   5.361   2.767   2.368
 5922SOL    HW218666   5.270   2.819   2.494
 5923SOL     OW18667   6.106   1.045   3.369
 5923SOL    HW118668   6.077   1.051   3.273
 5923SOL    HW218669   6.112   0.949   3.396
 5924SOL     OW18670   5.469   6.416   3.926
 5924SOL    HW118671   5.524   6.378   3.851
 5924SOL    HW218672   5.470   6.516   3.921
 5925SOL     OW18673   4.095   1.519   0.778
 5925SOL    HW118674   4.072   1.468   0.695
 5925SOL    HW218675   4.175   1.477   0.822
 5926SOL     OW18676   5.300   3.904   3.247
 5926SOL    HW118677   5.354   3.923   3.166
 5926SOL    HW218678   5.343   3.830   3.299
 5927SOL     OW18679   0.946   5.238   1.850
 5927SOL    HW118680   0.866   5.266   1.797
 5927SOL    HW218681   1.025   5.229   1.789
 5928SOL     OW18682   2.699   6.967   0.025
 5928SOL    HW118683   2.631   6.984   0.096
 5928SOL    HW218684   2.681   6.879   7.004
 5929SOL     OW18685   1.086   0.605   0.717
 5929SOL    HW118686   1.026   0.623   0.639
 5929SOL    HW218687   1.171   0.657   0.706
 5930SOL     OW18688   1.830   3.848   2.116
 5930SOL    HW118689   1.859   3.922   2.055
 5930SOL    HW218690   1.906   3.824   2.177
 5931SOL     OW18691   5.200   6.460   3.053
 5931SOL    HW118692   5.121   6.435   2.998
 5931SOL    HW218693   5.284   6.432   3.006
 5932SOL     OW18694   2.930   6.661   0.226
 5932SOL    HW118695   2.831   6.670   0.240
 5932SOL    HW218696   2.960   6.572   0.259
 5933SOL     OW18697   5.928   5.908   4.462
 5933SOL    HW118698   5.987   5.832   4.491
 5933SOL    HW218699   5.849   5.872   4.412
 5934SOL     OW18700   2.931   3.391   0.525
 5934SOL    HW118701   2.998   3.448   0.478
 5934SOL    HW218702   2.974   3.346   0.603
 5935SOL     OW18703   0.821   0.336   5.240
 5935SOL    HW118704   0.799   0.434   5.237
 5935SOL    HW218705   0.895   0.317   5.175
 5936SOL     OW18706   3.660   3.210   1.823
 5936SOL    HW118707   3.643   3.281   1.754
 5936SOL    HW218708   3.578   3.199   1.880
 5937SOL     OW18709   0.326   2.423   1.077
 5937SOL    HW118710   0.294   2.364   1.002
 5937SOL    HW218711   0.415   2.462   1.052
 5938SOL     OW18712   6.993   4.199   3.977
 5938SOL    HW118713   6.901   4.199   4.015
 5938SOL    HW218714   0.018   4.283   4.003
 5939SOL     OW18715   4.358   1.505   5.567
 5939SOL    HW118716   4.420   1.428   5.551
 5939SOL    HW218717   4.383   1.549   5.654
 5940SOL     OW18718   4.833   5.199   1.661
 5940SOL    HW118719   4.766   5.221   1.731
 5940SOL    HW218720   4.926   5.212   1.697
 5941SOL     OW18721   0.225   2.091   3.008
 5941SOL    HW118722   0.159   2.103   3.082
 5941SOL    HW218723   0.283   2.011   3.027
 5942SOL     OW18724   5.324   2.466   6.542
 5942SOL    HW118725   5.275   2.514   6.469
 5942SOL    HW218726   5.423   2.482   6.533
 5943SOL     OW18727   1.839   4.754   1.465
 5943SOL    HW118728   1.916   4.782   1.408
 5943SOL    HW218729   1.771   4.707   1.409
 5944SOL     OW18730   6.271   3.341   5.639
 5944SOL    HW118731   6.288   3.438   5.657
 5944SOL    HW218732   6.354   3.299   5.600
 5945SOL     OW18733   6.698   6.455   4.888
 5945SOL    HW118734   6.629   6.528   4.897
 5945SOL    HW218735   6.676   6.398   4.809
 5946SOL     OW18736   2.017   3.243   6.591
 5946SOL    HW118737   2.069   3.326   6.574
 5946SOL    HW218738   2.018   3.186   6.509
 5947SOL     OW18739   3.462   3.551   4.757
 5947SOL    HW118740   3.482   3.548   4.855
 5947SOL    HW218741   3.423   3.464   4.728
 5948SOL     OW18742   4.639   3.553   1.259
 5948SOL    HW118743   4.687   3.475   1.219
 5948SOL    HW218744   4.650   3.551   1.358
 5949SOL     OW18745   0.497   4.119   3.065
 5949SOL    HW118746   0.583   4.106   3.015
 5949SOL    HW218747   0.465   4.030   3.099
 5950SOL     OW18748   3.376   6.995   4.735
 5950SOL    HW118749   3.387   6.914   4.678
 5950SOL    HW218750   3.280   0.000   4.737
 5951SOL     OW18751   0.037   4.160   6.732
 5951SOL    HW118752   6.966   4.157   6.768
 5951SOL    HW218753   0.042   4.104   6.649
 5952SOL     OW18754   3.981   4.262   1.572
 5952SOL    HW118755   3.929   4.216   1.644
 5952SOL    HW218756   4.069   4.292   1.610
 5953SOL     OW18757   0.271   3.803   5.706
 5953SOL    HW118758   0.197   3.830   5.768
 5953SOL    HW218759   0.345   3.869   5.711
 5954SOL     OW18760   1.816   5.586   3.894
 5954SOL    HW118761   1.811   5.656   3.823
 5954SOL    HW218762   1.736   5.592   3.953
 5955SOL     OW18763   5.182   2.623   0.591
 5955SOL    HW118764   5.133   2.676   0.661
 5955SOL    HW218765   5.126   2.544   0.564
 5956SOL     OW18766   5.184   2.882   5.247
 5956SOL    HW118767   5.277   2.901   5.278
 5956SOL    HW218768   5.143   2.965   5.211
 5957SOL     OW18769   6.651   1.625   3.508
 5957SOL    HW118770   6.695   1.673   3.584
 5957SOL    HW218771   6.713   1.554   3.473
 5958SOL     OW18772   2.969   6.664   3.803
 5958SOL    HW118773   2.921   6.668   3.715
 5958SOL    HW218774   3.067   6.653   3.788
 5959SOL     OW18775   5.414   2.570   2.745
 5959SOL    HW118776   5.371   2.499   2.800
 5959SOL    HW218777   5.502   2.596   2.786
 5960SOL     OW18778   4.544   1.327   6.581
 5960SOL    HW118779   4.541   1.420   6.616
 5960SOL    HW218780   4.567   1.264   6.656
 5961SOL     OW18781   2.740   2.424   3.748
 5961SOL    HW118782   2.690   2.413   3.663
 5961SOL    HW218783   2.838   2.418   3.730
 5962SOL     OW18784   4.971   4.937   0.577
 5962SOL    HW118785   4.908   4.970   0.647
 5962SOL    HW218786   4.941   4.971   0.487
 5963SOL     OW18787   2.116   3.827   0.771
 5963SOL    HW118788   2.129   3.876   0.857
 5963SOL    HW218789   2.188   3.759   0.761
 5964SOL     OW18790   1.967   0.147   3.533
 5964SOL    HW118791   1.906   0.205   3.478
 5964SOL    HW218792   2.037   0.204   3.576
 5965SOL     OW18793   2.772   0.524   1.042
 5965SOL    HW118794   2.757   0.457   1.116
 5965SOL    HW218795   2.719   0.497   0.962
 5966SOL     OW18796   2.559   1.619   5.099
 5966SOL    HW118797   2.654   1.609   5.070
 5966SOL    HW218798   2.543   1.567   5.183
 5967SOL     OW18799   4.649   2.482   5.336
 5967SOL    HW118800   4.644   2.423   5.417
 5967SOL    HW218801   4.586   2.448   5.266
 5968SOL     OW18802   6.005   2.296   2.303
 5968SOL    HW118803   5.972   2.269   2.393
 5968SOL    HW218804   5.951   2.249   2.233
 5969SOL     OW18805   4.620   0.128   0.680
 5969SOL    HW118806   4.634   0.172   0.592
 5969SOL    HW218807   4.597   0.196   0.749
 5970SOL     OW18808   6.740   3.002   0.726
 5970SOL    HW118809   6.696   3.092   0.718
 5970SOL    HW218810   6.690   2.947   0.793
 5971SOL     OW18811   0.134   5.517   3.727
 5971SOL    HW118812   0.187   5.540   3.808
 5971SOL    HW218813   0.120   5.599   3.671
 5972SOL     OW18814   5.674   5.240   0.288
 5972SOL    HW118815   5.604   5.259   0.220
 5972SOL    HW218816   5.748   5.307   0.280
 5973SOL     OW18817   2.811   1.183   2.311
 5973SOL    HW118818   2.862   1.197   2.225
 5973SOL    HW218819   2.808   1.269   2.362
 5974SOL     OW18820   5.948   1.797   4.608
 5974SOL    HW118821   5.891   1.859   4.555
 5974SOL    HW218822   5.947   1.824   4.705
 5975SOL     OW18823   4.112   5.337   1.559
 5975SOL    HW118824   4.112   5.433   1.585
 5975SOL    HW218825   4.137   5.329   1.462
 5976SOL     OW18826   1.788   4.083   5.597
 5976SOL    HW118827   1.881   4.058   5.572
 5976SOL    HW218828   1.727   4.006   5.581
 5977SOL     OW18829   6.633   5.354   0.916
 5977SOL    HW118830   6.640   5.298   0.833
 5977SOL    HW218831   6.542   5.395   0.921
 5978SOL     OW18832   2.761   3.676   6.891
 5978SOL    HW118833   2.846   3.623   6.890
 5978SOL    HW218834   2.783   3.773   6.881
 5979SOL     OW18835   6.460   0.127   1.229
 5979SOL    HW118836   6.416   0.171   1.307
 5979SOL    HW218837   6.394   0.069   1.181
 5980SOL     OW18838   3.118   2.351   0.833
 5980SOL    HW118839   3.065   2.434   0.818
 5980SOL    HW218840   3.061   2.271   0.813
 5981SOL     OW18841   2.766   1.994   1.389
 5981SOL    HW118842   2.729   1.937   1.463
 5981SOL    HW218843   2.813   2.073   1.429
 5982SOL     OW18844   5.364   2.743   1.583
 5982SOL    HW118845   5.289   2.807   1.564
 5982SOL    HW218846   5.444   2.768   1.528
 5983SOL     OW18847   0.135   0.741   3.687
 5983SOL    HW118848   0.116   0.739   3.786
 5983SOL    HW218849   0.058   0.701   3.638
 5984SOL     OW18850   6.012   5.766   3.629
 5984SOL    HW118851   5.915   5.773   3.652
 5984SOL    HW218852   6.025   5.787   3.532
 5985SOL     OW18853   6.702   3.419   2.273
 5985SOL    HW118854   6.712   3.394   2.370
 5985SOL    HW218855   6.618   3.472   2.261
 5986SOL     OW18856   3.823   3.614   3.566
 5986SOL    HW118857   3.859   3.534   3.613
 5986SOL    HW218858   3.777   3.674   3.633
 5987SOL     OW18859   0.175   5.740   5.382
 5987SOL    HW118860   0.189   5.771   5.289
 5987SOL    HW218861   0.086   5.772   5.415
 5988SOL     OW18862   1.073   2.644   6.974
 5988SOL    HW118863   1.089   2.573   6.905
 5988SOL    HW218864   1.154   2.652   0.010
 5989SOL     OW18865   1.468   6.911   5.409
 5989SOL    HW118866   1.504   6.870   5.492
 5989SOL    HW218867   1.369   6.896   5.404
 5990SOL     OW18868   2.590   4.650   1.925
 5990SOL    HW118869   2.684   4.628   1.950
 5990SOL    HW218870   2.541   4.566   1.901
 5991SOL     OW18871   5.139   0.640   1.069
 5991SOL    HW118872   5.175   0.722   1.114
 5991SOL    HW218873   5.151   0.561   1.130
 5992SOL     OW18874   3.652   5.684   3.108
 5992SOL    HW118875   3.635   5.640   3.197
 5992SOL    HW218876   3.627   5.620   3.035
 5993SOL     OW18877   6.077   1.991   0.314
 5993SOL    HW118878   6.135   2.048   0.257
 5993SOL    HW218879   6.130   1.954   0.390
 5994SOL     OW18880   6.488   3.392   0.043
 5994SOL    HW118881   6.574   3.434   0.013
 5994SOL    HW218882   6.501   3.293   0.050
 5995SOL     OW18883   5.095   3.572   1.136
 5995SOL    HW118884   5.043   3.551   1.219
 5995SOL    HW218885   5.147   3.491   1.108
 5996SOL     OW18886   2.660   6.698   1.207
 5996SOL    HW118887   2.650   6.727   1.302
 5996SOL    HW218888   2.744   6.645   1.197
 5997SOL     OW18889   6.442   0.592   3.948
 5997SOL    HW118890   6.355   0.591   3.900
 5997SOL    HW218891   6.495   0.672   3.919
 5998SOL     OW18892   0.029   5.978   6.835
 5998SOL    HW118893   6.966   6.026   6.814
 5998SOL    HW218894   0.090   6.038   6.886
 5999SOL     OW18895   5.040   3.221   1.501
 5999SOL    HW118896   4.943   3.232   1.521
 5999SOL    HW218897   5.094   3.263   1.574
 6000SOL     OW18898   0.456   4.089   1.046
 6000SOL    HW118899   0.414   4.035   0.973
 6000SOL    HW218900   0.389   4.106   1.118
 6001SOL     OW18901   5.844   5.273   5.959
 6001SOL    HW118902   5.835   5.366   5.995
 6001SOL    HW218903   5.800   5.208   6.022
 6002SOL     OW18904   5.595   5.147   5.328
 6002SOL    HW118905   5.544   5.121   5.246
 6002SOL    HW218906   5.564   5.092   5.405
 6003SOL     OW18907   2.632   2.152   4.936
 6003SOL    HW118908   2.557   2.138   4.872
 6003SOL    HW218909   2.629   2.083   5.008
 6004SOL     OW18910   5.393   3.186   4.963
 6004SOL    HW118911   5.422   3.102   4.917
 6004SOL    HW218912   5.295   3.182   4.982
 6005SOL     OW18913   4.244   4.151   6.840
 6005SOL    HW118914   4.258   4.236   6.890
 6005SOL    HW218915   4.318   4.086   6.863
 6006SOL     OW18916   3.160   5.955   6.583
 6006SOL    HW118917   3.228   5.890   6.618
 6006SOL    HW218918   3.203   6.043   6.566
 6007SOL     OW18919   1.991   6.056   4.685
 6007SOL    HW118920   1.895   6.029   4.681
 6007SOL    HW218921   1.998   6.152   4.712
 6008SOL     OW18922   2.110   3.896   6.519
 6008SOL    HW118923   2.080   3.914   6.425
 6008SOL    HW218924   2.173   3.968   6.548
 6009SOL     OW18925   4.202   5.023   2.743
 6009SOL    HW118926   4.243   5.054   2.658
 6009SOL    HW218927   4.213   4.924   2.752
 6010SOL     OW18928   0.600   4.430   4.766
 6010SOL    HW118929   0.579   4.388   4.678
 6010SOL    HW218930   0.518   4.474   4.803
 6011SOL     OW18931   6.091   1.339   3.237
 6011SOL    HW118932   5.994   1.315   3.242
 6011SOL    HW218933   6.112   1.406   3.309
 6012SOL     OW18934   6.521   0.393   5.979
 6012SOL    HW118935   6.498   0.360   5.887
 6012SOL    HW218936   6.546   0.489   5.975
 6013SOL     OW18937   5.991   1.548   2.008
 6013SOL    HW118938   6.044   1.464   1.995
 6013SOL    HW218939   5.904   1.540   1.960
 6014SOL     OW18940   3.111   3.044   3.911
 6014SOL    HW118941   3.092   3.027   4.008
 6014SOL    HW218942   3.099   3.142   3.891
 6015SOL     OW18943   6.174   0.271   3.764
 6015SOL    HW118944   6.235   0.262   3.843
 6015SOL    HW218945   6.161   0.181   3.722
 6016SOL     OW18946   4.038   2.147   4.374
 6016SOL    HW118947   3.945   2.180   4.385
 6016SOL    HW218948   4.063   2.148   4.277
 6017SOL     OW18949   1.209   1.404   5.620
 6017SOL    HW118950   1.216   1.476   5.689
 6017SOL    HW218951   1.280   1.416   5.551
 6018SOL     OW18952   2.740   0.895   4.065
 6018SOL    HW118953   2.833   0.895   4.026
 6018SOL    HW218954   2.703   0.988   4.061
 6019SOL     OW18955   6.146   4.466   6.314
 6019SOL    HW118956   6.085   4.429   6.384
 6019SOL    HW218957   6.216   4.523   6.357
 6020SOL     OW18958   0.773   5.242   6.034
 6020SOL    HW118959   0.732   5.226   5.944
 6020SOL    HW218960   0.846   5.175   6.049
 6021SOL     OW18961   5.651   6.725   3.575
 6021SOL    HW118962   5.717   6.669   3.625
 6021SOL    HW218963   5.696   6.769   3.498
 6022SOL     OW18964   6.335   2.659   1.888
 6022SOL    HW118965   6.380   2.572   1.907
 6022SOL    HW218966   6.301   2.699   1.973
 6023SOL     OW18967   4.117   0.151   2.197
 6023SOL    HW118968   4.031   0.128   2.243
 6023SOL    HW218969   4.194   0.123   2.254
 6024SOL     OW18970   1.043   6.372   6.470
 6024SOL    HW118971   0.996   6.394   6.385
 6024SOL    HW218972   0.986   6.308   6.524
 6025SOL     OW18973   2.744   0.448   4.912
 6025SOL    HW118974   2.768   0.529   4.859
 6025SOL    HW218975   2.713   0.476   5.003
 6026SOL     OW18976   6.000   5.994   4.204
 6026SOL    HW118977   6.050   5.946   4.133
 6026SOL    HW218978   6.013   5.948   4.292
 6027SOL     OW18979   5.535   5.267   6.105
 6027SOL    HW118980   5.598   5.190   6.099
 6027SOL    HW218981   5.441   5.233   6.111
 6028SOL     OW18982   5.764   5.560   6.083
 6028SOL    HW118983   5.718   5.584   5.998
 6028SOL    HW218984   5.820   5.637   6.114
 6029SOL     OW18985   3.390   1.372   3.188
 6029SOL    HW118986   3.477   1.392   3.233
 6029SOL    HW218987   3.362   1.452   3.134
 6030SOL     OW18988   6.005   3.269   4.343
 6030SOL    HW118989   5.999   3.356   4.293
 6030SOL    HW218990   6.077   3.212   4.303
 6031SOL     OW18991   0.204   6.174   5.140
 6031SOL    HW118992   0.223   6.271   5.125
 6031SOL    HW218993   0.226   6.122   5.057
 6032SOL     OW18994   3.278   6.598   3.148
 6032SOL    HW118995   3.222   6.590   3.231
 6032SOL    HW218996   3.357   6.656   3.167
 6033SOL     OW18997   0.612   1.184   2.653
 6033SOL    HW118998   0.610   1.188   2.553
 6033SOL    HW218999   0.611   1.088   2.682
 6034SOL     OW19000   0.081   6.793   0.970
 6034SOL    HW119001   0.063   6.793   1.068
 6034SOL    HW219002   7.019   6.767   0.921
 6035SOL     OW19003   2.534   0.462   2.435
 6035SOL    HW119004   2.546   0.562   2.435
 6035SOL    HW219005   2.531   0.430   2.340
 6036SOL     OW19006   6.360   3.360   0.751
 6036SOL    HW119007   6.323   3.335   0.662
 6036SOL    HW219008   6.431   3.430   0.740
 6037SOL     OW19009   4.685   1.843   6.097
 6037SOL    HW119010   4.722   1.787   6.023
 6037SOL    HW219011   4.759   1.874   6.156
 6038SOL     OW19012   1.328   1.167   6.203
 6038SOL    HW119013   1.316   1.191   6.300
 6038SOL    HW219014   1.284   1.079   6.185
 6039SOL     OW19015   4.067   3.753   3.892
 6039SOL    HW119016   3.987   3.695   3.907
 6039SOL    HW219017   4.062   3.793   3.800
 6040SOL     OW19018   0.254   1.892   0.774
 6040SOL    HW119019   0.182   1.961   0.772
 6040SOL    HW219020   0.237   1.829   0.850
 6041SOL     OW19021   1.494   3.578   5.823
 6041SOL    HW119022   1.539   3.517   5.889
 6041SOL    HW219023   1.399   3.549   5.811
 6042SOL     OW19024   3.064   5.853   3.658
 6042SOL    HW119025   3.125   5.823   3.731
 6042SOL    HW219026   2.987   5.789   3.651
 6043SOL     OW19027   2.447   0.020   2.926
 6043SOL    HW119028   2.476   6.960   2.976
 6043SOL    HW219029   2.386   7.015   2.851
 6044SOL     OW19030   0.447   3.210   1.065
 6044SOL    HW119031   0.421   3.117   1.089
 6044SOL    HW219032   0.366   3.269   1.068
 6045SOL     OW19033   5.971   1.350   3.599
 6045SOL    HW119034   6.055   1.297   3.597
 6045SOL    HW219035   5.892   1.290   3.587
 6046SOL     OW19036   3.285   3.216   2.879
 6046SOL    HW119037   3.200   3.183   2.919
 6046SOL    HW219038   3.277   3.216   2.779
 6047SOL     OW19039   6.824   1.523   0.554
 6047SOL    HW119040   6.886   1.482   0.620
 6047SOL    HW219041   6.749   1.568   0.602
 6048SOL     OW19042   5.673   6.025   3.123
 6048SOL    HW119043   5.616   6.048   3.044
 6048SOL    HW219044   5.767   6.008   3.092
 6049SOL     OW19045   4.408   5.312   6.819
 6049SOL    HW119046   4.435   5.381   6.887
 6049SOL    HW219047   4.490   5.275   6.776
 6050SOL     OW19048   2.871   5.543   2.270
 6050SOL    HW119049   2.792   5.497   2.309
 6050SOL    HW219050   2.908   5.489   2.194
 6051SOL     OW19051   0.620   1.530   3.027
 6051SOL    HW119052   0.558   1.579   3.089
 6051SOL    HW219053   0.567   1.486   2.955
 6052SOL     OW19054   5.450   5.362   0.815
 6052SOL    HW119055   5.501   5.323   0.739
 6052SOL    HW219056   5.352   5.350   0.800
 6053SOL     OW19057   4.530   2.652   6.303
 6053SOL    HW119058   4.597   2.638   6.377
 6053SOL    HW219059   4.536   2.576   6.238
 6054SOL     OW19060   4.033   3.908   0.907
 6054SOL    HW119061   4.077   3.848   0.972
 6054SOL    HW219062   3.953   3.951   0.949
 6055SOL     OW19063   2.748   4.087   1.129
 6055SOL    HW119064   2.804   4.122   1.054
 6055SOL    HW219065   2.654   4.120   1.118
 6056SOL     OW19066   4.851   6.362   3.411
 6056SOL    HW119067   4.833   6.327   3.503
 6056SOL    HW219068   4.922   6.307   3.368
 6057SOL     OW19069   5.207   0.629   4.094
 6057SOL    HW119070   5.246   0.648   4.004
 6057SOL    HW219071   5.281   0.608   4.158
 6058SOL     OW19072   6.889   2.566   5.832
 6058SOL    HW119073   6.837   2.642   5.792
 6058SOL    HW219074   6.827   2.509   5.885
 6059SOL     OW19075   4.371   2.704   6.712
 6059SOL    HW119076   4.461   2.745   6.696
 6059SOL    HW219077   4.377   2.638   6.787
 6060SOL     OW19078   2.364   2.590   0.488
 6060SOL    HW119079   2.274   2.617   0.456
 6060SOL    HW219080   2.430   2.663   0.470
 6061SOL     OW19081   3.819   4.160   6.984
 6061SOL    HW119082   3.759   4.224   0.009
 6061SOL    HW219083   3.764   4.097   6.929
 6062SOL     OW19084   1.874   2.277   6.268
 6062SOL    HW119085   1.914   2.361   6.232
 6062SOL    HW219086   1.947   2.214   6.293
 6063SOL     OW19087   4.442   3.673   6.673
 6063SOL    HW119088   4.462   3.595   6.732
 6063SOL    HW219089   4.503   3.749   6.697
 6064SOL     OW19090   6.424   6.032   1.130
 6064SOL    HW119091   6.351   6.009   1.194
 6064SOL    HW219092   6.422   5.969   1.053
 6065SOL     OW19093   2.260   6.513   1.639
 6065SOL    HW119094   2.290   6.420   1.618
 6065SOL    HW219095   2.276   6.572   1.559
 6066SOL     OW19096   5.471   6.096   2.908
 6066SOL    HW119097   5.389   6.065   2.955
 6066SOL    HW219098   5.474   6.196   2.909
 6067SOL     OW19099   7.011   5.983   5.811
 6067SOL    HW119100   0.028   6.074   5.823
 6067SOL    HW219101   7.001   5.939   5.900
 6068SOL     OW19102   5.134   2.200   4.167
 6068SOL    HW119103   5.186   2.218   4.251
 6068SOL    HW219104   5.084   2.282   4.140
 6069SOL     OW19105   6.990   4.205   6.232
 6069SOL    HW119106   6.949   4.123   6.193
 6069SOL    HW219107   0.029   4.247   6.165
 6070SOL     OW19108   2.185   1.704   1.052
 6070SOL    HW119109   2.240   1.778   1.092
 6070SOL    HW219110   2.192   1.622   1.108
 6071SOL     OW19111   6.027   1.391   5.776
 6071SOL    HW119112   6.003   1.356   5.867
 6071SOL    HW219113   6.012   1.319   5.708
 6072SOL     OW19114   6.455   3.763   6.650
 6072SOL    HW119115   6.455   3.663   6.656
 6072SOL    HW219116   6.451   3.802   6.741
 6073SOL     OW19117   5.119   3.639   0.018
 6073SOL    HW119118   5.136   3.736   0.036
 6073SOL    HW219119   5.146   3.616   6.947
 6074SOL     OW19120   1.437   6.652   2.265
 6074SOL    HW119121   1.431   6.570   2.321
 6074SOL    HW219122   1.452   6.626   2.170
 6075SOL     OW19123   5.689   0.727   6.573
 6075SOL    HW119124   5.721   0.786   6.500
 6075SOL    HW219125   5.592   0.744   6.591
 6076SOL     OW19126   0.593   6.046   2.648
 6076SOL    HW119127   0.652   6.082   2.720
 6076SOL    HW219128   0.599   6.105   2.567
 6077SOL     OW19129   5.351   6.062   2.576
 6077SOL    HW119130   5.273   6.094   2.631
 6077SOL    HW219131   5.368   6.128   2.503
 6078SOL     OW19132   4.800   3.650   0.191
 6078SOL    HW119133   4.741   3.677   0.267
 6078SOL    HW219134   4.769   3.694   0.107
 6079SOL     OW19135   2.986   2.093   0.072
 6079SOL    HW119136   3.050   2.110   0.147
 6079SOL    HW219137   2.910   2.158   0.077
 6080SOL     OW19138   6.677   3.896   6.066
 6080SOL    HW119139   6.710   3.897   5.971
 6080SOL    HW219140   6.577   3.893   6.066
 6081SOL     OW19141   1.923   3.267   3.963
 6081SOL    HW119142   1.915   3.181   3.913
 6081SOL    HW219143   1.844   3.279   4.023
 6082SOL     OW19144   4.794   1.423   1.355
 6082SOL    HW119145   4.780   1.438   1.452
 6082SOL    HW219146   4.733   1.351   1.322
 6083SOL     OW19147   4.690   0.322   6.538
 6083SOL    HW119148   4.701   0.355   6.445
 6083SOL    HW219149   4.780   0.313   6.581
 6084SOL     OW19150   6.593   5.611   2.773
 6084SOL    HW119151   6.645   5.622   2.858
 6084SOL    HW219152   6.513   5.554   2.790
 6085SOL     OW19153   0.653   6.587   0.341
 6085SOL    HW119154   0.656   6.611   0.244
 6085SOL    HW219155   0.674   6.490   0.353
 6086SOL     OW19156   3.417   4.048   0.116
 6086SOL    HW119157   3.333   4.069   0.067
 6086SOL    HW219158   3.496   4.074   0.060
 6087SOL     OW19159   4.681   0.176   0.425
 6087SOL    HW119160   4.595   0.126   0.423
 6087SOL    HW219161   4.668   0.265   0.380
 6088SOL     OW19162   4.708   5.591   2.636
 6088SOL    HW119163   4.679   5.643   2.717
 6088SOL    HW219164   4.681   5.495   2.646
 6089SOL     OW19165   5.873   3.723   3.617
 6089SOL    HW119166   5.799   3.784   3.644
 6089SOL    HW219167   5.924   3.764   3.542
 6090SOL     OW19168   3.968   5.494   3.956
 6090SOL    HW119169   4.042   5.553   3.989
 6090SOL    HW219170   3.912   5.465   4.033
 6091SOL     OW19171   1.132   1.027   1.250
 6091SOL    HW119172   1.113   1.092   1.324
 6091SOL    HW219173   1.079   1.052   1.169
 6092SOL     OW19174   2.881   0.081   1.445
 6092SOL    HW119175   2.878   0.039   1.535
 6092SOL    HW219176   2.848   0.016   1.377
 6093SOL     OW19177   2.364   2.496   2.239
 6093SOL    HW119178   2.354   2.523   2.143
 6093SOL    HW219179   2.358   2.396   2.247
 6094SOL     OW19180   0.597   6.109   5.272
 6094SOL    HW119181   0.587   6.121   5.174
 6094SOL    HW219182   0.625   6.015   5.291
 6095SOL     OW19183   4.790   4.648   1.609
 6095SOL    HW119184   4.865   4.600   1.654
 6095SOL    HW219185   4.742   4.705   1.675
 6096SOL     OW19186   5.092   5.910   3.234
 6096SOL    HW119187   5.019   5.849   3.205
 6096SOL    HW219188   5.144   5.868   3.308
 6097SOL     OW19189   2.054   4.855   2.655
 6097SOL    HW119190   2.053   4.864   2.754
 6097SOL    HW219191   2.119   4.784   2.628
 6098SOL     OW19192   6.404   0.543   4.969
 6098SOL    HW119193   6.370   0.637   4.962
 6098SOL    HW219194   6.468   0.524   4.895
 6099SOL     OW19195   3.531   0.561   5.754
 6099SOL    HW119196   3.458   0.508   5.710
 6099SOL    HW219197   3.534   0.540   5.852
 6100SOL     OW19198   0.736   5.525   5.142
 6100SOL    HW119199   0.775   5.446   5.188
 6100SOL    HW219200   0.810   5.586   5.112
 6101SOL     OW19201   6.896   3.376   1.526
 6101SOL    HW119202   6.926   3.471   1.522
 6101SOL    HW219203   6.844   3.355   1.444
 6102SOL     OW19204   3.630   0.212   2.670
 6102SOL    HW119205   3.686   0.256   2.741
 6102SOL    HW219206   3.544   0.263   2.659
 6103SOL     OW19207   6.411   1.735   2.193
 6103SOL    HW119208   6.457   1.822   2.210
 6103SOL    HW219209   6.313   1.751   2.182
 6104SOL     OW19210   6.677   0.528   4.452
 6104SOL    HW119211   6.638   0.498   4.365
 6104SOL    HW219212   6.770   0.560   4.438
 6105SOL     OW19213   3.557   4.409   6.085
 6105SOL    HW119214   3.549   4.310   6.086
 6105SOL    HW219215   3.468   4.449   6.062
 6106SOL     OW19216   6.055   5.183   5.462
 6106SOL    HW119217   6.083   5.174   5.558
 6106SOL    HW219218   6.123   5.141   5.403
 6107SOL     OW19219   5.783   4.710   5.275
 6107SOL    HW119220   5.882   4.711   5.256
 6107SOL    HW219221   5.767   4.745   5.368
 6108SOL     OW19222   2.005   1.014   6.952
 6108SOL    HW119223   2.090   0.979   6.912
 6108SOL    HW219224   1.938   1.030   6.879
 6109SOL     OW19225   6.711   6.558   3.868
 6109SOL    HW119226   6.742   6.604   3.951
 6109SOL    HW219227   6.777   6.487   3.843
 6110SOL     OW19228   1.946   1.320   4.068
 6110SOL    HW119229   2.015   1.323   4.140
 6110SOL    HW219230   1.960   1.395   4.004
 6111SOL     OW19231   2.240   3.621   1.118
 6111SOL    HW119232   2.212   3.537   1.164
 6111SOL    HW219233   2.326   3.605   1.070
 6112SOL     OW19234   5.035   6.866   3.852
 6112SOL    HW119235   4.982   6.911   3.924
 6112SOL    HW219236   5.091   6.793   3.893
 6113SOL     OW19237   1.962   5.710   0.956
 6113SOL    HW119238   1.893   5.681   0.889
 6113SOL    HW219239   1.946   5.805   0.983
 6114SOL     OW19240   5.267   1.878   0.977
 6114SOL    HW119241   5.264   1.848   0.882
 6114SOL    HW219242   5.216   1.964   0.986
 6115SOL     OW19243   0.920   0.984   6.241
 6115SOL    HW119244   0.928   0.886   6.223
 6115SOL    HW219245   1.008   1.028   6.226
 6116SOL     OW19246   5.595   3.401   6.836
 6116SOL    HW119247   5.678   3.453   6.855
 6116SOL    HW219248   5.605   3.353   6.749
 6117SOL     OW19249   1.649   2.068   1.526
 6117SOL    HW119250   1.619   1.986   1.478
 6117SOL    HW219251   1.586   2.143   1.507
 6118SOL     OW19252   5.872   1.063   1.971
 6118SOL    HW119253   5.845   1.122   1.895
 6118SOL    HW219254   5.843   1.104   2.057
 6119SOL     OW19255   6.437   1.682   6.672
 6119SOL    HW119256   6.474   1.670   6.764
 6119SOL    HW219257   6.350   1.732   6.677
 6120SOL     OW19258   3.145   0.690   4.340
 6120SOL    HW119259   3.091   0.768   4.370
 6120SOL    HW219260   3.084   0.618   4.306
 6121SOL     OW19261   1.857   2.469   4.870
 6121SOL    HW119262   1.840   2.451   4.773
 6121SOL    HW219263   1.921   2.545   4.879
 6122SOL     OW19264   5.530   4.858   5.247
 6122SOL    HW119265   5.469   4.799   5.300
 6122SOL    HW219266   5.614   4.808   5.224
 6123SOL     OW19267   5.698   1.834   5.358
 6123SOL    HW119268   5.792   1.850   5.387
 6123SOL    HW219269   5.695   1.755   5.297
 6124SOL     OW19270   2.643   6.058   4.224
 6124SOL    HW119271   2.563   6.024   4.176
 6124SOL    HW219272   2.655   6.008   4.309
 6125SOL     OW19273   2.911   1.819   6.249
 6125SOL    HW119274   2.885   1.727   6.276
 6125SOL    HW219275   2.972   1.815   6.170
 6126SOL     OW19276   5.943   2.983   6.051
 6126SOL    HW119277   5.987   3.025   6.130
 6126SOL    HW219278   5.977   3.026   5.967
 6127SOL     OW19279   4.899   2.023   2.610
 6127SOL    HW119280   4.995   2.047   2.592
 6127SOL    HW219281   4.845   2.038   2.527
 6128SOL     OW19282   5.729   5.867   6.776
 6128SOL    HW119283   5.723   5.940   6.708
 6128SOL    HW219284   5.823   5.833   6.780
 6129SOL     OW19285   2.098   5.861   2.301
 6129SOL    HW119286   2.065   5.779   2.254
 6129SOL    HW219287   2.021   5.922   2.320
 6130SOL     OW19288   5.835   2.843   0.420
 6130SOL    HW119289   5.756   2.791   0.453
 6130SOL    HW219290   5.821   2.868   0.324
 6131SOL     OW19291   6.280   2.068   2.845
 6131SOL    HW119292   6.202   2.020   2.884
 6131SOL    HW219293   6.348   2.002   2.814
 6132SOL     OW19294   4.021   1.142   6.139
 6132SOL    HW119295   4.009   1.237   6.166
 6132SOL    HW219296   3.962   1.084   6.195
 6133SOL     OW19297   0.572   2.324   2.951
 6133SOL    HW119298   0.643   2.391   2.974
 6133SOL    HW219299   0.560   2.261   3.027
 6134SOL     OW19300   0.536   6.333   5.706
 6134SOL    HW119301   0.622   6.318   5.755
 6134SOL    HW219302   0.554   6.333   5.608
 6135SOL     OW19303   0.293   6.829   0.195
 6135SOL    HW119304   0.234   6.861   0.269
 6135SOL    HW219305   0.263   6.870   0.108
 6136SOL     OW19306   0.886   2.815   2.721
 6136SOL    HW119307   0.859   2.908   2.700
 6136SOL    HW219308   0.918   2.769   2.638
 6137SOL     OW19309   6.996   3.931   1.493
 6137SOL    HW119310   6.919   3.994   1.499
 6137SOL    HW219311   7.010   3.887   1.582
 6138SOL     OW19312   4.573   0.289   2.216
 6138SOL    HW119313   4.507   0.294   2.290
 6138SOL    HW219314   4.584   0.380   2.175
 6139SOL     OW19315   1.455   0.766   4.957
 6139SOL    HW119316   1.358   0.755   4.979
 6139SOL    HW219317   1.474   0.861   4.935
 6140SOL     OW19318   1.723   0.113   2.705
 6140SOL    HW119319   1.726   0.161   2.793
 6140SOL    HW219320   1.630   0.119   2.667
 6141SOL     OW19321   0.881   0.674   5.969
 6141SOL    HW119322   0.825   0.757   5.962
 6141SOL    HW219323   0.908   0.660   6.064
 6142SOL     OW19324   6.699   0.296   1.578
 6142SOL    HW119325   6.771   0.364   1.562
 6142SOL    HW219326   6.700   0.229   1.504
 6143SOL     OW19327   0.037   3.605   5.656
 6143SOL    HW119328   0.023   3.689   5.708
 6143SOL    HW219329   0.073   3.628   5.565
 6144SOL     OW19330   4.396   5.296   2.727
 6144SOL    HW119331   4.320   5.360   2.715
 6144SOL    HW219332   4.427   5.264   2.638
 6145SOL     OW19333   4.920   3.699   3.885
 6145SOL    HW119334   4.896   3.706   3.788
 6145SOL    HW219335   4.906   3.788   3.929
 6146SOL     OW19336   5.657   0.116   5.172
 6146SOL    HW119337   5.733   0.176   5.197
 6146SOL    HW219338   5.692   0.039   5.117
 6147SOL     OW19339   1.274   2.574   5.050
 6147SOL    HW119340   1.319   2.658   5.020
 6147SOL    HW219341   1.188   2.563   5.001
 6148SOL     OW19342   3.976   4.933   6.912
 6148SOL    HW119343   4.013   4.869   6.844
 6148SOL    HW219344   3.938   5.013   6.866
 6149SOL     OW19345   3.333   1.105   1.527
 6149SOL    HW119346   3.412   1.044   1.521
 6149SOL    HW219347   3.345   1.182   1.465
 6150SOL     OW19348   1.197   4.206   5.483
 6150SOL    HW119349   1.188   4.116   5.526
 6150SOL    HW219350   1.261   4.201   5.407
 6151SOL     OW19351   4.394   5.207   3.296
 6151SOL    HW119352   4.443   5.290   3.322
 6151SOL    HW219353   4.342   5.224   3.212
 6152SOL     OW19354   1.580   4.552   4.059
 6152SOL    HW119355   1.539   4.528   3.971
 6152SOL    HW219356   1.526   4.512   4.133
 6153SOL     OW19357   5.104   5.674   1.055
 6153SOL    HW119358   5.074   5.589   1.098
 6153SOL    HW219359   5.175   5.654   0.988
 6154SOL     OW19360   5.078   3.556   2.415
 6154SOL    HW119361   5.147   3.525   2.480
 6154SOL    HW219362   5.123   3.591   2.333
 6155SOL     OW19363   2.124   1.571   3.135
 6155SOL    HW119364   2.155   1.666   3.135
 6155SOL    HW219365   2.059   1.557   3.060
 6156SOL     OW19366   5.255   4.707   1.279
 6156SOL    HW119367   5.177   4.647   1.295
 6156SOL    HW219368   5.340   4.654   1.283
 6157SOL     OW19369   0.763   2.651   1.874
 6157SOL    HW119370   0.728   2.606   1.956
 6157SOL    HW219371   0.719   2.611   1.793
 6158SOL     OW19372   2.930   2.241   4.761
 6158SOL    HW119373   2.842   2.287   4.746
 6158SOL    HW219374   2.987   2.296   4.822
 6159SOL     OW19375   6.645   2.203   0.410
 6159SOL    HW119376   6.547   2.221   0.410
 6159SOL    HW219377   6.666   2.125   0.468
 6160SOL     OW19378   1.227   0.578   1.157
 6160SOL    HW119379   1.259   0.542   1.069
 6160SOL    HW219380   1.163   0.653   1.140
 6161SOL     OW19381   4.413   3.558   6.444
 6161SOL    HW119382   4.320   3.568   6.409
 6161SOL    HW219383   4.428   3.621   6.520
 6162SOL     OW19384   6.200   5.242   2.377
 6162SOL    HW119385   6.217   5.305   2.301
 6162SOL    HW219386   6.101   5.228   2.386
 6163SOL     OW19387   6.062   6.065   3.300
 6163SOL    HW119388   6.025   6.084   3.209
 6163SOL    HW219389   6.129   6.134   3.324
 6164SOL     OW19390   3.066   3.728   4.314
 6164SOL    HW119391   3.159   3.693   4.302
 6164SOL    HW219392   3.004   3.652   4.332
 6165SOL     OW19393   3.473   1.514   0.187
 6165SOL    HW119394   3.383   1.556   0.199
 6165SOL    HW219395   3.507   1.484   0.276
 6166SOL     OW19396   2.425   2.861   6.504
 6166SOL    HW119397   2.410   2.830   6.410
 6166SOL    HW219398   2.337   2.880   6.547
 6167SOL     OW19399   1.758   3.370   2.936
 6167SOL    HW119400   1.833   3.333   2.880
 6167SOL    HW219401   1.795   3.427   3.008
 6168SOL     OW19402   0.344   4.308   3.642
 6168SOL    HW119403   0.382   4.367   3.571
 6168SOL    HW219404   0.253   4.278   3.615
 6169SOL     OW19405   2.066   0.739   6.736
 6169SOL    HW119406   2.133   0.785   6.793
 6169SOL    HW219407   2.036   0.802   6.664
 6170SOL     OW19408   2.894   4.087   0.858
 6170SOL    HW119409   2.827   4.091   0.783
 6170SOL    HW219410   2.979   4.130   0.829
 6171SOL     OW19411   2.243   3.947   2.130
 6171SOL    HW119412   2.298   3.926   2.211
 6171SOL    HW219413   2.219   3.862   2.083
 6172SOL     OW19414   2.450   5.425   2.503
 6172SOL    HW119415   2.382   5.426   2.576
 6172SOL    HW219416   2.404   5.410   2.415
 6173SOL     OW19417   1.324   5.840   2.274
 6173SOL    HW119418   1.387   5.766   2.296
 6173SOL    HW219419   1.295   5.832   2.178
 6174SOL     OW19420   5.405   4.961   2.084
 6174SOL    HW119421   5.324   4.993   2.133
 6174SOL    HW219422   5.466   4.914   2.148
 6175SOL     OW19423   5.144   0.271   3.218
 6175SOL    HW119424   5.130   0.210   3.295
 6175SOL    HW219425   5.082   0.350   3.225
 6176SOL     OW19426   6.318   3.203   6.278
 6176SOL    HW119427   6.341   3.285   6.227
 6176SOL    HW219428   6.333   3.122   6.221
 6177SOL     OW19429   6.723   2.762   1.238
 6177SOL    HW119430   6.675   2.676   1.222
 6177SOL    HW219431   6.822   2.748   1.225
 6178SOL     OW19432   6.121   3.206   1.449
 6178SOL    HW119433   6.155   3.144   1.519
 6178SOL    HW219434   6.198   3.239   1.395
 6179SOL     OW19435   0.688   2.304   5.613
 6179SOL    HW119436   0.759   2.243   5.578
 6179SOL    HW219437   0.600   2.278   5.575
 6180SOL     OW19438   3.648   6.684   6.583
 6180SOL    HW119439   3.555   6.715   6.563
 6180SOL    HW219440   3.710   6.722   6.515
 6181SOL     OW19441   5.156   5.691   0.257
 6181SOL    HW119442   5.150   5.732   0.348
 6181SOL    HW219443   5.249   5.701   0.222
 6182SOL     OW19444   4.548   6.549   6.639
 6182SOL    HW119445   4.628   6.490   6.640
 6182SOL    HW219446   4.472   6.502   6.594
 6183SOL     OW19447   2.944   0.556   3.317
 6183SOL    HW119448   3.003   0.602   3.383
 6183SOL    HW219449   2.942   0.458   3.337
 6184SOL     OW19450   6.340   0.610   6.446
 6184SOL    HW119451   6.301   0.615   6.354
 6184SOL    HW219452   6.396   0.692   6.462
 6185SOL     OW19453   0.760   3.713   6.213
 6185SOL    HW119454   0.802   3.633   6.257
 6185SOL    HW219455   0.662   3.715   6.235
 6186SOL     OW19456   5.778   6.906   5.039
 6186SOL    HW119457   5.756   6.866   5.128
 6186SOL    HW219458   5.717   6.868   4.969
 6187SOL     OW19459   4.068   5.080   4.143
 6187SOL    HW119460   4.037   4.992   4.106
 6187SOL    HW219461   4.048   5.153   4.078
 6188SOL     OW19462   2.864   0.266   1.910
 6188SOL    HW119463   2.846   0.202   1.835
 6188SOL    HW219464   2.809   0.349   1.896
 6189SOL     OW19465   5.912   5.301   3.351
 6189SOL    HW119466   5.933   5.370   3.420
 6189SOL    HW219467   5.979   5.305   3.278
 6190SOL     OW19468   4.968   2.543   6.683
 6190SOL    HW119469   4.869   2.554   6.675
 6190SOL    HW219470   5.014   2.618   6.635
 6191SOL     OW19471   6.697   2.277   6.610
 6191SOL    HW119472   6.666   2.241   6.522
 6191SOL    HW219473   6.792   2.253   6.624
 6192SOL     OW19474   3.393   2.582   0.097
 6192SOL    HW119475   3.306   2.552   0.135
 6192SOL    HW219476   3.445   2.632   0.167
 6193SOL     OW19477   5.746   7.009   1.332
 6193SOL    HW119478   5.778   0.055   1.265
 6193SOL    HW219479   5.662   0.020   1.376
 6194SOL     OW19480   2.079   0.293   0.271
 6194SOL    HW119481   2.084   0.202   0.230
 6194SOL    HW219482   2.006   0.295   0.339
 6195SOL     OW19483   2.982   6.562   6.298
 6195SOL    HW119484   3.081   6.572   6.309
 6195SOL    HW219485   2.936   6.588   6.383
 6196SOL     OW19486   6.928   1.124   6.734
 6196SOL    HW119487   6.958   1.172   6.816
 6196SOL    HW219488   6.968   1.032   6.733
 6197SOL     OW19489   2.257   3.103   0.591
 6197SOL    HW119490   2.322   3.064   0.656
 6197SOL    HW219491   2.306   3.152   0.519
 6198SOL     OW19492   4.165   5.099   2.408
 6198SOL    HW119493   4.081   5.149   2.432
 6198SOL    HW219494   4.150   5.050   2.322
 6199SOL     OW19495   1.263   0.694   6.370
 6199SOL    HW119496   1.349   0.676   6.322
 6199SOL    HW219497   1.276   0.676   6.468
 6200SOL     OW19498   3.466   0.015   5.978
 6200SOL    HW119499   3.563   0.007   5.956
 6200SOL    HW219500   3.433   0.106   5.955
 6201SOL     OW19501   2.420   4.438   4.226
 6201SOL    HW119502   2.470   4.462   4.142
 6201SOL    HW219503   2.379   4.348   4.216
 6202SOL     OW19504   3.162   2.744   1.437
 6202SOL    HW119505   3.184   2.704   1.526
 6202SOL    HW219506   3.116   2.676   1.380
 6203SOL     OW19507   4.734   1.859   5.301
 6203SOL    HW119508   4.681   1.774   5.291
 6203SOL    HW219509   4.750   1.898   5.211
 6204SOL     OW19510   1.444   6.474   5.860
 6204SOL    HW119511   1.361   6.512   5.818
 6204SOL    HW219512   1.521   6.536   5.843
 6205SOL     OW19513   5.453   5.683   0.211
 6205SOL    HW119514   5.539   5.633   0.215
 6205SOL    HW219515   5.471   5.781   0.196
 6206SOL     OW19516   5.031   0.196   2.992
 6206SOL    HW119517   5.001   0.274   2.936
 6206SOL    HW219518   5.097   0.228   3.060
 6207SOL     OW19519   1.716   3.850   4.784
 6207SOL    HW119520   1.760   3.779   4.730
 6207SOL    HW219521   1.648   3.809   4.845
 6208SOL     OW19522   5.492   6.237   6.243
 6208SOL    HW119523   5.432   6.293   6.184
 6208SOL    HW219524   5.492   6.143   6.210
 6209SOL     OW19525   3.464   5.367   1.000
 6209SOL    HW119526   3.539   5.363   0.934
 6209SOL    HW219527   3.376   5.360   0.953
 6210SOL     OW19528   5.952   4.831   3.637
 6210SOL    HW119529   5.989   4.825   3.545
 6210SOL    HW219530   5.862   4.788   3.639
 6211SOL     OW19531   2.326   0.608   4.931
 6211SOL    HW119532   2.261   0.634   4.860
 6211SOL    HW219533   2.313   0.668   5.011
 6212SOL     OW19534   6.870   6.484   3.631
 6212SOL    HW119535   6.920   6.433   3.701
 6212SOL    HW219536   6.877   6.582   3.650
 6213SOL     OW19537   0.382   6.480   6.158
 6213SOL    HW119538   0.476   6.449   6.146
 6213SOL    HW219539   0.348   6.451   6.248
 6214SOL     OW19540   6.524   4.860   2.821
 6214SOL    HW119541   6.502   4.903   2.733
 6214SOL    HW219542   6.500   4.763   2.818
 6215SOL     OW19543   2.938   4.641   0.930
 6215SOL    HW119544   2.991   4.702   0.871
 6215SOL    HW219545   2.847   4.628   0.892
 6216SOL     OW19546   6.439   1.877   2.766
 6216SOL    HW119547   6.535   1.848   2.765
 6216SOL    HW219548   6.382   1.805   2.727
 6217SOL     OW19549   5.596   3.042   1.856
 6217SOL    HW119550   5.548   2.967   1.901
 6217SOL    HW219551   5.529   3.110   1.825
 6218SOL     OW19552   3.574   5.113   4.578
 6218SOL    HW119553   3.493   5.088   4.631
 6218SOL    HW219554   3.552   5.112   4.480
 6219SOL     OW19555   0.862   1.757   4.354
 6219SOL    HW119556   0.774   1.756   4.401
 6219SOL    HW219557   0.856   1.816   4.273
 6220SOL     OW19558   1.382   4.190   5.254
 6220SOL    HW119559   1.423   4.259   5.194
 6220SOL    HW219560   1.445   4.112   5.263
 6221SOL     OW19561   3.976   4.891   4.692
 6221SOL    HW119562   3.979   4.796   4.660
 6221SOL    HW219563   3.882   4.924   4.692
 6222SOL     OW19564   0.078   1.421   1.139
 6222SOL    HW119565   0.016   1.427   1.217
 6222SOL    HW219566   0.035   1.460   1.058
 6223SOL     OW19567   5.262   3.736   4.855
 6223SOL    HW119568   5.235   3.736   4.951
 6223SOL    HW219569   5.204   3.672   4.804
 6224SOL     OW19570   2.560   1.049   5.339
 6224SOL    HW119571   2.518   1.031   5.428
 6224SOL    HW219572   2.517   0.992   5.269
 6225SOL     OW19573   4.390   2.235   0.042
 6225SOL    HW119574   4.470   2.175   0.039
 6225SOL    HW219575   4.334   2.211   0.121
 6226SOL     OW19576   6.215   6.855   4.479
 6226SOL    HW119577   6.174   6.806   4.556
 6226SOL    HW219578   6.163   6.939   4.462
 6227SOL     OW19579   3.004   4.591   6.281
 6227SOL    HW119580   3.078   4.624   6.339
 6227SOL    HW219581   3.028   4.603   6.185
 6228SOL     OW19582   7.009   0.490   3.098
 6228SOL    HW119583   7.010   0.392   3.114
 6228SOL    HW219584   0.001   0.539   3.185
 6229SOL     OW19585   1.947   2.815   1.986
 6229SOL    HW119586   1.909   2.798   1.895
 6229SOL    HW219587   2.027   2.874   1.979
 6230SOL     OW19588   2.234   2.315   3.272
 6230SOL    HW119589   2.157   2.354   3.222
 6230SOL    HW219590   2.274   2.385   3.332
 6231SOL     OW19591   0.033   5.126   1.503
 6231SOL    HW119592   0.130   5.148   1.517
 6231SOL    HW219593   0.015   5.113   1.406
 6232SOL     OW19594   0.890   1.303   6.477
 6232SOL    HW119595   0.854   1.331   6.388
 6232SOL    HW219596   0.917   1.207   6.473
 6233SOL     OW19597   4.627   2.097   0.206
 6233SOL    HW119598   4.541   2.049   0.224
 6233SOL    HW219599   4.644   2.164   0.278
 6234SOL     OW19600   2.354   2.403   3.689
 6234SOL    HW119601   2.374   2.307   3.709
 6234SOL    HW219602   2.409   2.462   3.748
 6235SOL     OW19603   2.629   6.459   3.719
 6235SOL    HW119604   2.588   6.369   3.710
 6235SOL    HW219605   2.636   6.484   3.815
 6236SOL     OW19606   6.814   3.750   0.302
 6236SOL    HW119607   6.825   3.798   0.215
 6236SOL    HW219608   6.717   3.747   0.327
 6237SOL     OW19609   4.439   6.869   0.343
 6237SOL    HW119610   4.509   6.814   0.388
 6237SOL    HW219611   4.420   6.950   0.399
 6238SOL     OW19612   4.791   4.301   1.065
 6238SOL    HW119613   4.868   4.250   1.103
 6238SOL    HW219614   4.822   4.388   1.028
 6239SOL     OW19615   2.475   0.848   3.620
 6239SOL    HW119616   2.522   0.840   3.708
 6239SOL    HW219617   2.420   0.766   3.604
 6240SOL     OW19618   2.307   3.638   0.731
 6240SOL    HW119619   2.338   3.591   0.649
 6240SOL    HW219620   2.330   3.584   0.812
 6241SOL     OW19621   4.688   0.096   1.780
 6241SOL    HW119622   4.685   0.158   1.701
 6241SOL    HW219623   4.596   0.085   1.817
 6242SOL     OW19624   3.843   2.109   3.604
 6242SOL    HW119625   3.818   2.134   3.698
 6242SOL    HW219626   3.927   2.056   3.604
 6243SOL     OW19627   5.662   5.434   3.322
 6243SOL    HW119628   5.642   5.431   3.420
 6243SOL    HW219629   5.745   5.381   3.304
 6244SOL     OW19630   2.031   2.057   2.390
 6244SOL    HW119631   2.066   2.150   2.390
 6244SOL    HW219632   1.991   2.036   2.300
 6245SOL     OW19633   2.082   4.379   0.450
 6245SOL    HW119634   2.043   4.409   0.537
 6245SOL    HW219635   2.181   4.387   0.453
 6246SOL     OW19636   3.024   1.021   6.040
 6246SOL    HW119637   2.943   1.059   5.996
 6246SOL    HW219638   3.036   1.064   6.130
 6247SOL     OW19639   6.831   6.240   2.907
 6247SOL    HW119640   6.874   6.310   2.851
 6247SOL    HW219641   6.749   6.205   2.861
 6248SOL     OW19642   0.669   5.002   0.974
 6248SOL    HW119643   0.652   4.943   0.895
 6248SOL    HW219644   0.647   4.952   1.058
 6249SOL     OW19645   5.222   3.932   6.216
 6249SOL    HW119646   5.284   3.857   6.194
 6249SOL    HW219647   5.264   3.991   6.285
 6250SOL     OW19648   5.252   5.231   6.128
 6250SOL    HW119649   5.208   5.232   6.218
 6250SOL    HW219650   5.197   5.284   6.063
 6251SOL     OW19651   4.586   2.211   0.887
 6251SOL    HW119652   4.612   2.126   0.841
 6251SOL    HW219653   4.488   2.227   0.875
 6252SOL     OW19654   2.127   6.542   5.215
 6252SOL    HW119655   2.096   6.636   5.222
 6252SOL    HW219656   2.196   6.524   5.286
 6253SOL     OW19657   1.520   3.896   1.305
 6253SOL    HW119658   1.521   3.858   1.397
 6253SOL    HW219659   1.476   3.831   1.242
 6254SOL     OW19660   5.200   0.619   0.807
 6254SOL    HW119661   5.117   0.665   0.773
 6254SOL    HW219662   5.198   0.618   0.907
 6255SOL     OW19663   0.173   1.407   2.359
 6255SOL    HW119664   0.105   1.468   2.400
 6255SOL    HW219665   0.249   1.396   2.423
 6256SOL     OW19666   3.163   4.872   3.101
 6256SOL    HW119667   3.241   4.877   3.164
 6256SOL    HW219668   3.078   4.877   3.153
 6257SOL     OW19669   4.402   2.971   6.568
 6257SOL    HW119670   4.450   3.000   6.651
 6257SOL    HW219671   4.374   2.876   6.577
 6258SOL     OW19672   5.112   2.073   2.946
 6258SOL    HW119673   5.062   2.139   2.890
 6258SOL    HW219674   5.151   2.121   3.025
 6259SOL     OW19675   2.973   2.493   1.618
 6259SOL    HW119676   2.968   2.492   1.718
 6259SOL    HW219677   2.880   2.489   1.580
 6260SOL     OW19678   3.638   3.429   0.434
 6260SOL    HW119679   3.660   3.391   0.523
 6260SOL    HW219680   3.556   3.384   0.397
 6261SOL     OW19681   4.053   0.725   0.099
 6261SOL    HW119682   4.046   0.648   0.036
 6261SOL    HW219683   3.965   0.738   0.145
 6262SOL     OW19684   0.176   5.457   5.604
 6262SOL    HW119685   0.087   5.415   5.620
 6262SOL    HW219686   0.175   5.508   5.518
 6263SOL     OW19687   5.943   0.589   1.083
 6263SOL    HW119688   5.851   0.602   1.047
 6263SOL    HW219689   6.007   0.649   1.035
 6264SOL     OW19690   1.978   1.294   6.869
 6264SOL    HW119691   1.904   1.341   6.917
 6264SOL    HW219692   2.059   1.290   6.928
 6265SOL     OW19693   4.260   2.874   1.373
 6265SOL    HW119694   4.261   2.876   1.473
 6265SOL    HW219695   4.266   2.780   1.341
 6266SOL     OW19696   2.191   0.143   2.601
 6266SOL    HW119697   2.291   0.153   2.600
 6266SOL    HW219698   2.148   0.232   2.616
 6267SOL     OW19699   2.374   6.909   6.885
 6267SOL    HW119700   2.404   6.889   6.978
 6267SOL    HW219701   2.383   7.008   6.867
 6268SOL     OW19702   3.074   4.879   2.848
 6268SOL    HW119703   2.993   4.933   2.869
 6268SOL    HW219704   3.123   4.856   2.932
 6269SOL     OW19705   6.236   4.916   0.728
 6269SOL    HW119706   6.138   4.935   0.722
 6269SOL    HW219707   6.250   4.822   0.758
 6270SOL     OW19708   0.670   1.529   4.655
 6270SOL    HW119709   0.688   1.611   4.601
 6270SOL    HW219710   0.581   1.492   4.630
 6271SOL     OW19711   5.979   1.215   1.059
 6271SOL    HW119712   6.027   1.127   1.052
 6271SOL    HW219713   5.914   1.223   0.984
 6272SOL     OW19714   1.761   1.979   3.742
 6272SOL    HW119715   1.828   2.015   3.677
 6272SOL    HW219716   1.776   2.022   3.831
 6273SOL     OW19717   3.814   0.531   1.443
 6273SOL    HW119718   3.801   0.543   1.345
 6273SOL    HW219719   3.737   0.479   1.480
 6274SOL     OW19720   3.590   6.177   5.879
 6274SOL    HW119721   3.541   6.153   5.963
 6274SOL    HW219722   3.525   6.213   5.812
 6275SOL     OW19723   2.386   0.564   4.348
 6275SOL    HW119724   2.378   0.655   4.307
 6275SOL    HW219725   2.465   0.563   4.410
 6276SOL     OW19726   1.400   5.204   4.231
 6276SOL    HW119727   1.432   5.139   4.162
 6276SOL    HW219728   1.463   5.205   4.308
 6277SOL     OW19729   5.546   3.113   3.354
 6277SOL    HW119730   5.557   3.111   3.454
 6277SOL    HW219731   5.617   3.171   3.314
 6278SOL     OW19732   5.394   0.497   4.247
 6278SOL    HW119733   5.420   0.429   4.315
 6278SOL    HW219734   5.441   0.583   4.266
 6279SOL     OW19735   4.860   1.720   6.937
 6279SOL    HW119736   4.856   1.798   6.875
 6279SOL    HW219737   4.782   1.659   6.920
 6280SOL     OW19738   0.483   5.157   5.663
 6280SOL    HW119739   0.477   5.079   5.600
 6280SOL    HW219740   0.579   5.180   5.678
 6281SOL     OW19741   2.673   6.886   5.375
 6281SOL    HW119742   2.668   6.798   5.327
 6281SOL    HW219743   2.710   6.955   5.312
 6282SOL     OW19744   1.732   0.079   3.652
 6282SOL    HW119745   1.827   0.106   3.636
 6282SOL    HW219746   1.672   0.159   3.643
 6283SOL     OW19747   0.130   2.394   5.326
 6283SOL    HW119748   0.142   2.372   5.229
 6283SOL    HW219749   0.218   2.421   5.365
 6284SOL     OW19750   2.597   4.543   6.161
 6284SOL    HW119751   2.617   4.546   6.259
 6284SOL    HW219752   2.633   4.459   6.122
 6285SOL     OW19753   1.739   4.517   2.720
 6285SOL    HW119754   1.689   4.478   2.798
 6285SOL    HW219755   1.723   4.460   2.639
 6286SOL     OW19756   5.735   0.138   4.474
 6286SOL    HW119757   5.673   0.140   4.552
 6286SOL    HW219758   5.743   0.044   4.440
 6287SOL     OW19759   4.755   4.227   1.840
 6287SOL    HW119760   4.672   4.244   1.894
 6287SOL    HW219761   4.786   4.133   1.857
 6288SOL     OW19762   5.258   3.761   1.034
 6288SOL    HW119763   5.177   3.704   1.048
 6288SOL    HW219764   5.243   3.820   0.954
 6289SOL     OW19765   1.242   1.158   2.808
 6289SOL    HW119766   1.231   1.082   2.871
 6289SOL    HW219767   1.327   1.207   2.828
 6290SOL     OW19768   5.815   3.547   3.068
 6290SOL    HW119769   5.861   3.559   3.156
 6290SOL    HW219770   5.883   3.538   2.996
 6291SOL     OW19771   3.836   3.775   2.981
 6291SOL    HW119772   3.926   3.764   2.941
 6291SOL    HW219773   3.840   3.841   3.056
 6292SOL     OW19774   0.403   1.702   1.917
 6292SOL    HW119775   0.378   1.718   2.012
 6292SOL    HW219776   0.419   1.789   1.871
 6293SOL     OW19777   4.844   6.109   0.606
 6293SOL    HW119778   4.795   6.132   0.521
 6293SOL    HW219779   4.905   6.184   0.630
 6294SOL     OW19780   3.984   5.307   2.441
 6294SOL    HW119781   3.996   5.293   2.539
 6294SOL    HW219782   4.012   5.400   2.417
 6295SOL     OW19783   6.254   6.262   5.873
 6295SOL    HW119784   6.318   6.221   5.808
 6295SOL    HW219785   6.276   6.359   5.885
 6296SOL     OW19786   6.470   1.207   2.349
 6296SOL    HW119787   6.474   1.291   2.294
 6296SOL    HW219788   6.518   1.134   2.301
 6297SOL     OW19789   5.635   0.371   5.848
 6297SOL    HW119790   5.622   0.468   5.864
 6297SOL    HW219791   5.556   0.335   5.798
 6298SOL     OW19792   1.177   1.923   4.306
 6298SOL    HW119793   1.243   1.861   4.349
 6298SOL    HW219794   1.097   1.870   4.276
 6299SOL     OW19795   6.433   3.017   0.174
 6299SOL    HW119796   6.469   2.926   0.195
 6299SOL    HW219797   6.483   3.056   0.097
 6300SOL     OW19798   5.134   0.994   4.202
 6300SOL    HW119799   5.205   0.994   4.132
 6300SOL    HW219800   5.075   1.073   4.189
 6301SOL     OW19801   3.056   0.173   0.865
 6301SOL    HW119802   3.000   0.242   0.819
 6301SOL    HW219803   3.001   0.126   0.934
 6302SOL     OW19804   0.371   1.249   3.204
 6302SOL    HW119805   0.286   1.200   3.224
 6302SOL    HW219806   0.364   1.292   3.115
 6303SOL     OW19807   2.416   6.000   5.633
 6303SOL    HW119808   2.467   5.921   5.599
 6303SOL    HW219809   2.342   6.021   5.571
 6304SOL     OW19810   3.402   1.046   6.122
 6304SOL    HW119811   3.450   1.075   6.205
 6304SOL    HW219812   3.373   1.126   6.070
 6305SOL     OW19813   5.669   1.329   2.047
 6305SOL    HW119814   5.689   1.414   2.096
 6305SOL    HW219815   5.705   1.252   2.100
 6306SOL     OW19816   5.865   2.823   4.142
 6306SOL    HW119817   5.773   2.792   4.165
 6306SOL    HW219818   5.904   2.874   4.219
 6307SOL     OW19819   2.805   4.886   0.244
 6307SOL    HW119820   2.881   4.841   0.290
 6307SOL    HW219821   2.766   4.823   0.176
 6308SOL     OW19822   2.954   2.236   5.468
 6308SOL    HW119823   2.909   2.150   5.442
 6308SOL    HW219824   3.052   2.229   5.448
 6309SOL     OW19825   6.263   2.315   4.671
 6309SOL    HW119826   6.222   2.400   4.705
 6309SOL    HW219827   6.191   2.247   4.658
 6310SOL     OW19828   1.129   4.681   4.864
 6310SOL    HW119829   1.105   4.660   4.769
 6310SOL    HW219830   1.047   4.677   4.921
 6311SOL     OW19831   6.294   6.414   4.613
 6311SOL    HW119832   6.198   6.403   4.586
 6311SOL    HW219833   6.335   6.489   4.560
 6312SOL     OW19834   4.897   4.630   5.821
 6312SOL    HW119835   4.901   4.628   5.721
 6312SOL    HW219836   4.952   4.707   5.855
 6313SOL     OW19837   2.562   5.314   3.408
 6313SOL    HW119838   2.505   5.270   3.339
 6313SOL    HW219839   2.580   5.249   3.482
 6314SOL     OW19840   3.257   6.567   3.752
 6314SOL    HW119841   3.230   6.501   3.682
 6314SOL    HW219842   3.285   6.517   3.835
 6315SOL     OW19843   2.358   3.398   0.553
 6315SOL    HW119844   2.327   3.463   0.484
 6315SOL    HW219845   2.445   3.358   0.525
 6316SOL     OW19846   4.768   1.928   5.718
 6316SOL    HW119847   4.858   1.894   5.747
 6316SOL    HW219848   4.732   1.991   5.787
 6317SOL     OW19849   6.270   5.852   4.098
 6317SOL    HW119850   6.350   5.816   4.049
 6317SOL    HW219851   6.271   5.817   4.191
 6318SOL     OW19852   2.379   2.065   4.380
 6318SOL    HW119853   2.390   2.030   4.473
 6318SOL    HW219854   2.437   2.013   4.318
 6319SOL     OW19855   0.534   1.421   2.793
 6319SOL    HW119856   0.612   1.481   2.777
 6319SOL    HW219857   0.554   1.330   2.757
 6320SOL     OW19858   6.982   2.548   3.575
 6320SOL    HW119859   6.906   2.491   3.605
 6320SOL    HW219860   6.954   2.602   3.495
 6321SOL     OW19861   1.980   3.654   6.582
 6321SOL    HW119862   1.901   3.661   6.643
 6321SOL    HW219863   2.014   3.745   6.561
 6322SOL     OW19864   0.763   0.852   0.086
 6322SOL    HW119865   0.693   0.798   0.131
 6322SOL    HW219866   0.853   0.830   0.125
 6323SOL     OW19867   3.927   1.543   1.436
 6323SOL    HW119868   3.947   1.462   1.490
 6323SOL    HW219869   3.829   1.550   1.420
 6324SOL     OW19870   4.355   1.766   6.837
 6324SOL    HW119871   4.327   1.816   6.756
 6324SOL    HW219872   4.337   1.668   6.824
 6325SOL     OW19873   1.260   2.883   2.154
 6325SOL    HW119874   1.220   2.817   2.090
 6325SOL    HW219875   1.189   2.917   2.216
 6326SOL     OW19876   5.220   5.761   1.291
 6326SOL    HW119877   5.177   5.755   1.201
 6326SOL    HW219878   5.189   5.684   1.347
 6327SOL     OW19879   4.929   5.192   6.048
 6327SOL    HW119880   4.980   5.184   5.962
 6327SOL    HW219881   4.899   5.287   6.060
 6328SOL     OW19882   3.309   4.261   6.325
 6328SOL    HW119883   3.333   4.172   6.361
 6328SOL    HW219884   3.314   4.330   6.397
 6329SOL     OW19885   1.191   1.811   2.882
 6329SOL    HW119886   1.105   1.779   2.921
 6329SOL    HW219887   1.202   1.908   2.902
 6330SOL     OW19888   3.371   1.091   0.350
 6330SOL    HW119889   3.322   1.051   0.428
 6330SOL    HW219890   3.306   1.136   0.289
 6331SOL     OW19891   5.862   3.173   2.684
 6331SOL    HW119892   5.872   3.169   2.585
 6331SOL    HW219893   5.769   3.201   2.707
 6332SOL     OW19894   5.547   6.135   2.191
 6332SOL    HW119895   5.510   6.220   2.152
 6332SOL    HW219896   5.518   6.057   2.136
 6333SOL     OW19897   2.271   5.501   2.694
 6333SOL    HW119898   2.329   5.545   2.762
 6333SOL    HW219899   2.175   5.510   2.720
 6334SOL     OW19900   2.475   1.681   2.542
 6334SOL    HW119901   2.428   1.624   2.609
 6334SOL    HW219902   2.410   1.712   2.473
 6335SOL     OW19903   6.948   1.130   0.106
 6335SOL    HW119904   6.990   1.041   0.088
 6335SOL    HW219905   6.956   1.187   0.025
 6336SOL     OW19906   0.134   3.281   5.452
 6336SOL    HW119907   0.123   3.289   5.551
 6336SOL    HW219908   0.044   3.270   5.409
 6337SOL     OW19909   6.712   4.514   5.110
 6337SOL    HW119910   6.735   4.491   5.204
 6337SOL    HW219911   6.774   4.586   5.077
 6338SOL     OW19912   3.482   1.041   4.255
 6338SOL    HW119913   3.463   1.087   4.342
 6338SOL    HW219914   3.548   0.966   4.271
 6339SOL     OW19915   6.804   2.501   4.909
 6339SOL    HW119916   6.836   2.526   4.818
 6339SOL    HW219917   6.733   2.431   4.902
 6340SOL     OW19918   1.969   5.166   4.368
 6340SOL    HW119919   1.960   5.141   4.464
 6340SOL    HW219920   1.992   5.085   4.314
 6341SOL     OW19921   6.790   4.516   2.755
 6341SOL    HW119922   6.710   4.545   2.703
 6341SOL    HW219923   6.864   4.491   2.692
 6342SOL     OW19924   1.575   2.801   1.179
 6342SOL    HW119925   1.501   2.845   1.230
 6342SOL    HW219926   1.597   2.855   1.098
 6343SOL     OW19927   3.982   1.007   0.493
 6343SOL    HW119928   3.937   1.064   0.562
 6343SOL    HW219929   4.075   1.042   0.477
 6344SOL     OW19930   0.125   4.386   4.152
 6344SOL    HW119931   0.193   4.313   4.162
 6344SOL    HW219932   0.091   4.412   4.242
 6345SOL     OW19933   2.793   2.326   2.258
 6345SOL    HW119934   2.818   2.333   2.161
 6345SOL    HW219935   2.872   2.298   2.311
 6346SOL     OW19936   1.129   5.525   3.878
 6346SOL    HW119937   1.064   5.452   3.855
 6346SOL    HW219938   1.193   5.538   3.803
 6347SOL     OW19939   3.467   0.383   1.819
 6347SOL    HW119940   3.376   0.404   1.853
 6347SOL    HW219941   3.535   0.431   1.874
 6348SOL     OW19942   1.206   1.995   4.675
 6348SOL    HW119943   1.266   1.944   4.736
 6348SOL    HW219944   1.113   1.994   4.712
 6349SOL     OW19945   1.912   0.141   0.463
 6349SOL    HW119946   1.982   0.069   0.463
 6349SOL    HW219947   1.865   0.142   0.551
 6350SOL     OW19948   1.019   6.374   2.703
 6350SOL    HW119949   1.076   6.421   2.770
 6350SOL    HW219950   1.006   6.278   2.730
 6351SOL     OW19951   0.190   1.502   3.086
 6351SOL    HW119952   0.125   1.551   3.028
 6351SOL    HW219953   0.143   1.427   3.132
 6352SOL     OW19954   6.953   6.335   2.322
 6352SOL    HW119955   6.929   6.376   2.410
 6352SOL    HW219956   0.030   6.325   2.316
 6353SOL     OW19957   0.084   6.686   2.374
 6353SOL    HW119958   0.056   6.652   2.284
 6353SOL    HW219959   0.147   6.621   2.416
 6354SOL     OW19960   0.191   6.452   3.962
 6354SOL    HW119961   0.221   6.505   3.883
 6354SOL    HW219962   0.267   6.444   4.027
 6355SOL     OW19963   1.413   2.323   1.981
 6355SOL    HW119964   1.505   2.331   2.019
 6355SOL    HW219965   1.389   2.408   1.934
 6356SOL     OW19966   2.948   2.963   1.067
 6356SOL    HW119967   2.851   2.942   1.057
 6356SOL    HW219968   2.964   3.059   1.044
 6357SOL     OW19969   4.607   2.195   0.496
 6357SOL    HW119970   4.613   2.098   0.519
 6357SOL    HW219971   4.517   2.230   0.522
 6358SOL     OW19972   0.488   2.672   3.993
 6358SOL    HW119973   0.455   2.713   4.078
 6358SOL    HW219974   0.587   2.656   4.001
 6359SOL     OW19975   6.600   0.843   6.745
 6359SOL    HW119976   6.665   0.851   6.670
 6359SOL    HW219977   6.632   0.898   6.823
 6360SOL     OW19978   3.261   6.134   4.442
 6360SOL    HW119979   3.176   6.152   4.392
 6360SOL    HW219980   3.338   6.139   4.379
 6361SOL     OW19981   3.766   5.961   6.126
 6361SOL    HW119982   3.807   6.040   6.173
 6361SOL    HW219983   3.778   5.972   6.028
 6362SOL     OW19984   6.320   5.250   6.380
 6362SOL    HW119985   6.307   5.154   6.404
 6362SOL    HW219986   6.401   5.258   6.322
 6363SOL     OW19987   0.837   6.039   4.112
 6363SOL    HW119988   0.798   5.948   4.129
 6363SOL    HW219989   0.767   6.098   4.072
 6364SOL     OW19990   2.004   2.758   6.230
 6364SOL    HW119991   2.072   2.698   6.273
 6364SOL    HW219992   1.918   2.752   6.281
 6365SOL     OW19993   4.906   5.711   2.503
 6365SOL    HW119994   4.983   5.731   2.564
 6365SOL    HW219995   4.828   5.680   2.557
 6366SOL     OW19996   0.074   4.570   6.134
 6366SOL    HW119997   0.114   4.653   6.096
 6366SOL    HW219998   0.107   4.557   6.228
 6367SOL     OW19999   5.938   5.795   2.598
 6367SOL    HW120000   5.870   5.734   2.640
 6367SOL    HW220001   5.895   5.883   2.579
 6368SOL     OW20002   3.184   0.230   3.849
 6368SOL    HW120003   3.110   0.218   3.914
 6368SOL    HW220004   3.256   0.287   3.889
 6369SOL     OW20005   2.414   5.267   5.107
 6369SOL    HW120006   2.391   5.223   5.020
 6369SOL    HW220007   2.361   5.225   5.181
 6370SOL     OW20008   6.149   2.532   2.164
 6370SOL    HW120009   6.095   2.489   2.236
 6370SOL    HW220010   6.237   2.486   2.157
 6371SOL     OW20011   5.000   1.862   3.143
 6371SOL    HW120012   5.027   1.910   3.059
 6371SOL    HW220013   4.988   1.929   3.217
 6372SOL     OW20014   2.812   5.930   2.292
 6372SOL    HW120015   2.799   5.918   2.193
 6372SOL    HW220016   2.896   5.883   2.320
 6373SOL     OW20017   3.867   4.352   6.785
 6373SOL    HW120018   3.864   4.265   6.835
 6373SOL    HW220019   3.914   4.338   6.698
 6374SOL     OW20020   2.872   3.444   2.945
 6374SOL    HW120021   2.888   3.405   2.854
 6374SOL    HW220022   2.920   3.531   2.953
 6375SOL     OW20023   1.806   6.156   2.824
 6375SOL    HW120024   1.842   6.159   2.731
 6375SOL    HW220025   1.719   6.204   2.828
 6376SOL     OW20026   0.475   2.523   5.606
 6376SOL    HW120027   0.408   2.484   5.669
 6376SOL    HW220028   0.471   2.623   5.610
 6377SOL     OW20029   0.531   1.422   4.345
 6377SOL    HW120030   0.492   1.423   4.437
 6377SOL    HW220031   0.628   1.401   4.350
 6378SOL     OW20032   4.424   4.804   3.623
 6378SOL    HW120033   4.375   4.755   3.695
 6378SOL    HW220034   4.459   4.739   3.555
 6379SOL     OW20035   2.507   5.016   2.428
 6379SOL    HW120036   2.452   4.933   2.419
 6379SOL    HW220037   2.451   5.090   2.466
 6380SOL     OW20038   0.656   0.553   5.829
 6380SOL    HW120039   0.725   0.594   5.889
 6380SOL    HW220040   0.698   0.532   5.741
 6381SOL     OW20041   3.032   3.392   1.643
 6381SOL    HW120042   3.023   3.294   1.662
 6381SOL    HW220043   3.108   3.429   1.696
 6382SOL     OW20044   1.267   4.495   5.027
 6382SOL    HW120045   1.223   4.409   5.053
 6382SOL    HW220046   1.208   4.544   4.963
 6383SOL     OW20047   4.266   1.402   3.927
 6383SOL    HW120048   4.288   1.323   3.984
 6383SOL    HW220049   4.350   1.435   3.883
 6384SOL     OW20050   6.139   4.585   2.717
 6384SOL    HW120051   6.194   4.665   2.691
 6384SOL    HW220052   6.188   4.501   2.694
 6385SOL     OW20053   0.675   6.031   4.616
 6385SOL    HW120054   0.725   5.958   4.570
 6385SOL    HW220055   0.693   6.118   4.571
 6386SOL     OW20056   2.801   5.557   1.804
 6386SOL    HW120057   2.756   5.646   1.796
 6386SOL    HW220058   2.863   5.558   1.883
 6387SOL     OW20059   6.876   1.903   5.176
 6387SOL    HW120060   6.937   1.887   5.254
 6387SOL    HW220061   6.793   1.950   5.209
 6388SOL     OW20062   2.255   4.615   3.269
 6388SOL    HW120063   2.252   4.694   3.208
 6388SOL    HW220064   2.231   4.644   3.362
 6389SOL     OW20065   0.725   4.799   1.953
 6389SOL    HW120066   0.785   4.723   1.929
 6389SOL    HW220067   0.659   4.813   1.879
 6390SOL     OW20068   0.251   3.928   3.907
 6390SOL    HW120069   0.201   3.922   3.820
 6390SOL    HW220070   0.293   4.018   3.914
 6391SOL     OW20071   3.663   1.180   6.777
 6391SOL    HW120072   3.724   1.248   6.736
 6391SOL    HW220073   3.668   1.095   6.725
 6392SOL     OW20074   1.456   6.614   3.912
 6392SOL    HW120075   1.383   6.548   3.895
 6392SOL    HW220076   1.503   6.591   3.997
 6393SOL     OW20077   5.281   0.884   0.531
 6393SOL    HW120078   5.316   0.898   0.623
 6393SOL    HW220079   5.197   0.937   0.518
 6394SOL     OW20080   3.316   5.050   1.554
 6394SOL    HW120081   3.402   5.050   1.503
 6394SOL    HW220082   3.284   4.956   1.566
 6395SOL     OW20083   5.768   0.983   1.143
 6395SOL    HW120084   5.733   1.076   1.130
 6395SOL    HW220085   5.697   0.925   1.183
 6396SOL     OW20086   5.676   3.622   5.514
 6396SOL    HW120087   5.638   3.713   5.499
 6396SOL    HW220088   5.651   3.563   5.437
 6397SOL     OW20089   0.117   0.757   0.234
 6397SOL    HW120090   0.070   0.793   0.154
 6397SOL    HW220091   0.132   0.659   0.223
 6398SOL     OW20092   3.769   0.797   1.561
 6398SOL    HW120093   3.839   0.850   1.607
 6398SOL    HW220094   3.804   0.705   1.542
 6399SOL     OW20095   2.447   5.646   6.888
 6399SOL    HW120096   2.481   5.724   6.942
 6399SOL    HW220097   2.347   5.650   6.884
 6400SOL     OW20098   2.676   5.455   4.059
 6400SOL    HW120099   2.592   5.402   4.070
 6400SOL    HW220100   2.662   5.527   3.991
 6401SOL     OW20101   1.830   4.374   4.266
 6401SOL    HW120102   1.929   4.367   4.249
 6401SOL    HW220103   1.786   4.289   4.239
 6402SOL     OW20104   1.851   2.240   3.209
 6402SOL    HW120105   1.767   2.243   3.156
 6402SOL    HW220106   1.837   2.185   3.291
 6403SOL     OW20107   0.852   5.682   1.207
 6403SOL    HW120108   0.813   5.706   1.118
 6403SOL    HW220109   0.856   5.582   1.215
 6404SOL     OW20110   5.072   1.272   3.221
 6404SOL    HW120111   5.042   1.339   3.289
 6404SOL    HW220112   5.102   1.319   3.138
 6405SOL     OW20113   2.639   1.603   1.799
 6405SOL    HW120114   2.543   1.627   1.794
 6405SOL    HW220115   2.649   1.509   1.833
 6406SOL     OW20116   2.601   2.393   3.496
 6406SOL    HW120117   2.514   2.353   3.524
 6406SOL    HW220118   2.599   2.414   3.399
 6407SOL     OW20119   4.442   5.093   6.034
 6407SOL    HW120120   4.392   5.010   6.013
 6407SOL    HW220121   4.442   5.153   5.954
 6408SOL     OW20122   6.485   1.359   0.399
 6408SOL    HW120123   6.438   1.277   0.367
 6408SOL    HW220124   6.579   1.359   0.366
 6409SOL     OW20125   0.988   4.204   2.077
 6409SOL    HW120126   1.063   4.259   2.113
 6409SOL    HW220127   0.990   4.113   2.119
 6410SOL     OW20128   1.447   1.484   1.795
 6410SOL    HW120129   1.506   1.409   1.767
 6410SOL    HW220130   1.399   1.460   1.879
 6411SOL     OW20131   1.995   0.837   3.415
 6411SOL    HW120132   1.956   0.878   3.497
 6411SOL    HW220133   2.039   0.750   3.438
 6412SOL     OW20134   0.049   2.096   5.079
 6412SOL    HW120135   6.987   2.062   5.121
 6412SOL    HW220136   0.091   2.024   5.024
 6413SOL     OW20137   0.225   4.432   0.393
 6413SOL    HW120138   0.288   4.491   0.444
 6413SOL    HW220139   0.201   4.353   0.450
 6414SOL     OW20140   6.496   6.669   2.802
 6414SOL    HW120141   6.537   6.733   2.737
 6414SOL    HW220142   6.442   6.601   2.752
 6415SOL     OW20143   1.723   1.608   2.006
 6415SOL    HW120144   1.625   1.621   1.994
 6415SOL    HW220145   1.747   1.616   2.102
 6416SOL     OW20146   2.086   6.469   6.462
 6416SOL    HW120147   2.170   6.454   6.515
 6416SOL    HW220148   2.009   6.480   6.525
 6417SOL     OW20149   0.314   6.624   3.172
 6417SOL    HW120150   0.286   6.600   3.265
 6417SOL    HW220151   0.243   6.593   3.108
 6418SOL     OW20152   6.854   6.096   2.510
 6418SOL    HW120153   6.906   6.155   2.571
 6418SOL    HW220154   6.911   6.067   2.434
 6419SOL     OW20155   2.513   4.257   1.099
 6419SOL    HW120156   2.506   4.322   1.023
 6419SOL    HW220157   2.527   4.307   1.185
 6420SOL     OW20158   0.882   3.264   0.176
 6420SOL    HW120159   0.904   3.309   0.263
 6420SOL    HW220160   0.912   3.322   0.100
 6421SOL     OW20161   5.815   1.784   1.012
 6421SOL    HW120162   5.867   1.700   1.026
 6421SOL    HW220163   5.781   1.817   1.100
 6422SOL     OW20164   6.307   1.798   3.625
 6422SOL    HW120165   6.362   1.747   3.558
 6422SOL    HW220166   6.242   1.856   3.578
 6423SOL     OW20167   4.973   4.481   0.669
 6423SOL    HW120168   5.070   4.463   0.683
 6423SOL    HW220169   4.929   4.398   0.633
 6424SOL     OW20170   6.564   4.809   4.750
 6424SOL    HW120171   6.560   4.908   4.739
 6424SOL    HW220172   6.631   4.770   4.686
 6425SOL     OW20173   0.402   4.883   1.081
 6425SOL    HW120174   0.383   4.788   1.059
 6425SOL    HW220175   0.391   4.939   0.998
 6426SOL     OW20176   6.587   2.726   3.676
 6426SOL    HW120177   6.661   2.711   3.742
 6426SOL    HW220178   6.530   2.645   3.671
 6427SOL     OW20179   1.048   3.066   6.102
 6427SOL    HW120180   0.965   3.050   6.156
 6427SOL    HW220181   1.044   3.159   6.064
 6428SOL     OW20182   6.746   3.020   3.336
 6428SOL    HW120183   6.663   3.060   3.377
 6428SOL    HW220184   6.781   2.947   3.395
 6429SOL     OW20185   0.822   0.712   4.261
 6429SOL    HW120186   0.916   0.732   4.230
 6429SOL    HW220187   0.803   0.615   4.247
 6430SOL     OW20188   5.739   3.646   0.159
 6430SOL    HW120189   5.672   3.714   0.190
 6430SOL    HW220190   5.743   3.570   0.223
 6431SOL     OW20191   5.344   0.939   3.462
 6431SOL    HW120192   5.406   1.012   3.433
 6431SOL    HW220193   5.251   0.961   3.432
 6432SOL     OW20194   5.817   3.566   6.930
 6432SOL    HW120195   5.790   3.609   7.016
 6432SOL    HW220196   5.872   3.630   6.877
 6433SOL     OW20197   2.591   3.876   1.584
 6433SOL    HW120198   2.672   3.845   1.635
 6433SOL    HW220199   2.608   3.967   1.547
 6434SOL     OW20200   2.283   5.545   0.314
 6434SOL    HW120201   2.219   5.606   0.266
 6434SOL    HW220202   2.285   5.568   0.411
 6435SOL     OW20203   4.674   4.067   0.504
 6435SOL    HW120204   4.587   4.110   0.527
 6435SOL    HW220205   4.657   3.980   0.458
 6436SOL     OW20206   1.497   3.024   2.559
 6436SOL    HW120207   1.558   2.953   2.524
 6436SOL    HW220208   1.552   3.097   2.600
 6437SOL     OW20209   0.034   0.861   6.706
 6437SOL    HW120210   7.005   0.784   6.670
 6437SOL    HW220211   0.122   0.867   6.659
 6438SOL     OW20212   1.120   3.760   3.607
 6438SOL    HW120213   1.131   3.782   3.510
 6438SOL    HW220214   1.023   3.753   3.629
 6439SOL     OW20215   6.991   6.716   1.907
 6439SOL    HW120216   6.985   6.644   1.977
 6439SOL    HW220217   0.057   6.708   1.860
 6440SOL     OW20218   0.530   0.711   2.287
 6440SOL    HW120219   0.440   0.741   2.255
 6440SOL    HW220220   0.575   0.660   2.214
 6441SOL     OW20221   3.685   1.281   3.574
 6441SOL    HW120222   3.616   1.209   3.575
 6441SOL    HW220223   3.775   1.241   3.560
 6442SOL     OW20224   3.550   0.499   3.828
 6442SOL    HW120225   3.636   0.483   3.876
 6442SOL    HW220226   3.545   0.594   3.797
 6443SOL     OW20227   2.358   1.349   0.214
 6443SOL    HW120228   2.453   1.342   0.246
 6443SOL    HW220229   2.313   1.427   0.258
 6444SOL     OW20230   0.675   0.716   3.827
 6444SOL    HW120231   0.764   0.757   3.846
 6444SOL    HW220232   0.672   0.685   3.732
 6445SOL     OW20233   3.790   3.677   5.599
 6445SOL    HW120234   3.856   3.603   5.616
 6445SOL    HW220235   3.700   3.649   5.629
 6446SOL     OW20236   6.696   1.604   1.153
 6446SOL    HW120237   6.783   1.608   1.103
 6446SOL    HW220238   6.680   1.691   1.200
 6447SOL     OW20239   1.902   6.924   2.790
 6447SOL    HW120240   1.974   6.960   2.849
 6447SOL    HW220241   1.823   6.985   2.793
 6448SOL     OW20242   6.404   2.136   2.592
 6448SOL    HW120243   6.361   2.212   2.543
 6448SOL    HW220244   6.388   2.147   2.690
 6449SOL     OW20245   3.474   3.149   1.348
 6449SOL    HW120246   3.397   3.198   1.387
 6449SOL    HW220247   3.519   3.094   1.419
 6450SOL     OW20248   6.762   3.479   6.977
 6450SOL    HW120249   6.825   3.401   6.979
 6450SOL    HW220250   6.775   3.530   6.892
 6451SOL     OW20251   2.178   6.860   4.304
 6451SOL    HW120252   2.213   6.769   4.328
 6451SOL    HW220253   2.208   6.884   4.212
 6452SOL     OW20254   3.999   6.586   3.462
 6452SOL    HW120255   4.044   6.643   3.531
 6452SOL    HW220256   3.939   6.642   3.406
 6453SOL     OW20257   2.058   3.989   6.249
 6453SOL    HW120258   2.030   4.075   6.206
 6453SOL    HW220259   1.988   3.919   6.232
 6454SOL     OW20260   2.787   1.482   4.781
 6454SOL    HW120261   2.799   1.564   4.836
 6454SOL    HW220262   2.805   1.401   4.837
 6455SOL     OW20263   6.460   2.912   5.497
 6455SOL    HW120264   6.539   2.854   5.517
 6455SOL    HW220265   6.413   2.876   5.417
 6456SOL     OW20266   6.530   0.593   4.720
 6456SOL    HW120267   6.488   0.678   4.687
 6456SOL    HW220268   6.579   0.549   4.646
 6457SOL     OW20269   6.672   3.042   2.350
 6457SOL    HW120270   6.695   3.017   2.257
 6457SOL    HW220271   6.738   3.108   2.385
 6458SOL     OW20272   1.417   5.974   2.761
 6458SOL    HW120273   1.467   5.921   2.830
 6458SOL    HW220274   1.445   6.070   2.768
 6459SOL     OW20275   5.583   4.586   0.717
 6459SOL    HW120276   5.520   4.544   0.651
 6459SOL    HW220277   5.576   4.540   0.805
 6460SOL     OW20278   3.324   4.775   0.111
 6460SOL    HW120279   3.363   4.771   0.019
 6460SOL    HW220280   3.392   4.810   0.175
 6461SOL     OW20281   3.907   5.693   4.657
 6461SOL    HW120282   4.000   5.658   4.664
 6461SOL    HW220283   3.861   5.683   4.746
 6462SOL     OW20284   1.959   2.865   3.670
 6462SOL    HW120285   2.016   2.947   3.673
 6462SOL    HW220286   1.918   2.856   3.580
 6463SOL     OW20287   1.408   4.602   5.361
 6463SOL    HW120288   1.343   4.644   5.297
 6463SOL    HW220289   1.461   4.532   5.314
 6464SOL     OW20290   0.937   5.569   2.572
 6464SOL    HW120291   0.879   5.489   2.557
 6464SOL    HW220292   1.026   5.540   2.607
 6465SOL     OW20293   6.477   0.930   3.045
 6465SOL    HW120294   6.472   0.882   3.133
 6465SOL    HW220295   6.573   0.952   3.025
 6466SOL     OW20296   0.518   2.915   5.417
 6466SOL    HW120297   0.525   2.925   5.516
 6466SOL    HW220298   0.489   2.822   5.394
 6467SOL     OW20299   2.557   1.121   6.688
 6467SOL    HW120300   2.546   1.115   6.588
 6467SOL    HW220301   2.472   1.153   6.729
 6468SOL     OW20302   4.713   4.526   0.647
 6468SOL    HW120303   4.682   4.442   0.602
 6468SOL    HW220304   4.809   4.542   0.626
 6469SOL     OW20305   6.467   1.038   5.982
 6469SOL    HW120306   6.465   1.137   5.964
 6469SOL    HW220307   6.449   1.022   6.079
 6470SOL     OW20308   6.724   6.210   5.244
 6470SOL    HW120309   6.719   6.308   5.262
 6470SOL    HW220310   6.819   6.180   5.253
 6471SOL     OW20311   5.609   5.604   5.869
 6471SOL    HW120312   5.539   5.538   5.841
 6471SOL    HW220313   5.565   5.688   5.899
 6472SOL     OW20314   1.235   5.473   1.143
 6472SOL    HW120315   1.228   5.470   1.044
 6472SOL    HW220316   1.296   5.547   1.171
 6473SOL     OW20317   2.303   1.442   5.756
 6473SOL    HW120318   2.301   1.354   5.709
 6473SOL    HW220319   2.279   1.430   5.852
 6474SOL     OW20320   2.602   3.502   5.404
 6474SOL    HW120321   2.570   3.586   5.359
 6474SOL    HW220322   2.532   3.431   5.396
 6475SOL     OW20323   4.680   6.257   4.032
 6475SOL    HW120324   4.718   6.347   4.053
 6475SOL    HW220325   4.614   6.265   3.957
 6476SOL     OW20326   5.216   4.797   2.525
 6476SOL    HW120327   5.271   4.851   2.588
 6476SOL    HW220328   5.135   4.848   2.498
 6477SOL     OW20329   0.048   6.577   6.580
 6477SOL    HW120330   6.994   6.575   6.645
 6477SOL    HW220331   0.073   6.672   6.561
 6478SOL     OW20332   4.933   6.416   0.741
 6478SOL    HW120333   4.960   6.346   0.807
 6478SOL    HW220334   4.956   6.506   0.776
 6479SOL     OW20335   4.294   6.255   2.255
 6479SOL    HW120336   4.226   6.317   2.217
 6479SOL    HW220337   4.300   6.267   2.354
 6480SOL     OW20338   2.748   1.683   0.696
 6480SOL    HW120339   2.777   1.759   0.755
 6480SOL    HW220340   2.787   1.694   0.605
 6481SOL     OW20341   4.560   0.635   1.517
 6481SOL    HW120342   4.508   0.708   1.562
 6481SOL    HW220343   4.648   0.623   1.563
 6482SOL     OW20344   0.047   0.850   7.017
 6482SOL    HW120345   0.136   0.896   7.018
 6482SOL    HW220346   0.031   0.811   6.926
 6483SOL     OW20347   2.037   6.389   2.273
 6483SOL    HW120348   2.087   6.303   2.267
 6483SOL    HW220349   2.074   6.444   2.348
 6484SOL     OW20350   5.468   5.784   3.347
 6484SOL    HW120351   5.554   5.815   3.389
 6484SOL    HW220352   5.478   5.783   3.247
 6485SOL     OW20353   0.687   3.043   3.535
 6485SOL    HW120354   0.634   3.088   3.463
 6485SOL    HW220355   0.771   3.006   3.496
 6486SOL     OW20356   1.828   3.092   3.105
 6486SOL    HW120357   1.783   3.160   3.047
 6486SOL    HW220358   1.848   3.010   3.052
 6487SOL     OW20359   5.909   5.527   2.989
 6487SOL    HW120360   5.897   5.591   3.064
 6487SOL    HW220361   5.838   5.456   2.994
 6488SOL     OW20362   3.451   5.092   5.988
 6488SOL    HW120363   3.376   5.071   5.926
 6488SOL    HW220364   3.465   5.016   6.051
 6489SOL     OW20365   2.265   2.103   5.368
 6489SOL    HW120366   2.271   2.191   5.415
 6489SOL    HW220367   2.300   2.112   5.275
 6490SOL     OW20368   3.723   1.277   0.604
 6490SOL    HW120369   3.788   1.290   0.529
 6490SOL    HW220370   3.717   1.180   0.628
 6491SOL     OW20371   3.740   1.410   6.393
 6491SOL    HW120372   3.821   1.399   6.335
 6491SOL    HW220373   3.659   1.385   6.341
 6492SOL     OW20374   5.864   5.684   6.429
 6492SOL    HW120375   5.788   5.748   6.425
 6492SOL    HW220376   5.846   5.614   6.499
 6493SOL     OW20377   1.100   6.089   5.662
 6493SOL    HW120378   1.113   6.185   5.636
 6493SOL    HW220379   1.142   6.073   5.751
 6494SOL     OW20380   1.590   0.307   3.618
 6494SOL    HW120381   1.537   0.309   3.533
 6494SOL    HW220382   1.659   0.380   3.616
 6495SOL     OW20383   5.018   5.496   2.345
 6495SOL    HW120384   4.970   5.573   2.386
 6495SOL    HW220385   4.953   5.440   2.292
 6496SOL     OW20386   1.581   6.986   3.061
 6496SOL    HW120387   1.678   6.965   3.056
 6496SOL    HW220388   1.528   6.911   3.021
 6497SOL     OW20389   0.223   5.494   0.121
 6497SOL    HW120390   0.158   5.492   0.045
 6497SOL    HW220391   0.197   5.567   0.185
 6498SOL     OW20392   1.600   4.329   3.802
 6498SOL    HW120393   1.639   4.258   3.862
 6498SOL    HW220394   1.501   4.334   3.816
 6499SOL     OW20395   6.122   0.895   3.928
 6499SOL    HW120396   6.089   0.987   3.950
 6499SOL    HW220397   6.158   0.851   4.011
 6500SOL     OW20398   5.442   4.872   3.513
 6500SOL    HW120399   5.519   4.810   3.500
 6500SOL    HW220400   5.450   4.948   3.447
 6501SOL     OW20401   6.909   3.476   0.859
 6501SOL    HW120402   6.886   3.383   0.886
 6501SOL    HW220403   7.008   3.487   0.854
 6502SOL     OW20404   1.260   4.492   2.363
 6502SOL    HW120405   1.209   4.442   2.434
 6502SOL    HW220406   1.233   4.588   2.365
 6503SOL     OW20407   4.631   0.442   4.708
 6503SOL    HW120408   4.714   0.473   4.662
 6503SOL    HW220409   4.562   0.515   4.706
 6504SOL     OW20410   2.055   1.382   0.715
 6504SOL    HW120411   2.085   1.287   0.708
 6504SOL    HW220412   2.133   1.440   0.735
 6505SOL     OW20413   5.713   5.435   0.930
 6505SOL    HW120414   5.753   5.524   0.909
 6505SOL    HW220415   5.616   5.436   0.905
 6506SOL     OW20416   1.771   2.092   0.783
 6506SOL    HW120417   1.684   2.046   0.772
 6506SOL    HW220418   1.829   2.074   0.704
 6507SOL     OW20419   3.034   1.001   2.374
 6507SOL    HW120420   2.995   0.911   2.394
 6507SOL    HW220421   2.960   1.069   2.372
 6508SOL     OW20422   2.621   1.508   2.113
 6508SOL    HW120423   2.716   1.529   2.135
 6508SOL    HW220424   2.569   1.593   2.109
 6509SOL     OW20425   0.695   2.694   4.791
 6509SOL    HW120426   0.714   2.606   4.748
 6509SOL    HW220427   0.732   2.767   4.733
 6510SOL     OW20428   5.376   5.053   6.680
 6510SOL    HW120429   5.344   5.142   6.714
 6510SOL    HW220430   5.298   4.994   6.663
 6511SOL     OW20431   6.359   5.986   5.424
 6511SOL    HW120432   6.314   6.006   5.337
 6511SOL    HW220433   6.293   5.945   5.486
 6512SOL     OW20434   5.220   6.702   3.981
 6512SOL    HW120435   5.313   6.707   4.018
 6512SOL    HW220436   5.198   6.607   3.960
 6513SOL     OW20437   2.791   6.721   2.756
 6513SOL    HW120438   2.854   6.693   2.683
 6513SOL    HW220439   2.723   6.785   2.718
 6514SOL     OW20440   3.330   6.726   3.554
 6514SOL    HW120441   3.313   6.661   3.629
 6514SOL    HW220442   3.374   6.808   3.591
 6515SOL     OW20443   0.765   1.255   4.423
 6515SOL    HW120444   0.859   1.289   4.421
 6515SOL    HW220445   0.734   1.248   4.518
 6516SOL     OW20446   1.651   1.425   5.682
 6516SOL    HW120447   1.571   1.398   5.628
 6516SOL    HW220448   1.636   1.400   5.778
 6517SOL     OW20449   1.476   2.200   0.262
 6517SOL    HW120450   1.444   2.135   0.193
 6517SOL    HW220451   1.573   2.219   0.247
 6518SOL     OW20452   5.857   6.498   0.107
 6518SOL    HW120453   5.864   6.531   0.201
 6518SOL    HW220454   5.928   6.541   0.051
 6519SOL     OW20455   2.043   1.780   3.523
 6519SOL    HW120456   2.136   1.746   3.511
 6519SOL    HW220457   1.977   1.709   3.498
 6520SOL     OW20458   5.931   5.049   1.859
 6520SOL    HW120459   5.888   4.959   1.857
 6520SOL    HW220460   6.001   5.051   1.931
 6521SOL     OW20461   1.335   1.970   5.688
 6521SOL    HW120462   1.337   2.049   5.627
 6521SOL    HW220463   1.414   1.973   5.749
 6522SOL     OW20464   2.655   5.416   5.042
 6522SOL    HW120465   2.603   5.447   5.122
 6522SOL    HW220466   2.592   5.389   4.969
 6523SOL     OW20467   1.740   2.505   6.994
 6523SOL    HW120468   1.699   2.579   0.025
 6523SOL    HW220469   1.776   2.434   0.034
 6524SOL     OW20470   3.479   4.063   4.598
 6524SOL    HW120471   3.483   3.964   4.604
 6524SOL    HW220472   3.386   4.094   4.616
 6525SOL     OW20473   0.682   2.559   4.354
 6525SOL    HW120474   0.758   2.624   4.360
 6525SOL    HW220475   0.617   2.589   4.285
 6526SOL     OW20476   1.744   6.040   4.238
 6526SOL    HW120477   1.652   6.068   4.266
 6526SOL    HW220478   1.737   5.971   4.166
 6527SOL     OW20479   2.374   0.838   4.275
 6527SOL    HW120480   2.411   0.829   4.182
 6527SOL    HW220481   2.278   0.864   4.269
 6528SOL     OW20482   6.793   6.837   3.261
 6528SOL    HW120483   6.718   6.862   3.322
 6528SOL    HW220484   6.874   6.815   3.315
 6529SOL     OW20485   6.479   2.501   1.533
 6529SOL    HW120486   6.449   2.595   1.551
 6529SOL    HW220487   6.578   2.496   1.537
 6530SOL     OW20488   6.627   1.982   0.582
 6530SOL    HW120489   6.625   1.902   0.522
 6530SOL    HW220490   6.544   1.984   0.638
 6531SOL     OW20491   5.343   2.803   4.161
 6531SOL    HW120492   5.335   2.902   4.152
 6531SOL    HW220493   5.269   2.769   4.220
 6532SOL     OW20494   1.352   2.492   6.638
 6532SOL    HW120495   1.339   2.466   6.542
 6532SOL    HW220496   1.448   2.480   6.663
 6533SOL     OW20497   4.495   1.211   1.152
 6533SOL    HW120498   4.407   1.172   1.176
 6533SOL    HW220499   4.560   1.197   1.227
 6534SOL     OW20500   2.028   3.218   0.454
 6534SOL    HW120501   2.104   3.181   0.508
 6534SOL    HW220502   2.006   3.310   0.487
 6535SOL     OW20503   2.299   3.232   5.663
 6535SOL    HW120504   2.279   3.227   5.565
 6535SOL    HW220505   2.388   3.275   5.677
 6536SOL     OW20506   6.925   2.247   6.925
 6536SOL    HW120507   6.833   2.226   6.958
 6536SOL    HW220508   6.952   2.338   6.957
 6537SOL     OW20509   0.737   0.322   6.943
 6537SOL    HW120510   0.741   0.320   0.021
 6537SOL    HW220511   0.774   0.237   6.906
 6538SOL     OW20512   1.923   3.165   6.224
 6538SOL    HW120513   1.877   3.101   6.285
 6538SOL    HW220514   1.925   3.127   6.131
 6539SOL     OW20515   2.505   1.587   6.633
 6539SOL    HW120516   2.511   1.577   6.533
 6539SOL    HW220517   2.417   1.553   6.665
 6540SOL     OW20518   3.203   1.507   4.060
 6540SOL    HW120519   3.279   1.566   4.034
 6540SOL    HW220520   3.203   1.425   4.003
 6541SOL     OW20521   2.811   2.612   5.476
 6541SOL    HW120522   2.802   2.536   5.412
 6541SOL    HW220523   2.743   2.682   5.455
 6542SOL     OW20524   5.732   4.503   3.583
 6542SOL    HW120525   5.685   4.417   3.604
 6542SOL    HW220526   5.824   4.483   3.549
 6543SOL     OW20527   0.215   5.704   6.543
 6543SOL    HW120528   0.205   5.686   6.445
 6543SOL    HW220529   0.294   5.763   6.558
 6544SOL     OW20530   6.410   5.869   3.599
 6544SOL    HW120531   6.412   5.902   3.505
 6544SOL    HW220532   6.351   5.929   3.653
 6545SOL     OW20533   5.363   2.806   6.167
 6545SOL    HW120534   5.361   2.725   6.109
 6545SOL    HW220535   5.446   2.859   6.149
 6546SOL     OW20536   3.680   4.686   5.845
 6546SOL    HW120537   3.751   4.641   5.792
 6546SOL    HW220538   3.592   4.641   5.829
 6547SOL     OW20539   5.266   1.655   6.656
 6547SOL    HW120540   5.205   1.580   6.682
 6547SOL    HW220541   5.213   1.738   6.645
 6548SOL     OW20542   6.161   4.474   5.051
 6548SOL    HW120543   6.134   4.569   5.068
 6548SOL    HW220544   6.153   4.454   4.954
 6549SOL     OW20545   3.160   1.465   1.857
 6549SOL    HW120546   3.146   1.545   1.916
 6549SOL    HW220547   3.236   1.410   1.892
 6550SOL     OW20548   1.155   5.626   3.489
 6550SOL    HW120549   1.107   5.566   3.425
 6550SOL    HW220550   1.186   5.573   3.568
 6551SOL     OW20551   2.785   5.035   1.953
 6551SOL    HW120552   2.840   5.055   2.034
 6551SOL    HW220553   2.839   4.983   1.887
 6552SOL     OW20554   4.331   5.019   6.553
 6552SOL    HW120555   4.350   5.079   6.476
 6552SOL    HW220556   4.347   5.068   6.638
 6553SOL     OW20557   6.939   2.922   2.672
 6553SOL    HW120558   6.957   2.839   2.618
 6553SOL    HW220559   6.856   2.910   2.726
 6554SOL     OW20560   0.026   3.603   5.069
 6554SOL    HW120561   7.007   3.687   5.033
 6554SOL    HW220562   7.010   3.524   5.022
 6555SOL     OW20563   0.756   1.396   2.035
 6555SOL    HW120564   0.705   1.467   1.985
 6555SOL    HW220565   0.736   1.307   1.995
 6556SOL     OW20566   3.274   0.493   3.906
 6556SOL    HW120567   3.192   0.548   3.888
 6556SOL    HW220568   3.340   0.507   3.831
 6557SOL     OW20569   6.012   6.287   1.206
 6557SOL    HW120570   6.072   6.249   1.276
 6557SOL    HW220571   5.917   6.281   1.237
 6558SOL     OW20572   6.723   5.889   6.644
 6558SOL    HW120573   6.822   5.881   6.642
 6558SOL    HW220574   6.684   5.852   6.560
 6559SOL     OW20575   3.368   3.167   0.977
 6559SOL    HW120576   3.379   3.115   1.061
 6559SOL    HW220577   3.380   3.106   0.898
 6560SOL     OW20578   3.654   1.937   0.577
 6560SOL    HW120579   3.740   1.890   0.599
 6560SOL    HW220580   3.582   1.869   0.563
 6561SOL     OW20581   3.969   3.993   4.322
 6561SOL    HW120582   3.890   4.013   4.380
 6561SOL    HW220583   4.044   4.054   4.346
 6562SOL     OW20584   5.859   3.141   5.422
 6562SOL    HW120585   5.760   3.150   5.417
 6562SOL    HW220586   5.896   3.212   5.482
 6563SOL     OW20587   1.641   5.195   2.670
 6563SOL    HW120588   1.600   5.189   2.579
 6563SOL    HW220589   1.591   5.134   2.732
 6564SOL     OW20590   1.191   6.373   2.923
 6564SOL    HW120591   1.136   6.290   2.912
 6564SOL    HW220592   1.274   6.352   2.974
 6565SOL     OW20593   6.502   3.844   5.104
 6565SOL    HW120594   6.570   3.896   5.052
 6565SOL    HW220595   6.515   3.746   5.086
 6566SOL     OW20596   3.742   6.879   0.665
 6566SOL    HW120597   3.767   6.842   0.754
 6566SOL    HW220598   3.821   6.927   0.626
 6567SOL     OW20599   6.176   3.000   1.624
 6567SOL    HW120600   6.117   2.966   1.697
 6567SOL    HW220601   6.272   2.986   1.650
 6568SOL     OW20602   4.080   4.209   1.302
 6568SOL    HW120603   4.030   4.197   1.387
 6568SOL    HW220604   4.175   4.179   1.314
 6569SOL     OW20605   0.837   4.959   6.655
 6569SOL    HW120606   0.806   4.924   6.743
 6569SOL    HW220607   0.870   4.884   6.599
 6570SOL     OW20608   5.862   3.121   1.354
 6570SOL    HW120609   5.935   3.179   1.391
 6570SOL    HW220610   5.853   3.138   1.256
 6571SOL     OW20611   2.794   6.303   3.907
 6571SOL    HW120612   2.800   6.223   3.966
 6571SOL    HW220613   2.813   6.386   3.960
 6572SOL     OW20614   1.141   3.830   6.628
 6572SOL    HW120615   1.208   3.868   6.564
 6572SOL    HW220616   1.073   3.777   6.577
 6573SOL     OW20617   1.872   2.316   2.217
 6573SOL    HW120618   1.888   2.395   2.276
 6573SOL    HW220619   1.944   2.310   2.148
 6574SOL     OW20620   2.062   4.939   3.568
 6574SOL    HW120621   2.068   5.031   3.607
 6574SOL    HW220622   2.107   4.938   3.479
 6575SOL     OW20623   1.756   1.167   2.538
 6575SOL    HW120624   1.692   1.118   2.598
 6575SOL    HW220625   1.833   1.200   2.592
 6576SOL     OW20626   1.381   6.409   4.544
 6576SOL    HW120627   1.451   6.343   4.569
 6576SOL    HW220628   1.317   6.420   4.620
 6577SOL     OW20629   6.724   2.150   4.491
 6577SOL    HW120630   6.686   2.203   4.414
 6577SOL    HW220631   6.820   2.173   4.502
 6578SOL     OW20632   6.743   5.288   3.062
 6578SOL    HW120633   6.722   5.221   2.990
 6578SOL    HW220634   6.659   5.313   3.110
 6579SOL     OW20635   0.795   3.793   2.515
 6579SOL    HW120636   0.762   3.803   2.421
 6579SOL    HW220637   0.847   3.875   2.540
 6580SOL     OW20638   6.028   2.347   1.562
 6580SOL    HW120639   6.029   2.437   1.518
 6580SOL    HW220640   5.966   2.286   1.513
 6581SOL     OW20641   1.964   2.158   5.377
 6581SOL    HW120642   1.878   2.111   5.358
 6581SOL    HW220643   2.038   2.116   5.323
 6582SOL     OW20644   7.020   0.244   2.278
 6582SOL    HW120645   0.081   0.296   2.259
 6582SOL    HW220646   7.003   0.244   2.377
 6583SOL     OW20647   5.043   2.047   5.273
 6583SOL    HW120648   5.129   2.037   5.223
 6583SOL    HW220649   5.015   1.958   5.310
 6584SOL     OW20650   5.289   1.951   0.004
 6584SOL    HW120651   5.354   1.995   0.067
 6584SOL    HW220652   5.203   1.935   0.052
 6585SOL     OW20653   2.122   1.098   0.720
 6585SOL    HW120654   2.067   1.016   0.729
 6585SOL    HW220655   2.212   1.082   0.759
 6586SOL     OW20656   6.971   1.522   0.263
 6586SOL    HW120657   6.921   1.566   0.338
 6586SOL    HW220658   7.002   1.591   0.198
 6587SOL     OW20659   1.909   6.764   2.552
 6587SOL    HW120660   1.880   6.817   2.632
 6587SOL    HW220661   1.970   6.820   2.495
 6588SOL     OW20662   2.268   2.885   0.361
 6588SOL    HW120663   2.231   2.963   0.310
 6588SOL    HW220664   2.197   2.816   0.372
 6589SOL     OW20665   5.219   1.705   5.629
 6589SOL    HW120666   5.248   1.800   5.642
 6589SOL    HW220667   5.122   1.697   5.652
 6590SOL     OW20668   6.437   1.084   5.389
 6590SOL    HW120669   6.428   1.035   5.302
 6590SOL    HW220670   6.346   1.112   5.420
 6591SOL     OW20671   5.654   1.192   2.848
 6591SOL    HW120672   5.713   1.205   2.928
 6591SOL    HW220673   5.710   1.173   2.767
 6592SOL     OW20674   5.645   5.826   4.658
 6592SOL    HW120675   5.720   5.816   4.593
 6592SOL    HW220676   5.561   5.849   4.609
 6593SOL     OW20677   4.364   0.522   2.670
 6593SOL    HW120678   4.358   0.604   2.727
 6593SOL    HW220679   4.402   0.546   2.581
 6594SOL     OW20680   5.424   0.852   6.527
 6594SOL    HW120681   5.453   0.930   6.582
 6594SOL    HW220682   5.442   0.870   6.431
 6595SOL     OW20683   1.598   3.611   0.704
 6595SOL    HW120684   1.595   3.605   0.804
 6595SOL    HW220685   1.680   3.565   0.670
 6596SOL     OW20686   3.583   6.616   5.024
 6596SOL    HW120687   3.644   6.566   5.086
 6596SOL    HW220688   3.491   6.577   5.029
 6597SOL     OW20689   6.398   4.492   6.444
 6597SOL    HW120690   6.425   4.414   6.501
 6597SOL    HW220691   6.478   4.525   6.394
 6598SOL     OW20692   2.035   5.474   5.138
 6598SOL    HW120693   2.129   5.479   5.174
 6598SOL    HW220694   2.001   5.566   5.121
 6599SOL     OW20695   4.620   3.734   5.812
 6599SOL    HW120696   4.611   3.811   5.749
 6599SOL    HW220697   4.691   3.753   5.879
 6600SOL     OW20698   4.334   5.919   4.240
 6600SOL    HW120699   4.326   5.888   4.146
 6600SOL    HW220700   4.255   5.976   4.263
 6601SOL     OW20701   1.205   0.192   1.152
 6601SOL    HW120702   1.198   0.093   1.160
 6601SOL    HW220703   1.119   0.234   1.182
 6602SOL     OW20704   6.331   1.262   1.853
 6602SOL    HW120705   6.384   1.179   1.840
 6602SOL    HW220706   6.371   1.337   1.800
 6603SOL     OW20707   2.067   2.348   2.681
 6603SOL    HW120708   1.979   2.323   2.720
 6603SOL    HW220709   2.066   2.331   2.582
 6604SOL     OW20710   4.040   5.907   3.126
 6604SOL    HW120711   4.083   5.990   3.091
 6604SOL    HW220712   4.079   5.827   3.080
 6605SOL     OW20713   6.054   6.629   6.975
 6605SOL    HW120714   5.994   6.598   6.901
 6605SOL    HW220715   6.055   6.729   6.977
 6606SOL     OW20716   6.359   1.308   2.563
 6606SOL    HW120717   6.300   1.377   2.522
 6606SOL    HW220718   6.408   1.259   2.491
 6607SOL     OW20719   1.351   2.095   3.577
 6607SOL    HW120720   1.431   2.137   3.533
 6607SOL    HW220721   1.380   2.011   3.624
 6608SOL     OW20722   5.562   3.683   4.906
 6608SOL    HW120723   5.549   3.746   4.983
 6608SOL    HW220724   5.482   3.624   4.898
 6609SOL     OW20725   5.819   1.401   6.731
 6609SOL    HW120726   5.917   1.391   6.746
 6609SOL    HW220727   5.790   1.494   6.754
 6610SOL     OW20728   2.960   1.155   0.485
 6610SOL    HW120729   3.002   1.190   0.568
 6610SOL    HW220730   3.027   1.103   0.432
 6611SOL     OW20731   5.441   3.297   2.976
 6611SOL    HW120732   5.506   3.238   2.928
 6611SOL    HW220733   5.404   3.249   3.055
 6612SOL     OW20734   1.089   5.918   6.026
 6612SOL    HW120735   0.991   5.920   6.007
 6612SOL    HW220736   1.116   5.827   6.058
 6613SOL     OW20737   5.095   4.943   1.271
 6613SOL    HW120738   5.146   5.025   1.297
 6613SOL    HW220739   5.156   4.863   1.277
 6614SOL     OW20740   5.017   5.504   5.939
 6614SOL    HW120741   4.939   5.548   5.894
 6614SOL    HW220742   5.003   5.505   6.038
 6615SOL     OW20743   1.182   4.490   5.510
 6615SOL    HW120744   1.257   4.530   5.457
 6615SOL    HW220745   1.191   4.390   5.511
 6616SOL     OW20746   4.880   0.496   4.582
 6616SOL    HW120747   4.922   0.520   4.494
 6616SOL    HW220748   4.944   0.517   4.656
 6617SOL     OW20749   4.743   6.859   5.336
 6617SOL    HW120750   4.648   6.870   5.366
 6617SOL    HW220751   4.747   6.870   5.236
 6618SOL     OW20752   0.647   4.851   1.190
 6618SOL    HW120753   0.710   4.854   1.268
 6618SOL    HW220754   0.552   4.854   1.223
 6619SOL     OW20755   6.434   6.299   1.885
 6619SOL    HW120756   6.436   6.218   1.944
 6619SOL    HW220757   6.357   6.292   1.822
 6620SOL     OW20758   3.919   3.222   5.792
 6620SOL    HW120759   3.997   3.236   5.853
 6620SOL    HW220760   3.859   3.152   5.831
 6621SOL     OW20761   2.860   3.475   0.232
 6621SOL    HW120762   2.903   3.419   0.161
 6621SOL    HW220763   2.900   3.566   0.231
 6622SOL     OW20764   6.206   6.644   0.357
 6622SOL    HW120765   6.108   6.644   0.335
 6622SOL    HW220766   6.242   6.737   0.349
 6623SOL     OW20767   3.303   3.795   2.545
 6623SOL    HW120768   3.310   3.892   2.523
 6623SOL    HW220769   3.394   3.753   2.540
 6624SOL     OW20770   4.593   5.471   3.839
 6624SOL    HW120771   4.635   5.560   3.853
 6624SOL    HW220772   4.606   5.415   3.922
 6625SOL     OW20773   5.357   0.190   0.021
 6625SOL    HW120774   5.389   0.214   6.952
 6625SOL    HW220775   5.401   0.105   0.051
 6626SOL     OW20776   3.218   5.454   3.453
 6626SOL    HW120777   3.126   5.476   3.422
 6626SOL    HW220778   3.216   5.372   3.510
 6627SOL     OW20779   1.816   6.270   1.954
 6627SOL    HW120780   1.814   6.177   1.992
 6627SOL    HW220781   1.875   6.328   2.010
 6628SOL     OW20782   3.979   6.347   3.338
 6628SOL    HW120783   4.016   6.432   3.374
 6628SOL    HW220784   3.968   6.281   3.412
 6629SOL     OW20785   3.548   3.772   0.421
 6629SOL    HW120786   3.637   3.773   0.375
 6629SOL    HW220787   3.512   3.679   0.423
 6630SOL     OW20788   2.825   1.942   5.775
 6630SOL    HW120789   2.818   1.900   5.684
 6630SOL    HW220790   2.847   2.039   5.765
 6631SOL     OW20791   3.782   0.640   2.128
 6631SOL    HW120792   3.703   0.696   2.155
 6631SOL    HW220793   3.749   0.552   2.093
 6632SOL     OW20794   6.830   2.692   2.387
 6632SOL    HW120795   6.897   2.656   2.452
 6632SOL    HW220796   6.871   2.766   2.334
 6633SOL     OW20797   0.419   0.004   0.999
 6633SOL    HW120798   0.406   6.993   1.093
 6633SOL    HW220799   0.516   7.022   0.975
 6634SOL     OW20800   0.188   2.976   5.712
 6634SOL    HW120801   0.211   2.901   5.774
 6634SOL    HW220802   0.266   3.038   5.704
 6635SOL     OW20803   4.239   4.723   2.740
 6635SOL    HW120804   4.230   4.722   2.641
 6635SOL    HW220805   4.327   4.684   2.766
 6636SOL     OW20806   1.512   2.604   3.880
 6636SOL    HW120807   1.510   2.515   3.925
 6636SOL    HW220808   1.597   2.614   3.829
 6637SOL     OW20809   6.491   1.204   1.510
 6637SOL    HW120810   6.499   1.106   1.497
 6637SOL    HW220811   6.567   1.250   1.463
 6638SOL     OW20812   2.454   6.458   6.119
 6638SOL    HW120813   2.455   6.392   6.193
 6638SOL    HW220814   2.507   6.422   6.041
 6639SOL     OW20815   5.269   5.585   6.756
 6639SOL    HW120816   5.340   5.634   6.706
 6639SOL    HW220817   5.307   5.553   6.843
 6640SOL     OW20818   5.567   2.688   3.779
 6640SOL    HW120819   5.523   2.608   3.739
 6640SOL    HW220820   5.569   2.762   3.711
 6641SOL     OW20821   2.199   4.271   6.798
 6641SOL    HW120822   2.171   4.345   6.858
 6641SOL    HW220823   2.124   4.207   6.785
 6642SOL     OW20824   0.081   6.868   0.390
 6642SOL    HW120825   0.077   6.805   0.467
 6642SOL    HW220826   7.011   6.899   0.366
 6643SOL     OW20827   4.317   5.943   0.005
 6643SOL    HW120828   4.359   5.854   0.021
 6643SOL    HW220829   4.221   5.931   7.001
 6644SOL     OW20830   2.362   4.502   2.203
 6644SOL    HW120831   2.378   4.416   2.156
 6644SOL    HW220832   2.394   4.578   2.146
 6645SOL     OW20833   6.810   4.717   4.879
 6645SOL    HW120834   6.841   4.665   4.799
 6645SOL    HW220835   6.711   4.730   4.874
 6646SOL     OW20836   1.728   6.423   3.489
 6646SOL    HW120837   1.718   6.324   3.478
 6646SOL    HW220838   1.750   6.443   3.585
 6647SOL     OW20839   3.863   1.849   2.285
 6647SOL    HW120840   3.845   1.945   2.264
 6647SOL    HW220841   3.956   1.826   2.258
 6648SOL     OW20842   4.723   6.004   1.942
 6648SOL    HW120843   4.657   5.994   2.016
 6648SOL    HW220844   4.731   5.918   1.892
 6649SOL     OW20845   3.640   2.216   6.322
 6649SOL    HW120846   3.583   2.223   6.404
 6649SOL    HW220847   3.645   2.305   6.277
 6650SOL     OW20848   3.014   2.175   3.127
 6650SOL    HW120849   3.109   2.159   3.152
 6650SOL    HW220850   2.967   2.222   3.202
 6651SOL     OW20851   1.280   2.757   0.112
 6651SOL    HW120852   1.373   2.793   0.107
 6651SOL    HW220853   1.282   2.666   0.152
 6652SOL     OW20854   0.681   5.794   3.264
 6652SOL    HW120855   0.749   5.863   3.238
 6652SOL    HW220856   0.675   5.788   3.363
 6653SOL     OW20857   3.357   3.506   3.371
 6653SOL    HW120858   3.351   3.440   3.296
 6653SOL    HW220859   3.443   3.556   3.365
 6654SOL     OW20860   2.106   3.397   1.752
 6654SOL    HW120861   2.049   3.459   1.697
 6654SOL    HW220862   2.155   3.451   1.822
 6655SOL     OW20863   2.342   0.471   0.855
 6655SOL    HW120864   2.313   0.465   0.951
 6655SOL    HW220865   2.287   0.408   0.800
 6656SOL     OW20866   6.416   2.265   1.272
 6656SOL    HW120867   6.447   2.232   1.361
 6656SOL    HW220868   6.384   2.188   1.217
 6657SOL     OW20869   3.114   4.961   6.193
 6657SOL    HW120870   3.196   4.915   6.160
 6657SOL    HW220871   3.137   5.055   6.220
 6658SOL     OW20872   5.235   0.152   5.861
 6658SOL    HW120873   5.158   0.206   5.897
 6658SOL    HW220874   5.283   0.206   5.792
 6659SOL     OW20875   1.615   3.176   6.840
 6659SOL    HW120876   1.521   3.211   6.836
 6659SOL    HW220877   1.614   3.076   6.842
 6660SOL     OW20878   0.176   0.153   3.014
 6660SOL    HW120879   0.243   0.156   3.088
 6660SOL    HW220880   0.204   0.084   2.947
 6661SOL     OW20881   0.209   5.776   3.386
 6661SOL    HW120882   0.214   5.787   3.287
 6661SOL    HW220883   0.264   5.698   3.414
 6662SOL     OW20884   0.968   3.848   6.012
 6662SOL    HW120885   0.943   3.808   5.924
 6662SOL    HW220886   0.897   3.826   6.079
 6663SOL     OW20887   0.426   5.346   2.148
 6663SOL    HW120888   0.495   5.274   2.148
 6663SOL    HW220889   0.369   5.337   2.230
 6664SOL     OW20890   0.592   1.988   2.966
 6664SOL    HW120891   0.628   2.058   3.029
 6664SOL    HW220892   0.640   1.994   2.879
 6665SOL     OW20893   2.759   6.574   2.253
 6665SOL    HW120894   2.851   6.609   2.236
 6665SOL    HW220895   2.760   6.474   2.253
 6666SOL     OW20896   6.112   0.048   0.509
 6666SOL    HW120897   6.085   7.009   0.583
 6666SOL    HW220898   6.082   0.141   0.530
 6667SOL     OW20899   6.840   4.927   4.209
 6667SOL    HW120900   6.894   4.994   4.259
 6667SOL    HW220901   6.883   4.837   4.217
 6668SOL     OW20902   0.357   6.199   1.393
 6668SOL    HW120903   0.410   6.274   1.355
 6668SOL    HW220904   0.365   6.119   1.334
 6669SOL     OW20905   1.575   5.465   2.905
 6669SOL    HW120906   1.568   5.414   2.819
 6669SOL    HW220907   1.591   5.401   2.980
 6670SOL     OW20908   3.431   4.539   0.418
 6670SOL    HW120909   3.430   4.459   0.358
 6670SOL    HW220910   3.509   4.597   0.395
 6671SOL     OW20911   0.416   2.395   5.379
 6671SOL    HW120912   0.425   2.433   5.471
 6671SOL    HW220913   0.455   2.458   5.313
 6672SOL     OW20914   1.287   0.574   5.417
 6672SOL    HW120915   1.306   0.617   5.328
 6672SOL    HW220916   1.240   0.640   5.476
 6673SOL     OW20917   5.334   4.775   1.692
 6673SOL    HW120918   5.251   4.828   1.674
 6673SOL    HW220919   5.316   4.678   1.677
 6674SOL     OW20920   0.707   0.098   4.458
 6674SOL    HW120921   0.793   0.149   4.449
 6674SOL    HW220922   0.643   0.127   4.387
 6675SOL     OW20923   6.903   6.125   0.554
 6675SOL    HW120924   6.913   6.190   0.629
 6675SOL    HW220925   6.977   6.138   0.488
 6676SOL     OW20926   1.105   2.181   6.880
 6676SOL    HW120927   1.069   2.266   6.841
 6676SOL    HW220928   1.203   2.174   6.860
 6677SOL     OW20929   6.428   3.870   6.893
 6677SOL    HW120930   6.516   3.908   6.865
 6677SOL    HW220931   6.409   3.897   6.988
 6678SOL     OW20932   1.007   2.765   4.814
 6678SOL    HW120933   0.976   2.717   4.896
 6678SOL    HW220934   1.090   2.817   4.837
 6679SOL     OW20935   1.795   1.554   4.288
 6679SOL    HW120936   1.877   1.504   4.316
 6679SOL    HW220937   1.813   1.602   4.202
 6680SOL     OW20938   2.150   6.670   5.936
 6680SOL    HW120939   2.230   6.636   5.887
 6680SOL    HW220940   2.067   6.632   5.895
 6681SOL     OW20941   5.792   5.628   0.152
 6681SOL    HW120942   5.823   5.534   0.165
 6681SOL    HW220943   5.872   5.688   0.141
 6682SOL     OW20944   6.939   5.764   2.774
 6682SOL    HW120945   7.002   5.828   2.731
 6682SOL    HW220946   6.893   5.709   2.704
 6683SOL     OW20947   5.175   1.762   4.096
 6683SOL    HW120948   5.190   1.838   4.033
 6683SOL    HW220949   5.248   1.761   4.164
 6684SOL     OW20950   2.254   0.644   2.131
 6684SOL    HW120951   2.354   0.642   2.133
 6684SOL    HW220952   2.223   0.734   2.102
 6685SOL     OW20953   5.416   3.783   6.119
 6685SOL    HW120954   5.514   3.782   6.135
 6685SOL    HW220955   5.387   3.695   6.080
 6686SOL     OW20956   5.407   4.258   4.058
 6686SOL    HW120957   5.342   4.186   4.035
 6686SOL    HW220958   5.371   4.347   4.029
 6687SOL     OW20959   1.133   1.439   0.099
 6687SOL    HW120960   1.220   1.483   0.123
 6687SOL    HW220961   1.064   1.464   0.166
 6688SOL     OW20962   0.675   5.283   3.313
 6688SOL    HW120963   0.626   5.199   3.291
 6688SOL    HW220964   0.613   5.346   3.360
 6689SOL     OW20965   4.620   4.955   0.125
 6689SOL    HW120966   4.632   4.930   0.029
 6689SOL    HW220967   4.529   4.928   0.156
 6690SOL     OW20968   1.157   1.990   0.779
 6690SOL    HW120969   1.151   2.010   0.681
 6690SOL    HW220970   1.157   2.076   0.830
 6691SOL     OW20971   1.614   5.424   1.207
 6691SOL    HW120972   1.592   5.451   1.113
 6691SOL    HW220973   1.630   5.325   1.210
 6692SOL     OW20974   3.373   3.962   5.992
 6692SOL    HW120975   3.460   4.008   6.010
 6692SOL    HW220976   3.355   3.962   5.893
 6693SOL     OW20977   3.608   4.137   4.825
 6693SOL    HW120978   3.587   4.234   4.835
 6693SOL    HW220979   3.546   4.096   4.757
 6694SOL     OW20980   2.964   6.135   0.256
 6694SOL    HW120981   2.896   6.094   0.196
 6694SOL    HW220982   3.024   6.063   0.292
 6695SOL     OW20983   1.347   1.654   6.697
 6695SOL    HW120984   1.271   1.702   6.653
 6695SOL    HW220985   1.325   1.557   6.705
 6696SOL     OW20986   2.066   3.289   2.085
 6696SOL    HW120987   2.108   3.378   2.063
 6696SOL    HW220988   2.087   3.224   2.012
 6697SOL     OW20989   5.607   1.870   3.441
 6697SOL    HW120990   5.681   1.901   3.500
 6697SOL    HW220991   5.627   1.892   3.346
 6698SOL     OW20992   3.638   4.292   0.558
 6698SOL    HW120993   3.549   4.332   0.537
 6698SOL    HW220994   3.669   4.237   0.480
 6699SOL     OW20995   1.421   3.472   6.774
 6699SOL    HW120996   1.448   3.435   6.684
 6699SOL    HW220997   1.325   3.500   6.771
 6700SOL     OW20998   6.110   6.564   6.649
 6700SOL    HW120999   6.186   6.587   6.710
 6700SOL    HW221000   6.139   6.492   6.586
 6701SOL     OW21001   0.648   2.199   0.953
 6701SOL    HW121002   0.568   2.240   0.997
 6701SOL    HW221003   0.624   2.110   0.916
 6702SOL     OW21004   1.842   2.794   1.298
 6702SOL    HW121005   1.757   2.844   1.287
 6702SOL    HW221006   1.829   2.722   1.367
 6703SOL     OW21007   0.359   2.199   6.870
 6703SOL    HW121008   0.293   2.157   6.932
 6703SOL    HW221009   0.401   2.278   6.915
 6704SOL     OW21010   5.203   1.816   3.429
 6704SOL    HW121011   5.187   1.912   3.407
 6704SOL    HW221012   5.220   1.765   3.344
 6705SOL     OW21013   6.322   0.916   0.674
 6705SOL    HW121014   6.245   0.952   0.726
 6705SOL    HW221015   6.394   0.886   0.736
 6706SOL     OW21016   0.585   5.214   6.798
 6706SOL    HW121017   0.648   5.225   6.875
 6706SOL    HW221018   0.576   5.117   6.776
 6707SOL     OW21019   1.136   5.982   2.418
 6707SOL    HW121020   1.207   5.949   2.355
 6707SOL    HW221021   1.131   5.921   2.496
 6708SOL     OW21022   2.637   5.891   1.332
 6708SOL    HW121023   2.711   5.918   1.394
 6708SOL    HW221024   2.595   5.807   1.365
 6709SOL     OW21025   5.924   1.316   2.858
 6709SOL    HW121026   6.019   1.347   2.849
 6709SOL    HW221027   5.863   1.396   2.858
 6710SOL     OW21028   2.063   2.127   1.375
 6710SOL    HW121029   2.023   2.048   1.420
 6710SOL    HW221030   2.007   2.208   1.394
 6711SOL     OW21031   3.896   3.632   0.494
 6711SOL    HW121032   3.963   3.649   0.566
 6711SOL    HW221033   3.869   3.535   0.495
 6712SOL     OW21034   3.228   6.291   1.107
 6712SOL    HW121035   3.261   6.357   1.039
 6712SOL    HW221036   3.194   6.209   1.061
 6713SOL     OW21037   1.784   1.622   2.262
 6713SOL    HW121038   1.773   1.532   2.303
 6713SOL    HW221039   1.734   1.690   2.316
 6714SOL     OW21040   6.747   0.339   3.404
 6714SOL    HW121041   6.840   0.326   3.437
 6714SOL    HW221042   6.747   0.404   3.328
 6715SOL     OW21043   6.939   1.891   0.978
 6715SOL    HW121044   6.901   1.954   0.909
 6715SOL    HW221045   6.961   1.943   1.061
 6716SOL     OW21046   2.781   5.562   0.099
 6716SOL    HW121047   2.720   5.569   0.020
 6716SOL    HW221048   2.726   5.563   0.183
 6717SOL     OW21049   3.806   1.707   6.445
 6717SOL    HW121050   3.800   1.608   6.428
 6717SOL    HW221051   3.864   1.724   6.524
 6718SOL     OW21052   3.388   6.796   6.938
 6718SOL    HW121053   3.349   6.862   7.002
 6718SOL    HW221054   3.457   6.741   6.985
 6719SOL     OW21055   0.276   0.517   5.277
 6719SOL    HW121056   0.222   0.435   5.259
 6719SOL    HW221057   0.341   0.532   5.202
 6720SOL     OW21058   1.721   4.714   1.821
 6720SOL    HW121059   1.625   4.687   1.822
 6720SOL    HW221060   1.772   4.653   1.761
 6721SOL     OW21061   6.256   6.228   3.355
 6721SOL    HW121062   6.313   6.152   3.387
 6721SOL    HW221063   6.310   6.286   3.294
 6722SOL     OW21064   4.934   4.226   6.762
 6722SOL    HW121065   4.886   4.226   6.674
 6722SOL    HW221066   4.963   4.133   6.785
 6723SOL     OW21067   4.384   0.337   2.866
 6723SOL    HW121068   4.369   0.394   2.785
 6723SOL    HW221069   4.299   0.331   2.919
 6724SOL     OW21070   3.272   4.899   5.381
 6724SOL    HW121071   3.258   4.868   5.475
 6724SOL    HW221072   3.208   4.974   5.361
 6725SOL     OW21073   0.372   4.992   2.015
 6725SOL    HW121074   0.294   5.044   2.050
 6725SOL    HW221075   0.392   4.916   2.076
 6726SOL     OW21076   2.469   2.502   1.885
 6726SOL    HW121077   2.431   2.488   1.794
 6726SOL    HW221078   2.422   2.578   1.930
 6727SOL     OW21079   3.934   3.766   7.014
 6727SOL    HW121080   4.006   3.697   7.013
 6727SOL    HW221081   3.975   3.857   7.012
 6728SOL     OW21082   4.617   1.635   4.132
 6728SOL    HW121083   4.625   1.535   4.128
 6728SOL    HW221084   4.659   1.676   4.051
 6729SOL     OW21085   5.602   6.259   2.630
 6729SOL    HW121086   5.602   6.164   2.662
 6729SOL    HW221087   5.523   6.275   2.571
 6730SOL     OW21088   1.096   0.202   1.450
 6730SOL    HW121089   1.157   0.200   1.530
 6730SOL    HW221090   1.075   0.109   1.422
 6731SOL     OW21091   2.317   4.413   1.854
 6731SOL    HW121092   2.324   4.359   1.938
 6731SOL    HW221093   2.251   4.487   1.868
 6732SOL     OW21094   1.624   4.878   0.825
 6732SOL    HW121095   1.641   4.870   0.923
 6732SOL    HW221096   1.593   4.971   0.804
 6733SOL     OW21097   5.753   5.788   4.904
 6733SOL    HW121098   5.694   5.828   4.834
 6733SOL    HW221099   5.712   5.802   4.994
 6734SOL     OW21100   2.813   3.737   5.484
 6734SOL    HW121101   2.771   3.818   5.523
 6734SOL    HW221102   2.745   3.664   5.477
 6735SOL     OW21103   6.790   5.303   6.620
 6735SOL    HW121104   6.884   5.334   6.605
 6735SOL    HW221105   6.746   5.287   6.532
 6736SOL     OW21106   2.083   3.650   2.846
 6736SOL    HW121107   2.109   3.697   2.931
 6736SOL    HW221108   2.059   3.555   2.867
 6737SOL     OW21109   2.066   0.166   1.451
 6737SOL    HW121110   2.142   0.215   1.494
 6737SOL    HW221111   2.013   0.119   1.521
 6738SOL     OW21112   3.968   1.464   1.844
 6738SOL    HW121113   3.955   1.402   1.922
 6738SOL    HW221114   4.054   1.514   1.856
 6739SOL     OW21115   4.665   0.602   5.091
 6739SOL    HW121116   4.765   0.604   5.087
 6739SOL    HW221117   4.635   0.511   5.120
 6740SOL     OW21118   6.205   3.265   4.854
 6740SOL    HW121119   6.112   3.232   4.872
 6740SOL    HW221120   6.211   3.295   4.758
 6741SOL     OW21121   6.858   6.876   5.557
 6741SOL    HW121122   6.868   6.809   5.631
 6741SOL    HW221123   6.840   6.966   5.596
 6742SOL     OW21124   6.252   5.942   5.165
 6742SOL    HW121125   6.276   5.846   5.148
 6742SOL    HW221126   6.157   5.948   5.194
 6743SOL     OW21127   5.042   2.688   0.816
 6743SOL    HW121128   4.988   2.603   0.824
 6743SOL    HW221129   4.981   2.767   0.824
 6744SOL     OW21130   5.252   5.417   5.364
 6744SOL    HW121131   5.219   5.475   5.290
 6744SOL    HW221132   5.351   5.428   5.372
 6745SOL     OW21133   0.576   3.757   3.443
 6745SOL    HW121134   0.548   3.832   3.503
 6745SOL    HW221135   0.497   3.698   3.425
 6746SOL     OW21136   0.142   0.781   1.169
 6746SOL    HW121137   0.126   0.746   1.077
 6746SOL    HW221138   0.088   0.864   1.183
 6747SOL     OW21139   5.102   6.702   6.588
 6747SOL    HW121140   5.197   6.702   6.618
 6747SOL    HW221141   5.070   6.797   6.581
 6748SOL     OW21142   0.213   6.631   1.780
 6748SOL    HW121143   0.193   6.536   1.756
 6748SOL    HW221144   0.310   6.640   1.802
 6749SOL     OW21145   3.509   6.027   1.072
 6749SOL    HW121146   3.417   6.051   1.041
 6749SOL    HW221147   3.559   5.984   0.997
 6750SOL     OW21148   2.338   3.014   5.401
 6750SOL    HW121149   2.271   2.954   5.358
 6750SOL    HW221150   2.422   3.015   5.346
 6751SOL     OW21151   3.233   2.043   5.780
 6751SOL    HW121152   3.233   2.061   5.682
 6751SOL    HW221153   3.266   2.124   5.829
 6752SOL     OW21154   6.145   1.746   0.502
 6752SOL    HW121155   6.233   1.732   0.546
 6752SOL    HW221156   6.072   1.708   0.560
 6753SOL     OW21157   5.689   1.417   6.156
 6753SOL    HW121158   5.754   1.379   6.090
 6753SOL    HW221159   5.598   1.379   6.139
 6754SOL     OW21160   4.739   1.659   0.151
 6754SOL    HW121161   4.789   1.716   0.086
 6754SOL    HW221162   4.641   1.675   0.141
 6755SOL     OW21163   5.309   1.621   3.617
 6755SOL    HW121164   5.253   1.542   3.592
 6755SOL    HW221165   5.287   1.698   3.557
 6756SOL     OW21166   4.836   4.637   3.524
 6756SOL    HW121167   4.769   4.685   3.580
 6756SOL    HW221168   4.860   4.694   3.445
 6757SOL     OW21169   5.759   4.810   1.825
 6757SOL    HW121170   5.686   4.744   1.844
 6757SOL    HW221171   5.744   4.851   1.735
 6758SOL     OW21172   6.076   1.600   2.910
 6758SOL    HW121173   6.135   1.527   2.874
 6758SOL    HW221174   6.075   1.596   3.009
 6759SOL     OW21175   1.241   4.564   3.394
 6759SOL    HW121176   1.260   4.512   3.477
 6759SOL    HW221177   1.152   4.538   3.357
 6760SOL     OW21178   0.513   4.312   5.460
 6760SOL    HW121179   0.471   4.223   5.475
 6760SOL    HW221180   0.520   4.330   5.361
 6761SOL     OW21181   6.079   3.318   6.495
 6761SOL    HW121182   6.102   3.221   6.503
 6761SOL    HW221183   6.119   3.368   6.572
 6762SOL     OW21184   6.057   4.207   3.323
 6762SOL    HW121185   5.997   4.269   3.374
 6762SOL    HW221186   6.002   4.154   3.258
 6763SOL     OW21187   6.456   6.559   5.159
 6763SOL    HW121188   6.424   6.464   5.153
 6763SOL    HW221189   6.537   6.563   5.218
 6764SOL     OW21190   1.834   3.259   6.978
 6764SOL    HW121191   1.807   3.326   0.025
 6764SOL    HW221192   1.753   3.224   6.931
 6765SOL     OW21193   4.993   5.014   2.407
 6765SOL    HW121194   4.929   5.052   2.340
 6765SOL    HW221195   5.025   5.086   2.468
 6766SOL     OW21196   1.647   1.708   5.692
 6766SOL    HW121197   1.628   1.732   5.596
 6766SOL    HW221198   1.624   1.612   5.707
 6767SOL     OW21199   0.806   2.774   5.581
 6767SOL    HW121200   0.845   2.834   5.511
 6767SOL    HW221201   0.748   2.705   5.537
 6768SOL     OW21202   0.047   0.873   5.906
 6768SOL    HW121203   7.003   0.947   5.901
 6768SOL    HW221204   0.117   0.895   5.974
 6769SOL     OW21205   0.864   2.435   0.011
 6769SOL    HW121206   0.961   2.458   0.006
 6769SOL    HW221207   0.827   2.465   0.099
 6770SOL     OW21208   6.683   1.243   4.725
 6770SOL    HW121209   6.736   1.312   4.775
 6770SOL    HW221210   6.743   1.195   4.662
 6771SOL     OW21211   4.990   1.856   2.242
 6771SOL    HW121212   5.012   1.785   2.309
 6771SOL    HW221213   4.918   1.915   2.278
 6772SOL     OW21214   1.453   0.963   1.472
 6772SOL    HW121215   1.364   1.005   1.454
 6772SOL    HW221216   1.520   1.034   1.493
 6773SOL     OW21217   1.374   6.989   2.015
 6773SOL    HW121218   1.342   6.975   2.109
 6773SOL    HW221219   1.333   0.051   1.978
 6774SOL     OW21220   3.209   1.256   5.875
 6774SOL    HW121221   3.183   1.271   5.779
 6774SOL    HW221222   3.140   1.200   5.920
 6775SOL     OW21223   1.521   3.244   4.788
 6775SOL    HW121224   1.522   3.173   4.858
 6775SOL    HW221225   1.444   3.228   4.726
 6776SOL     OW21226   2.969   3.825   3.654
 6776SOL    HW121227   2.927   3.802   3.566
 6776SOL    HW221228   2.968   3.924   3.667
 6777SOL     OW21229   0.745   6.941   6.213
 6777SOL    HW121230   0.774   6.896   6.129
 6777SOL    HW221231   0.663   6.895   6.249
 6778SOL     OW21232   6.523   6.235   2.328
 6778SOL    HW121233   6.613   6.221   2.287
 6778SOL    HW221234   6.465   6.156   2.309
 6779SOL     OW21235   4.367   4.537   6.718
 6779SOL    HW121236   4.441   4.574   6.775
 6779SOL    HW221237   4.362   4.587   6.632
 6780SOL     OW21238   3.935   0.708   2.751
 6780SOL    HW121239   3.952   0.610   2.762
 6780SOL    HW221240   3.935   0.730   2.654
 6781SOL     OW21241   6.548   3.101   3.503
 6781SOL    HW121242   6.526   3.199   3.510
 6781SOL    HW221243   6.464   3.048   3.512
 6782SOL     OW21244   0.556   1.711   3.524
 6782SOL    HW121245   0.630   1.768   3.487
 6782SOL    HW221246   0.471   1.733   3.477
 6783SOL     OW21247   0.658   6.356   6.107
 6783SOL    HW121248   0.718   6.411   6.166
 6783SOL    HW221249   0.701   6.346   6.017
 6784SOL     OW21250   1.699   4.602   0.795
 6784SOL    HW121251   1.764   4.585   0.869
 6784SOL    HW221252   1.680   4.700   0.788
 6785SOL     OW21253   5.602   4.839   2.626
 6785SOL    HW121254   5.636   4.758   2.579
 6785SOL    HW221255   5.578   4.816   2.720
 6786SOL     OW21256   6.455   1.713   5.609
 6786SOL    HW121257   6.380   1.675   5.554
 6786SOL    HW221258   6.513   1.770   5.552
 6787SOL     OW21259   3.102   1.275   0.701
 6787SOL    HW121260   3.126   1.247   0.793
 6787SOL    HW221261   3.069   1.369   0.702
 6788SOL     OW21262   0.650   4.389   1.319
 6788SOL    HW121263   0.620   4.418   1.410
 6788SOL    HW221264   0.740   4.428   1.299
 6789SOL     OW21265   5.713   4.344   2.490
 6789SOL    HW121266   5.692   4.304   2.579
 6789SOL    HW221267   5.758   4.277   2.432
 6790SOL     OW21268   0.996   6.094   0.732
 6790SOL    HW121269   0.952   6.118   0.646
 6790SOL    HW221270   1.091   6.070   0.716
 6791SOL     OW21271   2.844   6.052   4.049
 6791SOL    HW121272   2.857   5.958   4.019
 6791SOL    HW221273   2.776   6.055   4.122
 6792SOL     OW21274   3.350   6.197   6.580
 6792SOL    HW121275   3.416   6.190   6.655
 6792SOL    HW221276   3.396   6.179   6.493
 6793SOL     OW21277   2.690   3.733   6.581
 6793SOL    HW121278   2.675   3.663   6.650
 6793SOL    HW221279   2.659   3.822   6.615
 6794SOL     OW21280   5.280   2.490   4.582
 6794SOL    HW121281   5.324   2.433   4.651
 6794SOL    HW221282   5.302   2.586   4.600
 6795SOL     OW21283   0.532   0.250   1.477
 6795SOL    HW121284   0.562   0.270   1.383
 6795SOL    HW221285   0.534   0.335   1.530
 6796SOL     OW21286   6.688   2.515   2.624
 6796SOL    HW121287   6.715   2.543   2.716
 6796SOL    HW221288   6.706   2.589   2.560
 6797SOL     OW21289   1.963   3.088   1.238
 6797SOL    HW121290   2.027   3.163   1.219
 6797SOL    HW221291   1.889   3.121   1.297
 6798SOL     OW21292   4.980   1.006   1.820
 6798SOL    HW121293   4.955   1.098   1.791
 6798SOL    HW221294   5.054   0.971   1.763
 6799SOL     OW21295   6.012   6.948   2.800
 6799SOL    HW121296   6.052   6.892   2.727
 6799SOL    HW221297   5.915   6.962   2.782
 6800SOL     OW21298   0.113   3.157   2.267
 6800SOL    HW121299   0.100   3.058   2.268
 6800SOL    HW221300   0.026   3.202   2.251
 6801SOL     OW21301   1.387   5.208   5.830
 6801SOL    HW121302   1.334   5.184   5.911
 6801SOL    HW221303   1.405   5.307   5.830
 6802SOL     OW21304   2.921   4.824   1.844
 6802SOL    HW121305   2.912   4.785   1.752
 6802SOL    HW221306   2.896   4.755   1.912
 6803SOL     OW21307   5.439   5.484   6.989
 6803SOL    HW121308   5.499   5.403   6.989
 6803SOL    HW221309   5.492   5.565   6.965
 6804SOL     OW21310   3.081   5.400   1.845
 6804SOL    HW121311   3.155   5.343   1.809
 6804SOL    HW221312   3.108   5.496   1.840
 6805SOL     OW21313   0.835   4.464   3.854
 6805SOL    HW121314   0.758   4.415   3.896
 6805SOL    HW221315   0.801   4.535   3.793
 6806SOL     OW21316   5.667   3.765   2.766
 6806SOL    HW121317   5.672   3.679   2.715
 6806SOL    HW221318   5.677   3.747   2.864
 6807SOL     OW21319   3.201   4.022   2.222
 6807SOL    HW121320   3.158   3.936   2.195
 6807SOL    HW221321   3.175   4.094   2.158
 6808SOL     OW21322   3.301   7.017   2.983
 6808SOL    HW121323   3.215   6.994   3.028
 6808SOL    HW221324   3.290   7.013   2.884
 6809SOL     OW21325   5.726   2.220   0.904
 6809SOL    HW121326   5.641   2.199   0.856
 6809SOL    HW221327   5.803   2.177   0.856
 6810SOL     OW21328   2.599   0.472   4.503
 6810SOL    HW121329   2.689   0.434   4.482
 6810SOL    HW221330   2.570   0.441   4.593
 6811SOL     OW21331   6.760   1.175   1.100
 6811SOL    HW121332   6.841   1.120   1.121
 6811SOL    HW221333   6.703   1.126   1.034
 6812SOL     OW21334   3.390   4.592   5.304
 6812SOL    HW121335   3.296   4.606   5.276
 6812SOL    HW221336   3.405   4.631   5.395
 6813SOL     OW21337   0.310   4.212   2.014
 6813SOL    HW121338   0.396   4.163   2.003
 6813SOL    HW221339   0.318   4.303   1.973
 6814SOL     OW21340   5.047   1.430   1.817
 6814SOL    HW121341   5.099   1.487   1.754
 6814SOL    HW221342   5.040   1.475   1.906
 6815SOL     OW21343   0.515   6.128   6.507
 6815SOL    HW121344   0.443   6.104   6.572
 6815SOL    HW221345   0.604   6.104   6.546
 6816SOL     OW21346   6.487   0.219   3.820
 6816SOL    HW121347   6.585   0.232   3.832
 6816SOL    HW221348   6.466   0.210   3.722
 6817SOL     OW21349   5.449   1.356   1.894
 6817SOL    HW121350   5.400   1.432   1.937
 6817SOL    HW221351   5.541   1.350   1.933
 6818SOL     OW21352   0.966   0.675   5.139
 6818SOL    HW121353   0.936   0.631   5.054
 6818SOL    HW221354   0.898   0.659   5.211
 6819SOL     OW21355   4.975   4.166   1.225
 6819SOL    HW121356   4.955   4.244   1.284
 6819SOL    HW221357   5.073   4.156   1.213
 6820SOL     OW21358   2.602   4.454   1.303
 6820SOL    HW121359   2.664   4.466   1.381
 6820SOL    HW221360   2.616   4.528   1.237
 6821SOL     OW21361   3.210   3.011   5.863
 6821SOL    HW121362   3.124   3.014   5.913
 6821SOL    HW221363   3.204   2.945   5.788
 6822SOL     OW21364   6.049   3.452   5.364
 6822SOL    HW121365   6.036   3.463   5.463
 6822SOL    HW221366   6.142   3.421   5.347
 6823SOL     OW21367   0.389   2.935   5.951
 6823SOL    HW121368   0.472   2.949   6.006
 6823SOL    HW221369   0.350   3.024   5.928
 6824SOL     OW21370   1.464   0.705   4.211
 6824SOL    HW121371   1.511   0.792   4.198
 6824SOL    HW221372   1.531   0.630   4.205
 6825SOL     OW21373   4.371   4.382   1.397
 6825SOL    HW121374   4.427   4.440   1.456
 6825SOL    HW221375   4.431   4.328   1.337
 6826SOL     OW21376   5.334   0.673   3.497
 6826SOL    HW121377   5.324   0.630   3.408
 6826SOL    HW221378   5.325   0.772   3.488
 6827SOL     OW21379   4.746   5.693   5.597
 6827SOL    HW121380   4.721   5.602   5.630
 6827SOL    HW221381   4.795   5.742   5.668
 6828SOL     OW21382   2.901   2.133   2.452
 6828SOL    HW121383   2.821   2.159   2.506
 6828SOL    HW221384   2.875   2.063   2.385
 6829SOL     OW21385   5.379   5.761   4.252
 6829SOL    HW121386   5.307   5.806   4.198
 6829SOL    HW221387   5.436   5.830   4.295
 6830SOL     OW21388   3.507   6.095   2.272
 6830SOL    HW121389   3.561   6.084   2.356
 6830SOL    HW221390   3.541   6.174   2.221
 6831SOL     OW21391   1.402   1.019   6.822
 6831SOL    HW121392   1.425   1.096   6.763
 6831SOL    HW221393   1.468   1.013   6.897
 6832SOL     OW21394   2.891   3.011   0.220
 6832SOL    HW121395   2.846   2.922   0.229
 6832SOL    HW221396   2.974   3.000   0.165
 6833SOL     OW21397   4.477   4.657   0.026
 6833SOL    HW121398   4.389   4.704   0.020
 6833SOL    HW221399   4.549   4.723   0.043
 6834SOL     OW21400   5.933   5.682   5.179
 6834SOL    HW121401   5.912   5.630   5.262
 6834SOL    HW221402   5.943   5.779   5.203
 6835SOL     OW21403   3.470   0.452   3.532
 6835SOL    HW121404   3.390   0.509   3.551
 6835SOL    HW221405   3.442   0.372   3.479
 6836SOL     OW21406   0.619   4.564   6.648
 6836SOL    HW121407   0.623   4.513   6.562
 6836SOL    HW221408   0.631   4.502   6.725
 6837SOL     OW21409   6.340   0.795   2.300
 6837SOL    HW121410   6.307   0.884   2.334
 6837SOL    HW221411   6.327   0.791   2.201
 6838SOL     OW21412   3.088   3.924   5.968
 6838SOL    HW121413   3.035   4.007   5.953
 6838SOL    HW221414   3.184   3.947   5.983
 6839SOL     OW21415   6.189   2.971   5.628
 6839SOL    HW121416   6.271   2.943   5.579
 6839SOL    HW221417   6.112   2.975   5.564
 6840SOL     OW21418   3.021   6.449   4.314
 6840SOL    HW121419   3.010   6.351   4.300
 6840SOL    HW221420   3.082   6.486   4.244
 6841SOL     OW21421   4.997   0.080   0.558
 6841SOL    HW121422   4.979   0.131   0.474
 6841SOL    HW221423   5.043   0.138   0.624
 6842SOL     OW21424   0.264   3.753   3.535
 6842SOL    HW121425   0.193   3.806   3.581
 6842SOL    HW221426   0.353   3.795   3.552
 6843SOL     OW21427   4.663   2.701   1.985
 6843SOL    HW121428   4.623   2.792   1.981
 6843SOL    HW221429   4.763   2.709   1.987
 6844SOL     OW21430   3.804   0.118   4.656
 6844SOL    HW121431   3.769   0.185   4.721
 6844SOL    HW221432   3.882   0.069   4.696
 6845SOL     OW21433   4.479   3.885   0.227
 6845SOL    HW121434   4.510   3.817   0.294
 6845SOL    HW221435   4.384   3.910   0.246
 6846SOL     OW21436   4.120   3.503   3.134
 6846SOL    HW121437   4.174   3.423   3.159
 6846SOL    HW221438   4.117   3.566   3.212
 6847SOL     OW21439   6.660   3.046   2.036
 6847SOL    HW121440   6.590   3.117   2.031
 6847SOL    HW221441   6.741   3.076   1.985
 6848SOL     OW21442   0.542   5.731   4.268
 6848SOL    HW121443   0.496   5.781   4.195
 6848SOL    HW221444   0.640   5.724   4.248
 6849SOL     OW21445   3.317   6.955   5.077
 6849SOL    HW121446   3.295   0.020   5.034
 6849SOL    HW221447   3.281   6.880   5.022
 6850SOL     OW21448   5.765   3.507   1.723
 6850SOL    HW121449   5.770   3.606   1.736
 6850SOL    HW221450   5.686   3.485   1.666
 6851SOL     OW21451   1.361   5.683   5.513
 6851SOL    HW121452   1.455   5.712   5.492
 6851SOL    HW221453   1.325   5.741   5.586
 6852SOL     OW21454   6.497   5.053   2.184
 6852SOL    HW121455   6.487   5.091   2.091
 6852SOL    HW221456   6.408   5.022   2.217
 6853SOL     OW21457   6.618   4.157   4.805
 6853SOL    HW121458   6.717   4.144   4.802
 6853SOL    HW221459   6.589   4.172   4.900
 6854SOL     OW21460   6.729   1.741   6.181
 6854SOL    HW121461   6.710   1.806   6.108
 6854SOL    HW221462   6.702   1.780   6.269
 6855SOL     OW21463   3.131   6.653   2.015
 6855SOL    HW121464   3.208   6.593   1.995
 6855SOL    HW221465   3.138   6.736   1.959
 6856SOL     OW21466   0.149   4.732   5.820
 6856SOL    HW121467   0.156   4.726   5.920
 6856SOL    HW221468   0.173   4.644   5.780
 6857SOL     OW21469   4.466   1.602   6.612
 6857SOL    HW121470   4.377   1.590   6.567
 6857SOL    HW221471   4.534   1.628   6.543
 6858SOL     OW21472   3.798   2.940   6.477
 6858SOL    HW121473   3.759   3.030   6.498
 6858SOL    HW221474   3.894   2.939   6.502
 6859SOL     OW21475   3.223   0.729   0.504
 6859SOL    HW121476   3.194   0.633   0.512
 6859SOL    HW221477   3.142   0.788   0.512
 6860SOL     OW21478   4.173   4.040   6.594
 6860SOL    HW121479   4.162   3.946   6.626
 6860SOL    HW221480   4.215   4.096   6.666
 6861SOL     OW21481   5.075   4.045   0.512
 6861SOL    HW121482   5.008   4.118   0.526
 6861SOL    HW221483   5.166   4.085   0.505
 6862SOL     OW21484   2.567   5.511   4.348
 6862SOL    HW121485   2.633   5.509   4.273
 6862SOL    HW221486   2.476   5.529   4.312
 6863SOL     OW21487   1.006   2.729   3.741
 6863SOL    HW121488   0.974   2.823   3.746
 6863SOL    HW221489   1.011   2.691   3.833
 6864SOL     OW21490   4.695   5.264   6.391
 6864SOL    HW121491   4.749   5.181   6.380
 6864SOL    HW221492   4.727   5.334   6.328
 6865SOL     OW21493   0.151   3.430   4.715
 6865SOL    HW121494   0.153   3.518   4.667
 6865SOL    HW221495   0.227   3.426   4.779
 6866SOL     OW21496   0.749   3.494   2.319
 6866SOL    HW121497   0.682   3.473   2.390
 6866SOL    HW221498   0.757   3.416   2.257
 6867SOL     OW21499   2.176   5.306   2.975
 6867SOL    HW121500   2.240   5.245   2.928
 6867SOL    HW221501   2.227   5.366   3.037
 6868SOL     OW21502   1.821   5.471   4.694
 6868SOL    HW121503   1.850   5.376   4.681
 6868SOL    HW221504   1.721   5.476   4.688
 6869SOL     OW21505   6.637   3.558   5.156
 6869SOL    HW121506   6.576   3.565   5.234
 6869SOL    HW221507   6.672   3.464   5.149
 6870SOL     OW21508   5.660   3.542   2.605
 6870SOL    HW121509   5.755   3.516   2.584
 6870SOL    HW221510   5.615   3.575   2.522
 6871SOL     OW21511   5.112   6.351   2.006
 6871SOL    HW121512   5.083   6.256   1.991
 6871SOL    HW221513   5.034   6.406   2.035
 6872SOL     OW21514   3.478   3.916   0.713
 6872SOL    HW121515   3.390   3.884   0.749
 6872SOL    HW221516   3.518   3.845   0.655
 6873SOL     OW21517   5.785   4.408   5.239
 6873SOL    HW121518   5.706   4.449   5.285
 6873SOL    HW221519   5.867   4.419   5.295
 6874SOL     OW21520   1.325   2.189   5.538
 6874SOL    HW121521   1.376   2.273   5.518
 6874SOL    HW221522   1.227   2.206   5.524
 6875SOL     OW21523   3.690   1.639   4.078
 6875SOL    HW121524   3.731   1.605   3.993
 6875SOL    HW221525   3.755   1.697   4.126
 6876SOL     OW21526   3.774   6.319   4.072
 6876SOL    HW121527   3.863   6.274   4.064
 6876SOL    HW221528   3.702   6.251   4.065
 6877SOL     OW21529   1.674   3.909   6.237
 6877SOL    HW121530   1.688   3.992   6.183
 6877SOL    HW221531   1.747   3.844   6.216
 6878SOL     OW21532   1.532   2.194   4.454
 6878SOL    HW121533   1.526   2.152   4.545
 6878SOL    HW221534   1.538   2.121   4.385
 6879SOL     OW21535   0.551   1.071   5.828
 6879SOL    HW121536   0.582   1.114   5.913
 6879SOL    HW221537   0.609   0.993   5.807
 6880SOL     OW21538   2.162   3.758   4.261
 6880SOL    HW121539   2.163   3.684   4.195
 6880SOL    HW221540   2.252   3.801   4.265
 6881SOL     OW21541   5.666   5.905   1.883
 6881SOL    HW121542   5.644   5.878   1.789
 6881SOL    HW221543   5.583   5.900   1.939
 6882SOL     OW21544   2.677   6.070   5.233
 6882SOL    HW121545   2.691   5.971   5.240
 6882SOL    HW221546   2.740   6.117   5.295
 6883SOL     OW21547   3.145   6.374   1.602
 6883SOL    HW121548   3.180   6.461   1.637
 6883SOL    HW221549   3.220   6.324   1.558
 6884SOL     OW21550   2.364   5.201   2.790
 6884SOL    HW121551   2.398   5.291   2.815
 6884SOL    HW221552   2.346   5.199   2.691
 6885SOL     OW21553   4.189   5.303   4.978
 6885SOL    HW121554   4.250   5.332   4.905
 6885SOL    HW221555   4.214   5.349   5.063
 6886SOL     OW21556   5.400   1.719   2.486
 6886SOL    HW121557   5.386   1.620   2.494
 6886SOL    HW221558   5.311   1.765   2.491
 6887SOL     OW21559   5.043   0.690   5.494
 6887SOL    HW121560   5.074   0.740   5.414
 6887SOL    HW221561   5.067   0.593   5.483
 6888SOL     OW21562   6.253   6.883   4.918
 6888SOL    HW121563   6.228   6.972   4.956
 6888SOL    HW221564   6.314   6.835   4.982
 6889SOL     OW21565   1.568   4.370   6.070
 6889SOL    HW121566   1.537   4.424   5.992
 6889SOL    HW221567   1.605   4.430   6.140
 6890SOL     OW21568   1.909   0.272   0.937
 6890SOL    HW121569   2.002   0.255   0.905
 6890SOL    HW221570   1.910   0.290   1.035
 6891SOL     OW21571   3.532   5.538   5.282
 6891SOL    HW121572   3.606   5.486   5.240
 6891SOL    HW221573   3.455   5.477   5.301
 6892SOL     OW21574   3.169   1.659   4.656
 6892SOL    HW121575   3.169   1.579   4.716
 6892SOL    HW221576   3.240   1.648   4.586
 6893SOL     OW21577   5.889   0.609   1.665
 6893SOL    HW121578   5.988   0.593   1.665
 6893SOL    HW221579   5.867   0.681   1.731
 6894SOL     OW21580   6.026   4.678   6.503
 6894SOL    HW121581   6.028   4.777   6.517
 6894SOL    HW221582   6.049   4.633   6.589
 6895SOL     OW21583   4.404   5.593   6.534
 6895SOL    HW121584   4.334   5.648   6.579
 6895SOL    HW221585   4.371   5.500   6.521
 6896SOL     OW21586   4.505   0.664   3.052
 6896SOL    HW121587   4.430   0.722   3.022
 6896SOL    HW221588   4.468   0.579   3.092
 6897SOL     OW21589   3.548   1.318   0.829
 6897SOL    HW121590   3.484   1.393   0.844
 6897SOL    HW221591   3.602   1.336   0.747
 6898SOL     OW21592   3.621   1.584   2.736
 6898SOL    HW121593   3.648   1.532   2.654
 6898SOL    HW221594   3.662   1.542   2.817
 6899SOL     OW21595   5.743   6.280   6.304
 6899SOL    HW121596   5.647   6.263   6.279
 6899SOL    HW221597   5.803   6.234   6.238
 6900SOL     OW21598   4.137   1.403   5.971
 6900SOL    HW121599   4.232   1.432   5.986
 6900SOL    HW221600   4.132   1.347   5.888
 6901SOL     OW21601   1.253   0.990   0.572
 6901SOL    HW121602   1.273   0.923   0.644
 6901SOL    HW221603   1.209   1.070   0.613
 6902SOL     OW21604   6.474   5.349   2.027
 6902SOL    HW121605   6.546   5.375   1.964
 6902SOL    HW221606   6.500   5.374   2.120
 6903SOL     OW21607   4.092   4.623   0.676
 6903SOL    HW121608   4.118   4.717   0.696
 6903SOL    HW221609   4.117   4.564   0.753
 6904SOL     OW21610   0.953   1.700   3.024
 6904SOL    HW121611   0.996   1.620   3.066
 6904SOL    HW221612   0.900   1.749   3.093
 6905SOL     OW21613   4.150   5.389   1.301
 6905SOL    HW121614   4.167   5.320   1.230
 6905SOL    HW221615   4.193   5.475   1.275
 6906SOL     OW21616   5.641   6.030   3.589
 6906SOL    HW121617   5.578   6.089   3.639
 6906SOL    HW221618   5.657   6.067   3.498
 6907SOL     OW21619   3.537   0.742   1.126
 6907SOL    HW121620   3.454   0.797   1.137
 6907SOL    HW221621   3.519   0.647   1.152
 6908SOL     OW21622   6.036   0.494   6.770
 6908SOL    HW121623   6.006   0.559   6.700
 6908SOL    HW221624   5.973   0.497   6.848
 6909SOL     OW21625   3.149   3.052   6.784
 6909SOL    HW121626   3.170   2.979   6.719
 6909SOL    HW221627   3.059   3.037   6.824
 6910SOL     OW21628   6.041   0.233   1.351
 6910SOL    HW121629   6.132   0.224   1.391
 6910SOL    HW221630   5.984   0.289   1.411
 6911SOL     OW21631   4.424   0.596   4.728
 6911SOL    HW121632   4.362   0.673   4.716
 6911SOL    HW221633   4.417   0.561   4.821
 6912SOL     OW21634   4.480   4.519   1.861
 6912SOL    HW121635   4.477   4.420   1.858
 6912SOL    HW221636   4.569   4.549   1.896
 6913SOL     OW21637   4.468   5.539   6.008
 6913SOL    HW121638   4.399   5.574   5.945
 6913SOL    HW221639   4.469   5.595   6.091
 6914SOL     OW21640   6.339   5.186   6.810
 6914SOL    HW121641   6.325   5.183   6.909
 6914SOL    HW221642   6.409   5.120   6.784
 6915SOL     OW21643   1.327   5.535   0.516
 6915SOL    HW121644   1.400   5.493   0.462
 6915SOL    HW221645   1.332   5.502   0.610
 6916SOL     OW21646   6.352   0.371   5.729
 6916SOL    HW121647   6.400   0.356   5.643
 6916SOL    HW221648   6.316   0.284   5.762
 6917SOL     OW21649   4.153   0.282   6.839
 6917SOL    HW121650   4.248   0.251   6.834
 6917SOL    HW221651   4.132   0.338   6.760
 6918SOL     OW21652   2.285   2.861   3.436
 6918SOL    HW121653   2.341   2.783   3.411
 6918SOL    HW221654   2.267   2.917   3.355
 6919SOL     OW21655   1.074   6.624   3.352
 6919SOL    HW121656   1.167   6.632   3.316
 6919SOL    HW221657   1.013   6.594   3.279
 6920SOL     OW21658   5.184   6.209   4.686
 6920SOL    HW121659   5.137   6.296   4.704
 6920SOL    HW221660   5.283   6.224   4.688
 6921SOL     OW21661   1.388   6.272   3.100
 6921SOL    HW121662   1.472   6.324   3.119
 6921SOL    HW221663   1.412   6.178   3.076
 6922SOL     OW21664   1.724   6.400   0.370
 6922SOL    HW121665   1.722   6.474   0.302
 6922SOL    HW221666   1.776   6.430   0.450
 6923SOL     OW21667   4.753   6.495   4.288
 6923SOL    HW121668   4.676   6.518   4.349
 6923SOL    HW221669   4.792   6.579   4.251
 6924SOL     OW21670   6.732   5.827   1.667
 6924SOL    HW121671   6.717   5.926   1.674
 6924SOL    HW221672   6.645   5.781   1.648
 6925SOL     OW21673   5.795   5.615   2.756
 6925SOL    HW121674   5.728   5.681   2.792
 6925SOL    HW221675   5.847   5.575   2.831
 6926SOL     OW21676   2.982   4.045   5.336
 6926SOL    HW121677   2.990   4.014   5.431
 6926SOL    HW221678   2.896   4.011   5.297
 6927SOL     OW21679   3.824   2.842   0.649
 6927SOL    HW121680   3.779   2.857   0.737
 6927SOL    HW221681   3.817   2.745   0.625
 6928SOL     OW21682   6.624   0.356   6.395
 6928SOL    HW121683   6.539   0.408   6.403
 6928SOL    HW221684   6.642   0.306   6.480
 6929SOL     OW21685   3.044   4.967   1.060
 6929SOL    HW121686   3.068   4.991   1.153
 6929SOL    HW221687   2.945   4.980   1.046
 6930SOL     OW21688   1.053   0.723   3.160
 6930SOL    HW121689   1.052   0.746   3.257
 6930SOL    HW221690   1.120   0.651   3.143
 6931SOL     OW21691   2.131   0.160   0.858
 6931SOL    HW121692   2.226   0.138   0.832
 6931SOL    HW221693   2.093   0.086   0.914
 6932SOL     OW21694   2.727   2.711   0.073
 6932SOL    HW121695   2.635   2.719   0.111
 6932SOL    HW221696   2.765   2.620   0.094
 6933SOL     OW21697   2.705   6.095   5.978
 6933SOL    HW121698   2.803   6.086   5.994
 6933SOL    HW221699   2.683   6.062   5.886
 6934SOL     OW21700   5.422   4.779   6.262
 6934SOL    HW121701   5.490   4.813   6.327
 6934SOL    HW221702   5.453   4.795   6.169
 6935SOL     OW21703   4.322   6.254   2.546
 6935SOL    HW121704   4.307   6.294   2.637
 6935SOL    HW221705   4.413   6.212   2.543
 6936SOL     OW21706   0.237   4.698   0.825
 6936SOL    HW121707   0.146   4.678   0.788
 6936SOL    HW221708   0.257   4.635   0.900
 6937SOL     OW21709   4.211   6.610   5.891
 6937SOL    HW121710   4.214   6.629   5.989
 6937SOL    HW221711   4.142   6.539   5.872
 6938SOL     OW21712   5.885   2.511   4.867
 6938SOL    HW121713   5.835   2.458   4.936
 6938SOL    HW221714   5.977   2.473   4.857
 6939SOL     OW21715   7.014   4.892   2.178
 6939SOL    HW121716   6.963   4.918   2.096
 6939SOL    HW221717   6.950   4.882   2.255
 6940SOL     OW21718   4.304   1.182   4.932
 6940SOL    HW121719   4.237   1.168   5.005
 6940SOL    HW221720   4.321   1.280   4.920
 6941SOL     OW21721   3.782   3.116   4.290
 6941SOL    HW121722   3.756   3.092   4.196
 6941SOL    HW221723   3.878   3.144   4.291
 6942SOL     OW21724   6.902   1.490   6.796
 6942SOL    HW121725   6.859   1.400   6.793
 6942SOL    HW221726   6.872   1.539   6.878
 6943SOL     OW21727   6.503   6.145   0.053
 6943SOL    HW121728   6.459   6.168   0.140
 6943SOL    HW221729   6.596   6.113   0.070
 6944SOL     OW21730   1.070   6.148   6.224
 6944SOL    HW121731   1.059   6.126   6.321
 6944SOL    HW221732   1.007   6.093   6.169
 6945SOL     OW21733   4.362   2.084   5.422
 6945SOL    HW121734   4.457   2.114   5.427
 6945SOL    HW221735   4.353   2.012   5.353
 6946SOL     OW21736   5.936   3.575   3.290
 6946SOL    HW121737   5.960   3.671   3.309
 6946SOL    HW221738   5.928   3.525   3.376
 6947SOL     OW21739   3.324   0.011   2.597
 6947SOL    HW121740   3.390   6.959   2.589
 6947SOL    HW221741   3.246   7.004   2.652
 6948SOL     OW21742   3.719   1.948   4.844
 6948SOL    HW121743   3.670   1.862   4.830
 6948SOL    HW221744   3.813   1.938   4.812
 6949SOL     OW21745   4.853   1.206   2.543
 6949SOL    HW121746   4.940   1.156   2.548
 6949SOL    HW221747   4.782   1.145   2.508
 6950SOL     OW21748   2.776   1.450   3.835
 6950SOL    HW121749   2.682   1.422   3.816
 6950SOL    HW221750   2.797   1.532   3.782
 6951SOL     OW21751   4.885   5.230   5.158
 6951SOL    HW121752   4.977   5.222   5.195
 6951SOL    HW221753   4.876   5.318   5.110
 6952SOL     OW21754   6.646   4.917   5.198
 6952SOL    HW121755   6.677   5.011   5.215
 6952SOL    HW221756   6.605   4.880   5.282
 6953SOL     OW21757   5.749   2.396   5.109
 6953SOL    HW121758   5.792   2.326   5.166
 6953SOL    HW221759   5.652   2.401   5.130
 6954SOL     OW21760   0.937   4.673   2.521
 6954SOL    HW121761   0.850   4.638   2.488
 6954SOL    HW221762   0.971   4.742   2.457
 6955SOL     OW21763   6.708   6.305   3.147
 6955SOL    HW121764   6.743   6.289   3.054
 6955SOL    HW221765   6.779   6.284   3.214
 6956SOL     OW21766   3.086   4.782   0.753
 6956SOL    HW121767   3.150   4.711   0.723
 6956SOL    HW221768   3.135   4.868   0.763
 6957SOL     OW21769   1.038   3.663   0.261
 6957SOL    HW121770   0.991   3.739   0.307
 6957SOL    HW221771   1.046   3.586   0.324
 6958SOL     OW21772   1.994   4.050   6.757
 6958SOL    HW121773   2.020   3.969   6.703
 6958SOL    HW221774   1.930   4.023   6.829
 6959SOL     OW21775   3.671   1.117   3.918
 6959SOL    HW121776   3.609   1.091   3.844
 6959SOL    HW221777   3.635   1.199   3.964
 6960SOL     OW21778   0.071   4.642   0.258
 6960SOL    HW121779   0.168   4.648   0.283
 6960SOL    HW221780   0.045   4.546   0.250
 6961SOL     OW21781   0.031   1.696   2.993
 6961SOL    HW121782   0.014   1.773   3.054
 6961SOL    HW221783   0.068   1.729   2.906
 6962SOL     OW21784   3.292   3.463   0.671
 6962SOL    HW121785   3.247   3.502   0.591
 6962SOL    HW221786   3.327   3.372   0.648
 6963SOL     OW21787   6.327   6.042   2.279
 6963SOL    HW121788   6.370   6.004   2.197
 6963SOL    HW221789   6.230   6.057   2.261
 6964SOL     OW21790   3.766   6.480   5.207
 6964SOL    HW121791   3.708   6.404   5.177
 6964SOL    HW221792   3.839   6.495   5.140
 6965SOL     OW21793   6.355   1.851   5.815
 6965SOL    HW121794   6.398   1.800   5.740
 6965SOL    HW221795   6.283   1.795   5.857
 6966SOL     OW21796   4.754   2.800   3.983
 6966SOL    HW121797   4.753   2.748   4.068
 6966SOL    HW221798   4.801   2.887   3.998
 6967SOL     OW21799   2.228   2.569   6.323
 6967SOL    HW121800   2.313   2.620   6.309
 6967SOL    HW221801   2.239   2.475   6.289
 6968SOL     OW21802   3.707   0.368   2.891
 6968SOL    HW121803   3.659   0.380   2.978
 6968SOL    HW221804   3.805   0.379   2.905
 6969SOL     OW21805   2.786   2.341   1.142
 6969SOL    HW121806   2.694   2.303   1.143
 6969SOL    HW221807   2.853   2.267   1.151
 6970SOL     OW21808   4.462   3.824   0.793
 6970SOL    HW121809   4.496   3.775   0.873
 6970SOL    HW221810   4.478   3.922   0.805
 6971SOL     OW21811   6.147   0.755   2.100
 6971SOL    HW121812   6.176   0.842   2.061
 6971SOL    HW221813   6.080   0.771   2.172
 6972SOL     OW21814   5.336   5.068   4.745
 6972SOL    HW121815   5.300   4.978   4.770
 6972SOL    HW221816   5.364   5.067   4.649
 6973SOL     OW21817   1.591   4.437   2.935
 6973SOL    HW121818   1.552   4.367   2.876
 6973SOL    HW221819   1.605   4.399   3.027
 6974SOL     OW21820   3.085   4.038   4.941
 6974SOL    HW121821   3.026   3.960   4.962
 6974SOL    HW221822   3.031   4.122   4.939
 6975SOL     OW21823   3.090   0.765   5.973
 6975SOL    HW121824   3.190   0.776   5.971
 6975SOL    HW221825   3.047   0.854   5.992
 6976SOL     OW21826   1.810   6.087   0.777
 6976SOL    HW121827   1.747   6.012   0.800
 6976SOL    HW221828   1.875   6.099   0.852
 6977SOL     OW21829   4.683   2.642   2.910
 6977SOL    HW121830   4.584   2.647   2.923
 6977SOL    HW221831   4.730   2.679   2.990
 6978SOL     OW21832   5.376   1.263   3.093
 6978SOL    HW121833   5.347   1.349   3.134
 6978SOL    HW221834   5.308   1.234   3.026
 6979SOL     OW21835   0.645   4.914   3.478
 6979SOL    HW121836   0.610   4.956   3.394
 6979SOL    HW221837   0.585   4.937   3.555
 6980SOL     OW21838   3.869   1.704   4.266
 6980SOL    HW121839   3.914   1.773   4.323
 6980SOL    HW221840   3.854   1.621   4.320
 6981SOL     OW21841   3.616   4.679   6.543
 6981SOL    HW121842   3.529   4.683   6.591
 6981SOL    HW221843   3.686   4.641   6.604
 6982SOL     OW21844   0.455   6.885   4.349
 6982SOL    HW121845   0.476   6.858   4.443
 6982SOL    HW221846   0.539   6.884   4.295
 6983SOL     OW21847   6.505   0.257   3.530
 6983SOL    HW121848   6.430   0.318   3.506
 6983SOL    HW221849   6.592   0.298   3.503
 6984SOL     OW21850   2.445   0.962   5.589
 6984SOL    HW121851   2.534   0.979   5.631
 6984SOL    HW221852   2.404   0.879   5.627
 6985SOL     OW21853   5.452   6.387   2.938
 6985SOL    HW121854   5.418   6.454   2.872
 6985SOL    HW221855   5.538   6.419   2.978
 6986SOL     OW21856   1.951   0.207   5.056
 6986SOL    HW121857   1.894   0.263   5.117
 6986SOL    HW221858   1.893   0.140   5.010
 6987SOL     OW21859   6.693   3.518   6.540
 6987SOL    HW121860   6.693   3.420   6.561
 6987SOL    HW221861   6.647   3.532   6.452
 6988SOL     OW21862   5.268   1.052   5.550
 6988SOL    HW121863   5.331   0.990   5.502
 6988SOL    HW221864   5.276   1.144   5.511
 6989SOL     OW21865   1.595   3.154   3.676
 6989SOL    HW121866   1.655   3.144   3.756
 6989SOL    HW221867   1.642   3.119   3.595
 6990SOL     OW21868   3.968   3.279   0.983
 6990SOL    HW121869   3.914   3.257   1.064
 6990SOL    HW221870   4.024   3.200   0.957
 6991SOL     OW21871   4.400   4.524   5.510
 6991SOL    HW121872   4.478   4.552   5.566
 6991SOL    HW221873   4.361   4.440   5.547
 6992SOL     OW21874   5.581   6.607   5.115
 6992SOL    HW121875   5.481   6.612   5.115
 6992SOL    HW221876   5.610   6.545   5.188
 6993SOL     OW21877   0.528   6.248   3.323
 6993SOL    HW121878   0.596   6.208   3.384
 6993SOL    HW221879   0.567   6.261   3.232
 6994SOL     OW21880   1.482   3.161   0.104
 6994SOL    HW121881   1.475   3.255   0.135
 6994SOL    HW221882   1.472   3.157   0.005
 6995SOL     OW21883   1.008   4.753   3.678
 6995SOL    HW121884   1.082   4.819   3.694
 6995SOL    HW221885   1.047   4.664   3.656
 6996SOL     OW21886   2.246   0.103   6.113
 6996SOL    HW121887   2.162   0.089   6.060
 6996SOL    HW221888   2.310   0.029   6.093
 6997SOL     OW21889   4.899   6.900   4.349
 6997SOL    HW121890   4.855   6.852   4.425
 6997SOL    HW221891   4.995   6.874   4.345
 6998SOL     OW21892   1.828   2.560   2.976
 6998SOL    HW121893   1.805   2.656   2.961
 6998SOL    HW221894   1.746   2.508   2.998
 6999SOL     OW21895   5.001   1.954   0.064
 6999SOL    HW121896   4.947   2.033   0.034
 6999SOL    HW221897   4.960   1.870   0.028
 7000SOL     OW21898   6.498   6.608   0.928
 7000SOL    HW121899   6.561   6.686   0.927
 7000SOL    HW221900   6.543   6.530   0.972
 7001SOL     OW21901   2.690   1.795   5.530
 7001SOL    HW121902   2.785   1.763   5.526
 7001SOL    HW221903   2.638   1.735   5.592
 7002SOL     OW21904   1.634   4.774   2.587
 7002SOL    HW121905   1.557   4.714   2.610
 7002SOL    HW221906   1.715   4.718   2.571
 7003SOL     OW21907   1.476   6.280   6.045
 7003SOL    HW121908   1.571   6.251   6.038
 7003SOL    HW221909   1.459   6.356   5.982
 7004SOL     OW21910   1.335   4.098   0.345
 7004SOL    HW121911   1.357   4.075   0.440
 7004SOL    HW221912   1.281   4.024   0.305
 7005SOL     OW21913   5.817   6.568   6.187
 7005SOL    HW121914   5.880   6.559   6.110
 7005SOL    HW221915   5.785   6.478   6.216
 7006SOL     OW21916   4.493   5.556   4.613
 7006SOL    HW121917   4.581   5.603   4.607
 7006SOL    HW221918   4.495   5.475   4.554
 7007SOL     OW21919   4.571   5.060   2.091
 7007SOL    HW121920   4.494   5.115   2.058
 7007SOL    HW221921   4.536   4.982   2.143
 7008SOL     OW21922   1.431   4.369   4.312
 7008SOL    HW121923   1.485   4.452   4.329
 7008SOL    HW221924   1.337   4.395   4.289
 7009SOL     OW21925   0.354   4.473   2.501
 7009SOL    HW121926   0.338   4.380   2.534
 7009SOL    HW221927   0.421   4.471   2.426
 7010SOL     OW21928   4.199   4.838   6.405
 7010SOL    HW121929   4.226   4.907   6.473
 7010SOL    HW221930   4.135   4.774   6.447
 7011SOL     OW21931   1.506   1.325   5.485
 7011SOL    HW121932   1.506   1.360   5.392
 7011SOL    HW221933   1.475   1.230   5.485
 7012SOL     OW21934   1.470   1.842   1.465
 7012SOL    HW121935   1.450   1.864   1.560
 7012SOL    HW221936   1.385   1.827   1.415
 7013SOL     OW21937   6.806   1.560   1.811
 7013SOL    HW121938   6.779   1.529   1.720
 7013SOL    HW221939   6.901   1.590   1.809
 7014SOL     OW21940   2.113   5.028   0.663
 7014SOL    HW121941   2.145   5.123   0.657
 7014SOL    HW221942   2.061   5.016   0.748
 7015SOL     OW21943   5.695   2.085   2.376
 7015SOL    HW121944   5.654   2.108   2.464
 7015SOL    HW221945   5.646   2.134   2.303
 7016SOL     OW21946   3.907   4.578   1.421
 7016SOL    HW121947   4.004   4.566   1.399
 7016SOL    HW221948   3.879   4.670   1.393
 7017SOL     OW21949   4.572   2.020   4.709
 7017SOL    HW121950   4.579   2.098   4.646
 7017SOL    HW221951   4.664   1.985   4.728
 7018SOL     OW21952   0.329   3.983   3.294
 7018SOL    HW121953   0.243   4.035   3.294
 7018SOL    HW221954   0.330   3.920   3.217
 7019SOL     OW21955   1.578   5.745   1.081
 7019SOL    HW121956   1.508   5.710   1.143
 7019SOL    HW221957   1.606   5.672   1.018
 7020SOL     OW21958   0.113   6.108   6.054
 7020SOL    HW121959   0.128   6.207   6.061
 7020SOL    HW221960   0.179   6.069   5.990
 7021SOL     OW21961   3.623   6.764   5.661
 7021SOL    HW121962   3.551   6.833   5.656
 7021SOL    HW221963   3.615   6.714   5.748
 7022SOL     OW21964   4.894   5.375   6.657
 7022SOL    HW121965   4.894   5.281   6.625
 7022SOL    HW221966   4.988   5.405   6.673
 7023SOL     OW21967   5.491   3.942   3.068
 7023SOL    HW121968   5.523   3.852   3.038
 7023SOL    HW221969   5.451   3.990   2.990
 7024SOL     OW21970   0.431   5.716   1.339
 7024SOL    HW121971   0.507   5.663   1.375
 7024SOL    HW221972   0.347   5.662   1.347
 7025SOL     OW21973   2.230   0.352   6.721
 7025SOL    HW121974   2.302   0.292   6.684
 7025SOL    HW221975   2.271   0.416   6.786
 7026SOL     OW21976   3.355   1.474   0.919
 7026SOL    HW121977   3.382   1.551   0.976
 7026SOL    HW221978   3.323   1.508   0.830
 7027SOL     OW21979   4.631   6.555   4.541
 7027SOL    HW121980   4.577   6.639   4.530
 7027SOL    HW221981   4.719   6.578   4.584
 7028SOL     OW21982   2.955   0.103   4.314
 7028SOL    HW121983   2.997   0.027   4.364
 7028SOL    HW221984   3.016   0.182   4.318
 7029SOL     OW21985   4.074   0.960   4.974
 7029SOL    HW121986   4.055   0.866   4.944
 7029SOL    HW221987   4.092   1.017   4.894
 7030SOL     OW21988   2.146   3.520   3.581
 7030SOL    HW121989   2.126   3.608   3.537
 7030SOL    HW221990   2.089   3.511   3.663
 7031SOL     OW21991   1.462   0.499   4.633
 7031SOL    HW121992   1.412   0.485   4.718
 7031SOL    HW221993   1.402   0.544   4.566
 7032SOL     OW21994   6.132   1.938   3.458
 7032SOL    HW121995   6.080   2.010   3.413
 7032SOL    HW221996   6.100   1.849   3.426
 7033SOL     OW21997   0.035   0.073   4.637
 7033SOL    HW121998   0.119   0.114   4.671
 7033SOL    HW221999   6.983   0.141   4.641
 7034SOL     OW22000   0.169   5.644   2.944
 7034SOL    HW122001   0.104   5.716   2.922
 7034SOL    HW222002   0.258   5.664   2.902
 7035SOL     OW22003   6.673   5.074   2.390
 7035SOL    HW122004   6.709   5.167   2.401
 7035SOL    HW222005   6.618   5.069   2.307
 7036SOL     OW22006   6.623   4.873   0.552
 7036SOL    HW122007   6.624   4.797   0.616
 7036SOL    HW222008   6.703   4.868   0.493
 7037SOL     OW22009   0.817   0.166   6.583
 7037SOL    HW122010   0.789   0.092   6.644
 7037SOL    HW222011   0.876   0.129   6.511
 7038SOL     OW22012   2.211   3.103   3.989
 7038SOL    HW122013   2.245   3.009   4.000
 7038SOL    HW222014   2.150   3.125   4.065
 7039SOL     OW22015   3.575   2.172   5.898
 7039SOL    HW122016   3.585   2.118   5.982
 7039SOL    HW222017   3.489   2.223   5.902
 7040SOL     OW22018   5.815   2.788   6.722
 7040SOL    HW122019   5.836   2.698   6.760
 7040SOL    HW222020   5.847   2.793   6.628
 7041SOL     OW22021   3.116   1.344   2.844
 7041SOL    HW122022   3.214   1.360   2.860
 7041SOL    HW222023   3.071   1.324   2.931
 7042SOL     OW22024   1.518   0.424   6.524
 7042SOL    HW122025   1.612   0.398   6.503
 7042SOL    HW222026   1.519   0.502   6.587
 7043SOL     OW22027   1.020   2.759   2.477
 7043SOL    HW122028   1.119   2.772   2.491
 7043SOL    HW222029   0.999   2.662   2.484
 7044SOL     OW22030   5.226   5.969   1.928
 7044SOL    HW122031   5.181   5.880   1.930
 7044SOL    HW222032   5.157   6.041   1.933
 7045SOL     OW22033   6.531   4.657   0.732
 7045SOL    HW122034   6.461   4.686   0.667
 7045SOL    HW222035   6.509   4.566   0.767
 7046SOL     OW22036   2.591   1.145   3.910
 7046SOL    HW122037   2.547   1.218   3.858
 7046SOL    HW222038   2.625   1.182   3.997
 7047SOL     OW22039   1.518   1.266   2.801
 7047SOL    HW122040   1.513   1.349   2.745
 7047SOL    HW222041   1.517   1.185   2.742
 7048SOL     OW22042   6.868   5.757   0.778
 7048SOL    HW122043   6.843   5.764   0.681
 7048SOL    HW222044   6.793   5.791   0.834
 7049SOL     OW22045   1.653   0.766   7.008
 7049SOL    HW122046   1.663   0.826   6.929
 7049SOL    HW222047   1.701   0.680   6.991
 7050SOL     OW22048   3.856   3.882   4.734
 7050SOL    HW122049   3.815   3.830   4.659
 7050SOL    HW222050   3.924   3.825   4.781
 7051SOL     OW22051   0.149   6.707   2.793
 7051SOL    HW122052   0.049   6.712   2.802
 7051SOL    HW222053   0.189   6.796   2.816
 7052SOL     OW22054   0.057   0.803   3.949
 7052SOL    HW122055   0.144   0.852   3.958
 7052SOL    HW222056   7.015   0.857   3.894
 7053SOL     OW22057   6.575   4.304   5.711
 7053SOL    HW122058   6.522   4.354   5.642
 7053SOL    HW222059   6.658   4.356   5.733
 7054SOL     OW22060   6.564   0.825   1.610
 7054SOL    HW122061   6.566   0.878   1.526
 7054SOL    HW222062   6.656   0.819   1.648
 7055SOL     OW22063   4.099   0.723   4.789
 7055SOL    HW122064   4.137   0.712   4.881
 7055SOL    HW222065   4.002   0.700   4.790
 7056SOL     OW22066   4.488   5.616   3.544
 7056SOL    HW122067   4.516   5.553   3.471
 7056SOL    HW222068   4.447   5.564   3.619
 7057SOL     OW22069   0.825   6.317   3.422
 7057SOL    HW122070   0.807   6.379   3.346
 7057SOL    HW222071   0.849   6.370   3.504
 7058SOL     OW22072   0.514   4.371   5.185
 7058SOL    HW122073   0.598   4.328   5.154
 7058SOL    HW222074   0.442   4.357   5.117
 7059SOL     OW22075   2.332   0.303   2.963
 7059SOL    HW122076   2.392   0.383   2.971
 7059SOL    HW222077   2.388   0.219   2.965
 7060SOL     OW22078   3.294   6.966   1.309
 7060SOL    HW122079   3.386   6.983   1.274
 7060SOL    HW222080   3.235   0.021   1.287
 7061SOL     OW22081   0.149   1.198   3.563
 7061SOL    HW122082   0.214   1.151   3.623
 7061SOL    HW222083   0.144   1.151   3.475
 7062SOL     OW22084   6.650   1.063   5.538
 7062SOL    HW122085   6.558   1.069   5.500
 7062SOL    HW222086   6.647   1.015   5.626
 7063SOL     OW22087   2.615   0.176   2.015
 7063SOL    HW122088   2.620   0.083   1.980
 7063SOL    HW222089   2.706   0.208   2.040
 7064SOL     OW22090   4.333   2.195   0.663
 7064SOL    HW122091   4.275   2.132   0.611
 7064SOL    HW222092   4.294   2.208   0.754
 7065SOL     OW22093   3.616   3.553   2.079
 7065SOL    HW122094   3.624   3.641   2.128
 7065SOL    HW222095   3.597   3.480   2.145
 7066SOL     OW22096   2.809   5.862   1.082
 7066SOL    HW122097   2.748   5.887   1.157
 7066SOL    HW222098   2.768   5.789   1.029
 7067SOL     OW22099   0.208   3.880   4.509
 7067SOL    HW122100   0.308   3.883   4.509
 7067SOL    HW222101   0.176   3.846   4.421
 7068SOL     OW22102   1.446   0.778   2.750
 7068SOL    HW122103   1.477   0.698   2.803
 7068SOL    HW222104   1.351   0.765   2.723
 7069SOL     OW22105   1.774   4.484   5.380
 7069SOL    HW122106   1.839   4.409   5.373
 7069SOL    HW222107   1.747   4.513   5.288
 7070SOL     OW22108   5.013   5.636   4.269
 7070SOL    HW122109   4.954   5.565   4.307
 7070SOL    HW222110   4.958   5.699   4.213
 7071SOL     OW22111   1.313   6.901   5.081
 7071SOL    HW122112   1.267   6.897   5.170
 7071SOL    HW222113   1.291   6.988   5.036
 7072SOL     OW22114   0.090   6.292   6.620
 7072SOL    HW122115   0.081   6.391   6.605
 7072SOL    HW222116   0.020   6.263   6.686
 7073SOL     OW22117   1.421   1.989   6.690
 7073SOL    HW122118   1.362   1.927   6.742
 7073SOL    HW222119   1.509   1.944   6.671
 7074SOL     OW22120   2.704   1.426   0.759
 7074SOL    HW122121   2.689   1.396   0.664
 7074SOL    HW222122   2.727   1.523   0.759
 7075SOL     OW22123   1.423   5.460   2.586
 7075SOL    HW122124   1.411   5.365   2.559
 7075SOL    HW222125   1.519   5.477   2.609
 7076SOL     OW22126   3.184   2.238   6.471
 7076SOL    HW122127   3.207   2.266   6.378
 7076SOL    HW222128   3.094   2.194   6.471
 7077SOL     OW22129   1.828   4.957   5.997
 7077SOL    HW122130   1.790   5.050   5.998
 7077SOL    HW222131   1.895   4.949   6.071
 7078SOL     OW22132   6.640   0.926   2.587
 7078SOL    HW122133   6.662   0.845   2.640
 7078SOL    HW222134   6.635   0.902   2.490
 7079SOL     OW22135   5.163   5.405   5.750
 7079SOL    HW122136   5.262   5.413   5.739
 7079SOL    HW222137   5.133   5.458   5.829
 7080SOL     OW22138   5.596   6.889   4.128
 7080SOL    HW122139   5.541   6.947   4.189
 7080SOL    HW222140   5.568   6.904   4.033
 7081SOL     OW22141   3.824   1.133   5.424
 7081SOL    HW122142   3.812   1.202   5.354
 7081SOL    HW222143   3.888   1.167   5.493
 7082SOL     OW22144   4.871   1.980   6.282
 7082SOL    HW122145   4.837   2.072   6.261
 7082SOL    HW222146   4.887   1.972   6.380
 7083SOL     OW22147   3.220   6.915   5.989
 7083SOL    HW122148   3.314   6.949   5.996
 7083SOL    HW222149   3.166   6.978   5.933
 7084SOL     OW22150   6.957   6.346   0.342
 7084SOL    HW122151   6.902   6.279   0.292
 7084SOL    HW222152   7.014   6.397   0.277
 7085SOL     OW22153   3.487   2.438   0.762
 7085SOL    HW122154   3.438   2.516   0.800
 7085SOL    HW222155   3.437   2.354   0.782
 7086SOL     OW22156   0.004   1.068   6.460
 7086SOL    HW122157   0.080   1.004   6.454
 7086SOL    HW222158   0.026   1.139   6.527
 7087SOL     OW22159   2.234   2.580   5.246
 7087SOL    HW122160   2.146   2.587   5.199
 7087SOL    HW222161   2.219   2.574   5.344
 7088SOL     OW22162   0.778   1.930   5.930
 7088SOL    HW122163   0.862   1.905   5.977
 7088SOL    HW222164   0.775   1.886   5.841
 7089SOL     OW22165   2.455   1.560   1.112
 7089SOL    HW122166   2.441   1.649   1.156
 7089SOL    HW222167   2.553   1.542   1.104
 7090SOL     OW22168   2.312   2.498   4.745
 7090SOL    HW122169   2.386   2.507   4.812
 7090SOL    HW222170   2.233   2.552   4.776
 7091SOL     OW22171   0.051   6.233   0.774
 7091SOL    HW122172   0.067   6.330   0.759
 7091SOL    HW222173   0.092   6.180   0.700
 7092SOL     OW22174   2.876   3.052   6.819
 7092SOL    HW122175   2.805   3.121   6.811
 7092SOL    HW222176   2.835   2.961   6.817
 7093SOL     OW22177   4.216   3.159   5.877
 7093SOL    HW122178   4.277   3.149   5.956
 7093SOL    HW222179   4.165   3.074   5.864
 7094SOL     OW22180   6.893   0.504   6.379
 7094SOL    HW122181   6.940   0.560   6.311
 7094SOL    HW222182   6.812   0.463   6.339
 7095SOL     OW22183   0.452   4.103   6.587
 7095SOL    HW122184   0.408   4.113   6.676
 7095SOL    HW222185   0.488   4.191   6.557
 7096SOL     OW22186   5.038   0.988   2.765
 7096SOL    HW122187   4.988   1.036   2.837
 7096SOL    HW222188   5.074   1.054   2.699
 7097SOL     OW22189   1.557   0.836   1.798
 7097SOL    HW122190   1.555   0.764   1.728
 7097SOL    HW222191   1.563   0.795   1.888
 7098SOL     OW22192   1.780   0.166   5.794
 7098SOL    HW122193   1.723   0.212   5.861
 7098SOL    HW222194   1.802   0.229   5.720
 7099SOL     OW22195   0.535   0.934   6.111
 7099SOL    HW122196   0.535   0.989   6.195
 7099SOL    HW222197   0.457   0.961   6.054
 7100SOL     OW22198   5.448   2.069   1.052
 7100SOL    HW122199   5.500   2.071   1.137
 7100SOL    HW222200   5.364   2.017   1.066
 7101SOL     OW22201   1.661   0.507   4.242
 7101SOL    HW122202   1.737   0.573   4.237
 7101SOL    HW222203   1.691   0.427   4.293
 7102SOL     OW22204   4.908   2.882   0.971
 7102SOL    HW122205   4.940   2.895   1.064
 7102SOL    HW222206   4.835   2.947   0.951
 7103SOL     OW22207   2.516   6.618   6.534
 7103SOL    HW122208   2.614   6.613   6.516
 7103SOL    HW222209   2.488   6.714   6.544
 7104SOL     OW22210   0.132   2.006   1.809
 7104SOL    HW122211   0.181   2.059   1.879
 7104SOL    HW222212   0.198   1.955   1.754
 7105SOL     OW22213   2.495   4.150   5.402
 7105SOL    HW122214   2.595   4.152   5.405
 7105SOL    HW222215   2.466   4.087   5.330
 7106SOL     OW22216   3.216   2.463   5.336
 7106SOL    HW122217   3.220   2.549   5.285
 7106SOL    HW222218   3.215   2.386   5.272
 7107SOL     OW22219   2.370   0.541   6.885
 7107SOL    HW122220   2.462   0.577   6.902
 7107SOL    HW222221   2.312   0.559   6.965
 7108SOL     OW22222   4.550   6.864   2.549
 7108SOL    HW122223   4.559   6.765   2.539
 7108SOL    HW222224   4.579   6.908   2.465
 7109SOL     OW22225   3.889   6.167   6.269
 7109SOL    HW122226   3.903   6.256   6.226
 7109SOL    HW222227   3.847   6.179   6.359
 7110SOL     OW22228   3.375   5.186   3.225
 7110SOL    HW122229   3.324   5.167   3.141
 7110SOL    HW222230   3.318   5.238   3.288
 7111SOL     OW22231   1.585   2.208   3.830
 7111SOL    HW122232   1.660   2.261   3.792
 7111SOL    HW222233   1.531   2.169   3.756
 7112SOL     OW22234   1.362   6.414   2.388
 7112SOL    HW122235   1.454   6.383   2.365
 7112SOL    HW222236   1.310   6.339   2.428
 7113SOL     OW22237   3.108   3.667   4.772
 7113SOL    HW122238   3.141   3.687   4.864
 7113SOL    HW222239   3.131   3.743   4.711
 7114SOL     OW22240   4.093   0.032   1.084
 7114SOL    HW122241   4.061   0.080   1.002
 7114SOL    HW222242   4.192   0.021   1.080
 7115SOL     OW22243   4.167   1.695   1.578
 7115SOL    HW122244   4.202   1.787   1.594
 7115SOL    HW222245   4.071   1.700   1.552
 7116SOL     OW22246   6.345   3.785   3.061
 7116SOL    HW122247   6.343   3.702   3.005
 7116SOL    HW222248   6.424   3.783   3.122
 7117SOL     OW22249   6.695   6.609   2.131
 7117SOL    HW122250   6.747   6.678   2.082
 7117SOL    HW222251   6.599   6.613   2.104
 7118SOL     OW22252   6.809   2.801   2.117
 7118SOL    HW122253   6.726   2.751   2.140
 7118SOL    HW222254   6.787   2.875   2.053
 7119SOL     OW22255   0.156   2.108   2.668
 7119SOL    HW122256   0.183   2.043   2.739
 7119SOL    HW222257   0.106   2.059   2.596
 7120SOL     OW22258   4.700   6.828   3.381
 7120SOL    HW122259   4.775   6.765   3.363
 7120SOL    HW222260   4.618   6.796   3.333
 7121SOL     OW22261   3.525   6.664   1.938
 7121SOL    HW122262   3.613   6.712   1.933
 7121SOL    HW222263   3.503   6.644   2.033
 7122SOL     OW22264   6.916   0.049   6.847
 7122SOL    HW122265   6.892   7.014   6.770
 7122SOL    HW222266   6.956   0.135   6.814
 7123SOL     OW22267   2.683   5.296   0.419
 7123SOL    HW122268   2.625   5.263   0.345
 7123SOL    HW222269   2.690   5.396   0.415
 7124SOL     OW22270   0.616   5.527   1.460
 7124SOL    HW122271   0.676   5.474   1.399
 7124SOL    HW222272   0.672   5.581   1.523
 7125SOL     OW22273   7.006   6.508   2.547
 7125SOL    HW122274   6.934   6.522   2.615
 7125SOL    HW222275   7.014   6.590   2.490
 7126SOL     OW22276   1.162   4.677   0.328
 7126SOL    HW122277   1.161   4.679   0.428
 7126SOL    HW222278   1.161   4.582   0.296
 7127SOL     OW22279   3.394   0.324   4.321
 7127SOL    HW122280   3.462   0.323   4.248
 7127SOL    HW222281   3.440   0.331   4.410
 7128SOL     OW22282   3.091   4.590   1.613
 7128SOL    HW122283   3.004   4.637   1.625
 7128SOL    HW222284   3.087   4.500   1.658
 7129SOL     OW22285   2.712   1.845   1.639
 7129SOL    HW122286   2.636   1.908   1.626
 7129SOL    HW222287   2.677   1.758   1.675
 7130SOL     OW22288   2.507   6.405   1.957
 7130SOL    HW122289   2.498   6.335   1.886
 7130SOL    HW222290   2.590   6.387   2.010
 7131SOL     OW22291   3.006   1.283   3.818
 7131SOL    HW122292   2.930   1.346   3.834
 7131SOL    HW222293   3.048   1.304   3.730
 7132SOL     OW22294   3.484   4.140   3.448
 7132SOL    HW122295   3.578   4.112   3.428
 7132SOL    HW222296   3.427   4.125   3.367
 7133SOL     OW22297   5.522   4.760   2.203
 7133SOL    HW122298   5.600   4.701   2.179
 7133SOL    HW222299   5.470   4.717   2.277
 7134SOL     OW22300   5.159   4.520   3.451
 7134SOL    HW122301   5.189   4.537   3.357
 7134SOL    HW222302   5.062   4.541   3.460
 7135SOL     OW22303   1.164   1.971   5.136
 7135SOL    HW122304   1.253   1.934   5.108
 7135SOL    HW222305   1.169   2.071   5.138
 7136SOL     OW22306   2.336   2.154   6.616
 7136SOL    HW122307   2.415   2.092   6.621
 7136SOL    HW222308   2.312   2.184   6.708
 7137SOL     OW22309   3.739   1.298   4.861
 7137SOL    HW122310   3.681   1.217   4.873
 7137SOL    HW222311   3.797   1.286   4.782
 7138SOL     OW22312   2.069   3.677   6.933
 7138SOL    HW122313   2.121   3.752   6.974
 7138SOL    HW222314   1.996   3.716   6.875
 7139SOL     OW22315   3.135   1.854   0.046
 7139SOL    HW122316   3.234   1.860   0.057
 7139SOL    HW222317   3.097   1.946   0.032
 7140SOL     OW22318   6.311   3.319   5.341
 7140SOL    HW122319   6.360   3.406   5.345
 7140SOL    HW222320   6.367   3.247   5.382
 7141SOL     OW22321   2.054   6.944   1.021
 7141SOL    HW122322   2.146   6.911   0.999
 7141SOL    HW222323   1.993   6.865   1.030
 7142SOL     OW22324   4.040   0.030   4.219
 7142SOL    HW122325   3.951   0.007   4.180
 7142SOL    HW222326   4.080   0.106   4.169
 7143SOL     OW22327   1.807   3.037   3.833
 7143SOL    HW122328   1.740   3.004   3.899
 7143SOL    HW222329   1.856   2.960   3.792
 7144SOL     OW22330   1.018   3.029   3.820
 7144SOL    HW122331   0.970   3.108   3.781
 7144SOL    HW222332   1.115   3.050   3.829
 7145SOL     OW22333   4.236   6.382   6.095
 7145SOL    HW122334   4.237   6.318   6.018
 7145SOL    HW222335   4.329   6.395   6.130
 7146SOL     OW22336   3.198   4.702   1.139
 7146SOL    HW122337   3.162   4.624   1.086
 7146SOL    HW222338   3.158   4.787   1.105
 7147SOL     OW22339   0.410   1.096   4.295
 7147SOL    HW122340   0.400   1.163   4.221
 7147SOL    HW222341   0.503   1.059   4.293
 7148SOL     OW22342   0.555   1.764   0.610
 7148SOL    HW122343   0.515   1.742   0.699
 7148SOL    HW222344   0.592   1.681   0.568
 7149SOL     OW22345   6.700   0.592   3.728
 7149SOL    HW122346   6.759   0.612   3.650
 7149SOL    HW222347   6.606   0.581   3.697
 7150SOL     OW22348   5.528   4.273   0.030
 7150SOL    HW122349   5.610   4.218   0.047
 7150SOL    HW222350   5.554   4.362   7.016
 7151SOL     OW22351   1.823   5.980   1.473
 7151SOL    HW122352   1.808   5.971   1.374
 7151SOL    HW222353   1.735   5.984   1.520
 7152SOL     OW22354   1.501   2.370   4.029
 7152SOL    HW122355   1.513   2.284   3.978
 7152SOL    HW222356   1.454   2.351   4.115
 7153SOL     OW22357   3.467   1.740   3.195
 7153SOL    HW122358   3.551   1.757   3.144
 7153SOL    HW222359   3.394   1.715   3.131
 7154SOL     OW22360   4.809   6.141   4.514
 7154SOL    HW122361   4.893   6.148   4.460
 7154SOL    HW222362   4.730   6.160   4.456
 7155SOL     OW22363   2.209   0.397   2.740
 7155SOL    HW122364   2.128   0.456   2.738
 7155SOL    HW222365   2.231   0.375   2.835
 7156SOL     OW22366   1.001   5.867   4.875
 7156SOL    HW122367   1.038   5.858   4.782
 7156SOL    HW222368   0.996   5.964   4.899
 7157SOL     OW22369   5.296   4.449   1.107
 7157SOL    HW122370   5.215   4.489   1.149
 7157SOL    HW222371   5.288   4.349   1.106
 7158SOL     OW22372   5.215   6.911   4.480
 7158SOL    HW122373   5.195   6.976   4.553
 7158SOL    HW222374   5.282   6.844   4.513
 7159SOL     OW22375   0.962   5.359   0.102
 7159SOL    HW122376   0.875   5.333   0.060
 7159SOL    HW222377   0.945   5.399   0.192
 7160SOL     OW22378   6.174   0.542   2.337
 7160SOL    HW122379   6.269   0.519   2.358
 7160SOL    HW222380   6.171   0.617   2.271
 7161SOL     OW22381   3.524   4.064   4.270
 7161SOL    HW122382   3.529   4.094   4.365
 7161SOL    HW222383   3.567   3.974   4.261
 7162SOL     OW22384   3.006   4.795   3.561
 7162SOL    HW122385   3.082   4.849   3.596
 7162SOL    HW222386   2.936   4.785   3.632
 7163SOL     OW22387   2.606   6.654   3.345
 7163SOL    HW122388   2.544   6.607   3.407
 7163SOL    HW222389   2.698   6.653   3.384
 7164SOL     OW22390   2.732   2.038   3.418
 7164SOL    HW122391   2.725   2.076   3.326
 7164SOL    HW222392   2.679   1.953   3.423
 7165SOL     OW22393   4.959   0.067   2.201
 7165SOL    HW122394   4.990   0.019   2.119
 7165SOL    HW222395   4.867   0.104   2.184
 7166SOL     OW22396   5.054   4.900   1.669
 7166SOL    HW122397   5.007   4.918   1.755
 7166SOL    HW222398   5.106   4.981   1.642
 7167SOL     OW22399   5.368   3.069   5.537
 7167SOL    HW122400   5.412   3.153   5.569
 7167SOL    HW222401   5.269   3.076   5.550
 7168SOL     OW22402   0.884   1.825   4.808
 7168SOL    HW122403   0.870   1.908   4.755
 7168SOL    HW222404   0.963   1.775   4.771
 7169SOL     OW22405   1.499   2.783   6.986
 7169SOL    HW122406   1.588   2.818   6.958
 7169SOL    HW222407   1.444   2.763   6.905
 7170SOL     OW22408   6.387   5.060   4.033
 7170SOL    HW122409   6.417   5.154   4.015
 7170SOL    HW222410   6.314   5.061   4.101
 7171SOL     OW22411   4.337   2.738   5.974
 7171SOL    HW122412   4.433   2.765   5.965
 7171SOL    HW222413   4.278   2.816   5.952
 7172SOL     OW22414   1.172   6.693   1.006
 7172SOL    HW122415   1.192   6.607   1.054
 7172SOL    HW222416   1.106   6.675   0.933
 7173SOL     OW22417   6.200   6.335   5.395
 7173SOL    HW122418   6.284   6.324   5.449
 7173SOL    HW222419   6.149   6.414   5.427
 7174SOL     OW22420   0.500   5.541   0.059
 7174SOL    HW122421   0.501   5.600   7.001
 7174SOL    HW222422   0.410   5.498   0.067
 7175SOL     OW22423   6.300   2.848   5.271
 7175SOL    HW122424   6.384   2.840   5.217
 7175SOL    HW222425   6.243   2.921   5.233
 7176SOL     OW22426   6.487   3.318   1.552
 7176SOL    HW122427   6.472   3.238   1.609
 7176SOL    HW222428   6.437   3.396   1.590
 7177SOL     OW22429   0.873   5.945   2.357
 7177SOL    HW122430   0.970   5.965   2.365
 7177SOL    HW222431   0.820   6.029   2.362
 7178SOL     OW22432   0.040   2.179   6.289
 7178SOL    HW122433   0.123   2.136   6.254
 7178SOL    HW222434   0.010   2.132   6.372
 7179SOL     OW22435   2.289   4.274   6.367
 7179SOL    HW122436   2.285   4.249   6.270
 7179SOL    HW222437   2.378   4.316   6.387
 7180SOL     OW22438   1.010   6.797   3.109
 7180SOL    HW122439   1.004   6.698   3.095
 7180SOL    HW222440   1.106   6.824   3.121
 7181SOL     OW22441   5.789   6.753   2.680
 7181SOL    HW122442   5.732   6.833   2.697
 7181SOL    HW222443   5.732   6.676   2.653
 7182SOL     OW22444   3.542   3.628   5.692
 7182SOL    HW122445   3.549   3.540   5.740
 7182SOL    HW222446   3.467   3.623   5.626
 7183SOL     OW22447   1.315   4.895   3.118
 7183SOL    HW122448   1.220   4.904   3.145
 7183SOL    HW222449   1.353   4.810   3.157
 7184SOL     OW22450   2.490   6.122   2.648
 7184SOL    HW122451   2.464   6.171   2.565
 7184SOL    HW222452   2.455   6.029   2.644
 7185SOL     OW22453   4.210   2.316   6.838
 7185SOL    HW122454   4.150   2.394   6.821
 7185SOL    HW222455   4.284   2.343   6.899
 7186SOL     OW22456   0.334   6.801   4.103
 7186SOL    HW122457   0.374   6.832   4.189
 7186SOL    HW222458   0.243   6.763   4.120
 7187SOL     OW22459   2.282   5.607   1.298
 7187SOL    HW122460   2.303   5.695   1.339
 7187SOL    HW222461   2.183   5.598   1.285
 7188SOL     OW22462   4.961   0.314   1.432
 7188SOL    HW122463   5.053   0.276   1.416
 7188SOL    HW222464   4.918   0.334   1.344
 7189SOL     OW22465   6.714   0.062   4.823
 7189SOL    HW122466   6.750   0.128   4.758
 7189SOL    HW222467   6.633   0.017   4.784
 7190SOL     OW22468   4.631   5.063   3.210
 7190SOL    HW122469   4.720   5.108   3.204
 7190SOL    HW222470   4.577   5.103   3.284
 7191SOL     OW22471   0.646   2.894   1.623
 7191SOL    HW122472   0.615   2.989   1.627
 7191SOL    HW222473   0.737   2.887   1.666
 7192SOL     OW22474   4.214   5.655   6.181
 7192SOL    HW122475   4.230   5.747   6.144
 7192SOL    HW222476   4.139   5.659   6.247
 7193SOL     OW22477   5.465   1.872   3.878
 7193SOL    HW122478   5.403   1.914   3.944
 7193SOL    HW222479   5.484   1.937   3.804
 7194SOL     OW22480   3.209   1.457   1.297
 7194SOL    HW122481   3.269   1.393   1.249
 7194SOL    HW222482   3.221   1.549   1.259
 7195SOL     OW22483   0.367   6.315   1.925
 7195SOL    HW122484   0.305   6.394   1.925
 7195SOL    HW222485   0.454   6.342   1.967
 7196SOL     OW22486   3.654   2.837   2.192
 7196SOL    HW122487   3.649   2.783   2.108
 7196SOL    HW222488   3.739   2.815   2.240
 7197SOL     OW22489   1.267   1.665   4.414
 7197SOL    HW122490   1.351   1.716   4.431
 7197SOL    HW222491   1.289   1.580   4.365
 7198SOL     OW22492   0.604   6.655   6.524
 7198SOL    HW122493   0.572   6.567   6.489
 7198SOL    HW222494   0.695   6.674   6.488
 7199SOL     OW22495   5.697   6.546   2.979
 7199SOL    HW122496   5.775   6.562   3.039
 7199SOL    HW222497   5.729   6.509   2.891
 7200SOL     OW22498   1.839   1.983   2.124
 7200SOL    HW122499   1.786   1.944   2.049
 7200SOL    HW222500   1.777   2.011   2.198
 7201SOL     OW22501   2.381   5.170   3.262
 7201SOL    HW122502   2.307   5.131   3.316
 7201SOL    HW222503   2.413   5.102   3.196
 7202SOL     OW22504   3.600   0.185   5.725
 7202SOL    HW122505   3.630   0.259   5.786
 7202SOL    HW222506   3.679   0.150   5.675
 7203SOL     OW22507   5.887   0.150   6.668
 7203SOL    HW122508   5.879   0.203   6.583
 7203SOL    HW222509   5.945   0.199   6.733
 7204SOL     OW22510   6.334   1.643   2.567
 7204SOL    HW122511   6.263   1.596   2.515
 7204SOL    HW222512   6.358   1.729   2.521
 7205SOL     OW22513   1.598   5.053   1.831
 7205SOL    HW122514   1.632   4.960   1.818
 7205SOL    HW222515   1.626   5.110   1.754
 7206SOL     OW22516   5.657   1.417   1.675
 7206SOL    HW122517   5.572   1.450   1.632
 7206SOL    HW222518   5.678   1.475   1.754
 7207SOL     OW22519   4.010   6.796   2.071
 7207SOL    HW122520   4.037   6.705   2.040
 7207SOL    HW222521   4.061   6.820   2.153
 7208SOL     OW22522   3.100   0.113   4.928
 7208SOL    HW122523   3.062   0.198   4.965
 7208SOL    HW222524   3.071   0.036   4.986
 7209SOL     OW22525   4.052   3.198   4.830
 7209SOL    HW122526   4.028   3.207   4.927
 7209SOL    HW222527   4.135   3.252   4.811
 7210SOL     OW22528   4.697   0.644   4.044
 7210SOL    HW122529   4.713   0.736   4.008
 7210SOL    HW222530   4.706   0.578   3.970
 7211SOL     OW22531   1.715   4.879   2.839
 7211SOL    HW122532   1.679   4.858   2.748
 7211SOL    HW222533   1.651   4.941   2.886
 7212SOL     OW22534   5.184   6.980   3.656
 7212SOL    HW122535   5.142   6.928   3.731
 7212SOL    HW222536   5.214   0.047   3.689
 7213SOL     OW22537   5.918   6.944   5.555
 7213SOL    HW122538   6.013   6.931   5.527
 7213SOL    HW222539   5.892   6.872   5.618
 7214SOL     OW22540   0.344   5.045   5.407
 7214SOL    HW122541   0.424   5.064   5.351
 7214SOL    HW222542   0.295   5.131   5.426
 7215SOL     OW22543   0.922   3.293   2.989
 7215SOL    HW122544   0.882   3.290   3.081
 7215SOL    HW222545   1.004   3.351   2.990
 7216SOL     OW22546   2.387   1.640   1.827
 7216SOL    HW122547   2.326   1.573   1.869
 7216SOL    HW222548   2.332   1.712   1.784
 7217SOL     OW22549   1.225   3.306   1.852
 7217SOL    HW122550   1.228   3.282   1.755
 7217SOL    HW222551   1.187   3.229   1.904
 7218SOL     OW22552   6.585   2.128   5.779
 7218SOL    HW122553   6.650   2.188   5.827
 7218SOL    HW222554   6.613   2.033   5.790
 7219SOL     OW22555   3.776   0.492   1.177
 7219SOL    HW122556   3.798   0.395   1.183
 7219SOL    HW222557   3.677   0.503   1.168
 7220SOL     OW22558   0.149   1.073   3.268
 7220SOL    HW122559   0.081   1.113   3.206
 7220SOL    HW222560   0.171   0.980   3.238
 7221SOL     OW22561   5.807   5.098   5.589
 7221SOL    HW122562   5.760   5.182   5.618
 7221SOL    HW222563   5.892   5.122   5.542
 7222SOL     OW22564   5.832   6.307   3.238
 7222SOL    HW122565   5.874   6.384   3.285
 7222SOL    HW222566   5.868   6.299   3.145
 7223SOL     OW22567   4.242   1.264   5.253
 7223SOL    HW122568   4.268   1.169   5.235
 7223SOL    HW222569   4.153   1.283   5.211
 7224SOL     OW22570   5.055   0.913   4.577
 7224SOL    HW122571   5.032   0.872   4.489
 7224SOL    HW222572   5.002   0.868   4.649
 7225SOL     OW22573   2.094   0.391   0.674
 7225SOL    HW122574   2.086   0.292   0.677
 7225SOL    HW222575   2.041   0.427   0.597
 7226SOL     OW22576   5.728   6.761   6.364
 7226SOL    HW122577   5.796   6.834   6.366
 7226SOL    HW222578   5.752   6.695   6.293
 7227SOL     OW22579   6.931   2.359   6.118
 7227SOL    HW122580   6.834   2.380   6.108
 7227SOL    HW222581   6.942   2.284   6.184
 7228SOL     OW22582   2.217   0.701   2.928
 7228SOL    HW122583   2.149   0.706   2.855
 7228SOL    HW222584   2.173   0.714   3.017
 7229SOL     OW22585   0.395   0.419   3.957
 7229SOL    HW122586   0.296   0.432   3.959
 7229SOL    HW222587   0.416   0.328   3.920
 7230SOL     OW22588   6.186   5.439   1.846
 7230SOL    HW122589   6.220   5.527   1.813
 7230SOL    HW222590   6.196   5.370   1.774
 7231SOL     OW22591   5.541   1.047   6.724
 7231SOL    HW122592   5.526   1.143   6.749
 7231SOL    HW222593   5.626   1.014   6.766
 7232SOL     OW22594   3.758   4.055   0.765
 7232SOL    HW122595   3.733   4.108   0.684
 7232SOL    HW222596   3.741   3.958   0.748
 7233SOL     OW22597   0.600   2.267   6.136
 7233SOL    HW122598   0.648   2.314   6.063
 7233SOL    HW222599   0.514   2.313   6.155
 7234SOL     OW22600   5.614   1.777   2.997
 7234SOL    HW122601   5.519   1.770   2.965
 7234SOL    HW222602   5.666   1.700   2.962
 7235SOL     OW22603   5.928   2.823   4.455
 7235SOL    HW122604   5.926   2.782   4.546
 7235SOL    HW222605   5.894   2.917   4.460
 7236SOL     OW22606   2.570   1.429   3.241
 7236SOL    HW122607   2.527   1.476   3.163
 7236SOL    HW222608   2.583   1.332   3.218
 7237SOL     OW22609   6.061   5.316   5.125
 7237SOL    HW122610   5.975   5.271   5.149
 7237SOL    HW222611   6.053   5.356   5.034
 7238SOL     OW22612   0.904   0.910   1.713
 7238SOL    HW122613   0.982   0.888   1.772
 7238SOL    HW222614   0.921   0.874   1.621
 7239SOL     OW22615   4.509   0.822   2.216
 7239SOL    HW122616   4.516   0.884   2.138
 7239SOL    HW222617   4.542   0.867   2.299
 7240SOL     OW22618   2.969   3.239   1.276
 7240SOL    HW122619   2.963   3.142   1.296
 7240SOL    HW222620   3.028   3.283   1.345
 7241SOL     OW22621   5.243   6.779   4.817
 7241SOL    HW122622   5.170   6.749   4.879
 7241SOL    HW222623   5.217   6.863   4.771
 7242SOL     OW22624   5.711   4.825   0.708
 7242SOL    HW122625   5.681   4.731   0.726
 7242SOL    HW222626   5.637   4.875   0.662
 7243SOL     OW22627   0.630   5.846   0.359
 7243SOL    HW122628   0.591   5.777   0.298
 7243SOL    HW222629   0.664   5.803   0.442
 7244SOL     OW22630   5.782   1.777   0.730
 7244SOL    HW122631   5.817   1.856   0.679
 7244SOL    HW222632   5.791   1.794   0.828
 7245SOL     OW22633   6.743   1.614   4.516
 7245SOL    HW122634   6.730   1.713   4.528
 7245SOL    HW222635   6.654   1.569   4.509
 7246SOL     OW22636   1.355   5.416   5.260
 7246SOL    HW122637   1.340   5.319   5.244
 7246SOL    HW222638   1.355   5.435   5.358
 7247SOL     OW22639   3.910   5.512   3.087
 7247SOL    HW122640   3.837   5.572   3.121
 7247SOL    HW222641   3.941   5.452   3.161
 7248SOL     OW22642   3.073   0.969   4.680
 7248SOL    HW122643   2.988   0.933   4.718
 7248SOL    HW222644   3.094   1.056   4.724
 7249SOL     OW22645   5.382   4.118   6.047
 7249SOL    HW122646   5.481   4.108   6.051
 7249SOL    HW222647   5.338   4.032   6.074
 7250SOL     OW22648   3.132   3.554   0.421
 7250SOL    HW122649   3.170   3.643   0.396
 7250SOL    HW222650   3.161   3.485   0.355
 7251SOL     OW22651   5.298   1.061   4.465
 7251SOL    HW122652   5.211   1.012   4.467
 7251SOL    HW222653   5.305   1.117   4.548
 7252SOL     OW22654   4.392   3.584   5.272
 7252SOL    HW122655   4.478   3.633   5.283
 7252SOL    HW222656   4.408   3.499   5.221
 7253SOL     OW22657   5.429   4.856   1.083
 7253SOL    HW122658   5.413   4.949   1.049
 7253SOL    HW222659   5.345   4.821   1.124
 7254SOL     OW22660   5.567   6.903   5.630
 7254SOL    HW122661   5.549   6.865   5.539
 7254SOL    HW222662   5.481   6.913   5.680
 7255SOL     OW22663   4.116   3.459   2.091
 7255SOL    HW122664   4.120   3.437   2.189
 7255SOL    HW222665   4.021   3.472   2.064
 7256SOL     OW22666   3.829   4.894   3.734
 7256SOL    HW122667   3.832   4.990   3.704
 7256SOL    HW222668   3.753   4.881   3.797
 7257SOL     OW22669   6.080   3.946   3.130
 7257SOL    HW122670   6.164   3.898   3.106
 7257SOL    HW222671   6.002   3.903   3.083
 7258SOL     OW22672   2.194   0.286   5.762
 7258SOL    HW122673   2.226   0.198   5.727
 7258SOL    HW222674   2.110   0.313   5.715
 7259SOL     OW22675   2.443   5.664   6.293
 7259SOL    HW122676   2.539   5.668   6.265
 7259SOL    HW222677   2.436   5.614   6.379
 7260SOL     OW22678   4.669   1.652   2.557
 7260SOL    HW122679   4.579   1.654   2.512
 7260SOL    HW222680   4.730   1.716   2.510
 7261SOL     OW22681   1.588   4.662   1.302
 7261SOL    HW122682   1.585   4.760   1.321
 7261SOL    HW222683   1.502   4.619   1.329
 7262SOL     OW22684   5.977   1.177   5.603
 7262SOL    HW122685   6.000   1.171   5.506
 7262SOL    HW222686   5.895   1.123   5.621
 7263SOL     OW22687   5.364   6.250   1.830
 7263SOL    HW122688   5.352   6.151   1.838
 7263SOL    HW222689   5.296   6.296   1.886
 7264SOL     OW22690   1.728   6.885   4.680
 7264SOL    HW122691   1.797   6.821   4.715
 7264SOL    HW222692   1.638   6.861   4.718
 7265SOL     OW22693   4.468   3.410   6.049
 7265SOL    HW122694   4.529   3.460   6.111
 7265SOL    HW222695   4.386   3.465   6.032
 7266SOL     OW22696   3.693   1.586   1.896
 7266SOL    HW122697   3.652   1.572   1.805
 7266SOL    HW222698   3.785   1.547   1.897
 7267SOL     OW22699   6.949   3.192   4.442
 7267SOL    HW122700   6.995   3.276   4.470
 7267SOL    HW222701   6.890   3.161   4.516
 7268SOL     OW22702   3.749   0.415   0.116
 7268SOL    HW122703   3.831   0.388   0.065
 7268SOL    HW222704   3.728   0.345   0.185
 7269SOL     OW22705   1.141   6.994   1.757
 7269SOL    HW122706   1.052   6.961   1.787
 7269SOL    HW222707   1.150   0.069   1.779
 7270SOL     OW22708   3.039   1.712   2.367
 7270SOL    HW122709   3.055   1.705   2.465
 7270SOL    HW222710   3.071   1.801   2.334
 7271SOL     OW22711   6.350   5.136   3.645
 7271SOL    HW122712   6.264   5.106   3.684
 7271SOL    HW222713   6.420   5.066   3.660
 7272SOL     OW22714   6.328   2.073   1.104
 7272SOL    HW122715   6.380   1.988   1.111
 7272SOL    HW222716   6.334   2.109   1.011
 7273SOL     OW22717   5.282   5.930   5.398
 7273SOL    HW122718   5.202   5.897   5.446
 7273SOL    HW222719   5.364   5.883   5.431
 7274SOL     OW22720   6.274   4.787   3.921
 7274SOL    HW122721   6.337   4.789   3.999
 7274SOL    HW222722   6.223   4.701   3.921
 7275SOL     OW22723   5.313   6.456   1.257
 7275SOL    HW122724   5.356   6.452   1.167
 7275SOL    HW222725   5.282   6.549   1.276
 7276SOL     OW22726   3.036   2.229   3.994
 7276SOL    HW122727   3.073   2.217   4.086
 7276SOL    HW222728   2.944   2.268   4.000
 7277SOL     OW22729   6.020   1.138   4.015
 7277SOL    HW122730   6.039   1.097   4.104
 7277SOL    HW222731   5.932   1.186   4.019
 7278SOL     OW22732   2.696   2.097   3.813
 7278SOL    HW122733   2.728   2.134   3.901
 7278SOL    HW222734   2.746   2.141   3.738
 7279SOL     OW22735   4.190   3.755   1.049
 7279SOL    HW122736   4.172   3.659   1.028
 7279SOL    HW222737   4.288   3.768   1.064
 7280SOL     OW22738   6.623   1.844   5.432
 7280SOL    HW122739   6.616   1.771   5.364
 7280SOL    HW222740   6.637   1.932   5.385
 7281SOL     OW22741   3.532   6.338   2.125
 7281SOL    HW122742   3.549   6.299   2.035
 7281SOL    HW222743   3.559   6.434   2.126
 7282SOL     OW22744   6.865   3.655   1.392
 7282SOL    HW122745   6.862   3.644   1.293
 7282SOL    HW222746   6.917   3.737   1.416
 7283SOL     OW22747   3.736   6.146   2.814
 7283SOL    HW122748   3.723   6.227   2.872
 7283SOL    HW222749   3.765   6.069   2.871
 7284SOL     OW22750   0.636   0.957   3.109
 7284SOL    HW122751   0.709   0.915   3.054
 7284SOL    HW222752   0.669   1.044   3.146
 7285SOL     OW22753   5.165   2.882   2.165
 7285SOL    HW122754   5.159   2.966   2.111
 7285SOL    HW222755   5.220   2.898   2.246
 7286SOL     OW22756   6.212   1.178   3.834
 7286SOL    HW122757   6.195   1.186   3.735
 7286SOL    HW222758   6.126   1.170   3.883
 7287SOL     OW22759   3.528   0.779   3.787
 7287SOL    HW122760   3.622   0.813   3.783
 7287SOL    HW222761   3.489   0.798   3.877
 7288SOL     OW22762   3.542   1.729   2.105
 7288SOL    HW122763   3.542   1.827   2.126
 7288SOL    HW222764   3.590   1.714   2.019
 7289SOL     OW22765   5.889   2.752   2.452
 7289SOL    HW122766   5.978   2.760   2.497
 7289SOL    HW222767   5.885   2.817   2.376
 7290SOL     OW22768   4.065   1.712   4.910
 7290SOL    HW122769   4.082   1.614   4.902
 7290SOL    HW222770   3.988   1.737   4.852
 7291SOL     OW22771   1.784   1.253   0.640
 7291SOL    HW122772   1.804   1.311   0.562
 7291SOL    HW222773   1.763   1.160   0.608
 7292SOL     OW22774   3.081   0.606   2.823
 7292SOL    HW122775   3.171   0.585   2.785
 7292SOL    HW222776   3.092   0.647   2.914
 7293SOL     OW22777   6.364   1.135   4.098
 7293SOL    HW122778   6.309   1.151   4.016
 7293SOL    HW222779   6.392   1.039   4.101
 7294SOL     OW22780   3.909   7.007   2.815
 7294SOL    HW122781   3.868   7.014   2.724
 7294SOL    HW222782   4.004   0.016   2.811
 7295SOL     OW22783   5.373   3.939   1.202
 7295SOL    HW122784   5.317   3.875   1.149
 7295SOL    HW222785   5.360   3.920   1.300
 7296SOL     OW22786   3.516   6.212   1.883
 7296SOL    HW122787   3.473   6.263   1.808
 7296SOL    HW222788   3.518   6.115   1.861
 7297SOL     OW22789   4.137   6.629   0.227
 7297SOL    HW122790   4.055   6.572   0.222
 7297SOL    HW222791   4.189   6.604   0.308
 7298SOL     OW22792   4.296   5.614   1.251
 7298SOL    HW122793   4.355   5.616   1.171
 7298SOL    HW222794   4.318   5.692   1.311
 7299SOL     OW22795   0.414   3.611   5.546
 7299SOL    HW122796   0.380   3.638   5.455
 7299SOL    HW222797   0.361   3.658   5.616
 7300SOL     OW22798   0.670   4.601   2.441
 7300SOL    HW122799   0.691   4.641   2.352
 7300SOL    HW222800   0.600   4.656   2.487
 7301SOL     OW22801   4.398   2.139   6.752
 7301SOL    HW122802   4.328   2.201   6.786
 7301SOL    HW222803   4.447   2.183   6.676
 7302SOL     OW22804   5.063   2.449   6.924
 7302SOL    HW122805   5.040   2.473   6.830
 7302SOL    HW222806   5.163   2.452   6.935
 7303SOL     OW22807   3.141   2.086   1.471
 7303SOL    HW122808   3.080   2.163   1.487
 7303SOL    HW222809   3.105   2.005   1.519
 7304SOL     OW22810   2.073   6.349   0.577
 7304SOL    HW122811   2.131   6.419   0.536
 7304SOL    HW222812   2.127   6.293   0.640
 7305SOL     OW22813   6.264   0.247   6.454
 7305SOL    HW122814   6.306   0.297   6.530
 7305SOL    HW222815   6.167   0.270   6.450
 7306SOL     OW22816   1.031   3.305   1.336
 7306SOL    HW122817   1.043   3.404   1.351
 7306SOL    HW222818   0.980   3.266   1.413
 7307SOL     OW22819   2.530   0.696   2.146
 7307SOL    HW122820   2.545   0.712   2.243
 7307SOL    HW222821   2.594   0.751   2.092
 7308SOL     OW22822   3.442   1.132   3.628
 7308SOL    HW122823   3.461   1.071   3.551
 7308SOL    HW222824   3.375   1.089   3.689
 7309SOL     OW22825   2.081   5.627   3.717
 7309SOL    HW122826   2.080   5.582   3.807
 7309SOL    HW222827   2.060   5.724   3.728
 7310SOL     OW22828   2.636   2.984   6.988
 7310SOL    HW122829   2.543   2.956   6.964
 7310SOL    HW222830   2.683   2.907   0.010
 7311SOL     OW22831   0.312   6.199   5.850
 7311SOL    HW122832   0.405   6.211   5.813
 7311SOL    HW222833   0.246   6.210   5.776
 7312SOL     OW22834   6.342   2.110   4.448
 7312SOL    HW122835   6.303   2.182   4.506
 7312SOL    HW222836   6.277   2.036   4.438
 7313SOL     OW22837   3.014   1.153   2.649
 7313SOL    HW122838   3.035   1.203   2.734
 7313SOL    HW222839   3.096   1.147   2.593
 7314SOL     OW22840   2.178   5.021   5.527
 7314SOL    HW122841   2.156   4.946   5.590
 7314SOL    HW222842   2.277   5.040   5.532
 7315SOL     OW22843   3.310   4.950   2.429
 7315SOL    HW122844   3.265   4.955   2.340
 7315SOL    HW222845   3.297   5.037   2.478
 7316SOL     OW22846   3.654   1.566   1.474
 7316SOL    HW122847   3.628   1.482   1.427
 7316SOL    HW222848   3.607   1.571   1.563
 7317SOL     OW22849   4.693   1.964   0.829
 7317SOL    HW122850   4.702   1.942   0.732
 7317SOL    HW222851   4.759   1.910   0.881
 7318SOL     OW22852   5.178   0.252   0.764
 7318SOL    HW122853   5.208   0.285   0.854
 7318SOL    HW222854   5.247   0.274   0.695
 7319SOL     OW22855   5.294   6.261   6.688
 7319SOL    HW122856   5.202   6.281   6.656
 7319SOL    HW222857   5.308   6.301   6.778
 7320SOL     OW22858   0.341   2.806   0.330
 7320SOL    HW122859   0.322   2.795   0.233
 7320SOL    HW222860   0.356   2.903   0.350
 7321SOL     OW22861   2.130   2.098   6.152
 7321SOL    HW122862   2.085   2.107   6.063
 7321SOL    HW222863   2.215   2.150   6.152
 7322SOL     OW22864   1.306   2.394   3.783
 7322SOL    HW122865   1.250   2.312   3.795
 7322SOL    HW222866   1.374   2.399   3.856
 7323SOL     OW22867   1.063   2.235   0.968
 7323SOL    HW122868   1.090   2.329   0.949
 7323SOL    HW222869   1.131   2.192   1.028
 7324SOL     OW22870   5.030   4.118   4.205
 7324SOL    HW122871   5.072   4.060   4.135
 7324SOL    HW222872   4.936   4.140   4.179
 7325SOL     OW22873   3.680   1.551   6.018
 7325SOL    HW122874   3.607   1.539   5.950
 7325SOL    HW222875   3.728   1.637   6.000
 7326SOL     OW22876   3.910   6.968   0.474
 7326SOL    HW122877   3.930   0.043   0.468
 7326SOL    HW222878   3.916   6.927   0.383
 7327SOL     OW22879   1.866   4.446   3.372
 7327SOL    HW122880   1.797   4.389   3.417
 7327SOL    HW222881   1.924   4.488   3.441
 7328SOL     OW22882   4.700   5.023   6.047
 7328SOL    HW122883   4.609   5.064   6.058
 7328SOL    HW222884   4.761   5.090   6.005
 7329SOL     OW22885   2.578   3.797   0.942
 7329SOL    HW122886   2.521   3.877   0.963
 7329SOL    HW222887   2.657   3.796   1.004
 7330SOL     OW22888   2.792   3.165   0.738
 7330SOL    HW122889   2.784   3.104   0.659
 7330SOL    HW222890   2.883   3.206   0.739
 7331SOL     OW22891   5.156   2.101   2.580
 7331SOL    HW122892   5.239   2.046   2.594
 7331SOL    HW222893   5.136   2.153   2.662
 7332SOL     OW22894   2.735   6.575   5.496
 7332SOL    HW122895   2.778   6.639   5.559
 7332SOL    HW222896   2.689   6.503   5.548
 7333SOL     OW22897   6.742   0.744   1.239
 7333SOL    HW122898   6.712   0.650   1.222
 7333SOL    HW222899   6.838   0.744   1.266
 7334SOL     OW22900   1.693   4.635   4.617
 7334SOL    HW122901   1.733   4.683   4.539
 7334SOL    HW222902   1.736   4.544   4.625
 7335SOL     OW22903   1.012   3.627   2.460
 7335SOL    HW122904   0.994   3.594   2.367
 7335SOL    HW222905   0.936   3.684   2.490
 7336SOL     OW22906   2.698   6.962   1.198
 7336SOL    HW122907   2.690   6.863   1.185
 7336SOL    HW222908   2.608   7.000   1.220
 7337SOL     OW22909   3.290   1.657   3.779
 7337SOL    HW122910   3.272   1.735   3.719
 7337SOL    HW222911   3.354   1.594   3.733
 7338SOL     OW22912   5.133   3.965   0.824
 7338SOL    HW122913   5.128   3.934   0.729
 7338SOL    HW222914   5.160   4.061   0.827
 7339SOL     OW22915   0.419   5.971   4.601
 7339SOL    HW122916   0.399   5.873   4.598
 7339SOL    HW222917   0.516   5.985   4.622
 7340SOL     OW22918   2.809   6.022   0.072
 7340SOL    HW122919   2.826   6.014   6.996
 7340SOL    HW222920   2.724   6.072   0.087
 7341SOL     OW22921   6.455   5.440   4.130
 7341SOL    HW122922   6.531   5.426   4.193
 7341SOL    HW222923   6.488   5.434   4.036
 7342SOL     OW22924   0.800   5.172   0.824
 7342SOL    HW122925   0.765   5.101   0.885
 7342SOL    HW222926   0.888   5.143   0.785
 7343SOL     OW22927   6.214   2.619   3.156
 7343SOL    HW122928   6.282   2.621   3.083
 7343SOL    HW222929   6.248   2.566   3.233
 7344SOL     OW22930   2.239   0.928   6.859
 7344SOL    HW122931   2.315   0.932   6.925
 7344SOL    HW222932   2.268   0.972   6.774
 7345SOL     OW22933   2.439   6.557   6.992
 7345SOL    HW122934   2.357   6.571   6.936
 7345SOL    HW222935   2.413   6.521   0.059
 7346SOL     OW22936   3.859   4.924   2.265
 7346SOL    HW122937   3.915   4.885   2.338
 7346SOL    HW222938   3.766   4.939   2.299
 7347SOL     OW22939   6.470   2.828   2.696
 7347SOL    HW122940   6.452   2.772   2.615
 7347SOL    HW222941   6.505   2.918   2.667
 7348SOL     OW22942   6.753   1.353   5.492
 7348SOL    HW122943   6.686   1.279   5.503
 7348SOL    HW222944   6.809   1.360   5.574
 7349SOL     OW22945   3.797   1.651   0.985
 7349SOL    HW122946   3.732   1.722   1.013
 7349SOL    HW222947   3.771   1.563   1.026
 7350SOL     OW22948   2.182   1.182   3.344
 7350SOL    HW122949   2.209   1.153   3.252
 7350SOL    HW222950   2.241   1.138   3.411
 7351SOL     OW22951   4.132   4.862   0.808
 7351SOL    HW122952   4.198   4.919   0.759
 7351SOL    HW222953   4.146   4.871   0.906
 7352SOL     OW22954   6.562   0.618   3.104
 7352SOL    HW122955   6.564   0.630   3.005
 7352SOL    HW222956   6.518   0.531   3.126
 7353SOL     OW22957   5.379   1.201   4.680
 7353SOL    HW122958   5.463   1.149   4.698
 7353SOL    HW222959   5.348   1.244   4.765
 7354SOL     OW22960   6.190   4.280   4.518
 7354SOL    HW122961   6.181   4.201   4.458
 7354SOL    HW222962   6.265   4.266   4.582
 7355SOL     OW22963   0.968   5.592   0.865
 7355SOL    HW122964   0.998   5.629   0.776
 7355SOL    HW222965   0.877   5.627   0.886
 7356SOL     OW22966   6.996   2.095   5.866
 7356SOL    HW122967   6.991   2.139   5.777
 7356SOL    HW222968   0.070   2.090   5.895
 7357SOL     OW22969   0.784   1.551   6.844
 7357SOL    HW122970   0.884   1.553   6.844
 7357SOL    HW222971   0.752   1.478   6.784
 7358SOL     OW22972   3.404   0.883   4.034
 7358SOL    HW122973   3.406   0.798   4.087
 7358SOL    HW222974   3.454   0.954   4.084
 7359SOL     OW22975   3.496   2.983   3.281
 7359SOL    HW122976   3.528   2.925   3.206
 7359SOL    HW222977   3.396   2.994   3.275
 7360SOL     OW22978   0.147   4.238   5.962
 7360SOL    HW122979   0.162   4.319   5.905
 7360SOL    HW222980   0.225   4.225   6.023
 7361SOL     OW22981   4.612   6.656   1.505
 7361SOL    HW122982   4.627   6.742   1.553
 7361SOL    HW222983   4.671   6.585   1.544
 7362SOL     OW22984   1.742   6.343   5.996
 7362SOL    HW122985   1.719   6.437   5.972
 7362SOL    HW222986   1.829   6.318   5.954
 7363SOL     OW22987   4.856   3.015   6.674
 7363SOL    HW122988   4.788   3.041   6.605
 7363SOL    HW222989   4.940   2.986   6.629
 7364SOL     OW22990   4.624   0.796   1.284
 7364SOL    HW122991   4.586   0.741   1.358
 7364SOL    HW222992   4.584   0.767   1.197
 7365SOL     OW22993   3.905   0.613   1.862
 7365SOL    HW122994   3.843   0.652   1.930
 7365SOL    HW222995   3.855   0.552   1.802
 7366SOL     OW22996   0.874   6.864   0.060
 7366SOL    HW122997   0.809   6.833   7.012
 7366SOL    HW222998   0.890   6.791   0.126
 7367SOL     OW22999   4.461   2.884   7.013
 7367SOL    HW123000   4.554   2.918   0.002
 7367SOL    HW223001   4.400   2.960   6.988
 7368SOL     OW23002   3.344   2.936   3.839
 7368SOL    HW123003   3.321   2.839   3.836
 7368SOL    HW223004   3.261   2.991   3.843
 7369SOL     OW23005   5.085   1.621   6.255
 7369SOL    HW123006   5.016   1.604   6.326
 7369SOL    HW223007   5.167   1.567   6.276
 7370SOL     OW23008   1.226   5.697   0.936
 7370SOL    HW123009   1.239   5.748   1.021
 7370SOL    HW223010   1.129   5.673   0.927
 7371SOL     OW23011   1.821   4.852   4.456
 7371SOL    HW123012   1.823   4.921   4.528
 7371SOL    HW223013   1.913   4.837   4.420
 7372SOL     OW23014   3.060   6.695   5.324
 7372SOL    HW123015   2.990   6.713   5.393
 7372SOL    HW223016   3.150   6.713   5.363
 7373SOL     OW23017   3.316   0.311   0.656
 7373SOL    HW123018   3.277   0.222   0.679
 7373SOL    HW223019   3.343   0.359   0.740
 7374SOL     OW23020   2.381   3.299   6.758
 7374SOL    HW123021   2.417   3.368   6.821
 7374SOL    HW223022   2.315   3.343   6.696
 7375SOL     OW23023   2.599   6.379   2.960
 7375SOL    HW123024   2.650   6.371   3.045
 7375SOL    HW223025   2.640   6.320   2.891
 7376SOL     OW23026   3.362   4.001   6.443
 7376SOL    HW123027   3.334   3.919   6.392
 7376SOL    HW223028   3.424   3.974   6.517
 7377SOL     OW23029   5.868   5.847   2.040
 7377SOL    HW123030   5.786   5.876   1.990
 7377SOL    HW223031   5.941   5.827   1.975
 7378SOL     OW23032   0.147   2.588   5.793
 7378SOL    HW123033   0.055   2.582   5.832
 7378SOL    HW223034   0.206   2.519   5.837
 7379SOL     OW23035   3.952   1.030   1.133
 7379SOL    HW123036   4.042   1.051   1.170
 7379SOL    HW223037   3.894   0.994   1.206
 7380SOL     OW23038   6.706   2.555   5.452
 7380SOL    HW123039   6.806   2.553   5.448
 7380SOL    HW223040   6.676   2.568   5.546
 7381SOL     OW23041   4.661   2.462   0.401
 7381SOL    HW123042   4.710   2.388   0.448
 7381SOL    HW223043   4.576   2.426   0.361
 7382SOL     OW23044   1.336   5.563   3.713
 7382SOL    HW123045   1.410   5.496   3.717
 7382SOL    HW223046   1.373   5.654   3.697
 7383SOL     OW23047   0.853   5.009   3.032
 7383SOL    HW123048   0.788   5.070   2.986
 7383SOL    HW223049   0.913   5.062   3.091
 7384SOL     OW23050   6.406   1.857   1.530
 7384SOL    HW123051   6.354   1.839   1.614
 7384SOL    HW223052   6.479   1.789   1.521
 7385SOL     OW23053   5.083   0.672   1.428
 7385SOL    HW123054   5.075   0.602   1.499
 7385SOL    HW223055   5.134   0.750   1.463
 7386SOL     OW23056   0.150   2.351   5.964
 7386SOL    HW123057   0.178   2.257   5.943
 7386SOL    HW223058   0.059   2.350   6.004
 7387SOL     OW23059   5.387   6.380   4.184
 7387SOL    HW123060   5.427   6.393   4.093
 7387SOL    HW223061   5.373   6.468   4.228
 7388SOL     OW23062   5.418   4.318   5.058
 7388SOL    HW123063   5.374   4.234   5.090
 7388SOL    HW223064   5.447   4.306   4.963
 7389SOL     OW23065   0.505   3.892   4.473
 7389SOL    HW123066   0.500   3.849   4.383
 7389SOL    HW223067   0.523   3.823   4.543
 7390SOL     OW23068   3.230   0.045   6.528
 7390SOL    HW123069   3.266   6.995   6.469
 7390SOL    HW223070   3.288   0.054   6.609
 7391SOL     OW23071   6.728   5.000   0.286
 7391SOL    HW123072   6.758   5.089   0.320
 7391SOL    HW223073   6.798   4.931   0.308
 7392SOL     OW23074   2.228   4.598   2.882
 7392SOL    HW123075   2.268   4.582   2.972
 7392SOL    HW223076   2.129   4.612   2.892
 7393SOL     OW23077   0.628   3.833   6.887
 7393SOL    HW123078   0.664   3.770   6.956
 7393SOL    HW223079   0.691   3.909   6.875
 7394SOL     OW23080   2.679   2.707   6.196
 7394SOL    HW123081   2.650   2.611   6.203
 7394SOL    HW223082   2.732   2.720   6.113
 7395SOL     OW23083   2.074   0.117   6.801
 7395SOL    HW123084   2.074   0.068   6.713
 7395SOL    HW223085   2.105   0.211   6.787
 7396SOL     OW23086   6.798   0.050   1.837
 7396SOL    HW123087   6.769   0.017   1.747
 7396SOL    HW223088   6.748   0.133   1.860
 7397SOL     OW23089   6.466   4.315   4.289
 7397SOL    HW123090   6.459   4.266   4.376
 7397SOL    HW223091   6.406   4.274   4.222
 7398SOL     OW23092   4.863   7.007   2.532
 7398SOL    HW123093   4.940   6.977   2.589
 7398SOL    HW223094   4.855   0.084   2.536
 7399SOL     OW23095   5.312   4.737   4.716
 7399SOL    HW123096   5.329   4.683   4.798
 7399SOL    HW223097   5.214   4.743   4.699
 7400SOL     OW23098   2.663   3.610   0.336
 7400SOL    HW123099   2.616   3.551   0.401
 7400SOL    HW223100   2.753   3.571   0.314
 7401SOL     OW23101   5.955   1.922   4.847
 7401SOL    HW123102   5.931   2.019   4.853
 7401SOL    HW223103   5.980   1.888   4.938
 7402SOL     OW23104   2.850   6.195   4.502
 7402SOL    HW123105   2.776   6.128   4.499
 7402SOL    HW223106   2.915   6.171   4.574
 7403SOL     OW23107   2.815   2.595   1.029
 7403SOL    HW123108   2.725   2.634   1.009
 7403SOL    HW223109   2.804   2.510   1.081
 7404SOL     OW23110   1.301   2.150   2.581
 7404SOL    HW123111   1.382   2.175   2.529
 7404SOL    HW223112   1.280   2.053   2.567
 7405SOL     OW23113   4.111   5.008   6.199
 7405SOL    HW123114   4.017   5.036   6.221
 7405SOL    HW223115   4.153   4.966   6.279
 7406SOL     OW23116   0.489   6.607   1.847
 7406SOL    HW123117   0.563   6.596   1.914
 7406SOL    HW223118   0.518   6.568   1.759
 7407SOL     OW23119   2.722   0.427   6.157
 7407SOL    HW123120   2.626   0.450   6.178
 7407SOL    HW223121   2.770   0.406   6.241
 7408SOL     OW23122   0.737   3.847   4.992
 7408SOL    HW123123   0.798   3.915   5.032
 7408SOL    HW223124   0.740   3.854   4.892
 7409SOL     OW23125   2.623   6.649   5.235
 7409SOL    HW123126   2.639   6.590   5.314
 7409SOL    HW223127   2.544   6.617   5.184
 7410SOL     OW23128   4.937   5.101   6.703
 7410SOL    HW123129   5.001   5.046   6.649
 7410SOL    HW223130   4.845   5.092   6.666
 7411SOL     OW23131   5.109   4.753   5.970
 7411SOL    HW123132   5.046   4.798   6.034
 7411SOL    HW223133   5.117   4.657   5.995
 7412SOL     OW23134   1.541   0.881   6.581
 7412SOL    HW123135   1.553   0.782   6.587
 7412SOL    HW223136   1.444   0.903   6.574
 7413SOL     OW23137   6.913   3.678   4.090
 7413SOL    HW123138   6.895   3.764   4.041
 7413SOL    HW223139   6.847   3.609   4.060
 7414SOL     OW23140   0.552   5.193   2.533
 7414SOL    HW123141   0.579   5.099   2.511
 7414SOL    HW223142   0.482   5.223   2.468
 7415SOL     OW23143   2.948   1.918   3.770
 7415SOL    HW123144   3.010   1.911   3.692
 7415SOL    HW223145   2.882   1.991   3.754
 7416SOL     OW23146   6.171   0.119   3.328
 7416SOL    HW123147   6.139   0.118   3.233
 7416SOL    HW223148   6.187   0.213   3.357
 7417SOL     OW23149   1.049   5.724   0.648
 7417SOL    HW123150   1.051   5.701   0.551
 7417SOL    HW223151   1.097   5.810   0.663
 7418SOL     OW23152   0.782   3.747   0.493
 7418SOL    HW123153   0.785   3.647   0.493
 7418SOL    HW223154   0.856   3.782   0.549
 7419SOL     OW23155   5.643   1.909   5.614
 7419SOL    HW123156   5.591   1.992   5.634
 7419SOL    HW223157   5.628   1.882   5.518
 7420SOL     OW23158   6.700   5.881   2.487
 7420SOL    HW123159   6.750   5.968   2.493
 7420SOL    HW223160   6.601   5.899   2.489
 7421SOL     OW23161   4.124   2.062   1.292
 7421SOL    HW123162   4.151   2.159   1.299
 7421SOL    HW223163   4.206   2.007   1.275
 7422SOL     OW23164   0.753   1.958   0.784
 7422SOL    HW123165   0.783   2.053   0.774
 7422SOL    HW223166   0.695   1.933   0.707
 7423SOL     OW23167   2.430   4.406   6.734
 7423SOL    HW123168   2.436   4.498   6.772
 7423SOL    HW223169   2.340   4.368   6.753
 7424SOL     OW23170   5.393   0.474   4.863
 7424SOL    HW123171   5.417   0.417   4.784
 7424SOL    HW223172   5.446   0.445   4.942
 7425SOL     OW23173   3.859   0.462   4.984
 7425SOL    HW123174   3.776   0.469   5.039
 7425SOL    HW223175   3.866   0.541   4.923
 7426SOL     OW23176   0.480   1.577   0.075
 7426SOL    HW123177   0.437   1.562   0.164
 7426SOL    HW223178   0.577   1.552   0.080
 7427SOL     OW23179   5.005   5.852   4.983
 7427SOL    HW123180   4.972   5.799   4.904
 7427SOL    HW223181   5.059   5.929   4.950
 7428SOL     OW23182   3.211   1.299   5.598
 7428SOL    HW123183   3.305   1.335   5.599
 7428SOL    HW223184   3.161   1.338   5.520
 7429SOL     OW23185   6.462   6.514   3.897
 7429SOL    HW123186   6.559   6.534   3.887
 7429SOL    HW223187   6.420   6.580   3.959
 7430SOL     OW23188   0.453   4.411   4.519
 7430SOL    HW123189   0.480   4.450   4.430
 7430SOL    HW223190   0.430   4.315   4.508
 7431SOL     OW23191   0.582   4.152   2.314
 7431SOL    HW123192   0.655   4.183   2.375
 7431SOL    HW223193   0.529   4.231   2.283
 7432SOL     OW23194   1.520   6.526   4.837
 7432SOL    HW123195   1.556   6.500   4.927
 7432SOL    HW223196   1.442   6.469   4.814
 7433SOL     OW23197   0.058   6.466   1.203
 7433SOL    HW123198   0.151   6.495   1.227
 7433SOL    HW223199   0.039   6.377   1.245
 7434SOL     OW23200   4.059   6.871   6.807
 7434SOL    HW123201   3.972   6.895   6.850
 7434SOL    HW223202   4.056   6.895   6.710
 7435SOL     OW23203   1.576   6.081   0.012
 7435SOL    HW123204   1.659   6.137   0.003
 7435SOL    HW223205   1.536   6.066   6.945
 7436SOL     OW23206   4.324   3.482   0.066
 7436SOL    HW123207   4.261   3.405   0.079
 7436SOL    HW223208   4.411   3.463   0.111
 7437SOL     OW23209   0.241   5.847   5.768
 7437SOL    HW123210   0.152   5.891   5.763
 7437SOL    HW223211   0.245   5.787   5.848
 7438SOL     OW23212   5.673   3.732   1.346
 7438SOL    HW123213   5.614   3.708   1.269
 7438SOL    HW223214   5.681   3.832   1.353
 7439SOL     OW23215   1.057   6.250   3.760
 7439SOL    HW123216   1.133   6.223   3.701
 7439SOL    HW223217   0.993   6.307   3.708
 7440SOL     OW23218   0.695   1.899   3.379
 7440SOL    HW123219   0.733   1.991   3.389
 7440SOL    HW223220   0.745   1.850   3.308
 7441SOL     OW23221   6.329   6.789   3.575
 7441SOL    HW123222   6.298   6.802   3.669
 7441SOL    HW223223   6.329   6.877   3.528
 7442SOL     OW23224   1.493   0.632   6.037
 7442SOL    HW123225   1.571   0.678   6.080
 7442SOL    HW223226   1.521   0.593   5.949
 7443SOL     OW23227   6.661   1.829   1.740
 7443SOL    HW123228   6.722   1.773   1.795
 7443SOL    HW223229   6.588   1.866   1.798
 7444SOL     OW23230   0.627   1.991   5.493
 7444SOL    HW123231   0.620   1.923   5.566
 7444SOL    HW223232   0.541   2.042   5.487
 7445SOL     OW23233   5.945   2.669   2.022
 7445SOL    HW123234   5.972   2.662   1.926
 7445SOL    HW223235   6.023   2.642   2.080
 7446SOL     OW23236   6.457   3.229   2.411
 7446SOL    HW123237   6.526   3.157   2.408
 7446SOL    HW223238   6.494   3.309   2.457
 7447SOL     OW23239   0.031   4.020   6.452
 7447SOL    HW123240   7.014   4.084   6.386
 7447SOL    HW223241   7.003   3.934   6.450
 7448SOL     OW23242   0.236   6.629   5.991
 7448SOL    HW123243   0.310   6.620   5.925
 7448SOL    HW223244   0.268   6.601   6.081
 7449SOL     OW23245   4.484   0.628   1.120
 7449SOL    HW123246   4.399   0.606   1.168
 7449SOL    HW223247   4.466   0.632   1.022
 7450SOL     OW23248   3.717   0.408   1.976
 7450SOL    HW123249   3.800   0.364   1.943
 7450SOL    HW223250   3.652   0.338   2.005
 7451SOL     OW23251   1.407   0.719   2.228
 7451SOL    HW123252   1.474   0.706   2.155
 7451SOL    HW223253   1.343   0.642   2.229
 7452SOL     OW23254   2.020   6.431   3.424
 7452SOL    HW123255   2.060   6.509   3.376
 7452SOL    HW223256   1.920   6.436   3.418
 7453SOL     OW23257   6.064   5.447   5.439
 7453SOL    HW123258   6.124   5.466   5.517
 7453SOL    HW223259   6.065   5.349   5.419
 7454SOL     OW23260   0.814   3.071   6.746
 7454SOL    HW123261   0.723   3.072   6.705
 7454SOL    HW223262   0.828   2.984   6.794
 7455SOL     OW23263   5.022   1.037   0.711
 7455SOL    HW123264   4.934   1.079   0.688
 7455SOL    HW223265   5.095   1.105   0.701
 7456SOL     OW23266   1.184   3.319   5.339
 7456SOL    HW123267   1.254   3.290   5.274
 7456SOL    HW223268   1.093   3.311   5.297
 7457SOL     OW23269   6.413   6.420   6.158
 7457SOL    HW123270   6.454   6.353   6.096
 7457SOL    HW223271   6.357   6.484   6.106
 7458SOL     OW23272   2.449   0.295   1.175
 7458SOL    HW123273   2.513   0.362   1.139
 7458SOL    HW223274   2.496   0.235   1.240
 7459SOL     OW23275   4.772   0.238   4.820
 7459SOL    HW123276   4.721   0.323   4.810
 7459SOL    HW223277   4.747   0.175   4.746
 7460SOL     OW23278   1.001   5.811   6.692
 7460SOL    HW123279   1.006   5.778   6.598
 7460SOL    HW223280   1.093   5.836   6.724
 7461SOL     OW23281   4.306   1.095   4.417
 7461SOL    HW123282   4.305   1.047   4.329
 7461SOL    HW223283   4.212   1.103   4.451
 7462SOL     OW23284   1.871   0.932   2.742
 7462SOL    HW123285   1.826   0.871   2.677
 7462SOL    HW223286   1.866   1.027   2.709
 7463SOL     OW23287   3.516   3.801   1.856
 7463SOL    HW123288   3.611   3.812   1.824
 7463SOL    HW223289   3.497   3.704   1.869
 7464SOL     OW23290   4.878   0.040   0.246
 7464SOL    HW123291   4.871   6.963   0.239
 7464SOL    HW223292   4.799   0.075   0.296
 7465SOL     OW23293   3.247   1.071   2.520
 7465SOL    HW123294   3.332   1.038   2.480
 7465SOL    HW223295   3.169   1.024   2.478
 7466SOL     OW23296   6.141   0.801   6.778
 7466SOL    HW123297   6.113   0.719   6.828
 7466SOL    HW223298   6.130   0.784   6.679
 7467SOL     OW23299   5.002   1.583   0.988
 7467SOL    HW123300   4.946   1.501   0.996
 7467SOL    HW223301   5.003   1.614   0.893
 7468SOL     OW23302   5.944   3.704   4.449
 7468SOL    HW123303   6.021   3.643   4.465
 7468SOL    HW223304   5.956   3.789   4.500
 7469SOL     OW23305   5.853   1.284   2.418
 7469SOL    HW123306   5.859   1.238   2.507
 7469SOL    HW223307   5.786   1.358   2.423
 7470SOL     OW23308   0.561   3.534   2.631
 7470SOL    HW123309   0.529   3.626   2.607
 7470SOL    HW223310   0.653   3.540   2.670
 7471SOL     OW23311   5.976   4.649   5.673
 7471SOL    HW123312   6.049   4.684   5.614
 7471SOL    HW223313   5.992   4.551   5.690
 7472SOL     OW23314   3.979   5.041   2.959
 7472SOL    HW123315   3.911   5.023   3.030
 7472SOL    HW223316   3.933   5.055   2.871
 7473SOL     OW23317   0.921   3.256   5.269
 7473SOL    HW123318   0.922   3.193   5.191
 7473SOL    HW223319   0.858   3.222   5.338
 7474SOL     OW23320   3.277   2.103   3.172
 7474SOL    HW123321   3.327   2.082   3.256
 7474SOL    HW223322   3.341   2.107   3.095
 7475SOL     OW23323   4.239   1.499   6.845
 7475SOL    HW123324   4.252   1.414   6.897
 7475SOL    HW223325   4.180   1.482   6.767
 7476SOL     OW23326   3.024   0.301   5.150
 7476SOL    HW123327   2.979   0.345   5.228
 7476SOL    HW223328   3.116   0.339   5.140
 7477SOL     OW23329   4.849   3.937   4.006
 7477SOL    HW123330   4.799   4.001   4.064
 7477SOL    HW223331   4.863   3.979   3.916
 7478SOL     OW23332   1.309   4.493   1.289
 7478SOL    HW123333   1.305   4.523   1.193
 7478SOL    HW223334   1.333   4.395   1.292
 7479SOL     OW23335   4.003   0.818   5.767
 7479SOL    HW123336   3.938   0.858   5.831
 7479SOL    HW223337   4.029   0.727   5.799
 7480SOL     OW23338   6.349   5.417   0.881
 7480SOL    HW123339   6.268   5.428   0.940
 7480SOL    HW223340   6.361   5.500   0.826
 7481SOL     OW23341   6.451   6.221   0.605
 7481SOL    HW123342   6.467   6.203   0.508
 7481SOL    HW223343   6.474   6.316   0.625
 7482SOL     OW23344   5.270   0.077   3.983
 7482SOL    HW123345   5.361   0.040   3.963
 7482SOL    HW223346   5.204   0.003   3.988
 7483SOL     OW23347   3.242   0.170   6.196
 7483SOL    HW123348   3.222   0.075   6.221
 7483SOL    HW223349   3.179   0.231   6.245
 7484SOL     OW23350   3.463   0.430   2.334
 7484SOL    HW123351   3.474   0.522   2.371
 7484SOL    HW223352   3.433   0.368   2.407
 7485SOL     OW23353   1.039   6.894   5.115
 7485SOL    HW123354   0.947   6.924   5.140
 7485SOL    HW223355   1.034   6.833   5.036
 7486SOL     OW23356   1.321   1.204   4.917
 7486SOL    HW123357   1.247   1.145   4.884
 7486SOL    HW223358   1.404   1.149   4.928
 7487SOL     OW23359   4.040   5.679   2.919
 7487SOL    HW123360   3.985   5.705   2.840
 7487SOL    HW223361   3.991   5.612   2.974
 7488SOL     OW23362   3.312   1.040   5.520
 7488SOL    HW123363   3.229   0.986   5.529
 7488SOL    HW223364   3.301   1.126   5.570
 7489SOL     OW23365   6.503   4.030   3.194
 7489SOL    HW123366   6.415   4.073   3.175
 7489SOL    HW223367   6.556   4.088   3.256
 7490SOL     OW23368   5.828   1.314   3.179
 7490SOL    HW123369   5.794   1.390   3.124
 7490SOL    HW223370   5.809   1.227   3.133
 7491SOL     OW23371   0.222   6.418   6.976
 7491SOL    HW123372   0.153   6.481   6.940
 7491SOL    HW223373   0.285   6.468   0.013
 7492SOL     OW23374   2.080   2.450   3.706
 7492SOL    HW123375   2.176   2.423   3.701
 7492SOL    HW223376   2.072   2.532   3.763
 7493SOL     OW23377   5.049   4.715   6.739
 7493SOL    HW123378   4.996   4.630   6.748
 7493SOL    HW223379   5.069   4.750   6.830
 7494SOL     OW23380   5.396   1.643   1.315
 7494SOL    HW123381   5.441   1.598   1.237
 7494SOL    HW223382   5.348   1.725   1.283
 7495SOL     OW23383   0.657   1.625   2.383
 7495SOL    HW123384   0.685   1.530   2.394
 7495SOL    HW223385   0.738   1.683   2.377
 7496SOL     OW23386   0.399   5.011   6.090
 7496SOL    HW123387   0.446   5.065   6.161
 7496SOL    HW223388   0.374   5.072   6.014
 7497SOL     OW23389   1.669   4.968   2.405
 7497SOL    HW123390   1.766   4.987   2.419
 7497SOL    HW223391   1.638   4.902   2.473
 7498SOL     OW23392   5.058   1.725   4.554
 7498SOL    HW123393   4.997   1.732   4.475
 7498SOL    HW223394   5.134   1.664   4.532
 7499SOL     OW23395   4.072   4.760   3.702
 7499SOL    HW123396   4.109   4.752   3.609
 7499SOL    HW223397   3.980   4.798   3.697
 7500SOL     OW23398   4.811   3.953   1.884
 7500SOL    HW123399   4.817   3.895   1.966
 7500SOL    HW223400   4.776   3.899   1.808
 7501SOL     OW23401   0.309   4.712   3.683
 7501SOL    HW123402   0.380   4.647   3.711
 7501SOL    HW223403   0.351   4.790   3.637
 7502SOL     OW23404   1.845   2.141   4.643
 7502SOL    HW123405   1.920   2.170   4.702
 7502SOL    HW223406   1.773   2.211   4.645
 7503SOL     OW23407   2.119   2.654   6.690
 7503SOL    HW123408   2.053   2.602   6.636
 7503SOL    HW223409   2.146   2.601   6.770
 7504SOL     OW23410   3.930   5.469   3.545
 7504SOL    HW123411   3.906   5.452   3.450
 7504SOL    HW223412   3.912   5.388   3.600
 7505SOL     OW23413   1.759   1.827   4.279
 7505SOL    HW123414   1.795   1.848   4.188
 7505SOL    HW223415   1.711   1.740   4.276
 7506SOL     OW23416   3.538   1.393   3.917
 7506SOL    HW123417   3.571   1.451   3.842
 7506SOL    HW223418   3.441   1.374   3.905
 7507SOL     OW23419   1.708   6.021   5.677
 7507SOL    HW123420   1.641   6.088   5.645
 7507SOL    HW223421   1.758   6.058   5.755
 7508SOL     OW23422   4.908   5.432   4.446
 7508SOL    HW123423   4.864   5.461   4.530
 7508SOL    HW223424   4.992   5.382   4.467
 7509SOL     OW23425   4.144   3.636   6.301
 7509SOL    HW123426   4.113   3.731   6.303
 7509SOL    HW223427   4.173   3.612   6.209
 7510SOL     OW23428   2.870   3.704   4.650
 7510SOL    HW123429   2.778   3.712   4.686
 7510SOL    HW223430   2.934   3.688   4.725
 7511SOL     OW23431   1.165   0.490   2.500
 7511SOL    HW123432   1.103   0.483   2.422
 7511SOL    HW223433   1.215   0.405   2.510
 7512SOL     OW23434   2.387   3.034   1.664
 7512SOL    HW123435   2.326   3.053   1.587
 7512SOL    HW223436   2.479   3.068   1.643
 7513SOL     OW23437   1.113   3.342   6.584
 7513SOL    HW123438   1.201   3.299   6.563
 7513SOL    HW223439   1.113   3.375   6.678
 7514SOL     OW23440   2.849   5.762   3.070
 7514SOL    HW123441   2.834   5.849   3.024
 7514SOL    HW223442   2.868   5.779   3.167
 7515SOL     OW23443   0.127   5.082   2.717
 7515SOL    HW123444   0.123   4.983   2.729
 7515SOL    HW223445   0.078   5.108   2.634
 7516SOL     OW23446   1.222   1.558   2.184
 7516SOL    HW123447   1.225   1.508   2.271
 7516SOL    HW223448   1.127   1.565   2.154
 7517SOL     OW23449   0.059   5.155   1.219
 7517SOL    HW123450   0.152   5.188   1.207
 7517SOL    HW223451   7.017   5.219   1.176
 7518SOL     OW23452   5.144   5.118   3.736
 7518SOL    HW123453   5.192   5.094   3.821
 7518SOL    HW223454   5.129   5.035   3.682
 7519SOL     OW23455   1.115   6.825   4.009
 7519SOL    HW123456   1.056   6.901   3.982
 7519SOL    HW223457   1.071   6.739   3.984
 7520SOL     OW23458   2.446   0.028   3.951
 7520SOL    HW123459   2.462   0.075   4.037
 7520SOL    HW223460   2.509   6.972   3.943
 7521SOL     OW23461   4.881   3.202   5.523
 7521SOL    HW123462   4.835   3.128   5.474
 7521SOL    HW223463   4.831   3.221   5.608
 7522SOL     OW23464   2.064   0.718   2.724
 7522SOL    HW123465   2.028   0.670   2.644
 7522SOL    HW223466   2.030   0.812   2.724
 7523SOL     OW23467   6.265   0.109   0.115
 7523SOL    HW123468   6.279   0.063   0.203
 7523SOL    HW223469   6.173   0.149   0.113
 7524SOL     OW23470   5.972   0.596   4.543
 7524SOL    HW123471   5.945   0.503   4.518
 7524SOL    HW223472   6.071   0.606   4.531
 7525SOL     OW23473   1.077   6.260   0.330
 7525SOL    HW123474   1.057   6.197   0.255
 7525SOL    HW223475   1.000   6.262   0.394
 7526SOL     OW23476   3.643   2.990   5.144
 7526SOL    HW123477   3.675   2.924   5.077
 7526SOL    HW223478   3.632   3.080   5.101
 7527SOL     OW23479   4.702   5.747   1.882
 7527SOL    HW123480   4.627   5.703   1.931
 7527SOL    HW223481   4.787   5.697   1.899
 7528SOL     OW23482   5.658   3.249   6.231
 7528SOL    HW123483   5.730   3.296   6.283
 7528SOL    HW223484   5.579   3.310   6.222
 7529SOL     OW23485   3.094   0.185   4.659
 7529SOL    HW123486   3.105   0.149   4.752
 7529SOL    HW223487   3.086   0.285   4.663
 7530SOL     OW23488   6.899   2.868   3.541
 7530SOL    HW123489   6.855   2.780   3.562
 7530SOL    HW223490   6.862   2.939   3.602
 7531SOL     OW23491   2.582   1.936   4.214
 7531SOL    HW123492   2.587   1.869   4.139
 7531SOL    HW223493   2.646   2.010   4.197
 7532SOL     OW23494   4.920   4.653   2.208
 7532SOL    HW123495   5.016   4.666   2.182
 7532SOL    HW223496   4.914   4.585   2.281
 7533SOL     OW23497   3.367   0.471   4.793
 7533SOL    HW123498   3.343   0.527   4.713
 7533SOL    HW223499   3.309   0.497   4.870
 7534SOL     OW23500   5.567   6.629   4.249
 7534SOL    HW123501   5.579   6.723   4.216
 7534SOL    HW223502   5.474   6.616   4.281
 7535SOL     OW23503   3.817   4.482   0.324
 7535SOL    HW123504   3.892   4.514   0.267
 7535SOL    HW223505   3.845   4.400   0.373
 7536SOL     OW23506   3.937   6.172   4.465
 7536SOL    HW123507   3.845   6.194   4.434
 7536SOL    HW223508   3.937   6.083   4.510
 7537SOL     OW23509   2.547   4.683   5.636
 7537SOL    HW123510   2.598   4.599   5.657
 7537SOL    HW223511   2.475   4.663   5.571
 7538SOL     OW23512   3.234   3.009   3.265
 7538SOL    HW123513   3.174   2.973   3.337
 7538SOL    HW223514   3.180   3.065   3.201
 7539SOL     OW23515   1.606   2.622   4.727
 7539SOL    HW123516   1.546   2.685   4.678
 7539SOL    HW223517   1.586   2.627   4.825
 7540SOL     OW23518   2.063   0.869   0.186
 7540SOL    HW123519   2.155   0.906   0.203
 7540SOL    HW223520   2.025   0.910   0.103
 7541SOL     OW23521   6.679   2.091   5.291
 7541SOL    HW123522   6.758   2.152   5.289
 7541SOL    HW223523   6.603   2.133   5.241
 7542SOL     OW23524   1.904   0.490   5.887
 7542SOL    HW123525   1.923   0.435   5.806
 7542SOL    HW223526   1.821   0.456   5.931
 7543SOL     OW23527   3.469   3.113   6.757
 7543SOL    HW123528   3.401   3.047   6.727
 7543SOL    HW223529   3.424   3.200   6.779
 7544SOL     OW23530   1.198   2.454   2.286
 7544SOL    HW123531   1.174   2.376   2.345
 7544SOL    HW223532   1.117   2.510   2.271
 7545SOL     OW23533   4.969   0.474   3.184
 7545SOL    HW123534   4.959   0.450   3.087
 7545SOL    HW223535   5.017   0.561   3.192
 7546SOL     OW23536   4.925   6.546   6.040
 7546SOL    HW123537   5.001   6.482   6.040
 7546SOL    HW223538   4.904   6.573   6.134
 7547SOL     OW23539   3.051   6.930   0.229
 7547SOL    HW123540   3.072   6.956   0.323
 7547SOL    HW223541   3.008   6.840   0.229
 7548SOL     OW23542   1.273   3.205   1.348
 7548SOL    HW123543   1.179   3.240   1.353
 7548SOL    HW223544   1.315   3.234   1.263
 7549SOL     OW23545   5.965   2.070   2.073
 7549SOL    HW123546   5.967   1.985   2.124
 7549SOL    HW223547   5.887   2.069   2.009
 7550SOL     OW23548   0.996   5.081   1.518
 7550SOL    HW123549   0.897   5.093   1.521
 7550SOL    HW223550   1.019   5.006   1.456
 7551SOL     OW23551   4.773   3.772   6.316
 7551SOL    HW123552   4.862   3.762   6.270
 7551SOL    HW223553   4.783   3.753   6.413
 7552SOL     OW23554   3.432   5.358   4.027
 7552SOL    HW123555   3.377   5.419   3.969
 7552SOL    HW223556   3.377   5.326   4.103
 7553SOL     OW23557   4.557   4.007   5.711
 7553SOL    HW123558   4.595   4.079   5.652
 7553SOL    HW223559   4.553   4.041   5.805
 7554SOL     OW23560   6.754   1.251   1.373
 7554SOL    HW123561   6.753   1.231   1.275
 7554SOL    HW223562   6.832   1.309   1.394
 7555SOL     OW23563   1.643   5.687   5.936
 7555SOL    HW123564   1.690   5.670   5.849
 7555SOL    HW223565   1.608   5.781   5.937
 7556SOL     OW23566   7.006   3.434   3.836
 7556SOL    HW123567   0.038   3.386   3.767
 7556SOL    HW223568   6.982   3.372   3.910
 7557SOL     OW23569   3.880   3.387   0.728
 7557SOL    HW123570   3.847   3.476   0.760
 7557SOL    HW223571   3.924   3.339   0.804
 7558SOL     OW23572   1.635   2.368   3.044
 7558SOL    HW123573   1.593   2.363   2.954
 7558SOL    HW223574   1.565   2.392   3.112
 7559SOL     OW23575   1.296   4.406   0.349
 7559SOL    HW123576   1.312   4.317   0.393
 7559SOL    HW223577   1.311   4.397   0.251
 7560SOL     OW23578   4.561   0.330   5.312
 7560SOL    HW123579   4.652   0.308   5.277
 7560SOL    HW223580   4.492   0.287   5.255
 7561SOL     OW23581   0.217   3.392   0.022
 7561SOL    HW123582   0.234   3.327   0.096
 7561SOL    HW223583   0.264   3.362   6.962
 7562SOL     OW23584   4.654   6.351   5.348
 7562SOL    HW123585   4.626   6.373   5.442
 7562SOL    HW223586   4.729   6.285   5.350
 7563SOL     OW23587   2.939   1.155   2.983
 7563SOL    HW123588   2.941   1.060   3.015
 7563SOL    HW223589   2.870   1.165   2.911
 7564SOL     OW23590   4.934   6.544   3.967
 7564SOL    HW123591   4.969   6.458   4.003
 7564SOL    HW223592   4.909   6.605   4.042
 7565SOL     OW23593   4.608   4.459   6.938
 7565SOL    HW123594   4.585   4.374   6.892
 7565SOL    HW223595   4.526   4.496   6.982
 7566SOL     OW23596   2.271   5.795   5.083
 7566SOL    HW123597   2.316   5.706   5.088
 7566SOL    HW223598   2.225   5.813   5.170
 7567SOL     OW23599   2.384   2.861   0.621
 7567SOL    HW123600   2.298   2.881   0.575
 7567SOL    HW223601   2.458   2.863   0.554
 7568SOL     OW23602   4.482   4.643   2.866
 7568SOL    HW123603   4.518   4.725   2.911
 7568SOL    HW223604   4.550   4.606   2.803
 7569SOL     OW23605   4.000   0.456   0.822
 7569SOL    HW123606   3.929   0.521   0.794
 7569SOL    HW223607   4.046   0.421   0.740
 7570SOL     OW23608   5.878   5.248   4.746
 7570SOL    HW123609   5.946   5.195   4.695
 7570SOL    HW223610   5.786   5.221   4.718
 7571SOL     OW23611   5.342   3.939   1.468
 7571SOL    HW123612   5.354   3.842   1.486
 7571SOL    HW223613   5.279   3.978   1.535
 7572SOL     OW23614   0.664   1.102   3.754
 7572SOL    HW123615   0.605   1.169   3.800
 7572SOL    HW223616   0.666   1.017   3.807
 7573SOL     OW23617   3.185   5.713   5.180
 7573SOL    HW123618   3.103   5.681   5.133
 7573SOL    HW223619   3.266   5.676   5.133
 7574SOL     OW23620   5.053   6.174   2.296
 7574SOL    HW123621   5.093   6.225   2.220
 7574SOL    HW223622   5.049   6.232   2.377
 7575SOL     OW23623   4.822   2.783   4.623
 7575SOL    HW123624   4.795   2.789   4.720
 7575SOL    HW223625   4.902   2.723   4.614
 7576SOL     OW23626   6.807   3.366   1.788
 7576SOL    HW123627   6.715   3.400   1.806
 7576SOL    HW223628   6.829   3.381   1.691
 7577SOL     OW23629   4.576   0.740   5.331
 7577SOL    HW123630   4.575   0.672   5.258
 7577SOL    HW223631   4.669   0.774   5.344
 7578SOL     OW23632   2.963   5.248   4.341
 7578SOL    HW123633   2.982   5.234   4.438
 7578SOL    HW223634   2.927   5.164   4.302
 7579SOL     OW23635   4.568   2.596   3.898
 7579SOL    HW123636   4.625   2.660   3.948
 7579SOL    HW223637   4.571   2.618   3.800
 7580SOL     OW23638   2.117   3.646   2.574
 7580SOL    HW123639   2.112   3.676   2.670
 7580SOL    HW223640   2.106   3.547   2.570
 7581SOL     OW23641   5.328   0.650   1.284
 7581SOL    HW123642   5.240   0.659   1.330
 7581SOL    HW223643   5.383   0.580   1.331
 7582SOL     OW23644   3.255   1.902   0.982
 7582SOL    HW123645   3.178   1.926   0.922
 7582SOL    HW223646   3.341   1.918   0.933
 7583SOL     OW23647   6.704   3.877   2.729
 7583SOL    HW123648   6.666   3.931   2.804
 7583SOL    HW223649   6.777   3.929   2.684
 7584SOL     OW23650   1.826   1.837   1.268
 7584SOL    HW123651   1.762   1.842   1.192
 7584SOL    HW223652   1.909   1.790   1.239
 7585SOL     OW23653   2.010   5.313   6.594
 7585SOL    HW123654   2.110   5.317   6.590
 7585SOL    HW223655   1.983   5.239   6.656
 7586SOL     OW23656   2.208   1.128   1.635
 7586SOL    HW123657   2.128   1.160   1.685
 7586SOL    HW223658   2.287   1.184   1.659
 7587SOL     OW23659   1.654   0.773   5.764
 7587SOL    HW123660   1.565   0.791   5.805
 7587SOL    HW223661   1.673   0.842   5.694
 7588SOL     OW23662   1.167   4.087   1.462
 7588SOL    HW123663   1.243   4.132   1.508
 7588SOL    HW223664   1.089   4.082   1.525
 7589SOL     OW23665   5.535   6.417   6.600
 7589SOL    HW123666   5.494   6.348   6.541
 7589SOL    HW223667   5.612   6.461   6.553
 7590SOL     OW23668   1.731   0.271   6.755
 7590SOL    HW123669   1.715   0.263   6.657
 7590SOL    HW223670   1.656   0.230   6.805
 7591SOL     OW23671   6.659   5.103   0.010
 7591SOL    HW123672   6.697   5.059   0.091
 7591SOL    HW223673   6.733   5.146   6.980
 7592SOL     OW23674   4.997   5.498   6.210
 7592SOL    HW123675   4.900   5.504   6.231
 7592SOL    HW223676   5.039   5.423   6.262
 7593SOL     OW23677   5.936   3.578   0.606
 7593SOL    HW123678   5.986   3.550   0.687
 7593SOL    HW223679   5.878   3.503   0.575
 7594SOL     OW23680   0.937   6.084   3.388
 7594SOL    HW123681   1.036   6.087   3.384
 7594SOL    HW223682   0.901   6.177   3.398
 7595SOL     OW23683   6.563   2.039   6.752
 7595SOL    HW123684   6.612   2.113   6.708
 7595SOL    HW223685   6.627   1.975   6.794
 7596SOL     OW23686   4.942   4.438   1.726
 7596SOL    HW123687   5.000   4.492   1.788
 7596SOL    HW223688   4.896   4.366   1.778
 7597SOL     OW23689   2.690   5.868   1.770
 7597SOL    HW123690   2.601   5.829   1.742
 7597SOL    HW223691   2.686   5.894   1.866
 7598SOL     OW23692   6.827   0.353   2.649
 7598SOL    HW123693   6.916   0.350   2.693
 7598SOL    HW223694   6.757   0.373   2.717
 7599SOL     OW23695   6.591   2.623   2.117
 7599SOL    HW123696   6.519   2.580   2.171
 7599SOL    HW223697   6.591   2.584   2.025
 7600SOL     OW23698   2.071   1.860   2.112
 7600SOL    HW123699   1.978   1.894   2.096
 7600SOL    HW223700   2.081   1.770   2.070
 7601SOL     OW23701   1.476   0.294   4.999
 7601SOL    HW123702   1.437   0.335   5.082
 7601SOL    HW223703   1.435   0.337   4.918
 7602SOL     OW23704   2.172   3.168   5.154
 7602SOL    HW123705   2.267   3.136   5.149
 7602SOL    HW223706   2.122   3.113   5.220
 7603SOL     OW23707   0.651   1.024   2.148
 7603SOL    HW123708   0.567   1.034   2.200
 7603SOL    HW223709   0.666   1.105   2.092
 7604SOL     OW23710   5.223   6.006   6.811
 7604SOL    HW123711   5.271   6.064   6.744
 7604SOL    HW223712   5.128   5.995   6.782
 7605SOL     OW23713   5.567   4.026   5.712
 7605SOL    HW123714   5.562   4.114   5.758
 7605SOL    HW223715   5.557   3.952   5.779
 7606SOL     OW23716   6.378   1.742   3.070
 7606SOL    HW123717   6.349   1.783   2.984
 7606SOL    HW223718   6.465   1.694   3.056
 7607SOL     OW23719   5.132   6.886   6.248
 7607SOL    HW123720   5.179   6.800   6.268
 7607SOL    HW223721   5.199   6.954   6.218
 7608SOL     OW23722   3.946   3.034   3.609
 7608SOL    HW123723   3.923   2.973   3.533
 7608SOL    HW223724   3.931   2.987   3.696
 7609SOL     OW23725   1.531   2.921   4.280
 7609SOL    HW123726   1.599   2.848   4.267
 7609SOL    HW223727   1.575   3.010   4.269
 7610SOL     OW23728   5.668   0.894   1.735
 7610SOL    HW123729   5.712   0.875   1.647
 7610SOL    HW223730   5.654   0.992   1.744
 7611SOL     OW23731   2.123   1.586   1.340
 7611SOL    HW123732   2.027   1.574   1.316
 7611SOL    HW223733   2.135   1.569   1.438
 7612SOL     OW23734   4.216   1.585   2.610
 7612SOL    HW123735   4.183   1.491   2.595
 7612SOL    HW223736   4.141   1.649   2.595
 7613SOL     OW23737   5.142   1.305   2.944
 7613SOL    HW123738   5.120   1.372   2.873
 7613SOL    HW223739   5.065   1.243   2.957
 7614SOL     OW23740   3.964   1.084   0.130
 7614SOL    HW123741   3.923   1.140   0.058
 7614SOL    HW223742   3.903   1.008   0.152
 7615SOL     OW23743   3.935   4.720   6.058
 7615SOL    HW123744   3.895   4.629   6.055
 7615SOL    HW223745   4.017   4.718   6.116
 7616SOL     OW23746   6.725   4.803   3.547
 7616SOL    HW123747   6.800   4.755   3.591
 7616SOL    HW223748   6.681   4.865   3.612
 7617SOL     OW23749   3.273   6.190   2.387
 7617SOL    HW123750   3.199   6.124   2.378
 7617SOL    HW223751   3.356   6.153   2.346
 7618SOL     OW23752   1.480   2.299   0.886
 7618SOL    HW123753   1.572   2.284   0.923
 7618SOL    HW223754   1.428   2.355   0.950
 7619SOL     OW23755   5.916   3.494   5.637
 7619SOL    HW123756   5.916   3.535   5.728
 7619SOL    HW223757   5.827   3.508   5.594
 7620SOL     OW23758   2.687   6.344   1.384
 7620SOL    HW123759   2.784   6.320   1.375
 7620SOL    HW223760   2.672   6.393   1.470
 7621SOL     OW23761   2.582   2.174   1.241
 7621SOL    HW123762   2.637   2.111   1.295
 7621SOL    HW223763   2.487   2.172   1.274
 7622SOL     OW23764   5.173   1.800   1.230
 7622SOL    HW123765   5.129   1.711   1.229
 7622SOL    HW223766   5.216   1.817   1.141
 7623SOL     OW23767   5.691   0.114   5.554
 7623SOL    HW123768   5.669   0.021   5.584
 7623SOL    HW223769   5.767   0.112   5.489
 7624SOL     OW23770   6.859   0.639   4.255
 7624SOL    HW123771   6.938   0.585   4.284
 7624SOL    HW223772   6.855   0.641   4.156
 7625SOL     OW23773   4.091   6.409   0.479
 7625SOL    HW123774   4.171   6.469   0.484
 7625SOL    HW223775   4.009   6.460   0.505
 7626SOL     OW23776   2.379   4.442   4.500
 7626SOL    HW123777   2.382   4.447   4.400
 7626SOL    HW223778   2.337   4.356   4.527
 7627SOL     OW23779   6.939   1.819   0.411
 7627SOL    HW123780   6.920   1.912   0.379
 7627SOL    HW223781   6.873   1.794   0.482
 7628SOL     OW23782   3.867   2.070   0.806
 7628SOL    HW123783   3.769   2.049   0.808
 7628SOL    HW223784   3.904   2.063   0.899
 7629SOL     OW23785   6.135   5.330   3.190
 7629SOL    HW123786   6.149   5.397   3.117
 7629SOL    HW223787   6.216   5.328   3.249
 7630SOL     OW23788   6.987   1.216   2.422
 7630SOL    HW123789   6.969   1.249   2.514
 7630SOL    HW223790   0.041   1.268   2.382
 7631SOL     OW23791   1.423   1.658   3.347
 7631SOL    HW123792   1.471   1.577   3.381
 7631SOL    HW223793   1.340   1.673   3.401
 7632SOL     OW23794   4.666   1.374   6.353
 7632SOL    HW123795   4.626   1.380   6.445
 7632SOL    HW223796   4.724   1.454   6.337
 7633SOL     OW23797   5.623   4.656   6.535
 7633SOL    HW123798   5.613   4.755   6.540
 7633SOL    HW223799   5.533   4.612   6.544
 7634SOL     OW23800   1.230   2.047   1.955
 7634SOL    HW123801   1.245   2.044   1.856
 7634SOL    HW223802   1.301   2.104   1.997
 7635SOL     OW23803   3.109   4.820   5.832
 7635SOL    HW123804   3.150   4.801   5.743
 7635SOL    HW223805   3.156   4.898   5.874
 7636SOL     OW23806   1.645   0.865   3.401
 7636SOL    HW123807   1.680   0.772   3.415
 7636SOL    HW223808   1.705   0.914   3.338
 7637SOL     OW23809   2.274   6.263   3.904
 7637SOL    HW123810   2.220   6.319   3.967
 7637SOL    HW223811   2.372   6.280   3.919
 7638SOL     OW23812   4.217   4.372   1.677
 7638SOL    HW123813   4.278   4.312   1.728
 7638SOL    HW223814   4.257   4.464   1.671
 7639SOL     OW23815   6.910   2.487   4.650
 7639SOL    HW123816   7.003   2.512   4.676
 7639SOL    HW223817   6.912   2.425   4.572
 7640SOL     OW23818   2.215   3.157   6.041
 7640SOL    HW123819   2.167   3.228   5.990
 7640SOL    HW223820   2.311   3.183   6.052
 7641SOL     OW23821   6.415   2.832   3.507
 7641SOL    HW123822   6.335   2.781   3.538
 7641SOL    HW223823   6.489   2.823   3.574
 7642SOL     OW23824   2.413   1.521   3.008
 7642SOL    HW123825   2.349   1.594   3.034
 7642SOL    HW223826   2.371   1.464   2.938
 7643SOL     OW23827   5.647   3.512   3.400
 7643SOL    HW123828   5.731   3.496   3.452
 7643SOL    HW223829   5.632   3.436   3.337
 7644SOL     OW23830   6.603   3.993   3.836
 7644SOL    HW123831   6.507   4.013   3.818
 7644SOL    HW223832   6.654   4.079   3.843
 7645SOL     OW23833   4.364   3.162   7.018
 7645SOL    HW123834   4.384   3.153   0.093
 7645SOL    HW223835   4.321   3.251   7.000
 7646SOL     OW23836   1.010   1.265   1.355
 7646SOL    HW123837   0.938   1.263   1.425
 7646SOL    HW223838   1.075   1.338   1.378
 7647SOL     OW23839   2.108   5.244   1.091
 7647SOL    HW123840   2.118   5.327   1.036
 7647SOL    HW223841   2.195   5.222   1.134
 7648SOL     OW23842   3.808   0.128   3.444
 7648SOL    HW123843   3.711   0.110   3.461
 7648SOL    HW223844   3.817   0.200   3.375
 7649SOL     OW23845   2.944   1.516   2.169
 7649SOL    HW123846   2.973   1.561   2.253
 7649SOL    HW223847   2.906   1.583   2.106
 7650SOL     OW23848   5.992   4.332   1.346
 7650SOL    HW123849   5.979   4.430   1.362
 7650SOL    HW223850   6.077   4.317   1.296
 7651SOL     OW23851   3.874   2.037   6.379
 7651SOL    HW123852   3.867   1.939   6.363
 7651SOL    HW223853   3.784   2.074   6.400
 7652SOL     OW23854   1.529   3.023   3.223
 7652SOL    HW123855   1.466   3.016   3.145
 7652SOL    HW223856   1.611   3.072   3.196
 7653SOL     OW23857   3.944   2.095   1.524
 7653SOL    HW123858   3.992   2.068   1.440
 7653SOL    HW223859   3.845   2.091   1.508
 7654SOL     OW23860   4.876   3.565   4.112
 7654SOL    HW123861   4.881   3.635   4.184
 7654SOL    HW223862   4.885   3.609   4.023
 7655SOL     OW23863   4.560   6.072   5.333
 7655SOL    HW123864   4.490   6.073   5.261
 7655SOL    HW223865   4.555   5.985   5.383
 7656SOL     OW23866   1.155   6.319   4.331
 7656SOL    HW123867   1.104   6.236   4.349
 7656SOL    HW223868   1.239   6.319   4.386
 7657SOL     OW23869   4.604   1.608   4.600
 7657SOL    HW123870   4.526   1.668   4.618
 7657SOL    HW223871   4.657   1.596   4.684
 7658SOL     OW23872   3.894   0.506   6.460
 7658SOL    HW123873   3.884   0.544   6.368
 7658SOL    HW223874   3.807   0.510   6.508
 7659SOL     OW23875   5.490   7.000   0.114
 7659SOL    HW123876   5.528   6.936   0.181
 7659SOL    HW223877   5.560   0.001   0.046
 7660SOL     OW23878   6.152   4.547   4.048
 7660SOL    HW123879   6.061   4.537   4.088
 7660SOL    HW223880   6.214   4.588   4.116
 7661SOL     OW23881   5.198   3.113   3.896
 7661SOL    HW123882   5.293   3.094   3.921
 7661SOL    HW223883   5.195   3.153   3.804
 7662SOL     OW23884   6.876   5.647   2.477
 7662SOL    HW123885   6.811   5.723   2.483
 7662SOL    HW223886   6.877   5.612   2.383
 7663SOL     OW23887   6.553   5.602   6.845
 7663SOL    HW123888   6.552   5.527   6.912
 7663SOL    HW223889   6.552   5.689   6.894
 7664SOL     OW23890   2.717   5.692   4.973
 7664SOL    HW123891   2.757   5.601   4.981
 7664SOL    HW223892   2.633   5.688   4.919
 7665SOL     OW23893   2.408   5.868   4.258
 7665SOL    HW123894   2.318   5.911   4.250
 7665SOL    HW223895   2.413   5.816   4.343
 7666SOL     OW23896   1.951   1.354   0.995
 7666SOL    HW123897   2.015   1.312   1.059
 7666SOL    HW223898   1.993   1.358   0.904
 7667SOL     OW23899   4.910   5.959   6.683
 7667SOL    HW123900   4.924   5.872   6.731
 7667SOL    HW223901   4.824   6.000   6.714
 7668SOL     OW23902   2.677   4.144   1.690
 7668SOL    HW123903   2.676   4.239   1.661
 7668SOL    HW223904   2.767   4.122   1.729
 7669SOL     OW23905   4.383   6.417   5.014
 7669SOL    HW123906   4.386   6.403   5.113
 7669SOL    HW223907   4.427   6.340   4.968
 7670SOL     OW23908   1.633   5.172   0.708
 7670SOL    HW123909   1.650   5.102   0.638
 7670SOL    HW223910   1.712   5.179   0.769
 7671SOL     OW23911   5.693   2.447   4.656
 7671SOL    HW123912   5.762   2.423   4.587
 7671SOL    HW223913   5.738   2.495   4.732
 7672SOL     OW23914   5.753   0.143   2.293
 7672SOL    HW123915   5.671   0.136   2.350
 7672SOL    HW223916   5.760   0.235   2.255
 7673SOL     OW23917   0.314   4.128   6.842
 7673SOL    HW123918   0.228   4.140   6.792
 7673SOL    HW223919   0.321   4.035   6.875
 7674SOL     OW23920   6.569   1.400   5.277
 7674SOL    HW123921   6.647   1.434   5.330
 7674SOL    HW223922   6.602   1.349   5.197
 7675SOL     OW23923   4.816   0.044   3.332
 7675SOL    HW123924   4.766   6.985   3.362
 7675SOL    HW223925   4.900   0.017   3.285
 7676SOL     OW23926   1.653   0.087   1.090
 7676SOL    HW123927   1.646   7.017   1.127
 7676SOL    HW223928   1.565   0.134   1.098
 7677SOL     OW23929   1.689   2.386   2.682
 7677SOL    HW123930   1.730   2.299   2.708
 7677SOL    HW223931   1.600   2.396   2.727
 7678SOL     OW23932   5.325   6.404   6.102
 7678SOL    HW123933   5.247   6.364   6.054
 7678SOL    HW223934   5.352   6.489   6.055
 7679SOL     OW23935   1.460   5.114   5.398
 7679SOL    HW123936   1.412   5.078   5.478
 7679SOL    HW223937   1.539   5.168   5.429
 7680SOL     OW23938   4.695   1.891   6.792
 7680SOL    HW123939   4.596   1.880   6.808
 7680SOL    HW223940   4.724   1.981   6.825
 7681SOL     OW23941   2.315   2.302   6.233
 7681SOL    HW123942   2.382   2.278   6.303
 7681SOL    HW223943   2.358   2.360   6.164
 7682SOL     OW23944   2.750   0.312   1.256
 7682SOL    HW123945   2.809   0.337   1.334
 7682SOL    HW223946   2.783   0.228   1.215
 7683SOL     OW23947   6.058   1.893   2.854
 7683SOL    HW123948   6.025   1.914   2.946
 7683SOL    HW223949   6.071   1.794   2.845
 7684SOL     OW23950   4.247   1.987   6.113
 7684SOL    HW123951   4.169   2.046   6.132
 7684SOL    HW223952   4.263   1.926   6.191
 7685SOL     OW23953   4.116   3.659   0.666
 7685SOL    HW123954   4.083   3.750   0.688
 7685SOL    HW223955   4.138   3.610   0.751
 7686SOL     OW23956   3.002   0.967   4.013
 7686SOL    HW123957   3.040   1.041   3.958
 7686SOL    HW223958   2.995   0.997   4.108
 7687SOL     OW23959   4.321   4.618   5.822
 7687SOL    HW123960   4.284   4.526   5.827
 7687SOL    HW223961   4.283   4.665   5.742
 7688SOL     OW23962   6.814   6.907   3.956
 7688SOL    HW123963   6.718   6.903   3.927
 7688SOL    HW223964   6.869   6.946   3.882
 7689SOL     OW23965   4.081   0.337   5.010
 7689SOL    HW123966   3.997   0.384   4.986
 7689SOL    HW223967   4.114   0.285   4.931
 7690SOL     OW23968   0.307   5.335   2.968
 7690SOL    HW123969   0.350   5.279   2.898
 7690SOL    HW223970   0.261   5.412   2.925
 7691SOL     OW23971   5.803   4.235   5.630
 7691SOL    HW123972   5.775   4.226   5.534
 7691SOL    HW223973   5.723   4.257   5.686
 7692SOL     OW23974   2.033   6.171   1.477
 7692SOL    HW123975   1.956   6.107   1.482
 7692SOL    HW223976   2.024   6.238   1.551
 7693SOL     OW23977   5.413   0.679   0.428
 7693SOL    HW123978   5.366   0.759   0.465
 7693SOL    HW223979   5.511   0.697   0.424
 7694SOL     OW23980   6.308   4.399   3.823
 7694SOL    HW123981   6.219   4.425   3.859
 7694SOL    HW223982   6.359   4.481   3.797
 7695SOL     OW23983   3.674   0.226   6.036
 7695SOL    HW123984   3.626   0.193   6.117
 7695SOL    HW223985   3.708   0.148   5.983
 7696SOL     OW23986   0.821   3.924   5.490
 7696SOL    HW123987   0.866   3.986   5.555
 7696SOL    HW223988   0.752   3.975   5.438
 7697SOL     OW23989   4.020   1.902   1.873
 7697SOL    HW123990   3.939   1.870   1.824
 7697SOL    HW223991   4.036   1.999   1.851
 7698SOL     OW23992   0.637   3.250   5.969
 7698SOL    HW123993   0.644   3.155   6.000
 7698SOL    HW223994   0.692   3.262   5.887
 7699SOL     OW23995   2.508   4.350   0.377
 7699SOL    HW123996   2.511   4.386   0.284
 7699SOL    HW223997   2.559   4.411   0.438
 7700SOL     OW23998   5.746   6.888   5.344
 7700SOL    HW123999   5.659   6.938   5.338
 7700SOL    HW224000   5.809   6.937   5.404
 7701SOL     OW24001   6.212   2.064   5.013
 7701SOL    HW124002   6.276   2.009   5.067
 7701SOL    HW224003   6.211   2.158   5.049
 7702SOL     OW24004   2.666   6.056   5.721
 7702SOL    HW124005   2.574   6.062   5.681
 7702SOL    HW224006   2.710   5.971   5.691
 7703SOL     OW24007   1.039   1.873   6.067
 7703SOL    HW124008   1.134   1.906   6.067
 7703SOL    HW224009   1.010   1.857   6.161
 7704SOL     OW24010   3.653   4.439   0.803
 7704SOL    HW124011   3.657   4.383   0.721
 7704SOL    HW224012   3.558   4.451   0.832
 7705SOL     OW24013   3.883   4.915   5.488
 7705SOL    HW124014   3.929   4.835   5.527
 7705SOL    HW224015   3.785   4.908   5.504
 7706SOL     OW24016   6.084   0.825   4.987
 7706SOL    HW124017   5.995   0.865   5.009
 7706SOL    HW224018   6.149   0.846   5.061
 7707SOL     OW24019   6.924   5.324   6.092
 7707SOL    HW124020   6.969   5.362   6.174
 7707SOL    HW224021   6.994   5.293   6.028
 7708SOL     OW24022   5.326   0.668   4.521
 7708SOL    HW124023   5.300   0.575   4.546
 7708SOL    HW224024   5.250   0.713   4.474
 7709SOL     OW24025   3.569   2.043   1.803
 7709SOL    HW124026   3.640   2.000   1.858
 7709SOL    HW224027   3.586   2.142   1.799
 7710SOL     OW24028   2.629   2.436   6.218
 7710SOL    HW124029   2.680   2.354   6.191
 7710SOL    HW224030   2.568   2.415   6.294
 7711SOL     OW24031   4.966   6.878   5.805
 7711SOL    HW124032   5.039   6.828   5.853
 7711SOL    HW224033   4.907   6.814   5.757
 7712SOL     OW24034   5.347   5.062   0.910
 7712SOL    HW124035   5.324   5.153   0.944
 7712SOL    HW224036   5.277   5.033   0.844
 7713SOL     OW24037   1.311   5.123   6.628
 7713SOL    HW124038   1.222   5.149   6.667
 7713SOL    HW224039   1.356   5.058   6.688
 7714SOL     OW24040   5.597   4.094   4.387
 7714SOL    HW124041   5.581   4.192   4.374
 7714SOL    HW224042   5.645   4.079   4.474
 7715SOL     OW24043   4.770   2.180   1.401
 7715SOL    HW124044   4.759   2.152   1.306
 7715SOL    HW224045   4.715   2.121   1.460
 7716SOL     OW24046   4.749   2.838   3.675
 7716SOL    HW124047   4.728   2.926   3.633
 7716SOL    HW224048   4.795   2.852   3.762
 7717SOL     OW24049   3.221   0.398   6.581
 7717SOL    HW124050   3.286   0.337   6.627
 7717SOL    HW224051   3.169   0.346   6.513
 7718SOL     OW24052   3.100   6.184   3.891
 7718SOL    HW124053   3.041   6.222   3.819
 7718SOL    HW224054   3.064   6.096   3.921
 7719SOL     OW24055   6.265   2.461   5.382
 7719SOL    HW124056   6.359   2.492   5.395
 7719SOL    HW224057   6.257   2.412   5.295
 7720SOL     OW24058   5.550   6.332   1.645
 7720SOL    HW124059   5.520   6.325   1.550
 7720SOL    HW224060   5.476   6.302   1.705
 7721SOL     OW24061   1.225   4.578   2.801
 7721SOL    HW124062   1.151   4.640   2.827
 7721SOL    HW224063   1.261   4.532   2.883
 7722SOL     OW24064   0.894   6.394   4.117
 7722SOL    HW124065   0.936   6.367   4.203
 7722SOL    HW224066   0.823   6.328   4.092
 7723SOL     OW24067   6.571   2.887   0.536
 7723SOL    HW124068   6.496   2.952   0.549
 7723SOL    HW224069   6.652   2.920   0.586
 7724SOL     OW24070   1.848   5.274   0.168
 7724SOL    HW124071   1.788   5.353   0.163
 7724SOL    HW224072   1.900   5.277   0.253
 7725SOL     OW24073   5.297   3.933   4.697
 7725SOL    HW124074   5.290   3.855   4.759
 7725SOL    HW224075   5.227   3.925   4.626
 7726SOL     OW24076   5.703   4.170   3.728
 7726SOL    HW124077   5.670   4.135   3.640
 7726SOL    HW224078   5.756   4.100   3.774
 7727SOL     OW24079   6.415   2.898   2.074
 7727SOL    HW124080   6.385   2.892   2.169
 7727SOL    HW224081   6.512   2.921   2.071
 7728SOL     OW24082   2.416   2.160   2.560
 7728SOL    HW124083   2.387   2.206   2.476
 7728SOL    HW224084   2.366   2.074   2.570
 7729SOL     OW24085   5.416   2.504   1.125
 7729SOL    HW124086   5.511   2.472   1.125
 7729SOL    HW224087   5.415   2.604   1.125
 7730SOL     OW24088   5.071   0.047   1.691
 7730SOL    HW124089   5.023   0.000   1.765
 7730SOL    HW224090   5.031   0.022   1.603
 7731SOL     OW24091   6.831   0.942   4.982
 7731SOL    HW124092   6.896   0.931   5.057
 7731SOL    HW224093   6.744   0.978   5.017
 7732SOL     OW24094   4.576   4.852   0.674
 7732SOL    HW124095   4.586   4.762   0.717
 7732SOL    HW224096   4.546   4.840   0.579
 7733SOL     OW24097   3.052   6.666   0.538
 7733SOL    HW124098   3.037   6.628   0.447
 7733SOL    HW224099   3.087   6.594   0.598
 7734SOL     OW24100   1.696   1.949   2.945
 7734SOL    HW124101   1.789   1.957   2.981
 7734SOL    HW224102   1.670   1.853   2.942
 7735SOL     OW24103   5.142   3.765   0.476
 7735SOL    HW124104   5.080   3.713   0.417
 7735SOL    HW224105   5.097   3.849   0.505
 7736SOL     OW24106   5.843   4.300   6.233
 7736SOL    HW124107   5.853   4.386   6.283
 7736SOL    HW224108   5.748   4.289   6.205
 7737SOL     OW24109   4.744   2.120   1.125
 7737SOL    HW124110   4.667   2.133   1.062
 7737SOL    HW224111   4.809   2.055   1.086
 7738SOL     OW24112   2.273   4.586   0.180
 7738SOL    HW124113   2.276   4.664   0.242
 7738SOL    HW224114   2.361   4.540   0.179
 7739SOL     OW24115   6.114   3.299   2.170
 7739SOL    HW124116   6.175   3.234   2.126
 7739SOL    HW224117   6.063   3.351   2.101
 7740SOL     OW24118   0.578   6.626   3.552
 7740SOL    HW124119   0.565   6.678   3.467
 7740SOL    HW224120   0.568   6.528   3.533
 7741SOL     OW24121   3.274   5.832   4.443
 7741SOL    HW124122   3.191   5.812   4.494
 7741SOL    HW224123   3.284   5.931   4.433
 7742SOL     OW24124   6.637   0.815   4.253
 7742SOL    HW124125   6.637   0.895   4.312
 7742SOL    HW224126   6.729   0.777   4.248
 7743SOL     OW24127   4.942   3.003   2.890
 7743SOL    HW124128   4.976   3.040   2.803
 7743SOL    HW224129   4.921   3.078   2.952
 7744SOL     OW24130   0.315   0.038   4.939
 7744SOL    HW124131   0.290   0.092   4.859
 7744SOL    HW224132   0.243   6.993   4.958
 7745SOL     OW24133   4.904   3.390   5.229
 7745SOL    HW124134   4.941   3.339   5.307
 7745SOL    HW224135   4.806   3.373   5.222
 7746SOL     OW24136   1.567   0.833   0.236
 7746SOL    HW124137   1.569   0.933   0.248
 7746SOL    HW224138   1.630   0.808   0.163
 7747SOL     OW24139   5.532   5.411   1.553
 7747SOL    HW124140   5.528   5.381   1.649
 7747SOL    HW224141   5.446   5.387   1.508
 7748SOL     OW24142   2.532   3.525   6.805
 7748SOL    HW124143   2.599   3.560   6.871
 7748SOL    HW224144   2.481   3.602   6.765
 7749SOL     OW24145   5.326   4.079   6.459
 7749SOL    HW124146   5.358   4.173   6.474
 7749SOL    HW224147   5.273   4.050   6.539
 7750SOL     OW24148   5.941   4.999   2.638
 7750SOL    HW124149   5.877   4.927   2.662
 7750SOL    HW224150   5.899   5.088   2.655
 7751SOL     OW24151   0.398   2.389   1.478
 7751SOL    HW124152   0.412   2.294   1.449
 7751SOL    HW224153   0.483   2.440   1.468
 7752SOL     OW24154   4.235   1.235   3.483
 7752SOL    HW124155   4.283   1.321   3.501
 7752SOL    HW224156   4.294   1.158   3.511
 7753SOL     OW24157   3.384   1.768   5.076
 7753SOL    HW124158   3.469   1.819   5.090
 7753SOL    HW224159   3.338   1.802   4.994
 7754SOL     OW24160   5.589   5.605   1.942
 7754SOL    HW124161   5.612   5.644   1.853
 7754SOL    HW224162   5.672   5.594   1.996
 7755SOL     OW24163   0.622   4.926   4.642
 7755SOL    HW124164   0.665   4.926   4.552
 7755SOL    HW224165   0.540   4.869   4.640
 7756SOL     OW24166   2.334   4.793   2.387
 7756SOL    HW124167   2.414   4.733   2.384
 7756SOL    HW224168   2.268   4.758   2.454
 7757SOL     OW24169   6.963   4.211   1.537
 7757SOL    HW124170   0.035   4.186   1.517
 7757SOL    HW224171   6.955   4.234   1.634
 7758SOL     OW24172   1.235   2.218   4.530
 7758SOL    HW124173   1.236   2.130   4.578
 7758SOL    HW224174   1.329   2.252   4.522
 7759SOL     OW24175   3.607   1.329   1.388
 7759SOL    HW124176   3.632   1.272   1.466
 7759SOL    HW224177   3.536   1.282   1.334
 7760SOL     OW24178   4.954   3.349   0.543
 7760SOL    HW124179   4.948   3.399   0.456
 7760SOL    HW224180   4.871   3.295   0.556
 7761SOL     OW24181   4.764   5.147   2.881
 7761SOL    HW124182   4.847   5.191   2.847
 7761SOL    HW224183   4.769   5.049   2.865
 7762SOL     OW24184   5.602   1.823   1.480
 7762SOL    HW124185   5.566   1.738   1.518
 7762SOL    HW224186   5.532   1.865   1.421
 7763SOL     OW24187   2.431   0.153   4.212
 7763SOL    HW124188   2.524   0.166   4.246
 7763SOL    HW224189   2.374   0.113   4.284
 7764SOL     OW24190   3.156   4.196   5.578
 7764SOL    HW124191   3.092   4.207   5.654
 7764SOL    HW224192   3.113   4.227   5.493
 7765SOL     OW24193   5.549   3.819   4.657
 7765SOL    HW124194   5.564   3.768   4.741
 7765SOL    HW224195   5.460   3.863   4.660
 7766SOL     OW24196   6.908   3.554   6.712
 7766SOL    HW124197   6.821   3.533   6.668
 7766SOL    HW224198   6.926   3.652   6.705
 7767SOL     OW24199   4.053   0.432   3.814
 7767SOL    HW124200   4.088   0.413   3.722
 7767SOL    HW224201   4.127   0.419   3.881
 7768SOL     OW24202   4.009   5.905   4.031
 7768SOL    HW124203   4.011   5.966   3.952
 7768SOL    HW224204   4.056   5.819   4.008
 7769SOL     OW24205   3.812   2.935   6.191
 7769SOL    HW124206   3.729   2.891   6.157
 7769SOL    HW224207   3.799   2.963   6.286
 7770SOL     OW24208   1.337   3.553   4.327
 7770SOL    HW124209   1.322   3.456   4.312
 7770SOL    HW224210   1.413   3.566   4.391
 7771SOL     OW24211   1.470   4.008   6.403
 7771SOL    HW124212   1.521   3.950   6.339
 7771SOL    HW224213   1.373   3.984   6.400
 7772SOL     OW24214   5.737   6.337   2.001
 7772SOL    HW124215   5.794   6.410   1.963
 7772SOL    HW224216   5.655   6.377   2.041
 7773SOL     OW24217   1.902   6.433   6.686
 7773SOL    HW124218   1.846   6.479   6.617
 7773SOL    HW224219   1.844   6.372   6.740
 7774SOL     OW24220   5.110   1.725   2.715
 7774SOL    HW124221   5.020   1.748   2.750
 7774SOL    HW224222   5.180   1.769   2.772
 7775SOL     OW24223   2.989   1.669   1.567
 7775SOL    HW124224   2.978   1.761   1.604
 7775SOL    HW224225   2.911   1.647   1.508
 7776SOL     OW24226   2.860   1.168   4.467
 7776SOL    HW124227   2.841   1.172   4.565
 7776SOL    HW224228   2.777   1.146   4.417
 7777SOL     OW24229   6.235   5.608   3.311
 7777SOL    HW124230   6.217   5.593   3.213
 7777SOL    HW224231   6.171   5.676   3.346
 7778SOL     OW24232   0.891   4.664   2.807
 7778SOL    HW124233   0.967   4.716   2.847
 7778SOL    HW224234   0.903   4.659   2.708
 7779SOL     OW24235   3.771   6.478   1.803
 7779SOL    HW124236   3.680   6.445   1.776
 7779SOL    HW224237   3.763   6.570   1.840
 7780SOL     OW24238   6.319   5.884   4.567
 7780SOL    HW124239   6.405   5.934   4.558
 7780SOL    HW224240   6.258   5.933   4.629
 7781SOL     OW24241   2.069   2.977   1.023
 7781SOL    HW124242   2.017   3.010   1.102
 7781SOL    HW224243   2.028   3.012   0.939
 7782SOL     OW24244   5.861   3.341   4.571
 7782SOL    HW124245   5.907   3.301   4.492
 7782SOL    HW224246   5.781   3.393   4.541
 7783SOL     OW24247   2.257   6.598   4.022
 7783SOL    HW124248   2.164   6.564   4.037
 7783SOL    HW224249   2.305   6.603   4.109
 7784SOL     OW24250   1.573   1.926   1.888
 7784SOL    HW124251   1.509   1.860   1.847
 7784SOL    HW224252   1.539   1.954   1.978
 7785SOL     OW24253   0.047   6.177   3.061
 7785SOL    HW124254   6.985   6.228   3.078
 7785SOL    HW224255   0.025   6.081   3.044
 7786SOL     OW24256   4.426   1.548   6.235
 7786SOL    HW124257   4.476   1.462   6.225
 7786SOL    HW224258   4.399   1.581   6.144
 7787SOL     OW24259   2.106   2.510   1.459
 7787SOL    HW124260   2.092   2.474   1.367
 7787SOL    HW224261   2.078   2.441   1.526
 7788SOL     OW24262   0.767   3.847   1.733
 7788SOL    HW124263   0.812   3.791   1.802
 7788SOL    HW224264   0.676   3.872   1.765
 7789SOL     OW24265   3.490   1.384   6.246
 7789SOL    HW124266   3.485   1.368   6.147
 7789SOL    HW224267   3.440   1.467   6.269
 7790SOL     OW24268   4.158   5.239   3.586
 7790SOL    HW124269   4.240   5.183   3.597
 7790SOL    HW224270   4.144   5.258   3.488
 7791SOL     OW24271   2.699   5.492   2.524
 7791SOL    HW124272   2.607   5.455   2.521
 7791SOL    HW224273   2.694   5.592   2.530
 7792SOL     OW24274   1.355   1.378   3.023
 7792SOL    HW124275   1.314   1.432   2.949
 7792SOL    HW224276   1.452   1.401   3.031
 7793SOL     OW24277   4.845   1.260   0.706
 7793SOL    HW124278   4.803   1.293   0.790
 7793SOL    HW224279   4.941   1.288   0.703
 7794SOL     OW24280   1.254   0.144   3.381
 7794SOL    HW124281   1.216   0.066   3.431
 7794SOL    HW224282   1.231   0.229   3.428
 7795SOL     OW24283   3.793   4.286   0.981
 7795SOL    HW124284   3.753   4.357   0.922
 7795SOL    HW224285   3.849   4.329   1.051
 7796SOL     OW24286   3.141   1.211   0.202
 7796SOL    HW124287   3.174   1.286   0.260
 7796SOL    HW224288   3.111   1.248   0.114
 7797SOL     OW24289   1.301   5.520   3.093
 7797SOL    HW124290   1.351   5.434   3.085
 7797SOL    HW224291   1.237   5.514   3.170
 7798SOL     OW24292   2.078   3.315   1.114
 7798SOL    HW124293   1.998   3.355   1.070
 7798SOL    HW224294   2.137   3.274   1.045
 7799SOL     OW24295   3.408   6.123   3.646
 7799SOL    HW124296   3.314   6.155   3.634
 7799SOL    HW224297   3.470   6.201   3.642
 7800SOL     OW24298   1.799   0.676   2.306
 7800SOL    HW124299   1.726   0.744   2.296
 7800SOL    HW224300   1.837   0.682   2.398
 7801SOL     OW24301   1.071   2.524   0.956
 7801SOL    HW124302   1.000   2.554   1.020
 7801SOL    HW224303   1.080   2.591   0.882
 7802SOL     OW24304   6.403   4.174   4.011
 7802SOL    HW124305   6.411   4.271   3.987
 7802SOL    HW224306   6.342   4.129   3.946
 7803SOL     OW24307   3.098   2.557   5.551
 7803SOL    HW124308   2.998   2.568   5.551
 7803SOL    HW224309   3.128   2.531   5.459
 7804SOL     OW24310   3.026   1.542   5.756
 7804SOL    HW124311   3.075   1.461   5.722
 7804SOL    HW224312   2.931   1.518   5.776
 7805SOL     OW24313   5.595   2.935   6.688
 7805SOL    HW124314   5.571   2.987   6.770
 7805SOL    HW224315   5.685   2.893   6.700
 7806SOL     OW24316   6.384   1.371   5.502
 7806SOL    HW124317   6.446   1.343   5.429
 7806SOL    HW224318   6.436   1.382   5.587
 7807SOL     OW24319   2.222   5.615   5.319
 7807SOL    HW124320   2.185   5.679   5.387
 7807SOL    HW224321   2.247   5.529   5.364
 7808SOL     OW24322   6.038   3.854   4.004
 7808SOL    HW124323   6.076   3.857   4.097
 7808SOL    HW224324   6.063   3.767   3.961
 7809SOL     OW24325   4.810   6.382   2.302
 7809SOL    HW124326   4.770   6.293   2.282
 7809SOL    HW224327   4.805   6.400   2.400
 7810SOL     OW24328   2.283   6.791   5.354
 7810SOL    HW124329   2.272   6.862   5.424
 7810SOL    HW224330   2.310   6.705   5.397
 7811SOL     OW24331   0.837   6.246   2.463
 7811SOL    HW124332   0.889   6.299   2.530
 7811SOL    HW224333   0.746   6.286   2.452
 7812SOL     OW24334   2.682   1.030   5.687
 7812SOL    HW124335   2.670   1.105   5.753
 7812SOL    HW224336   2.774   1.036   5.648
 7813SOL     OW24337   5.522   0.813   1.184
 7813SOL    HW124338   5.473   0.861   1.111
 7813SOL    HW224339   5.465   0.740   1.220
 7814SOL     OW24340   6.165   2.605   2.565
 7814SOL    HW124341   6.108   2.590   2.646
 7814SOL    HW224342   6.188   2.703   2.558
 7815SOL     OW24343   4.681   5.723   3.723
 7815SOL    HW124344   4.775   5.734   3.688
 7815SOL    HW224345   4.625   5.678   3.653
 7816SOL     OW24346   0.858   1.362   5.226
 7816SOL    HW124347   0.877   1.385   5.130
 7816SOL    HW224348   0.809   1.275   5.230
 7817SOL     OW24349   4.220   1.891   0.042
 7817SOL    HW124350   4.188   1.804   0.079
 7817SOL    HW224351   4.248   1.879   6.969
 7818SOL     OW24352   5.783   1.035   3.062
 7818SOL    HW124353   5.723   0.991   2.996
 7818SOL    HW224354   5.878   1.013   3.041
 7819SOL     OW24355   1.381   3.245   5.129
 7819SOL    HW124356   1.400   3.186   5.207
 7819SOL    HW224357   1.458   3.307   5.114
 7820SOL     OW24358   1.258   1.290   5.259
 7820SOL    HW124359   1.247   1.343   5.175
 7820SOL    HW224360   1.355   1.283   5.282
 7821SOL     OW24361   3.755   6.016   6.663
 7821SOL    HW124362   3.712   5.929   6.639
 7821SOL    HW224363   3.852   6.013   6.639
 7822SOL     OW24364   0.176   1.581   4.843
 7822SOL    HW124365   0.147   1.546   4.754
 7822SOL    HW224366   0.155   1.513   4.913
 7823SOL     OW24367   2.655   3.074   5.724
 7823SOL    HW124368   2.727   3.009   5.703
 7823SOL    HW224369   2.637   3.074   5.823
 7824SOL     OW24370   5.601   3.707   3.037
 7824SOL    HW124371   5.523   3.646   3.039
 7824SOL    HW224372   5.686   3.653   3.041
 7825SOL     OW24373   3.321   3.608   2.922
 7825SOL    HW124374   3.308   3.707   2.917
 7825SOL    HW224375   3.319   3.570   2.829
 7826SOL     OW24376   6.859   6.926   0.289
 7826SOL    HW124377   6.787   6.991   0.315
 7826SOL    HW224378   6.840   6.891   0.197
 7827SOL     OW24379   4.115   3.421   0.447
 7827SOL    HW124380   4.029   3.402   0.400
 7827SOL    HW224381   4.115   3.516   0.478
 7828SOL     OW24382   1.147   5.821   1.311
 7828SOL    HW124383   1.051   5.810   1.284
 7828SOL    HW224384   1.161   5.914   1.346
 7829SOL     OW24385   3.367   3.838   3.797
 7829SOL    HW124386   3.271   3.812   3.802
 7829SOL    HW224387   3.374   3.931   3.761
 7830SOL     OW24388   5.960   3.857   6.791
 7830SOL    HW124389   5.872   3.887   6.828
 7830SOL    HW224390   5.957   3.863   6.691
 7831SOL     OW24391   1.488   2.836   0.597
 7831SOL    HW124392   1.538   2.775   0.657
 7831SOL    HW224393   1.543   2.918   0.579
 7832SOL     OW24394   3.419   2.719   5.456
 7832SOL    HW124395   3.487   2.648   5.439
 7832SOL    HW224396   3.327   2.681   5.444
 7833SOL     OW24397   6.800   6.139   1.468
 7833SOL    HW124398   6.745   6.165   1.547
 7833SOL    HW224399   6.847   6.220   1.432
 7834SOL     OW24400   6.199   0.464   1.391
 7834SOL    HW124401   6.114   0.476   1.442
 7834SOL    HW224402   6.275   0.455   1.455
 7835SOL     OW24403   2.376   2.318   4.431
 7835SOL    HW124404   2.382   2.218   4.432
 7835SOL    HW224405   2.282   2.346   4.451
 7836SOL     OW24406   1.955   0.486   0.468
 7836SOL    HW124407   1.870   0.538   0.459
 7836SOL    HW224408   2.018   0.513   0.394
 7837SOL     OW24409   4.927   6.633   2.449
 7837SOL    HW124410   4.968   6.668   2.534
 7837SOL    HW224411   4.997   6.591   2.393
 7838SOL     OW24412   4.374   6.456   4.142
 7838SOL    HW124413   4.433   6.505   4.206
 7838SOL    HW224414   4.401   6.360   4.136
 7839SOL     OW24415   6.986   4.560   3.484
 7839SOL    HW124416   0.050   4.524   3.518
 7839SOL    HW224417   6.999   4.603   3.395
 7840SOL     OW24418   5.113   3.514   6.123
 7840SOL    HW124419   5.032   3.468   6.089
 7840SOL    HW224420   5.159   3.457   6.191
 7841SOL     OW24421   0.844   1.763   6.649
 7841SOL    HW124422   0.783   1.705   6.703
 7841SOL    HW224423   0.925   1.710   6.623
 7842SOL     OW24424   3.022   0.058   1.991
 7842SOL    HW124425   2.975   7.022   2.057
 7842SOL    HW224426   2.963   0.135   1.966
 7843SOL     OW24427   0.483   2.867   2.112
 7843SOL    HW124428   0.462   2.830   2.021
 7843SOL    HW224429   0.406   2.921   2.145
 7844SOL     OW24430   3.717   1.336   4.166
 7844SOL    HW124431   3.650   1.379   4.105
 7844SOL    HW224432   3.803   1.324   4.117
 7845SOL     OW24433   1.167   1.262   4.008
 7845SOL    HW124434   1.219   1.309   3.937
 7845SOL    HW224435   1.069   1.267   3.988
 7846SOL     OW24436   4.157   6.831   2.299
 7846SOL    HW124437   4.219   6.756   2.324
 7846SOL    HW224438   4.097   6.852   2.376
 7847SOL     OW24439   0.437   0.110   6.898
 7847SOL    HW124440   0.391   0.035   6.851
 7847SOL    HW224441   0.478   0.076   6.982
 7848SOL     OW24442   3.933   4.406   1.168
 7848SOL    HW124443   3.995   4.345   1.218
 7848SOL    HW224444   3.948   4.500   1.199
 7849SOL     OW24445   5.114   4.276   4.659
 7849SOL    HW124446   5.134   4.214   4.583
 7849SOL    HW224447   5.114   4.224   4.745
 7850SOL     OW24448   0.930   2.090   4.703
 7850SOL    HW124449   0.983   2.175   4.694
 7850SOL    HW224450   0.833   2.112   4.707
 7851SOL     OW24451   4.635   6.568   0.954
 7851SOL    HW124452   4.721   6.519   0.938
 7851SOL    HW224453   4.572   6.550   0.878
 7852SOL     OW24454   2.401   6.714   0.420
 7852SOL    HW124455   2.494   6.721   0.387
 7852SOL    HW224456   2.389   6.775   0.499
 7853SOL     OW24457   2.106   2.690   0.444
 7853SOL    HW124458   2.019   2.650   0.414
 7853SOL    HW224459   2.094   2.730   0.535
 7854SOL     OW24460   3.385   4.069   3.683
 7854SOL    HW124461   3.407   4.104   3.592
 7854SOL    HW224462   3.422   4.131   3.752
 7855SOL     OW24463   3.935   0.168   5.200
 7855SOL    HW124464   4.032   0.179   5.176
 7855SOL    HW224465   3.907   0.245   5.258
 7856SOL     OW24466   3.072   3.713   6.835
 7856SOL    HW124467   3.035   3.668   6.754
 7856SOL    HW224468   3.147   3.658   6.873
 7857SOL     OW24469   0.671   3.143   5.365
 7857SOL    HW124470   0.602   3.071   5.369
 7857SOL    HW224471   0.679   3.176   5.270
 7858SOL     OW24472   6.009   3.587   2.862
 7858SOL    HW124473   6.099   3.590   2.906
 7858SOL    HW224474   6.015   3.533   2.778
 7859SOL     OW24475   0.802   6.364   7.006
 7859SOL    HW124476   0.817   6.268   0.008
 7859SOL    HW224477   0.889   6.414   7.011
 7860SOL     OW24478   4.400   6.754   1.862
 7860SOL    HW124479   4.483   6.780   1.911
 7860SOL    HW224480   4.339   6.832   1.856
 7861SOL     OW24481   5.360   3.335   0.776
 7861SOL    HW124482   5.405   3.421   0.750
 7861SOL    HW224483   5.262   3.350   0.783
 7862SOL     OW24484   2.824   4.664   1.640
 7862SOL    HW124485   2.823   4.615   1.726
 7862SOL    HW224486   2.735   4.656   1.595
 7863SOL     OW24487   5.371   5.783   2.317
 7863SOL    HW124488   5.275   5.812   2.319
 7863SOL    HW224489   5.381   5.699   2.371
 7864SOL     OW24490   0.987   6.109   4.331
 7864SOL    HW124491   1.066   6.050   4.347
 7864SOL    HW224492   0.938   6.078   4.250
 7865SOL     OW24493   3.736   0.776   3.110
 7865SOL    HW124494   3.830   0.782   3.077
 7865SOL    HW224495   3.695   0.868   3.111
 7866SOL     OW24496   1.992   2.518   5.127
 7866SOL    HW124497   1.959   2.475   5.211
 7866SOL    HW224498   2.044   2.451   5.074
 7867SOL     OW24499   5.658   3.870   2.013
 7867SOL    HW124500   5.688   3.774   2.006
 7867SOL    HW224501   5.701   3.924   1.941
 7868SOL     OW24502   5.203   7.002   0.787
 7868SOL    HW124503   5.195   6.988   0.885
 7868SOL    HW224504   5.195   0.077   0.766
 7869SOL     OW24505   6.658   1.511   4.186
 7869SOL    HW124506   6.578   1.569   4.174
 7869SOL    HW224507   6.711   1.544   4.265
 7870SOL     OW24508   6.531   6.636   3.299
 7870SOL    HW124509   6.476   6.677   3.226
 7870SOL    HW224510   6.544   6.703   3.372
 7871SOL     OW24511   5.697   3.133   4.075
 7871SOL    HW124512   5.750   3.107   4.155
 7871SOL    HW224513   5.734   3.218   4.037
 7872SOL     OW24514   6.783   3.907   4.608
 7872SOL    HW124515   6.793   3.808   4.604
 7872SOL    HW224516   6.757   3.942   4.518
 7873SOL     OW24517   0.208   5.688   4.567
 7873SOL    HW124518   0.299   5.703   4.605
 7873SOL    HW224519   0.196   5.592   4.544
 7874SOL     OW24520   6.404   1.090   1.147
 7874SOL    HW124521   6.451   1.109   1.061
 7874SOL    HW224522   6.362   1.174   1.182
 7875SOL     OW24523   5.184   3.294   1.036
 7875SOL    HW124524   5.140   3.325   0.952
 7875SOL    HW224525   5.246   3.218   1.017
 7876SOL     OW24526   0.252   1.052   5.140
 7876SOL    HW124527   0.237   1.048   5.041
 7876SOL    HW224528   0.197   0.981   5.185
 7877SOL     OW24529   6.362   2.731   2.918
 7877SOL    HW124530   6.396   2.773   2.834
 7877SOL    HW224531   6.263   2.736   2.921
 7878SOL     OW24532   4.566   3.906   1.484
 7878SOL    HW124533   4.509   3.934   1.562
 7878SOL    HW224534   4.509   3.901   1.402
 7879SOL     OW24535   6.111   1.029   4.741
 7879SOL    HW124536   6.073   0.967   4.810
 7879SOL    HW224537   6.057   1.113   4.738
 7880SOL     OW24538   1.695   6.614   5.901
 7880SOL    HW124539   1.775   6.603   5.842
 7880SOL    HW224540   1.708   6.694   5.960
 7881SOL     OW24541   0.659   5.086   3.882
 7881SOL    HW124542   0.574   5.067   3.932
 7881SOL    HW224543   0.735   5.040   3.928
 7882SOL     OW24544   1.913   4.574   1.681
 7882SOL    HW124545   1.905   4.633   1.601
 7882SOL    HW224546   2.002   4.529   1.680
 7883SOL     OW24547   3.641   2.108   3.182
 7883SOL    HW124548   3.594   2.142   3.264
 7883SOL    HW224549   3.711   2.043   3.210
 7884SOL     OW24550   0.675   3.626   4.350
 7884SOL    HW124551   0.585   3.669   4.360
 7884SOL    HW224552   0.670   3.553   4.283
 7885SOL     OW24553   5.916   5.242   2.414
 7885SOL    HW124554   5.867   5.190   2.344
 7885SOL    HW224555   5.878   5.335   2.419
 7886SOL     OW24556   4.817   3.947   2.555
 7886SOL    HW124557   4.836   3.860   2.601
 7886SOL    HW224558   4.775   3.930   2.466
 7887SOL     OW24559   0.891   3.053   1.809
 7887SOL    HW124560   0.917   2.961   1.780
 7887SOL    HW224561   0.957   3.087   1.877
 7888SOL     OW24562   6.327   0.790   5.157
 7888SOL    HW124563   6.365   0.709   5.203
 7888SOL    HW224564   6.397   0.862   5.154
 7889SOL     OW24565   5.820   5.412   0.570
 7889SOL    HW124566   5.879   5.492   0.580
 7889SOL    HW224567   5.871   5.330   0.599
 7890SOL     OW24568   2.352   2.785   3.733
 7890SOL    HW124569   2.340   2.821   3.640
 7890SOL    HW224570   2.396   2.695   3.728
 7891SOL     OW24571   6.424   1.656   4.433
 7891SOL    HW124572   6.404   1.657   4.335
 7891SOL    HW224573   6.427   1.561   4.465
 7892SOL     OW24574   1.113   1.932   5.411
 7892SOL    HW124575   1.156   1.936   5.320
 7892SOL    HW224576   1.112   2.023   5.452
 7893SOL     OW24577   6.311   6.948   0.369
 7893SOL    HW124578   6.392   6.948   0.428
 7893SOL    HW224579   6.234   6.987   0.419
 7894SOL     OW24580   2.839   0.985   0.119
 7894SOL    HW124581   2.921   1.001   0.174
 7894SOL    HW224582   2.864   0.934   0.037
 7895SOL     OW24583   6.592   5.848   2.902
 7895SOL    HW124584   6.656   5.808   2.967
 7895SOL    HW224585   6.592   5.794   2.818
 7896SOL     OW24586   2.485   1.591   0.592
 7896SOL    HW124587   2.522   1.638   0.512
 7896SOL    HW224588   2.536   1.619   0.674
 7897SOL     OW24589   3.497   2.565   0.502
 7897SOL    HW124590   3.585   2.613   0.496
 7897SOL    HW224591   3.492   2.515   0.589
 7898SOL     OW24592   5.041   6.861   3.259
 7898SOL    HW124593   5.119   6.822   3.210
 7898SOL    HW224594   4.992   6.789   3.307
 7899SOL     OW24595   5.981   4.343   3.872
 7899SOL    HW124596   6.023   4.428   3.841
 7899SOL    HW224597   5.896   4.364   3.920
 7900SOL     OW24598   0.430   3.595   0.358
 7900SOL    HW124599   0.516   3.618   0.313
 7900SOL    HW224600   0.432   3.628   0.453
 7901SOL     OW24601   0.147   2.144   0.017
 7901SOL    HW124602   0.167   2.188   0.104
 7901SOL    HW224603   0.055   2.169   7.009
 7902SOL     OW24604   2.043   6.572   1.897
 7902SOL    HW124605   1.998   6.659   1.877
 7902SOL    HW224606   2.140   6.587   1.912
 7903SOL     OW24607   2.641   1.934   5.139
 7903SOL    HW124608   2.587   1.903   5.217
 7903SOL    HW224609   2.708   1.864   5.115
 7904SOL     OW24610   4.440   2.499   2.896
 7904SOL    HW124611   4.462   2.435   2.823
 7904SOL    HW224612   4.424   2.449   2.981
 7905SOL     OW24613   5.731   1.889   1.266
 7905SOL    HW124614   5.678   1.846   1.339
 7905SOL    HW224615   5.698   1.982   1.250
 7906SOL     OW24616   1.128   4.889   6.920
 7906SOL    HW124617   1.041   4.844   6.940
 7906SOL    HW224618   1.189   4.879   6.999
 7907SOL     OW24619   5.814   6.407   2.770
 7907SOL    HW124620   5.758   6.345   2.715
 7907SOL    HW224621   5.901   6.424   2.723
 7908SOL     OW24622   1.753   6.842   6.030
 7908SOL    HW124623   1.710   6.915   6.083
 7908SOL    HW224624   1.840   6.816   6.072
 7909SOL     OW24625   6.365   4.039   1.683
 7909SOL    HW124626   6.444   3.979   1.695
 7909SOL    HW224627   6.311   4.040   1.767
 7910SOL     OW24628   1.076   4.131   5.894
 7910SOL    HW124629   1.170   4.121   5.927
 7910SOL    HW224630   1.026   4.047   5.911
 7911SOL     OW24631   6.294   4.186   5.989
 7911SOL    HW124632   6.241   4.129   6.051
 7911SOL    HW224633   6.287   4.149   5.896
 7912SOL     OW24634   5.790   5.688   0.859
 7912SOL    HW124635   5.852   5.700   0.782
 7912SOL    HW224636   5.811   5.756   0.929
 7913SOL     OW24637   1.295   5.257   6.955
 7913SOL    HW124638   1.233   5.221   6.885
 7913SOL    HW224639   1.372   5.195   6.968
 7914SOL     OW24640   0.821   6.920   4.805
 7914SOL    HW124641   0.787   6.959   4.891
 7914SOL    HW224642   0.813   6.820   4.809
 7915SOL     OW24643   3.036   4.871   2.570
 7915SOL    HW124644   3.064   4.849   2.663
 7915SOL    HW224645   3.116   4.874   2.511
 7916SOL     OW24646   1.204   0.508   4.098
 7916SOL    HW124647   1.263   0.441   4.143
 7916SOL    HW224648   1.135   0.459   4.043
 7917SOL     OW24649   4.843   1.703   1.926
 7917SOL    HW124650   4.935   1.672   1.950
 7917SOL    HW224651   4.843   1.735   1.831
 7918SOL     OW24652   2.355   2.553   3.379
 7918SOL    HW124653   2.404   2.570   3.294
 7918SOL    HW224654   2.421   2.531   3.451
 7919SOL     OW24655   1.283   6.531   5.145
 7919SOL    HW124656   1.269   6.616   5.094
 7919SOL    HW224657   1.272   6.550   5.243
 7920SOL     OW24658   5.034   0.180   1.029
 7920SOL    HW124659   4.987   0.215   1.110
 7920SOL    HW224660   4.972   0.121   0.977
 7921SOL     OW24661   5.161   2.346   0.972
 7921SOL    HW124662   5.217   2.399   1.037
 7921SOL    HW224663   5.075   2.395   0.955
 7922SOL     OW24664   2.758   0.254   2.247
 7922SOL    HW124665   2.674   0.209   2.277
 7922SOL    HW224666   2.795   0.310   2.321
 7923SOL     OW24667   4.158   1.641   0.076
 7923SOL    HW124668   4.172   1.616   7.003
 7923SOL    HW224669   4.104   1.571   0.121
 7924SOL     OW24670   5.983   6.157   7.001
 7924SOL    HW124671   6.043   6.077   7.001
 7924SOL    HW224672   6.031   6.235   6.961
 7925SOL     OW24673   1.903   5.103   6.743
 7925SOL    HW124674   1.811   5.091   6.706
 7925SOL    HW224675   1.902   5.084   6.841
 7926SOL     OW24676   5.048   5.651   6.576
 7926SOL    HW124677   4.959   5.644   6.620
 7926SOL    HW224678   5.118   5.615   6.637
 7927SOL     OW24679   4.325   0.443   3.257
 7927SOL    HW124680   4.367   0.469   3.344
 7927SOL    HW224681   4.260   0.368   3.272
 7928SOL     OW24682   6.159   2.244   3.102
 7928SOL    HW124683   6.115   2.281   3.020
 7928SOL    HW224684   6.255   2.274   3.104
 7929SOL     OW24685   4.127   3.879   5.756
 7929SOL    HW124686   4.187   3.943   5.805
 7929SOL    HW224687   4.182   3.825   5.692
 7930SOL     OW24688   4.115   6.588   6.442
 7930SOL    HW124689   4.031   6.541   6.468
 7930SOL    HW224690   4.126   6.670   6.498
 7931SOL     OW24691   3.881   1.815   1.604
 7931SOL    HW124692   3.815   1.885   1.579
 7931SOL    HW224693   3.860   1.730   1.557
 7932SOL     OW24694   1.187   3.803   1.451
 7932SOL    HW124695   1.230   3.801   1.542
 7932SOL    HW224696   1.167   3.898   1.427
 7933SOL     OW24697   1.068   1.568   0.456
 7933SOL    HW124698   0.990   1.610   0.501
 7933SOL    HW224699   1.050   1.471   0.440
 7934SOL     OW24700   0.997   5.311   0.961
 7934SOL    HW124701   0.995   5.410   0.944
 7934SOL    HW224702   0.919   5.268   0.915
 7935SOL     OW24703   6.202   2.858   3.330
 7935SOL    HW124704   6.230   2.831   3.422
 7935SOL    HW224705   6.231   2.788   3.265
 7936SOL     OW24706   2.842   5.476   3.657
 7936SOL    HW124707   2.821   5.379   3.669
 7936SOL    HW224708   2.933   5.495   3.695
 7937SOL     OW24709   4.218   1.097   0.900
 7937SOL    HW124710   4.191   1.057   0.988
 7937SOL    HW224711   4.311   1.068   0.877
 7938SOL     OW24712   3.027   6.848   3.367
 7938SOL    HW124713   3.017   6.756   3.402
 7938SOL    HW224714   3.068   6.907   3.436
 7939SOL     OW24715   0.880   0.896   3.013
 7939SOL    HW124716   0.945   0.839   3.064
 7939SOL    HW224717   0.926   0.979   2.983
 7940SOL     OW24718   5.870   1.509   4.277
 7940SOL    HW124719   5.790   1.452   4.257
 7940SOL    HW224720   5.911   1.540   4.192
 7941SOL     OW24721   3.537   7.016   1.220
 7941SOL    HW124722   3.569   0.015   1.127
 7941SOL    HW224723   3.615   6.986   1.275
 7942SOL     OW24724   1.518   4.627   0.605
 7942SOL    HW124725   1.561   4.574   0.532
 7942SOL    HW224726   1.583   4.637   0.681
 7943SOL     OW24727   1.518   5.913   5.875
 7943SOL    HW124728   1.447   5.983   5.882
 7943SOL    HW224729   1.578   5.934   5.797
 7944SOL     OW24730   0.703   2.185   1.335
 7944SOL    HW124731   0.611   2.215   1.309
 7944SOL    HW224732   0.767   2.203   1.260
 7945SOL     OW24733   6.317   4.010   2.866
 7945SOL    HW124734   6.251   4.076   2.902
 7945SOL    HW224735   6.336   3.940   2.935
 7946SOL     OW24736   4.151   1.647   6.537
 7946SOL    HW124737   4.142   1.550   6.560
 7946SOL    HW224738   4.080   1.699   6.584
 7947SOL     OW24739   6.852   3.523   6.198
 7947SOL    HW124740   6.833   3.531   6.100
 7947SOL    HW224741   6.938   3.474   6.212
 7948SOL     OW24742   2.037   5.625   2.201
 7948SOL    HW124743   2.056   5.555   2.271
 7948SOL    HW224744   1.958   5.598   2.147
 7949SOL     OW24745   2.665   5.672   5.863
 7949SOL    HW124746   2.662   5.572   5.860
 7949SOL    HW224747   2.752   5.704   5.824
 7950SOL     OW24748   6.210   4.581   5.325
 7950SOL    HW124749   6.125   4.529   5.314
 7950SOL    HW224750   6.274   4.556   5.251
 7951SOL     OW24751   4.323   6.617   2.357
 7951SOL    HW124752   4.363   6.627   2.448
 7951SOL    HW224753   4.393   6.584   2.294
 7952SOL     OW24754   6.459   4.054   5.276
 7952SOL    HW124755   6.377   4.097   5.239
 7952SOL    HW224756   6.492   3.984   5.212
 7953SOL     OW24757   1.822   6.735   0.546
 7953SOL    HW124758   1.861   6.643   0.560
 7953SOL    HW224759   1.799   6.747   0.449
 7954SOL     OW24760   3.694   3.956   6.849
 7954SOL    HW124761   3.628   3.905   6.794
 7954SOL    HW224762   3.783   3.911   6.844
 7955SOL     OW24763   1.086   0.956   6.507
 7955SOL    HW124764   1.114   0.931   6.599
 7955SOL    HW224765   1.107   0.881   6.444
 7956SOL     OW24766   0.336   6.562   0.393
 7956SOL    HW124767   0.345   6.544   0.295
 7956SOL    HW224768   0.369   6.655   0.412
 7957SOL     OW24769   5.015   1.925   5.852
 7957SOL    HW124770   5.100   1.910   5.802
 7957SOL    HW224771   5.028   1.898   5.947
 7958SOL     OW24772   4.774   2.672   6.899
 7958SOL    HW124773   4.846   2.740   6.884
 7958SOL    HW224774   4.771   2.648   6.996
 7959SOL     OW24775   5.409   2.308   0.252
 7959SOL    HW124776   5.407   2.333   0.349
 7959SOL    HW224777   5.481   2.359   0.206
 7960SOL     OW24778   0.951   1.325   5.577
 7960SOL    HW124779   0.934   1.339   5.480
 7960SOL    HW224780   1.031   1.378   5.605
 7961SOL     OW24781   6.267   6.424   0.201
 7961SOL    HW124782   6.187   6.378   0.238
 7961SOL    HW224783   6.273   6.516   0.240
 7962SOL     OW24784   6.154   6.987   5.404
 7962SOL    HW124785   6.132   0.040   5.342
 7962SOL    HW224786   6.231   7.013   5.463
 7963SOL     OW24787   6.715   6.175   3.504
 7963SOL    HW124788   6.680   6.269   3.502
 7963SOL    HW224789   6.711   6.139   3.597
 7964SOL     OW24790   6.081   3.989   1.518
 7964SOL    HW124791   6.136   4.020   1.596
 7964SOL    HW224792   5.991   4.032   1.523
 7965SOL     OW24793   4.791   2.381   6.434
 7965SOL    HW124794   4.773   2.474   6.466
 7965SOL    HW224795   4.887   2.358   6.450
 7966SOL     OW24796   5.301   4.040   5.074
 7966SOL    HW124797   5.202   4.027   5.074
 7966SOL    HW224798   5.335   4.039   4.980
 7967SOL     OW24799   1.263   4.832   0.115
 7967SOL    HW124800   1.295   4.921   0.148
 7967SOL    HW224801   1.205   4.790   0.184
 7968SOL     OW24802   1.276   3.290   4.239
 7968SOL    HW124803   1.334   3.233   4.181
 7968SOL    HW224804   1.192   3.241   4.262
 7969SOL     OW24805   3.503   4.973   6.852
 7969SOL    HW124806   3.413   4.941   6.822
 7969SOL    HW224807   3.549   5.019   6.776
 7970SOL     OW24808   6.119   2.959   4.053
 7970SOL    HW124809   6.157   2.947   3.961
 7970SOL    HW224810   6.027   2.920   4.056
 7971SOL     OW24811   2.774   1.296   6.717
 7971SOL    HW124812   2.709   1.220   6.718
 7971SOL    HW224813   2.762   1.352   6.799
 7972SOL     OW24814   3.339   3.674   4.346
 7972SOL    HW124815   3.366   3.689   4.251
 7972SOL    HW224816   3.309   3.579   4.358
 7973SOL     OW24817   5.973   4.653   1.949
 7973SOL    HW124818   6.038   4.671   1.875
 7973SOL    HW224819   5.883   4.686   1.922
 7974SOL     OW24820   0.073   2.630   5.016
 7974SOL    HW124821   0.110   2.615   5.108
 7974SOL    HW224822   6.996   2.619   5.018
 7975SOL     OW24823   5.301   0.239   1.046
 7975SOL    HW124824   5.363   0.162   1.034
 7975SOL    HW224825   5.206   0.208   1.032
 7976SOL     OW24826   0.578   0.683   0.821
 7976SOL    HW124827   0.570   0.763   0.761
 7976SOL    HW224828   0.665   0.636   0.803
 7977SOL     OW24829   5.791   5.667   3.226
 7977SOL    HW124830   5.738   5.597   3.273
 7977SOL    HW224831   5.732   5.746   3.207
 7978SOL     OW24832   0.434   4.483   1.523
 7978SOL    HW124833   0.393   4.525   1.442
 7978SOL    HW224834   0.363   4.436   1.575
 7979SOL     OW24835   2.370   2.181   5.131
 7979SOL    HW124836   2.393   2.107   5.068
 7979SOL    HW224837   2.453   2.227   5.161
 7980SOL     OW24838   3.935   5.678   0.889
 7980SOL    HW124839   3.962   5.774   0.898
 7980SOL    HW224840   3.883   5.650   0.970
 7981SOL     OW24841   1.774   3.684   3.737
 7981SOL    HW124842   1.699   3.621   3.754
 7981SOL    HW224843   1.786   3.744   3.816
 7982SOL     OW24844   6.848   1.022   5.896
 7982SOL    HW124845   6.778   0.953   5.876
 7982SOL    HW224846   6.842   1.049   5.992
 7983SOL     OW24847   4.395   0.769   1.706
 7983SOL    HW124848   4.489   0.797   1.723
 7983SOL    HW224849   4.335   0.806   1.777
 7984SOL     OW24850   0.107   2.679   3.044
 7984SOL    HW124851   0.170   2.714   3.114
 7984SOL    HW224852   0.028   2.741   3.037
 7985SOL     OW24853   3.125   2.733   5.300
 7985SOL    HW124854   3.052   2.791   5.336
 7985SOL    HW224855   3.155   2.767   5.211
 7986SOL     OW24856   4.017   1.216   4.200
 7986SOL    HW124857   3.961   1.141   4.166
 7986SOL    HW224858   3.977   1.252   4.285
 7987SOL     OW24859   0.928   3.266   6.892
 7987SOL    HW124860   0.887   3.193   6.837
 7987SOL    HW224861   0.876   3.350   6.879
 7988SOL     OW24862   7.006   1.003   1.187
 7988SOL    HW124863   6.938   0.994   1.261
 7988SOL    HW224864   0.057   1.064   1.217
 7989SOL     OW24865   0.127   4.174   0.938
 7989SOL    HW124866   0.212   4.207   0.895
 7989SOL    HW224867   0.084   4.248   0.988
 7990SOL     OW24868   4.964   5.526   5.169
 7990SOL    HW124869   4.943   5.588   5.245
 7990SOL    HW224870   4.901   5.543   5.093
 7991SOL     OW24871   5.771   0.735   4.851
 7991SOL    HW124872   5.798   0.777   4.764
 7991SOL    HW224873   5.845   0.678   4.885
 7992SOL     OW24874   2.120   6.873   0.244
 7992SOL    HW124875   2.118   6.871   0.344
 7992SOL    HW224876   2.124   6.780   0.208
 7993SOL     OW24877   6.161   5.988   0.313
 7993SOL    HW124878   6.174   6.010   0.410
 7993SOL    HW224879   6.138   6.071   0.262
 7994SOL     OW24880   6.369   0.332   4.055
 7994SOL    HW124881   6.367   0.431   4.040
 7994SOL    HW224882   6.411   0.287   3.976
 7995SOL     OW24883   0.826   5.378   1.296
 7995SOL    HW124884   0.912   5.370   1.346
 7995SOL    HW224885   0.805   5.290   1.253
 7996SOL     OW24886   2.400   0.225   3.256
 7996SOL    HW124887   2.385   0.128   3.273
 7996SOL    HW224888   2.493   0.240   3.223
 7997SOL     OW24889   1.977   2.134   5.890
 7997SOL    HW124890   1.977   2.064   5.819
 7997SOL    HW224891   2.012   2.220   5.852
 7998SOL     OW24892   2.368   1.345   0.542
 7998SOL    HW124893   2.369   1.312   0.636
 7998SOL    HW224894   2.433   1.420   0.532
 7999SOL     OW24895   0.784   0.059   3.716
 7999SOL    HW124896   0.845   0.113   3.658
 7999SOL    HW224897   0.738   7.012   3.662
 8000SOL     OW24898   4.332   5.628   0.699
 8000SOL    HW124899   4.340   5.713   0.751
 8000SOL    HW224900   4.404   5.625   0.629
 8001SOL     OW24901   4.525   4.673   1.266
 8001SOL    HW124902   4.551   4.582   1.233
 8001SOL    HW224903   4.506   4.668   1.364
 8002SOL     OW24904   0.996   6.757   4.256
 8002SOL    HW124905   1.061   6.776   4.183
 8002SOL    HW224906   1.045   6.735   4.340
 8003SOL     OW24907   3.140   5.295   2.419
 8003SOL    HW124908   3.137   5.268   2.323
 8003SOL    HW224909   3.126   5.393   2.427
 8004SOL     OW24910   1.314   3.513   3.838
 8004SOL    HW124911   1.257   3.595   3.848
 8004SOL    HW224912   1.270   3.437   3.887
 8005SOL     OW24913   1.847   1.008   3.228
 8005SOL    HW124914   1.927   0.951   3.244
 8005SOL    HW224915   1.869   1.103   3.247
 8006SOL     OW24916   4.029   5.123   5.445
 8006SOL    HW124917   3.963   5.049   5.461
 8006SOL    HW224918   4.105   5.114   5.509
 8007SOL     OW24919   6.866   0.400   1.163
 8007SOL    HW124920   6.918   0.366   1.085
 8007SOL    HW224921   6.904   0.487   1.194
 8008SOL     OW24922   4.736   4.778   6.965
 8008SOL    HW124923   4.762   4.700   0.001
 8008SOL    HW224924   4.696   4.744   6.880
 8009SOL     OW24925   6.268   1.222   0.705
 8009SOL    HW124926   6.232   1.263   0.621
 8009SOL    HW224927   6.201   1.157   0.741
 8010SOL     OW24928   2.878   0.180   5.566
 8010SOL    HW124929   2.974   0.181   5.596
 8010SOL    HW224930   2.823   0.129   5.632
 8011SOL     OW24931   3.846   2.144   2.879
 8011SOL    HW124932   3.901   2.164   2.798
 8011SOL    HW224933   3.749   2.144   2.853
 8012SOL     OW24934   6.166   0.939   4.456
 8012SOL    HW124935   6.149   0.966   4.551
 8012SOL    HW224936   6.209   0.848   4.455
 8013SOL     OW24937   3.653   1.030   3.100
 8013SOL    HW124938   3.569   1.072   3.066
 8013SOL    HW224939   3.724   1.100   3.110
 8014SOL     OW24940   2.523   2.427   2.961
 8014SOL    HW124941   2.492   2.339   2.926
 8014SOL    HW224942   2.561   2.481   2.885
 8015SOL     OW24943   3.618   0.509   4.692
 8015SOL    HW124944   3.535   0.494   4.746
 8015SOL    HW224945   3.617   0.450   4.611
 8016SOL     OW24946   3.766   2.583   5.502
 8016SOL    HW124947   3.678   2.542   5.479
 8016SOL    HW224948   3.776   2.670   5.453
 8017SOL     OW24949   6.192   5.955   1.284
 8017SOL    HW124950   6.174   5.874   1.339
 8017SOL    HW224951   6.164   6.037   1.334
 8018SOL     OW24952   3.658   2.923   6.882
 8018SOL    HW124953   3.627   2.909   6.976
 8018SOL    HW224954   3.589   2.975   6.831
 8019SOL     OW24955   2.712   3.239   0.282
 8019SOL    HW124956   2.763   3.158   0.253
 8019SOL    HW224957   2.766   3.321   0.262
 8020SOL     OW24958   0.398   0.383   5.482
 8020SOL    HW124959   0.367   0.432   5.400
 8020SOL    HW224960   0.487   0.340   5.464
 8021SOL     OW24961   0.853   3.135   0.491
 8021SOL    HW124962   0.830   3.041   0.465
 8021SOL    HW224963   0.791   3.167   0.562
 8022SOL     OW24964   4.444   0.132   1.916
 8022SOL    HW124965   4.478   0.092   2.000
 8022SOL    HW224966   4.389   0.213   1.937
 8023SOL     OW24967   4.685   5.986   1.416
 8023SOL    HW124968   4.715   6.056   1.481
 8023SOL    HW224969   4.755   5.973   1.346
 8024SOL     OW24970   2.302   0.949   0.282
 8024SOL    HW124971   2.351   0.888   0.344
 8024SOL    HW224972   2.275   1.032   0.331
 8025SOL     OW24973   1.049   6.083   1.709
 8025SOL    HW124974   1.040   6.133   1.624
 8025SOL    HW224975   1.145   6.079   1.737
 8026SOL     OW24976   0.615   6.096   6.203
 8026SOL    HW124977   0.569   6.108   6.292
 8026SOL    HW224978   0.641   6.185   6.167
 8027SOL     OW24979   3.619   0.032   6.508
 8027SOL    HW124980   3.569   0.044   6.593
 8027SOL    HW224981   3.704   7.005   6.526
 8028SOL     OW24982   4.010   5.532   5.436
 8028SOL    HW124983   3.981   5.560   5.527
 8028SOL    HW224984   3.963   5.448   5.409
 8029SOL     OW24985   0.844   0.342   1.378
 8029SOL    HW124986   0.837   0.410   1.451
 8029SOL    HW224987   0.926   0.286   1.392
 8030SOL     OW24988   0.585   4.619   1.009
 8030SOL    HW124989   0.625   4.673   1.083
 8030SOL    HW224990   0.549   4.534   1.046
 8031SOL     OW24991   6.708   0.116   2.614
 8031SOL    HW124992   6.794   0.067   2.598
 8031SOL    HW224993   6.703   0.196   2.554
 8032SOL     OW24994   0.056   2.497   0.799
 8032SOL    HW124995   0.001   2.542   0.729
 8032SOL    HW224996   0.120   2.563   0.839
 8033SOL     OW24997   4.313   4.127   1.441
 8033SOL    HW124998   4.334   4.225   1.435
 8033SOL    HW224999   4.321   4.096   1.535
 8034SOL     OW25000   0.014   0.130   5.786
 8034SOL    HW125001   0.074   0.141   5.707
 8034SOL    HW225002   0.036   0.043   5.832
 8035SOL     OW25003   6.006   0.467   3.813
 8035SOL    HW125004   6.038   0.561   3.800
 8035SOL    HW225005   6.074   0.404   3.775
 8036SOL     OW25006   4.875   3.071   4.261
 8036SOL    HW125007   4.868   3.161   4.304
 8036SOL    HW225008   4.893   3.082   4.163
 8037SOL     OW25009   2.476   1.066   6.405
 8037SOL    HW125010   2.398   1.052   6.466
 8037SOL    HW225011   2.465   1.011   6.322
 8038SOL     OW25012   6.703   5.620   2.111
 8038SOL    HW125013   6.714   5.552   2.039
 8038SOL    HW225014   6.614   5.664   2.102
 8039SOL     OW25015   1.551   2.915   5.203
 8039SOL    HW125016   1.470   2.962   5.237
 8039SOL    HW225017   1.613   2.895   5.279
 8040SOL     OW25018   0.837   6.096   5.659
 8040SOL    HW125019   0.936   6.086   5.649
 8040SOL    HW225020   0.791   6.017   5.615
 8041SOL     OW25021   3.221   1.578   3.376
 8041SOL    HW125022   3.213   1.556   3.279
 8041SOL    HW225023   3.312   1.616   3.394
 8042SOL     OW25024   3.935   4.259   5.849
 8042SOL    HW125025   4.018   4.224   5.890
 8042SOL    HW225026   3.904   4.340   5.899
 8043SOL     OW25027   5.185   5.365   0.051
 8043SOL    HW125028   5.281   5.388   0.038
 8043SOL    HW225029   5.142   5.435   0.109
 8044SOL     OW25030   2.182   3.059   1.473
 8044SOL    HW125031   2.107   3.098   1.421
 8044SOL    HW225032   2.166   2.961   1.487
 8045SOL     OW25033   6.693   3.405   4.602
 8045SOL    HW125034   6.705   3.305   4.601
 8045SOL    HW225035   6.605   3.427   4.643
 8046SOL     OW25036   6.856   4.783   1.379
 8046SOL    HW125037   6.840   4.882   1.380
 8046SOL    HW225038   6.833   4.745   1.468
 8047SOL     OW25039   2.622   6.086   6.825
 8047SOL    HW125040   2.610   6.172   6.873
 8047SOL    HW225041   2.540   6.031   6.833
 8048SOL     OW25042   3.712   2.169   5.571
 8048SOL    HW125043   3.719   2.102   5.497
 8048SOL    HW225044   3.618   2.205   5.574
 8049SOL     OW25045   1.630   1.764   0.062
 8049SOL    HW125046   1.600   1.740   0.154
 8049SOL    HW225047   1.571   1.719   7.017
 8050SOL     OW25048   0.617   4.879   5.960
 8050SOL    HW125049   0.537   4.937   5.972
 8050SOL    HW225050   0.590   4.783   5.967
 8051SOL     OW25051   4.455   7.013   3.714
 8051SOL    HW125052   4.476   0.082   3.750
 8051SOL    HW225053   4.538   6.972   3.677
 8052SOL     OW25054   3.056   1.749   2.656
 8052SOL    HW125055   3.150   1.748   2.691
 8052SOL    HW225056   2.999   1.806   2.716
 8053SOL     OW25057   1.893   2.394   6.806
 8053SOL    HW125058   1.822   2.448   6.852
 8053SOL    HW225059   1.851   2.335   6.738
 8054SOL     OW25060   4.898   3.401   4.832
 8054SOL    HW125061   4.858   3.468   4.894
 8054SOL    HW225062   4.847   3.399   4.746
 8055SOL     OW25063   6.385   0.408   6.645
 8055SOL    HW125064   6.354   0.441   6.734
 8055SOL    HW225065   6.383   0.483   6.579
 8056SOL     OW25066   2.265   1.301   3.900
 8056SOL    HW125067   2.252   1.359   3.820
 8056SOL    HW225068   2.244   1.206   3.876
 8057SOL     OW25069   3.063   2.129   2.098
 8057SOL    HW125070   3.012   2.214   2.084
 8057SOL    HW225071   3.130   2.117   2.025
 8058SOL     OW25072   3.590   6.268   1.438
 8058SOL    HW125073   3.640   6.182   1.426
 8058SOL    HW225074   3.642   6.342   1.395
 8059SOL     OW25075   2.797   2.708   5.940
 8059SOL    HW125076   2.710   2.696   5.893
 8059SOL    HW225077   2.854   2.773   5.890
 8060SOL     OW25078   6.265   0.994   5.825
 8060SOL    HW125079   6.269   1.021   5.729
 8060SOL    HW225080   6.350   1.021   5.871
 8061SOL     OW25081   6.893   0.513   2.425
 8061SOL    HW125082   6.975   0.565   2.446
 8061SOL    HW225083   6.874   0.448   2.498
 8062SOL     OW25084   4.713   5.189   5.775
 8062SOL    HW125085   4.678   5.095   5.779
 8062SOL    HW225086   4.710   5.221   5.680
 8063SOL     OW25087   2.824   4.983   2.915
 8063SOL    HW125088   2.772   4.907   2.955
 8063SOL    HW225089   2.777   5.016   2.833
 8064SOL     OW25090   6.704   1.681   0.752
 8064SOL    HW125091   6.617   1.714   0.788
 8064SOL    HW225092   6.761   1.649   0.827
 8065SOL     OW25093   4.334   6.389   6.516
 8065SOL    HW125094   4.297   6.328   6.586
 8065SOL    HW225095   4.262   6.451   6.484
 8066SOL     OW25096   0.518   6.792   6.298
 8066SOL    HW125097   0.451   6.856   6.336
 8066SOL    HW225098   0.535   6.719   6.365
 8067SOL     OW25099   5.781   0.888   3.893
 8067SOL    HW125100   5.869   0.924   3.924
 8067SOL    HW225101   5.739   0.953   3.829
 8068SOL     OW25102   6.451   3.044   1.678
 8068SOL    HW125103   6.395   3.066   1.757
 8068SOL    HW225104   6.546   3.030   1.707
 8069SOL     OW25105   1.668   3.492   2.563
 8069SOL    HW125106   1.684   3.396   2.542
 8069SOL    HW225107   1.682   3.547   2.481
 8070SOL     OW25108   4.964   4.511   0.955
 8070SOL    HW125109   4.962   4.611   0.951
 8070SOL    HW225110   5.002   4.475   0.869
 8071SOL     OW25111   2.705   7.002   6.406
 8071SOL    HW125112   2.679   6.939   6.333
 8071SOL    HW225113   2.794   6.975   6.444
 8072SOL     OW25114   2.136   1.991   4.879
 8072SOL    HW125115   2.121   2.055   4.803
 8072SOL    HW225116   2.077   2.016   4.956
 8073SOL     OW25117   4.424   0.199   6.825
 8073SOL    HW125118   4.508   0.227   6.870
 8073SOL    HW225119   4.395   0.110   6.860
 8074SOL     OW25120   6.997   0.451   6.839
 8074SOL    HW125121   6.951   0.510   6.773
 8074SOL    HW225122   0.032   0.384   6.790
 8075SOL     OW25123   0.449   6.698   0.648
 8075SOL    HW125124   0.389   6.766   0.692
 8075SOL    HW225125   0.544   6.729   0.652
 8076SOL     OW25126   0.224   6.030   0.732
 8076SOL    HW125127   0.305   6.032   0.790
 8076SOL    HW225128   0.181   5.940   0.737
 8077SOL     OW25129   5.341   4.727   0.822
 8077SOL    HW125130   5.362   4.771   0.909
 8077SOL    HW225131   5.423   4.682   0.787
 8078SOL     OW25132   6.977   0.610   1.339
 8078SOL    HW125133   0.007   0.692   1.316
 8078SOL    HW225134   0.015   0.542   1.380
 8079SOL     OW25135   0.727   0.995   6.444
 8079SOL    HW125136   0.723   0.901   6.477
 8079SOL    HW225137   0.803   1.005   6.380
 8080SOL     OW25138   1.198   3.398   3.195
 8080SOL    HW125139   1.190   3.409   3.096
 8080SOL    HW225140   1.290   3.425   3.224
 8081SOL     OW25141   6.578   6.821   5.176
 8081SOL    HW125142   6.639   6.846   5.101
 8081SOL    HW225143   6.534   6.733   5.156
 8082SOL     OW25144   3.782   2.137   3.858
 8082SOL    HW125145   3.701   2.182   3.897
 8082SOL    HW225146   3.863   2.164   3.910
 8083SOL     OW25147   6.430   1.819   4.630
 8083SOL    HW125148   6.417   1.776   4.541
 8083SOL    HW225149   6.524   1.801   4.662
 8084SOL     OW25150   3.870   1.510   5.663
 8084SOL    HW125151   3.942   1.466   5.608
 8084SOL    HW225152   3.912   1.580   5.721
 8085SOL     OW25153   1.977   5.973   4.366
 8085SOL    HW125154   1.883   5.986   4.334
 8085SOL    HW225155   1.982   5.994   4.464
 8086SOL     OW25156   6.785   1.598   2.522
 8086SOL    HW125157   6.709   1.574   2.582
 8086SOL    HW225158   6.750   1.644   2.440
 8087SOL     OW25159   6.792   0.908   6.565
 8087SOL    HW125160   6.718   0.929   6.502
 8087SOL    HW225161   6.852   0.987   6.574
 8088SOL     OW25162   6.698   0.037   5.335
 8088SOL    HW125163   6.769   6.989   5.323
 8088SOL    HW225164   6.676   0.077   5.246
 8089SOL     OW25165   6.125   2.068   6.670
 8089SOL    HW125166   6.153   1.973   6.681
 8089SOL    HW225167   6.185   2.127   6.724
 8090SOL     OW25168   4.364   2.416   5.527
 8090SOL    HW125169   4.351   2.442   5.623
 8090SOL    HW225170   4.448   2.363   5.518
 8091SOL     OW25171   1.190   4.063   4.196
 8091SOL    HW125172   1.261   4.049   4.265
 8091SOL    HW225173   1.213   4.142   4.140
 8092SOL     OW25174   4.886   1.070   5.673
 8092SOL    HW125175   4.894   0.973   5.698
 8092SOL    HW225176   4.792   1.100   5.685
 8093SOL     OW25177   3.249   6.074   3.053
 8093SOL    HW125178   3.320   6.130   3.011
 8093SOL    HW225179   3.283   5.982   3.070
 8094SOL     OW25180   1.785   3.890   3.957
 8094SOL    HW125181   1.850   3.961   3.983
 8094SOL    HW225182   1.797   3.810   4.016
 8095SOL     OW25183   1.561   4.862   5.260
 8095SOL    HW125184   1.529   4.928   5.328
 8095SOL    HW225185   1.483   4.825   5.210
 8096SOL     OW25186   0.958   5.237   0.541
 8096SOL    HW125187   0.882   5.186   0.581
 8096SOL    HW225188   1.041   5.217   0.592
 8097SOL     OW25189   4.822   6.334   0.329
 8097SOL    HW125190   4.871   6.247   0.320
 8097SOL    HW225191   4.808   6.373   0.238
 8098SOL     OW25192   2.418   5.550   5.061
 8098SOL    HW125193   2.390   5.454   5.061
 8098SOL    HW225194   2.390   5.593   4.975
 8099SOL     OW25195   1.942   4.034   2.679
 8099SOL    HW125196   2.029   4.047   2.725
 8099SOL    HW225197   1.933   4.101   2.604
 8100SOL     OW25198   6.589   0.200   6.631
 8100SOL    HW125199   6.522   0.260   6.675
 8100SOL    HW225200   6.612   0.125   6.693
 8101SOL     OW25201   2.943   5.447   0.945
 8101SOL    HW125202   2.924   5.388   0.867
 8101SOL    HW225203   2.892   5.532   0.936
 8102SOL     OW25204   0.713   3.866   4.189
 8102SOL    HW125205   0.754   3.792   4.243
 8102SOL    HW225206   0.777   3.894   4.118
 8103SOL     OW25207   3.522   0.883   1.519
 8103SOL    HW125208   3.614   0.843   1.519
 8103SOL    HW225209   3.454   0.811   1.533
 8104SOL     OW25210   2.500   5.218   0.229
 8104SOL    HW125211   2.561   5.162   0.173
 8104SOL    HW225212   2.454   5.286   0.172
 8105SOL     OW25213   6.936   6.763   3.631
 8105SOL    HW125214   6.893   6.853   3.629
 8105SOL    HW225215   6.965   6.737   3.538
 8106SOL     OW25216   2.405   6.708   6.225
 8106SOL    HW125217   2.311   6.690   6.253
 8106SOL    HW225218   2.447   6.623   6.193
 8107SOL     OW25219   1.757   6.211   6.709
 8107SOL    HW125220   1.696   6.218   6.787
 8107SOL    HW225221   1.708   6.175   6.630
 8108SOL     OW25222   1.115   1.172   6.987
 8108SOL    HW125223   1.038   1.154   6.927
 8108SOL    HW225224   1.104   1.262   0.007
 8109SOL     OW25225   6.500   2.765   1.638
 8109SOL    HW125226   6.433   2.750   1.711
 8109SOL    HW225227   6.556   2.844   1.661
 8110SOL     OW25228   3.850   4.906   1.044
 8110SOL    HW125229   3.944   4.911   1.080
 8110SOL    HW225230   3.851   4.925   0.946
 8111SOL     OW25231   6.532   1.230   2.854
 8111SOL    HW125232   6.437   1.201   2.868
 8111SOL    HW225233   6.573   1.174   2.782
 8112SOL     OW25234   1.811   4.567   6.672
 8112SOL    HW125235   1.879   4.581   6.745
 8112SOL    HW225236   1.818   4.473   6.639
 8113SOL     OW25237   5.565   4.267   5.846
 8113SOL    HW125238   5.560   4.360   5.811
 8113SOL    HW225239   5.513   4.261   5.931
 8114SOL     OW25240   1.608   3.578   2.825
 8114SOL    HW125241   1.668   3.511   2.869
 8114SOL    HW225242   1.603   3.559   2.727
 8115SOL     OW25243   2.472   1.433   6.191
 8115SOL    HW125244   2.377   1.412   6.167
 8115SOL    HW225245   2.474   1.504   6.261
 8116SOL     OW25246   3.896   3.078   1.621
 8116SOL    HW125247   3.973   3.130   1.658
 8116SOL    HW225248   3.870   3.007   1.687
 8117SOL     OW25249   2.771   6.529   4.282
 8117SOL    HW125250   2.866   6.528   4.310
 8117SOL    HW225251   2.766   6.533   4.182
 8118SOL     OW25252   6.793   2.844   0.169
 8118SOL    HW125253   6.749   2.768   0.218
 8118SOL    HW225254   6.723   2.895   0.118
 8119SOL     OW25255   5.647   6.596   6.992
 8119SOL    HW125256   5.604   6.528   6.932
 8119SOL    HW225257   5.721   6.553   0.021
 8120SOL     OW25258   1.749   6.746   2.210
 8120SOL    HW125259   1.704   6.679   2.269
 8120SOL    HW225260   1.819   6.700   2.155
 8121SOL     OW25261   1.014   2.915   2.245
 8121SOL    HW125262   1.014   2.853   2.323
 8121SOL    HW225263   0.932   2.897   2.189
 8122SOL     OW25264   0.315   5.244   1.433
 8122SOL    HW125265   0.310   5.287   1.344
 8122SOL    HW225266   0.336   5.313   1.503
 8123SOL     OW25267   6.769   1.879   6.850
 8123SOL    HW125268   6.857   1.894   6.893
 8123SOL    HW225269   6.747   1.781   6.853
 8124SOL     OW25270   5.753   5.567   4.756
 8124SOL    HW125271   5.711   5.490   4.805
 8124SOL    HW225272   5.749   5.648   4.814
 8125SOL     OW25273   1.866   5.667   2.469
 8125SOL    HW125274   1.854   5.702   2.376
 8125SOL    HW225275   1.930   5.590   2.467
 8126SOL     OW25276   3.664   5.662   4.562
 8126SOL    HW125277   3.763   5.674   4.570
 8126SOL    HW225278   3.639   5.567   4.582
 8127SOL     OW25279   3.472   2.132   6.543
 8127SOL    HW125280   3.382   2.174   6.556
 8127SOL    HW225281   3.462   2.047   6.492
 8128SOL     OW25282   3.391   2.723   1.277
 8128SOL    HW125283   3.479   2.729   1.325
 8128SOL    HW225284   3.317   2.745   1.340
 8129SOL     OW25285   1.050   2.241   2.461
 8129SOL    HW125286   1.040   2.199   2.370
 8129SOL    HW225287   1.124   2.196   2.510
 8130SOL     OW25288   0.557   5.671   6.825
 8130SOL    HW125289   0.506   5.709   6.748
 8130SOL    HW225290   0.594   5.746   6.881
 8131SOL     OW25291   1.959   3.068   6.813
 8131SOL    HW125292   2.012   3.131   6.756
 8131SOL    HW225293   1.890   3.119   6.865
 8132SOL     OW25294   0.263   0.866   4.906
 8132SOL    HW125295   0.238   0.919   4.825
 8132SOL    HW225296   0.258   0.769   4.885
 8133SOL     OW25297   3.652   4.839   0.532
 8133SOL    HW125298   3.599   4.818   0.615
 8133SOL    HW225299   3.715   4.765   0.513
 8134SOL     OW25300   5.525   1.854   6.015
 8134SOL    HW125301   5.511   1.798   5.934
 8134SOL    HW225302   5.620   1.884   6.019
 8135SOL     OW25303   2.673   6.667   1.995
 8135SOL    HW125304   2.588   6.616   1.985
 8135SOL    HW225305   2.713   6.647   2.085
 8136SOL     OW25306   5.167   4.229   2.018
 8136SOL    HW125307   5.216   4.156   1.969
 8136SOL    HW225308   5.224   4.312   2.020
 8137SOL     OW25309   4.225   1.843   5.887
 8137SOL    HW125310   4.196   1.895   5.966
 8137SOL    HW225311   4.240   1.904   5.809
 8138SOL     OW25312   5.138   1.064   2.495
 8138SOL    HW125313   5.150   1.076   2.396
 8138SOL    HW225314   5.142   0.966   2.517
 8139SOL     OW25315   0.180   2.348   3.253
 8139SOL    HW125316   0.267   2.300   3.249
 8139SOL    HW225317   0.194   2.438   3.295
 8140SOL     OW25318   4.554   2.066   3.476
 8140SOL    HW125319   4.456   2.082   3.487
 8140SOL    HW225320   4.582   2.094   3.384
 8141SOL     OW25321   5.303   4.517   4.320
 8141SOL    HW125322   5.286   4.597   4.264
 8141SOL    HW225323   5.216   4.472   4.341
 8142SOL     OW25324   0.301   6.292   6.329
 8142SOL    HW125325   0.236   6.219   6.309
 8142SOL    HW225326   0.374   6.257   6.388
 8143SOL     OW25327   6.591   3.007   6.047
 8143SOL    HW125328   6.609   3.091   5.995
 8143SOL    HW225329   6.494   3.004   6.071
 8144SOL     OW25330   5.068   0.267   6.900
 8144SOL    HW125331   5.032   0.183   6.941
 8144SOL    HW225332   5.167   0.257   6.886
 8145SOL     OW25333   5.148   6.126   2.806
 8145SOL    HW125334   5.188   6.094   2.892
 8145SOL    HW225335   5.105   6.215   2.820
 8146SOL     OW25336   3.587   1.162   4.549
 8146SOL    HW125337   3.508   1.135   4.603
 8146SOL    HW225338   3.667   1.109   4.578
 8147SOL     OW25339   4.764   0.722   3.381
 8147SOL    HW125340   4.859   0.748   3.397
 8147SOL    HW225341   4.759   0.625   3.358
 8148SOL     OW25342   5.491   4.402   3.397
 8148SOL    HW125343   5.475   4.306   3.421
 8148SOL    HW225344   5.479   4.459   3.478
 8149SOL     OW25345   3.724   4.953   3.093
 8149SOL    HW125346   3.753   4.877   3.151
 8149SOL    HW225347   3.629   4.940   3.066
 8150SOL     OW25348   0.588   5.231   1.082
 8150SOL    HW125349   0.616   5.313   1.034
 8150SOL    HW225350   0.593   5.152   1.020
 8151SOL     OW25351   0.705   1.639   4.901
 8151SOL    HW125352   0.771   1.704   4.864
 8151SOL    HW225353   0.648   1.604   4.827
 8152SOL     OW25354   1.608   0.511   2.661
 8152SOL    HW125355   1.541   0.502   2.735
 8152SOL    HW225356   1.560   0.521   2.574
 8153SOL     OW25357   1.822   6.645   0.279
 8153SOL    HW125358   1.796   6.734   0.242
 8153SOL    HW225359   1.904   6.611   0.233
 8154SOL     OW25360   2.507   6.855   3.629
 8154SOL    HW125361   2.458   6.798   3.696
 8154SOL    HW225362   2.444   6.882   3.556
 8155SOL     OW25363   3.579   3.552   4.018
 8155SOL    HW125364   3.510   3.609   4.062
 8155SOL    HW225365   3.554   3.538   3.922
 8156SOL     OW25366   6.850   0.425   5.457
 8156SOL    HW125367   6.818   0.490   5.526
 8156SOL    HW225368   6.841   0.332   5.491
 8157SOL     OW25369   6.373   2.573   6.483
 8157SOL    HW125370   6.355   2.579   6.385
 8157SOL    HW225371   6.396   2.478   6.507
 8158SOL     OW25372   2.055   5.453   2.451
 8158SOL    HW125373   2.027   5.405   2.534
 8158SOL    HW225374   2.155   5.455   2.446
 8159SOL     OW25375   0.747   5.007   1.614
 8159SOL    HW125376   0.687   5.070   1.663
 8159SOL    HW225377   0.811   4.964   1.677
 8160SOL     OW25378   4.698   1.985   2.076
 8160SOL    HW125379   4.779   1.984   2.017
 8160SOL    HW225380   4.660   1.892   2.083
 8161SOL     OW25381   4.310   1.913   1.509
 8161SOL    HW125382   4.286   1.874   1.420
 8161SOL    HW225383   4.409   1.927   1.513
 8162SOL     OW25384   6.151   0.559   1.670
 8162SOL    HW125385   6.243   0.526   1.648
 8162SOL    HW225386   6.157   0.644   1.722
 8163SOL     OW25387   1.756   3.365   4.711
 8163SOL    HW125388   1.813   3.324   4.783
 8163SOL    HW225389   1.662   3.332   4.720
 8164SOL     OW25390   4.776   2.455   2.731
 8164SOL    HW125391   4.726   2.515   2.794
 8164SOL    HW225392   4.733   2.456   2.641
 8165SOL     OW25393   2.182   4.782   1.141
 8165SOL    HW125394   2.158   4.823   1.229
 8165SOL    HW225395   2.167   4.684   1.144
 8166SOL     OW25396   3.391   6.691   1.316
 8166SOL    HW125397   3.354   6.783   1.308
 8166SOL    HW225398   3.432   6.664   1.229
 8167SOL     OW25399   5.464   3.446   4.043
 8167SOL    HW125400   5.405   3.486   4.113
 8167SOL    HW225401   5.412   3.440   3.957
 8168SOL     OW25402   3.386   1.929   2.697
 8168SOL    HW125403   3.309   1.992   2.687
 8168SOL    HW225404   3.472   1.980   2.694
 8169SOL     OW25405   5.264   4.202   5.334
 8169SOL    HW125406   5.335   4.189   5.404
 8169SOL    HW225407   5.265   4.124   5.271
 8170SOL     OW25408   1.511   4.983   4.064
 8170SOL    HW125409   1.506   4.912   3.994
 8170SOL    HW225410   1.595   4.973   4.117
 8171SOL     OW25411   1.603   1.407   5.946
 8171SOL    HW125412   1.659   1.484   5.977
 8171SOL    HW225413   1.607   1.333   6.013
 8172SOL     OW25414   0.088   5.980   1.686
 8172SOL    HW125415   0.102   6.060   1.628
 8172SOL    HW225416   0.094   5.897   1.631
 8173SOL     OW25417   5.814   2.488   6.739
 8173SOL    HW125418   5.888   2.424   6.723
 8173SOL    HW225419   5.807   2.508   6.837
 8174SOL     OW25420   5.419   0.042   2.003
 8174SOL    HW125421   5.518   0.035   2.017
 8174SOL    HW225422   5.385   0.123   2.050
 8175SOL     OW25423   1.568   3.034   4.963
 8175SOL    HW125424   1.531   2.973   5.033
 8175SOL    HW225425   1.618   2.980   4.895
 8176SOL     OW25426   4.158   5.244   2.967
 8176SOL    HW125427   4.096   5.166   2.970
 8176SOL    HW225428   4.202   5.249   2.877
 8177SOL     OW25429   0.956   7.005   5.656
 8177SOL    HW125430   0.913   0.031   5.579
 8177SOL    HW225431   1.009   0.048   5.711
 8178SOL     OW25432   2.017   6.815   6.117
 8178SOL    HW125433   2.072   6.757   6.058
 8178SOL    HW225434   2.029   6.911   6.091
 8179SOL     OW25435   3.408   0.446   7.003
 8179SOL    HW125436   3.337   0.491   6.950
 8179SOL    HW225437   3.396   0.465   0.078
 8180SOL     OW25438   4.643   4.936   5.474
 8180SOL    HW125439   4.677   4.977   5.390
 8180SOL    HW225440   4.719   4.902   5.529
 8181SOL     OW25441   2.670   2.228   2.572
 8181SOL    HW125442   2.665   2.316   2.526
 8181SOL    HW225443   2.579   2.188   2.580
 8182SOL     OW25444   5.366   2.571   5.962
 8182SOL    HW125445   5.398   2.485   5.922
 8182SOL    HW225446   5.276   2.593   5.924
 8183SOL     OW25447   2.097   2.688   3.854
 8183SOL    HW125448   2.080   2.748   3.776
 8183SOL    HW225449   2.179   2.718   3.903
 8184SOL     OW25450   5.729   6.187   5.121
 8184SOL    HW125451   5.812   6.208   5.172
 8184SOL    HW225452   5.748   6.191   5.023
 8185SOL     OW25453   1.843   2.188   2.807
 8185SOL    HW125454   1.793   2.137   2.876
 8185SOL    HW225455   1.901   2.125   2.755
 8186SOL     OW25456   4.090   4.214   6.248
 8186SOL    HW125457   3.993   4.192   6.232
 8186SOL    HW225458   4.097   4.305   6.289
 8187SOL     OW25459   2.022   1.064   6.148
 8187SOL    HW125460   2.039   0.968   6.128
 8187SOL    HW225461   1.965   1.104   6.076
 8188SOL     OW25462   5.594   3.114   2.877
 8188SOL    HW125463   5.601   3.138   2.780
 8188SOL    HW225464   5.613   3.017   2.888
 8189SOL     OW25465   6.889   4.997   2.921
 8189SOL    HW125466   6.856   4.950   2.839
 8189SOL    HW225467   6.862   4.945   3.002
 8190SOL     OW25468   5.464   3.480   2.303
 8190SOL    HW125469   5.424   3.403   2.253
 8190SOL    HW225470   5.563   3.479   2.292
 8191SOL     OW25471   0.404   5.088   1.749
 8191SOL    HW125472   0.389   5.017   1.680
 8191SOL    HW225473   0.406   5.046   1.840
 8192SOL     OW25474   1.543   3.310   0.668
 8192SOL    HW125475   1.582   3.401   0.656
 8192SOL    HW225476   1.455   3.306   0.621
 8193SOL     OW25477   3.486   0.249   5.442
 8193SOL    HW125478   3.409   0.312   5.437
 8193SOL    HW225479   3.519   0.242   5.536
 8194SOL     OW25480   1.999   0.109   1.717
 8194SOL    HW125481   2.075   0.071   1.770
 8194SOL    HW225482   1.913   0.094   1.765
 8195SOL     OW25483   5.374   0.983   1.035
 8195SOL    HW125484   5.287   0.942   1.063
 8195SOL    HW225485   5.369   1.082   1.045
 8196SOL     OW25486   1.982   0.425   6.560
 8196SOL    HW125487   2.049   0.438   6.632
 8196SOL    HW225488   1.972   0.510   6.508
 8197SOL     OW25489   0.707   6.789   0.743
 8197SOL    HW125490   0.741   6.880   0.767
 8197SOL    HW225491   0.660   6.749   0.823
 8198SOL     OW25492   3.324   0.477   2.761
 8198SOL    HW125493   3.344   0.552   2.824
 8198SOL    HW225494   3.393   0.475   2.688
 8199SOL     OW25495   5.517   4.761   0.373
 8199SOL    HW125496   5.526   4.859   0.393
 8199SOL    HW225497   5.577   4.709   0.433
 8200SOL     OW25498   4.266   3.421   1.784
 8200SOL    HW125499   4.323   3.341   1.766
 8200SOL    HW225500   4.256   3.434   1.882
 8201SOL     OW25501   6.234   0.698   4.809
 8201SOL    HW125502   6.166   0.727   4.876
 8201SOL    HW225503   6.281   0.779   4.773
 8202SOL     OW25504   1.969   4.097   4.044
 8202SOL    HW125505   1.932   4.184   4.010
 8202SOL    HW225506   1.979   4.101   4.143
 8203SOL     OW25507   5.814   4.229   0.330
 8203SOL    HW125508   5.872   4.189   0.401
 8203SOL    HW225509   5.842   4.323   0.313
 8204SOL     OW25510   3.397   0.481   0.844
 8204SOL    HW125511   3.378   0.568   0.799
 8204SOL    HW225512   3.496   0.469   0.853
 8205SOL     OW25513   5.491   5.800   3.084
 8205SOL    HW125514   5.412   5.856   3.060
 8205SOL    HW225515   5.559   5.804   3.011
 8206SOL     OW25516   4.348   1.657   4.220
 8206SOL    HW125517   4.444   1.684   4.226
 8206SOL    HW225518   4.317   1.663   4.124
 8207SOL     OW25519   3.054   5.720   6.730
 8207SOL    HW125520   3.058   5.816   6.701
 8207SOL    HW225521   3.065   5.715   6.829
 8208SOL     OW25522   1.691   5.733   6.985
 8208SOL    HW125523   1.738   5.779   6.910
 8208SOL    HW225524   1.594   5.759   6.985
 8209SOL     OW25525   1.511   5.766   4.978
 8209SOL    HW125526   1.465   5.847   5.017
 8209SOL    HW225527   1.506   5.771   4.878
 8210SOL     OW25528   2.222   1.970   0.109
 8210SOL    HW125529   2.231   1.944   0.012
 8210SOL    HW225530   2.126   1.967   0.136
 8211SOL     OW25531   3.900   3.871   4.098
 8211SOL    HW125532   3.952   3.910   4.174
 8211SOL    HW225533   3.963   3.843   4.025
 8212SOL     OW25534   4.169   5.584   0.258
 8212SOL    HW125535   4.121   5.517   0.201
 8212SOL    HW225536   4.169   5.673   0.213
 8213SOL     OW25537   4.590   4.286   1.623
 8213SOL    HW125538   4.507   4.248   1.663
 8213SOL    HW225539   4.668   4.269   1.683
 8214SOL     OW25540   3.880   5.689   2.721
 8214SOL    HW125541   3.797   5.732   2.686
 8214SOL    HW225542   3.862   5.594   2.743
 8215SOL     OW25543   2.439   6.251   6.299
 8215SOL    HW125544   2.428   6.155   6.272
 8215SOL    HW225545   2.432   6.259   6.398
 8216SOL     OW25546   5.329   5.870   1.676
 8216SOL    HW125547   5.414   5.824   1.701
 8216SOL    HW225548   5.283   5.902   1.759
 8217SOL     OW25549   3.456   6.670   3.986
 8217SOL    HW125550   3.498   6.646   3.899
 8217SOL    HW225551   3.437   6.769   3.988
 8218SOL     OW25552   2.102   6.256   5.091
 8218SOL    HW125553   2.164   6.179   5.075
 8218SOL    HW225554   2.156   6.339   5.103
 8219SOL     OW25555   3.963   3.048   2.538
 8219SOL    HW125556   4.032   3.117   2.562
 8219SOL    HW225557   3.970   3.027   2.441
 8220SOL     OW25558   3.589   4.141   5.471
 8220SOL    HW125559   3.574   4.046   5.443
 8220SOL    HW225560   3.528   4.201   5.420
 8221SOL     OW25561   6.210   3.814   4.213
 8221SOL    HW125562   6.222   3.718   4.190
 8221SOL    HW225563   6.286   3.867   4.175
 8222SOL     OW25564   6.169   2.382   0.043
 8222SOL    HW125565   6.086   2.326   0.048
 8222SOL    HW225566   6.189   2.403   6.970
 8223SOL     OW25567   2.049   6.127   5.604
 8223SOL    HW125568   1.983   6.064   5.564
 8223SOL    HW225569   2.134   6.123   5.553
 8224SOL     OW25570   5.048   1.424   6.648
 8224SOL    HW125571   4.997   1.418   6.734
 8224SOL    HW225572   5.095   1.338   6.632
 8225SOL     OW25573   5.639   3.099   0.241
 8225SOL    HW125574   5.541   3.097   0.258
 8225SOL    HW225575   5.669   3.012   0.201
 8226SOL     OW25576   3.932   1.013   6.620
 8226SOL    HW125577   3.854   0.951   6.616
 8226SOL    HW225578   3.956   1.029   6.716
 8227SOL     OW25579   4.749   2.640   3.200
 8227SOL    HW125580   4.743   2.731   3.159
 8227SOL    HW225581   4.789   2.647   3.292
 8228SOL     OW25582   3.119   0.084   5.352
 8228SOL    HW125583   3.115   7.007   5.337
 8228SOL    HW225584   3.102   0.131   5.266
 8229SOL     OW25585   4.498   4.561   0.850
 8229SOL    HW125586   4.579   4.548   0.793
 8229SOL    HW225587   4.472   4.474   0.892
 8230SOL     OW25588   6.259   1.164   5.590
 8230SOL    HW125589   6.167   1.167   5.630
 8230SOL    HW225590   6.294   1.257   5.580
 8231SOL     OW25591   2.939   1.252   2.096
 8231SOL    HW125592   2.947   1.349   2.120
 8231SOL    HW225593   3.030   1.210   2.098
 8232SOL     OW25594   3.686   6.368   2.982
 8232SOL    HW125595   3.619   6.318   3.037
 8232SOL    HW225596   3.777   6.357   3.023
 8233SOL     OW25597   1.941   1.186   6.641
 8233SOL    HW125598   2.012   1.224   6.581
 8233SOL    HW225599   1.939   1.236   6.727
 8234SOL     OW25600   0.821   2.827   0.484
 8234SOL    HW125601   0.750   2.757   0.478
 8234SOL    HW225602   0.909   2.788   0.459
 8235SOL     OW25603   0.980   0.861   1.442
 8235SOL    HW125604   1.048   0.924   1.403
 8235SOL    HW225605   0.993   0.770   1.403
 8236SOL     OW25606   0.541   0.219   2.018
 8236SOL    HW125607   0.581   0.291   1.961
 8236SOL    HW225608   0.504   0.147   1.960
 8237SOL     OW25609   3.811   4.872   5.220
 8237SOL    HW125610   3.813   4.914   5.311
 8237SOL    HW225611   3.741   4.800   5.218
 8238SOL     OW25612   0.333   5.559   0.616
 8238SOL    HW125613   0.314   5.461   0.620
 8238SOL    HW225614   0.255   5.610   0.653
 8239SOL     OW25615   3.207   1.742   5.921
 8239SOL    HW125616   3.225   1.823   5.865
 8239SOL    HW225617   3.164   1.671   5.864
 8240SOL     OW25618   3.638   3.235   5.041
 8240SOL    HW125619   3.679   3.261   4.954
 8240SOL    HW225620   3.588   3.314   5.079
 8241SOL     OW25621   1.408   3.542   5.376
 8241SOL    HW125622   1.354   3.466   5.339
 8241SOL    HW225623   1.357   3.586   5.450
 8242SOL     OW25624   0.494   2.655   2.483
 8242SOL    HW125625   0.526   2.726   2.546
 8242SOL    HW225626   0.545   2.570   2.500
 8243SOL     OW25627   1.317   6.626   3.611
 8243SOL    HW125628   1.353   6.709   3.652
 8243SOL    HW225629   1.280   6.567   3.683
 8244SOL     OW25630   6.530   1.037   3.605
 8244SOL    HW125631   6.473   0.997   3.676
 8244SOL    HW225632   6.483   1.029   3.517
 8245SOL     OW25633   5.166   2.945   3.046
 8245SOL    HW125634   5.238   2.991   2.995
 8245SOL    HW225635   5.084   2.940   2.991
 8246SOL     OW25636   1.698   4.528   6.960
 8246SOL    HW125637   1.672   4.480   0.022
 8246SOL    HW225638   1.680   4.468   6.881
 8247SOL     OW25639   2.851   5.073   3.806
 8247SOL    HW125640   2.897   5.151   3.848
 8247SOL    HW225641   2.906   5.039   3.729
 8248SOL     OW25642   7.001   5.179   3.258
 8248SOL    HW125643   0.044   5.242   3.301
 8248SOL    HW225644   6.915   5.227   3.241
 8249SOL     OW25645   3.212   1.379   6.567
 8249SOL    HW125646   3.265   1.325   6.632
 8249SOL    HW225647   3.275   1.425   6.504
 8250SOL     OW25648   1.425   2.048   0.046
 8250SOL    HW125649   1.457   2.109   6.996
 8250SOL    HW225650   1.463   1.956   0.031
 8251SOL     OW25651   0.997   2.203   5.876
 8251SOL    HW125652   1.058   2.260   5.820
 8251SOL    HW225653   1.034   2.110   5.882
 8252SOL     OW25654   0.766   2.030   6.598
 8252SOL    HW125655   0.805   1.939   6.607
 8252SOL    HW225656   0.832   2.090   6.550
 8253SOL     OW25657   5.753   5.063   6.141
 8253SOL    HW125658   5.756   5.071   6.240
 8253SOL    HW225659   5.814   4.989   6.111
 8254SOL     OW25660   6.362   5.827   0.025
 8254SOL    HW125661   6.447   5.863   7.010
 8254SOL    HW225662   6.284   5.876   7.007
 8255SOL     OW25663   1.008   0.344   5.675
 8255SOL    HW125664   1.002   0.288   5.758
 8255SOL    HW225665   1.028   0.285   5.597
 8256SOL     OW25666   1.513   6.121   4.377
 8256SOL    HW125667   1.478   6.183   4.306
 8256SOL    HW225668   1.548   6.175   4.453
 8257SOL     OW25669   4.796   3.983   3.348
 8257SOL    HW125670   4.886   3.975   3.305
 8257SOL    HW225671   4.803   3.958   3.445
 8258SOL     OW25672   0.604   2.790   3.753
 8258SOL    HW125673   0.649   2.848   3.821
 8258SOL    HW225674   0.524   2.746   3.794
 8259SOL     OW25675   5.872   2.034   4.481
 8259SOL    HW125676   5.782   2.060   4.517
 8259SOL    HW225677   5.874   2.050   4.382
 8260SOL     OW25678   5.013   2.699   0.238
 8260SOL    HW125679   5.076   2.764   0.279
 8260SOL    HW225680   5.066   2.625   0.196
 8261SOL     OW25681   6.208   1.388   2.803
 8261SOL    HW125682   6.277   1.385   2.731
 8261SOL    HW225683   6.204   1.299   2.849
 8262SOL     OW25684   5.235   3.592   2.210
 8262SOL    HW125685   5.271   3.667   2.155
 8262SOL    HW225686   5.309   3.528   2.232
 8263SOL     OW25687   6.803   1.889   5.956
 8263SOL    HW125688   6.853   1.808   5.984
 8263SOL    HW225689   6.867   1.957   5.919
 8264SOL     OW25690   2.889   1.119   1.859
 8264SOL    HW125691   2.843   1.177   1.792
 8264SOL    HW225692   2.882   1.161   1.950
 8265SOL     OW25693   4.510   5.293   0.648
 8265SOL    HW125694   4.545   5.267   0.558
 8265SOL    HW225695   4.580   5.342   0.699
 8266SOL     OW25696   3.449   1.468   3.641
 8266SOL    HW125697   3.508   1.387   3.644
 8266SOL    HW225698   3.482   1.531   3.571
 8267SOL     OW25699   1.689   2.532   3.528
 8267SOL    HW125700   1.625   2.584   3.473
 8267SOL    HW225701   1.750   2.480   3.469
 8268SOL     OW25702   3.466   4.445   6.948
 8268SOL    HW125703   3.488   4.536   6.913
 8268SOL    HW225704   3.396   4.453   7.019
 8269SOL     OW25705   6.292   1.830   5.174
 8269SOL    HW125706   6.264   1.768   5.101
 8269SOL    HW225707   6.388   1.816   5.195
 8270SOL     OW25708   4.139   4.933   0.505
 8270SOL    HW125709   4.045   4.956   0.478
 8270SOL    HW225710   4.170   4.854   0.452
 8271SOL     OW25711   3.179   6.541   5.863
 8271SOL    HW125712   3.207   6.582   5.776
 8271SOL    HW225713   3.188   6.609   5.936
 8272SOL     OW25714   0.292   0.346   2.178
 8272SOL    HW125715   0.356   0.415   2.144
 8272SOL    HW225716   0.309   0.259   2.133
 8273SOL     OW25717   3.546   0.103   6.247
 8273SOL    HW125718   3.466   0.060   6.206
 8273SOL    HW225719   3.543   0.092   6.346
 8274SOL     OW25720   5.310   6.240   5.407
 8274SOL    HW125721   5.235   6.275   5.350
 8274SOL    HW225722   5.296   6.142   5.423
 8275SOL     OW25723   4.852   1.045   5.076
 8275SOL    HW125724   4.893   0.965   5.033
 8275SOL    HW225725   4.902   1.067   5.160
 8276SOL     OW25726   5.859   2.616   6.984
 8276SOL    HW125727   5.906   2.666   6.912
 8276SOL    HW225728   5.911   2.623   0.047
 8277SOL     OW25729   1.262   6.353   1.276
 8277SOL    HW125730   1.271   6.289   1.199
 8277SOL    HW225731   1.273   6.447   1.243
 8278SOL     OW25732   1.866   0.014   1.246
 8278SOL    HW125733   1.806   0.083   1.204
 8278SOL    HW225734   1.919   6.991   1.175
 8279SOL     OW25735   4.890   5.746   5.827
 8279SOL    HW125736   4.843   5.724   5.913
 8279SOL    HW225737   4.989   5.748   5.843
 8280SOL     OW25738   5.172   4.382   6.667
 8280SOL    HW125739   5.260   4.341   6.688
 8280SOL    HW225740   5.100   4.339   6.720
 8281SOL     OW25741   2.708   5.670   6.191
 8281SOL    HW125742   2.649   5.685   6.112
 8281SOL    HW225743   2.802   5.659   6.160
 8282SOL     OW25744   3.607   2.676   1.421
 8282SOL    HW125745   3.689   2.679   1.479
 8282SOL    HW225746   3.572   2.583   1.418
 8283SOL     OW25747   0.468   0.228   3.183
 8283SOL    HW125748   0.509   0.140   3.157
 8283SOL    HW225749   0.509   0.261   3.268
 8284SOL     OW25750   5.221   1.840   2.084
 8284SOL    HW125751   5.290   1.908   2.112
 8284SOL    HW225752   5.133   1.864   2.124
 8285SOL     OW25753   0.754   4.392   0.299
 8285SOL    HW125754   0.792   4.307   0.264
 8285SOL    HW225755   0.684   4.372   0.368
 8286SOL     OW25756   6.463   2.230   6.990
 8286SOL    HW125757   6.471   2.147   6.934
 8286SOL    HW225758   6.443   2.204   0.062
 8287SOL     OW25759   1.585   1.339   3.228
 8287SOL    HW125760   1.544   1.250   3.208
 8287SOL    HW225761   1.567   1.364   3.323
 8288SOL     OW25762   2.035   0.502   2.207
 8288SOL    HW125763   1.962   0.567   2.228
 8288SOL    HW225764   2.121   0.551   2.195
 8289SOL     OW25765   5.663   0.029   6.877
 8289SOL    HW125766   5.721   0.021   6.958
 8289SOL    HW225767   5.712   0.080   6.806
 8290SOL     OW25768   4.692   2.655   2.287
 8290SOL    HW125769   4.728   2.749   2.285
 8290SOL    HW225770   4.659   2.631   2.196
 8291SOL     OW25771   4.896   5.962   6.404
 8291SOL    HW125772   4.904   5.941   6.502
 8291SOL    HW225773   4.956   5.901   6.353
 8292SOL     OW25774   0.213   2.710   5.554
 8292SOL    HW125775   0.182   2.800   5.584
 8292SOL    HW225776   0.203   2.645   5.630
 8293SOL     OW25777   2.929   5.382   4.094
 8293SOL    HW125778   2.830   5.396   4.090
 8293SOL    HW225779   2.952   5.329   4.176
 8294SOL     OW25780   6.100   3.805   5.706
 8294SOL    HW125781   6.036   3.859   5.760
 8294SOL    HW225782   6.065   3.796   5.612
 8295SOL     OW25783   4.564   4.973   2.604
 8295SOL    HW125784   4.613   4.899   2.557
 8295SOL    HW225785   4.600   4.982   2.697
 8296SOL     OW25786   4.190   0.455   2.433
 8296SOL    HW125787   4.287   0.480   2.431
 8296SOL    HW225788   4.138   0.528   2.478
 8297SOL     OW25789   5.653   4.255   1.746
 8297SOL    HW125790   5.652   4.226   1.650
 8297SOL    HW225791   5.676   4.352   1.751
 8298SOL     OW25792   6.501   6.486   0.682
 8298SOL    HW125793   6.490   6.499   0.781
 8298SOL    HW225794   6.590   6.444   0.664
 8299SOL     OW25795   1.359   3.200   6.837
 8299SOL    HW125796   1.363   3.297   6.815
 8299SOL    HW225797   1.266   3.176   6.866
 8300SOL     OW25798   5.971   5.079   4.530
 8300SOL    HW125799   5.972   4.979   4.538
 8300SOL    HW225800   5.908   5.105   4.457
 8301SOL     OW25801   6.714   5.797   0.309
 8301SOL    HW125802   6.763   5.732   0.252
 8301SOL    HW225803   6.619   5.767   0.322
 8302SOL     OW25804   4.147   6.579   5.554
 8302SOL    HW125805   4.237   6.535   5.553
 8302SOL    HW225806   4.159   6.677   5.572
 8303SOL     OW25807   1.241   4.678   4.293
 8303SOL    HW125808   1.218   4.705   4.199
 8303SOL    HW225809   1.211   4.584   4.308
 8304SOL     OW25810   6.238   2.860   3.816
 8304SOL    HW125811   6.222   2.909   3.730
 8304SOL    HW225812   6.237   2.762   3.799
 8305SOL     OW25813   4.295   0.421   5.886
 8305SOL    HW125814   4.352   0.498   5.858
 8305SOL    HW225815   4.288   0.355   5.812
 8306SOL     OW25816   5.999   0.534   4.090
 8306SOL    HW125817   5.904   0.522   4.118
 8306SOL    HW225818   6.010   0.504   3.995
 8307SOL     OW25819   1.306   4.011   3.392
 8307SOL    HW125820   1.320   3.979   3.485
 8307SOL    HW225821   1.290   3.932   3.332
 8308SOL     OW25822   1.202   5.307   0.201
 8308SOL    HW125823   1.107   5.329   0.181
 8308SOL    HW225824   1.252   5.289   0.116
 8309SOL     OW25825   6.543   5.387   3.225
 8309SOL    HW125826   6.507   5.309   3.277
 8309SOL    HW225827   6.541   5.469   3.283
 8310SOL     OW25828   2.681   6.496   2.663
 8310SOL    HW125829   2.694   6.572   2.727
 8310SOL    HW225830   2.686   6.409   2.712
 8311SOL     OW25831   4.560   6.271   2.194
 8311SOL    HW125832   4.593   6.178   2.208
 8311SOL    HW225833   4.461   6.274   2.205
 8312SOL     OW25834   6.413   1.556   0.951
 8312SOL    HW125835   6.319   1.532   0.926
 8312SOL    HW225836   6.454   1.480   1.001
 8313SOL     OW25837   5.590   2.736   6.335
 8313SOL    HW125838   5.590   2.675   6.414
 8313SOL    HW225839   5.498   2.743   6.297
 8314SOL     OW25840   4.370   5.906   3.963
 8314SOL    HW125841   4.349   5.883   3.868
 8314SOL    HW225842   4.469   5.907   3.976
 8315SOL     OW25843   3.371   2.848   6.301
 8315SOL    HW125844   3.445   2.837   6.235
 8315SOL    HW225845   3.284   2.854   6.253
 8316SOL     OW25846   1.446   1.817   5.484
 8316SOL    HW125847   1.411   1.864   5.403
 8316SOL    HW225848   1.383   1.831   5.561
 8317SOL     OW25849   1.030   2.149   4.309
 8317SOL    HW125850   1.035   2.201   4.394
 8317SOL    HW225851   1.107   2.086   4.303
 8318SOL     OW25852   4.203   0.042   5.821
 8318SOL    HW125853   4.295   0.044   5.859
 8318SOL    HW225854   4.144   0.104   5.872
 8319SOL     OW25855   2.184   5.714   6.900
 8319SOL    HW125856   2.092   5.690   6.930
 8319SOL    HW225857   2.179   5.784   6.828
 8320SOL     OW25858   3.992   4.010   5.247
 8320SOL    HW125859   3.914   4.062   5.283
 8320SOL    HW225860   4.010   3.932   5.307
 8321SOL     OW25861   0.286   0.207   0.918
 8321SOL    HW125862   0.323   0.117   0.942
 8321SOL    HW225863   0.357   0.276   0.929
 8322SOL     OW25864   1.219   0.375   0.709
 8322SOL    HW125865   1.147   0.445   0.716
 8322SOL    HW225866   1.272   0.390   0.626
 8323SOL     OW25867   5.341   4.604   6.650
 8323SOL    HW125868   5.296   4.516   6.643
 8323SOL    HW225869   5.287   4.665   6.708
 8324SOL     OW25870   5.371   6.700   6.636
 8324SOL    HW125871   5.404   6.770   6.699
 8324SOL    HW225872   5.406   6.610   6.664
 8325SOL     OW25873   1.532   6.184   4.868
 8325SOL    HW125874   1.563   6.249   4.938
 8325SOL    HW225875   1.439   6.154   4.889
 8326SOL     OW25876   2.165   2.688   0.101
 8326SOL    HW125877   2.101   2.736   0.040
 8326SOL    HW225878   2.117   2.658   0.183
 8327SOL     OW25879   0.775   6.302   5.152
 8327SOL    HW125880   0.712   6.253   5.212
 8327SOL    HW225881   0.868   6.272   5.170
 8328SOL     OW25882   1.237   6.198   1.036
 8328SOL    HW125883   1.188   6.249   0.966
 8328SOL    HW225884   1.281   6.118   0.994
 8329SOL     OW25885   1.453   2.441   5.452
 8329SOL    HW125886   1.399   2.515   5.412
 8329SOL    HW225887   1.549   2.453   5.427
 8330SOL     OW25888   2.672   6.832   0.504
 8330SOL    HW125889   2.689   6.928   0.524
 8330SOL    HW225890   2.745   6.797   0.445
 8331SOL     OW25891   2.426   2.437   6.012
 8331SOL    HW125892   2.497   2.482   6.066
 8331SOL    HW225893   2.452   2.341   5.997
 8332SOL     OW25894   5.848   4.108   1.441
 8332SOL    HW125895   5.896   4.191   1.412
 8332SOL    HW225896   5.750   4.125   1.443
 8333SOL     OW25897   2.490   3.961   6.665
 8333SOL    HW125898   2.449   3.879   6.704
 8333SOL    HW225899   2.419   4.020   6.627
 8334SOL     OW25900   3.475   2.257   5.274
 8334SOL    HW125901   3.405   2.280   5.206
 8334SOL    HW225902   3.543   2.197   5.232
 8335SOL     OW25903   5.232   4.482   5.765
 8335SOL    HW125904   5.165   4.455   5.697
 8335SOL    HW225905   5.192   4.474   5.857
 8336SOL     OW25906   1.354   3.231   3.563
 8336SOL    HW125907   1.396   3.312   3.522
 8336SOL    HW225908   1.418   3.189   3.628
 8337SOL     OW25909   6.813   1.037   4.549
 8337SOL    HW125910   6.785   0.985   4.630
 8337SOL    HW225911   6.738   1.041   4.484
 8338SOL     OW25912   2.732   5.680   0.894
 8338SOL    HW125913   2.731   5.622   0.812
 8338SOL    HW225914   2.640   5.716   0.909
 8339SOL     OW25915   6.105   0.271   1.769
 8339SOL    HW125916   6.179   0.212   1.801
 8339SOL    HW225917   6.142   0.359   1.740
 8340SOL     OW25918   6.038   2.350   6.695
 8340SOL    HW125919   6.022   2.363   6.597
 8340SOL    HW225920   6.126   2.305   6.709
 8341SOL     OW25921   3.929   0.848   0.927
 8341SOL    HW125922   3.931   0.758   0.969
 8341SOL    HW225923   3.950   0.918   0.996
 8342SOL     OW25924   3.677   0.618   0.256
 8342SOL    HW125925   3.578   0.619   0.273
 8342SOL    HW225926   3.697   0.556   0.180
 8343SOL     OW25927   5.842   5.072   3.023
 8343SOL    HW125928   5.808   4.978   3.026
 8343SOL    HW225929   5.917   5.083   3.088
 8344SOL     OW25930   2.454   4.994   5.563
 8344SOL    HW125931   2.512   4.962   5.637
 8344SOL    HW225932   2.448   4.924   5.492
 8345SOL     OW25933   5.737   0.469   4.126
 8345SOL    HW125934   5.714   0.472   4.223
 8345SOL    HW225935   5.699   0.387   4.085
 8346SOL     OW25936   5.588   4.043   4.122
 8346SOL    HW125937   5.589   4.044   4.222
 8346SOL    HW225938   5.545   4.127   4.088
 8347SOL     OW25939   1.316   1.346   5.999
 8347SOL    HW125940   1.413   1.337   5.976
 8347SOL    HW225941   1.287   1.270   6.056
 8348SOL     OW25942   2.956   5.648   2.013
 8348SOL    HW125943   3.045   5.690   2.024
 8348SOL    HW225944   2.909   5.644   2.101
 8349SOL     OW25945   4.871   6.192   1.554
 8349SOL    HW125946   4.790   6.242   1.584
 8349SOL    HW225947   4.953   6.248   1.570
 8350SOL     OW25948   1.183   6.948   0.367
 8350SOL    HW125949   1.146   6.924   0.277
 8350SOL    HW225950   1.208   0.023   0.368
 8351SOL     OW25951   0.179   2.659   2.791
 8351SOL    HW125952   0.148   2.654   2.886
 8351SOL    HW225953   0.259   2.600   2.778
 8352SOL     OW25954   2.672   6.706   6.948
 8352SOL    HW125955   2.740   6.634   6.935
 8352SOL    HW225956   2.580   6.668   6.938
 8353SOL     OW25957   0.597   6.345   2.072
 8353SOL    HW125958   0.676   6.298   2.111
 8353SOL    HW225959   0.618   6.442   2.060
 8354SOL     OW25960   4.255   1.427   3.186
 8354SOL    HW125961   4.329   1.477   3.141
 8354SOL    HW225962   4.291   1.342   3.225
 8355SOL     OW25963   3.158   5.089   5.925
 8355SOL    HW125964   3.176   5.153   5.999
 8355SOL    HW225965   3.068   5.108   5.886
 8356SOL     OW25966   3.051   4.312   1.181
 8356SOL    HW125967   2.983   4.254   1.226
 8356SOL    HW225968   3.100   4.365   1.250
 8357SOL     OW25969   4.083   0.008   4.704
 8357SOL    HW125970   4.165   0.063   4.688
 8357SOL    HW225971   4.110   6.934   4.717
 8358SOL     OW25972   0.590   0.763   5.147
 8358SOL    HW125973   0.535   0.828   5.199
 8358SOL    HW225974   0.605   0.799   5.055
 8359SOL     OW25975   4.235   2.589   5.754
 8359SOL    HW125976   4.221   2.491   5.769
 8359SOL    HW225977   4.271   2.631   5.837
 8360SOL     OW25978   4.019   7.020   1.353
 8360SOL    HW125979   4.053   6.978   1.437
 8360SOL    HW225980   4.080   6.998   1.278
 8361SOL     OW25981   4.480   1.659   0.095
 8361SOL    HW125982   4.413   1.586   0.097
 8361SOL    HW225983   4.465   1.716   0.014
 8362SOL     OW25984   6.971   3.415   1.189
 8362SOL    HW125985   6.934   3.329   1.154
 8362SOL    HW225986   6.912   3.491   1.162
 8363SOL     OW25987   1.475   2.628   1.466
 8363SOL    HW125988   1.386   2.593   1.436
 8363SOL    HW225989   1.536   2.639   1.388
 8364SOL     OW25990   0.492   2.390   4.059
 8364SOL    HW125991   0.516   2.437   3.975
 8364SOL    HW225992   0.407   2.428   4.096
 8365SOL     OW25993   1.323   2.167   1.384
 8365SOL    HW125994   1.261   2.193   1.310
 8365SOL    HW225995   1.397   2.111   1.347
 8366SOL     OW25996   5.326   5.587   2.110
 8366SOL    HW125997   5.402   5.615   2.051
 8366SOL    HW225998   5.346   5.612   2.204
 8367SOL     OW25999   1.991   4.634   3.758
 8367SOL    HW126000   2.015   4.559   3.696
 8367SOL    HW226001   1.911   4.683   3.722
 8368SOL     OW26002   6.130   5.155   5.712
 8368SOL    HW126003   6.141   5.251   5.735
 8368SOL    HW226004   6.130   5.100   5.796
 8369SOL     OW26005   1.655   6.901   6.936
 8369SOL    HW126006   1.739   6.931   6.982
 8369SOL    HW226007   1.673   6.815   6.888
 8370SOL     OW26008   2.960   2.879   0.740
 8370SOL    HW126009   2.899   2.906   0.666
 8370SOL    HW226010   2.945   2.939   0.819
 8371SOL     OW26011   2.901   3.937   6.850
 8371SOL    HW126012   2.979   3.876   6.839
 8371SOL    HW226013   2.866   3.962   6.760
 8372SOL     OW26014   1.449   6.245   1.472
 8372SOL    HW126015   1.477   6.328   1.520
 8372SOL    HW226016   1.374   6.266   1.410
 8373SOL     OW26017   6.863   0.943   3.903
 8373SOL    HW126018   6.870   1.003   3.983
 8373SOL    HW226019   6.812   0.991   3.831
 8374SOL     OW26020   0.897   1.298   3.917
 8374SOL    HW126021   0.893   1.275   3.820
 8374SOL    HW226022   0.814   1.348   3.943
 8375SOL     OW26023   1.522   2.461   5.044
 8375SOL    HW126024   1.531   2.363   5.059
 8375SOL    HW226025   1.426   2.486   5.041
 8376SOL     OW26026   1.406   1.906   3.772
 8376SOL    HW126027   1.480   1.852   3.813
 8376SOL    HW226028   1.341   1.933   3.844
 8377SOL     OW26029   3.932   5.623   7.004
 8377SOL    HW126030   3.897   5.712   0.013
 8377SOL    HW226031   3.931   5.621   6.904
 8378SOL     OW26032   4.291   5.734   4.663
 8378SOL    HW126033   4.364   5.665   4.660
 8378SOL    HW226034   4.326   5.821   4.629
 8379SOL     OW26035   5.978   2.154   1.753
 8379SOL    HW126036   6.015   2.227   1.695
 8379SOL    HW226037   6.035   2.073   1.745
 8380SOL     OW26038   0.763   6.186   1.406
 8380SOL    HW126039   0.784   6.094   1.439
 8380SOL    HW226040   0.799   6.197   1.314
 8381SOL     OW26041   1.119   1.672   2.504
 8381SOL    HW126042   1.150   1.752   2.452
 8381SOL    HW226043   1.038   1.698   2.558
 8382SOL     OW26044   0.857   0.219   1.762
 8382SOL    HW126045   0.835   0.141   1.704
 8382SOL    HW226046   0.862   0.302   1.707
 8383SOL     OW26047   3.008   6.870   6.191
 8383SOL    HW126048   2.997   6.775   6.218
 8383SOL    HW226049   3.075   6.877   6.117
 8384SOL     OW26050   0.479   3.780   2.569
 8384SOL    HW126051   0.534   3.825   2.498
 8384SOL    HW226052   0.439   3.850   2.629
 8385SOL     OW26053   4.258   2.186   2.151
 8385SOL    HW126054   4.354   2.212   2.137
 8385SOL    HW226055   4.203   2.215   2.073
 8386SOL     OW26056   2.210   5.650   1.944
 8386SOL    HW126057   2.155   5.684   2.020
 8386SOL    HW226058   2.168   5.567   1.907
 8387SOL     OW26059   1.092   1.580   3.710
 8387SOL    HW126060   1.096   1.624   3.800
 8387SOL    HW226061   0.997   1.556   3.689
 8388SOL     OW26062   3.855   5.404   1.305
 8388SOL    HW126063   3.843   5.377   1.400
 8388SOL    HW226064   3.953   5.402   1.281
 8389SOL     OW26065   0.632   3.113   4.031
 8389SOL    HW126066   0.551   3.143   3.981
 8389SOL    HW226067   0.697   3.188   4.037
 8390SOL     OW26068   2.820   0.312   6.415
 8390SOL    HW126069   2.811   0.348   6.508
 8390SOL    HW226070   2.810   0.213   6.417
 8391SOL     OW26071   5.311   6.125   0.646
 8391SOL    HW126072   5.249   6.123   0.567
 8391SOL    HW226073   5.280   6.059   0.715
 8392SOL     OW26074   4.755   6.125   0.062
 8392SOL    HW126075   4.728   6.103   6.991
 8392SOL    HW226076   4.815   6.205   0.061
 8393SOL     OW26077   0.572   4.826   2.611
 8393SOL    HW126078   0.513   4.766   2.664
 8393SOL    HW226079   0.635   4.873   2.674
 8394SOL     OW26080   1.257   1.518   2.829
 8394SOL    HW126081   1.212   1.471   2.754
 8394SOL    HW226082   1.222   1.612   2.835
 8395SOL     OW26083   1.085   6.377   5.609
 8395SOL    HW126084   1.010   6.396   5.545
 8395SOL    HW226085   1.050   6.381   5.702
 8396SOL     OW26086   4.357   2.358   1.807
 8396SOL    HW126087   4.403   2.405   1.732
 8396SOL    HW226088   4.277   2.311   1.773
 8397SOL     OW26089   2.097   5.525   3.992
 8397SOL    HW126090   2.126   5.478   4.075
 8397SOL    HW226091   2.004   5.559   4.003
 8398SOL     OW26092   5.906   1.488   0.370
 8398SOL    HW126093   5.902   1.522   0.276
 8398SOL    HW226094   5.927   1.563   0.432
 8399SOL     OW26095   5.474   5.738   6.654
 8399SOL    HW126096   5.481   5.799   6.575
 8399SOL    HW226097   5.471   5.793   6.738
 8400SOL     OW26098   6.364   6.733   4.056
 8400SOL    HW126099   6.451   6.749   4.103
 8400SOL    HW226100   6.298   6.694   4.120
 8401SOL     OW26101   2.929   3.979   5.606
 8401SOL    HW126102   2.882   4.040   5.671
 8401SOL    HW226103   2.935   3.887   5.646
 8402SOL     OW26104   4.439   0.611   5.757
 8402SOL    HW126105   4.494   0.559   5.691
 8402SOL    HW226106   4.438   0.707   5.730
 8403SOL     OW26107   0.932   2.682   5.077
 8403SOL    HW126108   0.839   2.685   5.113
 8403SOL    HW226109   0.968   2.589   5.084
 8404SOL     OW26110   4.414   5.008   5.097
 8404SOL    HW126111   4.356   5.086   5.116
 8404SOL    HW226112   4.358   4.925   5.090
 8405SOL     OW26113   1.596   2.743   5.007
 8405SOL    HW126114   1.589   2.644   5.011
 8405SOL    HW226115   1.559   2.782   5.092
 8406SOL     OW26116   5.584   3.173   1.557
 8406SOL    HW126117   5.673   3.132   1.579
 8406SOL    HW226118   5.570   3.172   1.458
 8407SOL     OW26119   4.967   3.783   3.021
 8407SOL    HW126120   4.898   3.835   2.970
 8407SOL    HW226121   5.038   3.846   3.053
 8408SOL     OW26122   4.611   4.573   4.206
 8408SOL    HW126123   4.601   4.585   4.107
 8408SOL    HW226124   4.705   4.545   4.227
 8409SOL     OW26125   0.593   1.992   3.769
 8409SOL    HW126126   0.637   1.902   3.769
 8409SOL    HW226127   0.548   2.007   3.681
 8410SOL     OW26128   2.420   6.266   2.423
 8410SOL    HW126129   2.440   6.363   2.411
 8410SOL    HW226130   2.457   6.215   2.345
 8411SOL     OW26131   2.064   3.246   3.179
 8411SOL    HW126132   2.059   3.279   3.274
 8411SOL    HW226133   1.977   3.204   3.154
 8412SOL     OW26134   5.981   2.503   2.879
 8412SOL    HW126135   6.043   2.425   2.869
 8412SOL    HW226136   5.888   2.470   2.893
 8413SOL     OW26137   2.519   4.639   1.543
 8413SOL    HW126138   2.504   4.730   1.581
 8413SOL    HW226139   2.445   4.616   1.480
 8414SOL     OW26140   5.751   6.875   3.378
 8414SOL    HW126141   5.748   6.844   3.283
 8414SOL    HW226142   5.843   6.908   3.399
 8415SOL     OW26143   6.592   4.046   2.009
 8415SOL    HW126144   6.524   4.112   1.977
 8415SOL    HW226145   6.668   4.042   1.945
 8416SOL     OW26146   4.782   4.395   2.298
 8416SOL    HW126147   4.846   4.341   2.244
 8416SOL    HW226148   4.691   4.391   2.257
 8417SOL     OW26149   2.318   6.062   6.497
 8417SOL    HW126150   2.388   6.110   6.550
 8417SOL    HW226151   2.361   6.018   6.418
 8418SOL     OW26152   6.254   5.477   2.562
 8418SOL    HW126153   6.218   5.414   2.493
 8418SOL    HW226154   6.352   5.491   2.546
 8419SOL     OW26155   5.045   0.186   4.130
 8419SOL    HW126156   5.024   0.265   4.073
 8419SOL    HW226157   5.129   0.142   4.097
 8420SOL     OW26158   3.971   2.241   5.572
 8420SOL    HW126159   3.877   2.207   5.571
 8420SOL    HW226160   4.011   2.224   5.662
 8421SOL     OW26161   0.056   0.407   0.926
 8421SOL    HW126162   0.129   0.340   0.910
 8421SOL    HW226163   0.083   0.467   1.001
 8422SOL     OW26164   4.312   0.124   1.629
 8422SOL    HW126165   4.343   0.113   1.723
 8422SOL    HW226166   4.382   0.173   1.576
 8423SOL     OW26167   1.935   3.565   1.642
 8423SOL    HW126168   1.842   3.581   1.676
 8423SOL    HW226169   1.948   3.615   1.557
 8424SOL     OW26170   2.602   2.276   1.969
 8424SOL    HW126171   2.695   2.297   1.998
 8424SOL    HW226172   2.554   2.361   1.946
 8425SOL     OW26173   6.191   4.533   6.676
 8425SOL    HW126174   6.270   4.555   6.619
 8425SOL    HW226175   6.221   4.518   6.770
 8426SOL     OW26176   3.761   3.593   2.717
 8426SOL    HW126177   3.718   3.525   2.658
 8426SOL    HW226178   3.692   3.657   2.750
 8427SOL     OW26179   2.255   2.539   6.911
 8427SOL    HW126180   2.223   2.445   6.919
 8427SOL    HW226181   2.228   2.591   6.992
 8428SOL     OW26182   6.289   4.153   1.326
 8428SOL    HW126183   6.220   4.080   1.333
 8428SOL    HW226184   6.353   4.131   1.252
 8429SOL     OW26185   1.990   6.908   3.431
 8429SOL    HW126186   1.991   6.994   3.481
 8429SOL    HW226187   1.896   6.888   3.401
 8430SOL     OW26188   5.124   4.242   3.011
 8430SOL    HW126189   5.210   4.268   3.054
 8430SOL    HW226190   5.140   4.166   2.949
 8431SOL     OW26191   2.817   3.491   1.807
 8431SOL    HW126192   2.876   3.447   1.739
 8431SOL    HW226193   2.722   3.483   1.777
 8432SOL     OW26194   4.838   6.422   0.052
 8432SOL    HW126195   4.889   6.509   0.049
 8432SOL    HW226196   4.740   6.440   0.046
 8433SOL     OW26197   0.589   1.995   4.057
 8433SOL    HW126198   0.599   1.896   4.057
 8433SOL    HW226199   0.572   2.027   3.964
 8434SOL     OW26200   5.525   5.971   6.162
 8434SOL    HW126201   5.620   5.985   6.136
 8434SOL    HW226202   5.486   5.895   6.110
 8435SOL     OW26203   4.866   2.299   1.992
 8435SOL    HW126204   4.897   2.331   2.081
 8435SOL    HW226205   4.768   2.318   1.981
 8436SOL     OW26206   3.017   4.351   1.719
 8436SOL    HW126207   2.995   4.253   1.723
 8436SOL    HW226208   2.952   4.401   1.777
 8437SOL     OW26209   6.915   1.618   0.971
 8437SOL    HW126210   6.970   1.576   0.899
 8437SOL    HW226211   6.911   1.717   0.956
 8438SOL     OW26212   2.454   5.585   1.099
 8438SOL    HW126213   2.365   5.578   1.144
 8438SOL    HW226214   2.519   5.523   1.143
 8439SOL     OW26215   6.066   0.307   2.143
 8439SOL    HW126216   6.162   0.298   2.170
 8439SOL    HW226217   6.056   0.384   2.081
 8440SOL     OW26218   0.203   2.584   4.480
 8440SOL    HW126219   0.211   2.579   4.580
 8440SOL    HW226220   0.177   2.677   4.453
 8441SOL     OW26221   4.238   5.745   2.268
 8441SOL    HW126222   4.315   5.718   2.325
 8441SOL    HW226223   4.221   5.843   2.278
 8442SOL     OW26224   2.087   2.785   0.693
 8442SOL    HW126225   2.130   2.791   0.783
 8442SOL    HW226226   2.034   2.868   0.675
 8443SOL     OW26227   0.704   1.934   1.812
 8443SOL    HW126228   0.769   1.929   1.887
 8443SOL    HW226229   0.747   1.898   1.729
 8444SOL     OW26230   4.367   1.573   2.857
 8444SOL    HW126231   4.282   1.575   2.803
 8444SOL    HW226232   4.422   1.494   2.830
 8445SOL     OW26233   4.741   5.410   2.081
 8445SOL    HW126234   4.702   5.484   2.136
 8445SOL    HW226235   4.778   5.447   1.996
 8446SOL     OW26236   6.678   4.019   2.980
 8446SOL    HW126237   6.591   4.013   3.029
 8446SOL    HW226238   6.740   4.079   3.031
 8447SOL     OW26239   4.479   3.058   1.355
 8447SOL    HW126240   4.559   3.010   1.319
 8447SOL    HW226241   4.401   2.996   1.359
 8448SOL     OW26242   1.763   3.345   5.792
 8448SOL    HW126243   1.847   3.300   5.761
 8448SOL    HW226244   1.767   3.359   5.891
 8449SOL     OW26245   0.984   1.487   4.370
 8449SOL    HW126246   1.032   1.471   4.456
 8449SOL    HW226247   0.948   1.581   4.370
 8450SOL     OW26248   1.912   5.201   1.457
 8450SOL    HW126249   1.866   5.288   1.446
 8450SOL    HW226250   2.010   5.217   1.471
 8451SOL     OW26251   4.085   2.580   0.244
 8451SOL    HW126252   4.145   2.660   0.251
 8451SOL    HW226253   4.059   2.566   0.149
 8452SOL     OW26254   0.401   5.585   1.859
 8452SOL    HW126255   0.486   5.558   1.904
 8452SOL    HW226256   0.324   5.562   1.918
 8453SOL     OW26257   6.388   5.699   5.148
 8453SOL    HW126258   6.370   5.626   5.082
 8453SOL    HW226259   6.487   5.710   5.159
 8454SOL     OW26260   2.345   6.720   4.664
 8454SOL    HW126261   2.351   6.728   4.565
 8454SOL    HW226262   2.319   6.809   4.703
 8455SOL     OW26263   5.955   2.470   0.625
 8455SOL    HW126264   5.981   2.565   0.606
 8455SOL    HW226265   5.892   2.438   0.554
 8456SOL     OW26266   5.175   5.477   3.466
 8456SOL    HW126267   5.231   5.445   3.542
 8456SOL    HW226268   5.090   5.425   3.462
 8457SOL     OW26269   6.458   6.028   6.116
 8457SOL    HW126270   6.538   6.015   6.057
 8457SOL    HW226271   6.487   6.028   6.212
 8458SOL     OW26272   1.479   2.012   1.226
 8458SOL    HW126273   1.479   1.914   1.205
 8458SOL    HW226274   1.561   2.055   1.189
 8459SOL     OW26275   2.455   5.808   3.090
 8459SOL    HW126276   2.432   5.772   3.181
 8459SOL    HW226277   2.481   5.904   3.099
 8460SOL     OW26278   3.816   1.223   0.994
 8460SOL    HW126279   3.734   1.177   0.960
 8460SOL    HW226280   3.882   1.155   1.025
 8461SOL     OW26281   4.964   4.416   3.159
 8461SOL    HW126282   4.894   4.379   3.219
 8461SOL    HW226283   5.029   4.344   3.135
 8462SOL     OW26284   2.230   4.374   0.806
 8462SOL    HW126285   2.201   4.293   0.755
 8462SOL    HW226286   2.177   4.453   0.776
 8463SOL     OW26287   6.494   0.571   0.433
 8463SOL    HW126288   6.432   0.647   0.414
 8463SOL    HW226289   6.569   0.601   0.491
 8464SOL     OW26290   6.402   3.821   6.387
 8464SOL    HW126291   6.457   3.809   6.471
 8464SOL    HW226292   6.449   3.777   6.311
 8465SOL     OW26293   4.928   3.584   0.845
 8465SOL    HW126294   4.861   3.554   0.914
 8465SOL    HW226295   4.946   3.681   0.857
 8466SOL     OW26296   0.740   1.130   5.311
 8466SOL    HW126297   0.721   1.128   5.409
 8466SOL    HW226298   0.680   1.065   5.264
 8467SOL     OW26299   3.191   1.403   0.373
 8467SOL    HW126300   3.191   1.486   0.317
 8467SOL    HW226301   3.121   1.411   0.444
 8468SOL     OW26302   5.756   3.930   6.945
 8468SOL    HW126303   5.727   3.998   7.013
 8468SOL    HW226304   5.744   3.838   6.983
 8469SOL     OW26305   3.836   3.429   5.285
 8469SOL    HW126306   3.931   3.413   5.312
 8469SOL    HW226307   3.779   3.353   5.318
 8470SOL     OW26308   1.524   5.171   1.585
 8470SOL    HW126309   1.602   5.109   1.569
 8470SOL    HW226310   1.454   5.123   1.638
 8471SOL     OW26311   4.146   1.831   4.474
 8471SOL    HW126312   4.152   1.736   4.442
 8471SOL    HW226313   4.050   1.859   4.475
 8472SOL     OW26314   6.063   1.611   6.850
 8472SOL    HW126315   5.975   1.621   6.803
 8472SOL    HW226316   6.108   1.527   6.819
 8473SOL     OW26317   5.297   4.981   5.974
 8473SOL    HW126318   5.220   4.919   5.958
 8473SOL    HW226319   5.269   5.054   6.036
 8474SOL     OW26320   3.186   4.064   4.671
 8474SOL    HW126321   3.159   4.053   4.767
 8474SOL    HW226322   3.111   4.037   4.611
 8475SOL     OW26323   6.688   1.865   3.050
 8475SOL    HW126324   6.721   1.777   3.014
 8475SOL    HW226325   6.714   1.938   2.986
 8476SOL     OW26326   5.890   1.255   1.762
 8476SOL    HW126327   5.960   1.274   1.693
 8476SOL    HW226328   5.804   1.299   1.736
 8477SOL     OW26329   5.532   0.399   1.976
 8477SOL    HW126330   5.605   0.434   1.917
 8477SOL    HW226331   5.551   0.425   2.071
 8478SOL     OW26332   0.420   6.925   5.187
 8478SOL    HW126333   0.468   6.911   5.274
 8478SOL    HW226334   0.440   7.017   5.153
 8479SOL     OW26335   0.395   3.105   0.488
 8479SOL    HW126336   0.431   3.137   0.576
 8479SOL    HW226337   0.328   3.170   0.454
 8480SOL     OW26338   3.984   4.294   0.768
 8480SOL    HW126339   4.062   4.312   0.828
 8480SOL    HW226340   3.904   4.270   0.823
 8481SOL     OW26341   3.958   2.172   3.130
 8481SOL    HW126342   3.900   2.102   3.172
 8481SOL    HW226343   3.935   2.180   3.033
 8482SOL     OW26344   4.307   1.127   6.798
 8482SOL    HW126345   4.314   1.028   6.805
 8482SOL    HW226346   4.241   1.152   6.727
 8483SOL     OW26347   3.893   5.025   3.312
 8483SOL    HW126348   3.825   5.016   3.239
 8483SOL    HW226349   3.968   4.961   3.296
 8484SOL     OW26350   6.017   5.931   5.271
 8484SOL    HW126351   5.952   5.979   5.212
 8484SOL    HW226352   5.987   5.939   5.366
 8485SOL     OW26353   4.070   1.404   6.652
 8485SOL    HW126354   3.970   1.408   6.657
 8485SOL    HW226355   4.097   1.321   6.603
 8486SOL     OW26356   6.111   2.541   4.678
 8486SOL    HW126357   6.035   2.605   4.669
 8486SOL    HW226358   6.183   2.566   4.614
 8487SOL     OW26359   6.477   2.341   5.994
 8487SOL    HW126360   6.549   2.271   5.991
 8487SOL    HW226361   6.501   2.416   5.932
 8488SOL     OW26362   4.627   4.714   2.491
 8488SOL    HW126363   4.706   4.700   2.550
 8488SOL    HW226364   4.567   4.634   2.495
 8489SOL     OW26365   6.180   2.270   2.044
 8489SOL    HW126366   6.115   2.195   2.050
 8489SOL    HW226367   6.131   2.356   2.030
 8490SOL     OW26368   3.058   6.573   0.006
 8490SOL    HW126369   3.019   6.615   0.088
 8490SOL    HW226370   3.092   6.645   6.967
 8491SOL     OW26371   2.753   5.846   2.046
 8491SOL    HW126372   2.842   5.813   2.015
 8491SOL    HW226373   2.698   5.769   2.079
 8492SOL     OW26374   6.543   6.171   4.339
 8492SOL    HW126375   6.525   6.118   4.255
 8492SOL    HW226376   6.488   6.254   4.338
 8493SOL     OW26377   4.968   1.402   5.874
 8493SOL    HW126378   4.992   1.332   5.941
 8493SOL    HW226379   4.931   1.358   5.793
 8494SOL     OW26380   7.004   3.484   2.387
 8494SOL    HW126381   6.952   3.404   2.357
 8494SOL    HW226382   6.978   3.563   2.332
 8495SOL     OW26383   5.883   5.334   6.399
 8495SOL    HW126384   5.816   5.408   6.394
 8495SOL    HW226385   5.966   5.361   6.351
 8496SOL     OW26386   5.189   2.374   2.837
 8496SOL    HW126387   5.127   2.327   2.774
 8496SOL    HW226388   5.262   2.311   2.865
 8497SOL     OW26389   6.618   0.408   2.829
 8497SOL    HW126390   6.532   0.394   2.779
 8497SOL    HW226391   6.613   0.361   2.917
 8498SOL     OW26392   4.839   6.730   4.161
 8498SOL    HW126393   4.804   6.762   4.073
 8498SOL    HW226394   4.867   6.809   4.216
 8499SOL     OW26395   6.250   6.749   5.674
 8499SOL    HW126396   6.202   6.770   5.759
 8499SOL    HW226397   6.340   6.710   5.695
 8500SOL     OW26398   1.166   0.878   6.745
 8500SOL    HW126399   1.147   0.791   6.789
 8500SOL    HW226400   1.244   0.922   6.790
 8501SOL     OW26401   2.305   1.224   6.771
 8501SOL    HW126402   2.233   1.220   6.703
 8501SOL    HW226403   2.270   1.265   6.855
 8502SOL     OW26404   6.212   3.696   6.864
 8502SOL    HW126405   6.284   3.760   6.893
 8502SOL    HW226406   6.138   3.746   6.820
 8503SOL     OW26407   5.204   2.462   5.352
 8503SOL    HW126408   5.118   2.503   5.321
 8503SOL    HW226409   5.247   2.522   5.420
 8504SOL     OW26410   1.000   0.140   2.431
 8504SOL    HW126411   0.913   0.145   2.482
 8504SOL    HW226412   1.001   0.211   2.361
 8505SOL     OW26413   5.443   2.646   2.291
 8505SOL    HW126414   5.441   2.570   2.355
 8505SOL    HW226415   5.467   2.613   2.200
 8506SOL     OW26416   1.085   6.719   6.233
 8506SOL    HW126417   1.153   6.690   6.300
 8506SOL    HW226418   1.120   6.796   6.180
 8507SOL     OW26419   3.584   5.705   5.482
 8507SOL    HW126420   3.539   5.669   5.563
 8507SOL    HW226421   3.584   5.636   5.410
 8508SOL     OW26422   2.639   0.839   6.801
 8508SOL    HW126423   2.615   0.933   6.777
 8508SOL    HW226424   2.736   0.823   6.781
 8509SOL     OW26425   5.274   1.849   2.904
 8509SOL    HW126426   5.327   1.889   2.830
 8509SOL    HW226427   5.211   1.918   2.941
 8510SOL     OW26428   0.574   1.873   4.734
 8510SOL    HW126429   0.606   1.968   4.741
 8510SOL    HW226430   0.587   1.827   4.822
 8511SOL     OW26431   6.126   1.664   3.180
 8511SOL    HW126432   6.101   1.615   3.263
 8511SOL    HW226433   6.225   1.680   3.179
 8512SOL     OW26434   2.343   6.545   5.459
 8512SOL    HW126435   2.428   6.499   5.433
 8512SOL    HW226436   2.285   6.481   5.510
 8513SOL     OW26437   5.389   6.121   6.479
 8513SOL    HW126438   5.421   6.188   6.412
 8513SOL    HW226439   5.370   6.166   6.566
 8514SOL     OW26440   3.863   5.718   3.718
 8514SOL    HW126441   3.809   5.706   3.802
 8514SOL    HW226442   3.879   5.629   3.676
 8515SOL     OW26443   6.005   2.366   1.071
 8515SOL    HW126444   5.991   2.289   1.133
 8515SOL    HW226445   5.920   2.418   1.064
 8516SOL     OW26446   6.909   2.020   2.267
 8516SOL    HW126447   6.859   2.021   2.180
 8516SOL    HW226448   6.918   2.113   2.301
 8517SOL     OW26449   1.527   4.024   6.800
 8517SOL    HW126450   1.479   4.110   6.782
 8517SOL    HW226451   1.488   3.951   6.743
 8518SOL     OW26452   2.815   5.924   0.431
 8518SOL    HW126453   2.876   5.853   0.466
 8518SOL    HW226454   2.804   5.996   0.500
 8519SOL     OW26455   2.544   6.180   3.713
 8519SOL    HW126456   2.610   6.106   3.696
 8519SOL    HW226457   2.467   6.170   3.651
 8520SOL     OW26458   3.483   6.553   0.120
 8520SOL    HW126459   3.405   6.494   0.139
 8520SOL    HW226460   3.536   6.515   0.044
 8521SOL     OW26461   1.763   0.404   1.641
 8521SOL    HW126462   1.747   0.375   1.547
 8521SOL    HW226463   1.752   0.326   1.702
 8522SOL     OW26464   2.643   0.107   4.571
 8522SOL    HW126465   2.601   0.139   4.486
 8522SOL    HW226466   2.575   0.057   4.625
 8523SOL     OW26467   1.598   6.493   6.672
 8523SOL    HW126468   1.552   6.553   6.738
 8523SOL    HW226469   1.675   6.543   6.630
 8524SOL     OW26470   1.446   1.279   6.656
 8524SOL    HW126471   1.526   1.253   6.601
 8524SOL    HW226472   1.364   1.237   6.617
 8525SOL     OW26473   5.368   3.908   3.764
 8525SOL    HW126474   5.399   3.862   3.847
 8525SOL    HW226475   5.341   3.840   3.696
 8526SOL     OW26476   2.153   3.613   2.225
 8526SOL    HW126477   2.166   3.569   2.137
 8526SOL    HW226478   2.235   3.603   2.280
 8527SOL     OW26479   4.549   0.773   4.239
 8527SOL    HW126480   4.621   0.762   4.171
 8527SOL    HW226481   4.586   0.817   4.321
 8528SOL     OW26482   5.781   1.669   6.772
 8528SOL    HW126483   5.728   1.695   6.691
 8528SOL    HW226484   5.735   1.704   6.854
 8529SOL     OW26485   6.709   5.627   5.829
 8529SOL    HW126486   6.668   5.676   5.752
 8529SOL    HW226487   6.803   5.603   5.807
 8530SOL     OW26488   2.203   4.731   6.286
 8530SOL    HW126489   2.289   4.709   6.331
 8530SOL    HW226490   2.202   4.827   6.259
 8531SOL     OW26491   4.424   4.730   2.013
 8531SOL    HW126492   4.502   4.778   1.973
 8531SOL    HW226493   4.412   4.642   1.968
 8532SOL     OW26494   1.211   3.916   0.984
 8532SOL    HW126495   1.283   3.981   1.009
 8532SOL    HW226496   1.252   3.827   0.964
 8533SOL     OW26497   4.401   6.486   5.571
 8533SOL    HW126498   4.486   6.438   5.593
 8533SOL    HW226499   4.422   6.578   5.540
 8534SOL     OW26500   1.805   2.781   1.746
 8534SOL    HW126501   1.769   2.861   1.795
 8534SOL    HW226502   1.794   2.795   1.647
 8535SOL     OW26503   0.287   3.503   5.033
 8535SOL    HW126504   0.305   3.434   5.103
 8535SOL    HW226505   0.204   3.553   5.055
 8536SOL     OW26506   5.911   1.480   5.403
 8536SOL    HW126507   6.009   1.488   5.385
 8536SOL    HW226508   5.891   1.392   5.445
 8537SOL     OW26509   4.540   6.638   2.886
 8537SOL    HW126510   4.539   6.623   2.985
 8537SOL    HW226511   4.600   6.716   2.866
 8538SOL     OW26512   5.404   0.503   5.536
 8538SOL    HW126513   5.395   0.410   5.574
 8538SOL    HW226514   5.389   0.570   5.609
 8539SOL     OW26515   0.428   3.325   2.885
 8539SOL    HW126516   0.506   3.367   2.839
 8539SOL    HW226517   0.343   3.361   2.847
 8540SOL     OW26518   3.849   6.835   6.453
 8540SOL    HW126519   3.930   6.862   6.505
 8540SOL    HW226520   3.849   6.880   6.364
 8541SOL     OW26521   2.733   6.366   5.170
 8541SOL    HW126522   2.658   6.365   5.236
 8541SOL    HW226523   2.785   6.450   5.180
 8542SOL     OW26524   1.353   5.117   5.156
 8542SOL    HW126525   1.392   5.109   5.247
 8542SOL    HW226526   1.389   5.045   5.097
 8543SOL     OW26527   2.804   2.372   5.302
 8543SOL    HW126528   2.840   2.350   5.211
 8543SOL    HW226529   2.863   2.330   5.371
 8544SOL     OW26530   5.168   4.657   5.153
 8544SOL    HW126531   5.237   4.666   5.226
 8544SOL    HW226532   5.115   4.741   5.148
 8545SOL     OW26533   2.111   6.734   6.389
 8545SOL    HW126534   2.090   6.642   6.423
 8545SOL    HW226535   2.079   6.743   6.295
 8546SOL     OW26536   4.494   1.516   3.794
 8546SOL    HW126537   4.532   1.425   3.810
 8546SOL    HW226538   4.565   1.585   3.810
 8547SOL     OW26539   5.653   6.176   5.891
 8547SOL    HW126540   5.695   6.103   5.837
 8547SOL    HW226541   5.572   6.211   5.844
 8548SOL     OW26542   1.505   4.634   4.334
 8548SOL    HW126543   1.563   4.715   4.323
 8548SOL    HW226544   1.409   4.661   4.328
 8549SOL     OW26545   1.707   0.642   3.926
 8549SOL    HW126546   1.754   0.555   3.937
 8549SOL    HW226547   1.701   0.688   4.015
 8550SOL     OW26548   6.857   4.596   6.001
 8550SOL    HW126549   6.794   4.535   6.048
 8550SOL    HW226550   6.944   4.599   6.050
 8551SOL     OW26551   3.827   0.670   4.794
 8551SOL    HW126552   3.783   0.603   4.734
 8551SOL    HW226553   3.772   0.681   4.877
 8552SOL     OW26554   3.466   1.574   1.700
 8552SOL    HW126555   3.461   1.496   1.763
 8552SOL    HW226556   3.378   1.586   1.655
 8553SOL     OW26557   4.832   3.643   0.574
 8553SOL    HW126558   4.822   3.663   0.671
 8553SOL    HW226559   4.873   3.553   0.562
 8554SOL     OW26560   1.562   0.630   6.711
 8554SOL    HW126561   1.605   0.591   6.792
 8554SOL    HW226562   1.463   0.633   6.723
 8555SOL     OW26563   3.738   1.646   3.451
 8555SOL    HW126564   3.674   1.577   3.419
 8555SOL    HW226565   3.803   1.605   3.515
 8556SOL     OW26566   0.657   5.410   5.485
 8556SOL    HW126567   0.728   5.437   5.550
 8556SOL    HW226568   0.669   5.314   5.461
 8557SOL     OW26569   6.642   1.073   6.403
 8557SOL    HW126570   6.601   1.154   6.445
 8557SOL    HW226571   6.570   1.014   6.366
 8558SOL     OW26572   3.449   5.906   4.036
 8558SOL    HW126573   3.433   5.968   4.113
 8558SOL    HW226574   3.466   5.814   4.069
 8559SOL     OW26575   1.701   3.696   2.380
 8559SOL    HW126576   1.777   3.750   2.343
 8559SOL    HW226577   1.673   3.734   2.468
 8560SOL     OW26578   3.533   4.105   1.261
 8560SOL    HW126579   3.447   4.081   1.216
 8560SOL    HW226580   3.516   4.167   1.337
 8561SOL     OW26581   3.389   0.678   2.950
 8561SOL    HW126582   3.483   0.709   2.936
 8561SOL    HW226583   3.329   0.757   2.961
 8562SOL     OW26584   5.566   2.298   6.911
 8562SOL    HW126585   5.640   2.234   6.931
 8562SOL    HW226586   5.525   2.275   6.822
 8563SOL     OW26587   2.251   5.127   2.531
 8563SOL    HW126588   2.207   5.179   2.458
 8563SOL    HW226589   2.207   5.038   2.541
 8564SOL     OW26590   3.570   6.095   0.686
 8564SOL    HW126591   3.489   6.092   0.628
 8564SOL    HW226592   3.598   6.190   0.699
 8565SOL     OW26593   1.151   4.838   1.020
 8565SOL    HW126594   1.203   4.854   0.937
 8565SOL    HW226595   1.114   4.925   1.054
 8566SOL     OW26596   3.354   0.750   3.434
 8566SOL    HW126597   3.286   0.692   3.479
 8566SOL    HW226598   3.446   0.713   3.450
 8567SOL     OW26599   1.737   2.681   2.172
 8567SOL    HW126600   1.650   2.716   2.136
 8567SOL    HW226601   1.813   2.720   2.121
 8568SOL     OW26602   6.006   0.991   5.925
 8568SOL    HW126603   6.090   0.988   5.870
 8568SOL    HW226604   5.984   0.899   5.957
 8569SOL     OW26605   5.038   1.823   0.498
 8569SOL    HW126606   5.085   1.869   0.423
 8569SOL    HW226607   4.940   1.819   0.478
 8570SOL     OW26608   2.263   1.935   2.608
 8570SOL    HW126609   2.296   1.871   2.678
 8570SOL    HW226610   2.282   1.898   2.517
 8571SOL     OW26611   1.485   0.789   3.103
 8571SOL    HW126612   1.579   0.769   3.077
 8571SOL    HW226613   1.484   0.849   3.184
 8572SOL     OW26614   2.930   3.782   6.139
 8572SOL    HW126615   2.958   3.689   6.114
 8572SOL    HW226616   2.992   3.848   6.096
 8573SOL     OW26617   2.036   6.042   6.306
 8573SOL    HW126618   2.091   6.123   6.330
 8573SOL    HW226619   2.096   5.962   6.299
 8574SOL     OW26620   5.037   1.044   5.325
 8574SOL    HW126621   5.107   1.111   5.298
 8574SOL    HW226622   5.061   1.005   5.414
 8575SOL     OW26623   3.327   6.368   3.912
 8575SOL    HW126624   3.248   6.306   3.922
 8575SOL    HW226625   3.408   6.314   3.890
 8576SOL     OW26626   1.796   4.659   4.165
 8576SOL    HW126627   1.813   4.576   4.218
 8576SOL    HW226628   1.714   4.646   4.108
 8577SOL     OW26629   1.686   0.678   0.459
 8577SOL    HW126630   1.645   0.732   0.385
 8577SOL    HW226631   1.672   0.725   0.546
 8578SOL     OW26632   1.347   6.769   6.054
 8578SOL    HW126633   1.347   6.695   5.987
 8578SOL    HW226634   1.416   6.750   6.124
 8579SOL     OW26635   3.165   6.976   2.361
 8579SOL    HW126636   3.122   0.024   2.304
 8579SOL    HW226637   3.234   7.019   2.419
 8580SOL     OW26638   1.620   0.717   2.056
 8580SOL    HW126639   1.678   0.636   2.049
 8580SOL    HW226640   1.678   0.799   2.062
 8581SOL     OW26641   3.765   3.767   1.749
 8581SOL    HW126642   3.828   3.816   1.810
 8581SOL    HW226643   3.792   3.782   1.654
 8582SOL     OW26644   4.215   5.159   5.624
 8582SOL    HW126645   4.305   5.168   5.583
 8582SOL    HW226646   4.210   5.212   5.708
 8583SOL     OW26647   3.151   6.530   2.716
 8583SOL    HW126648   3.119   6.516   2.810
 8583SOL    HW226649   3.072   6.544   2.656
 8584SOL     OW26650   6.447   1.662   4.957
 8584SOL    HW126651   6.373   1.710   4.910
 8584SOL    HW226652   6.532   1.674   4.906
 8585SOL     OW26653   5.241   2.786   2.666
 8585SOL    HW126654   5.305   2.730   2.718
 8585SOL    HW226655   5.152   2.739   2.660
 8586SOL     OW26656   6.169   5.851   5.614
 8586SOL    HW126657   6.210   5.808   5.694
 8586SOL    HW226658   6.170   5.787   5.537
 8587SOL     OW26659   6.566   1.330   6.501
 8587SOL    HW126660   6.622   1.405   6.467
 8587SOL    HW226661   6.471   1.344   6.474
 8588SOL     OW26662   1.899   1.009   5.214
 8588SOL    HW126663   1.821   0.948   5.227
 8588SOL    HW226664   1.949   1.018   5.300
 8589SOL     OW26665   5.760   2.879   0.132
 8589SOL    HW126666   5.701   2.818   0.079
 8589SOL    HW226667   5.847   2.891   0.085
 8590SOL     OW26668   0.737   1.780   3.827
 8590SOL    HW126669   0.834   1.785   3.851
 8590SOL    HW226670   0.684   1.761   3.909
 8591SOL     OW26671   0.108   4.296   5.449
 8591SOL    HW126672   0.049   4.225   5.412
 8591SOL    HW226673   0.146   4.350   5.373
 8592SOL     OW26674   7.005   1.962   4.413
 8592SOL    HW126675   6.939   1.888   4.397
 8592SOL    HW226676   0.020   1.954   4.505
 8593SOL     OW26677   5.965   1.153   6.894
 8593SOL    HW126678   6.038   1.088   6.918
 8593SOL    HW226679   5.900   1.109   6.832
 8594SOL     OW26680   6.147   3.959   6.142
 8594SOL    HW126681   6.064   3.907   6.120
 8594SOL    HW226682   6.122   4.040   6.196
 8595SOL     OW26683   5.256   6.037   3.054
 8595SOL    HW126684   5.190   5.985   3.108
 8595SOL    HW226685   5.287   6.116   3.106
 8596SOL     OW26686   0.990   2.235   5.021
 8596SOL    HW126687   0.982   2.137   5.038
 8596SOL    HW226688   0.927   2.284   5.082
 8597SOL     OW26689   6.041   2.722   6.278
 8597SOL    HW126690   5.981   2.651   6.243
 8597SOL    HW226691   5.988   2.786   6.334
 8598SOL     OW26692   6.682   0.141   5.092
 8598SOL    HW126693   6.739   0.217   5.122
 8598SOL    HW226694   6.679   0.140   4.992
 8599SOL     OW26695   6.221   3.684   5.099
 8599SOL    HW126696   6.209   3.609   5.034
 8599SOL    HW226697   6.279   3.754   5.059
 8600SOL     OW26698   4.518   2.795   1.680
 8600SOL    HW126699   4.554   2.826   1.768
 8600SOL    HW226700   4.593   2.786   1.615
 8601SOL     OW26701   6.508   6.028   3.096
 8601SOL    HW126702   6.537   5.936   3.071
 8601SOL    HW226703   6.521   6.090   3.018
 8602SOL     OW26704   1.859   7.018   5.418
 8602SOL    HW126705   1.938   0.049   5.388
 8602SOL    HW226706   1.783   0.057   5.439
 8603SOL     OW26707   0.369   0.468   6.463
 8603SOL    HW126708   0.380   0.448   6.560
 8603SOL    HW226709   0.294   0.413   6.426
 8604SOL     OW26710   2.154   5.115   5.955
 8604SOL    HW126711   2.087   5.114   5.880
 8604SOL    HW226712   2.123   5.178   6.026
 8605SOL     OW26713   0.250   5.114   3.798
 8605SOL    HW126714   0.166   5.070   3.767
 8605SOL    HW226715   0.227   5.191   3.858
 8606SOL     OW26716   1.635   1.148   6.974
 8606SOL    HW126717   1.696   1.092   6.917
 8606SOL    HW226718   1.639   1.115   0.046
 8607SOL     OW26719   2.739   3.397   1.311
 8607SOL    HW126720   2.825   3.414   1.262
 8607SOL    HW226721   2.728   3.298   1.325
 8608SOL     OW26722   1.960   5.908   2.638
 8608SOL    HW126723   1.928   6.000   2.619
 8608SOL    HW226724   1.915   5.843   2.576
 8609SOL     OW26725   4.897   2.049   4.209
 8609SOL    HW126726   4.847   2.041   4.296
 8609SOL    HW226727   4.972   2.114   4.219
 8610SOL     OW26728   0.192   6.203   2.820
 8610SOL    HW126729   0.148   6.170   2.904
 8610SOL    HW226730   0.265   6.140   2.794
 8611SOL     OW26731   1.947   1.390   5.019
 8611SOL    HW126732   2.007   1.369   5.096
 8611SOL    HW226733   1.894   1.473   5.040
 8612SOL     OW26734   3.217   2.958   4.792
 8612SOL    HW126735   3.305   2.912   4.798
 8612SOL    HW226736   3.173   2.957   4.883
 8613SOL     OW26737   3.786   2.969   2.980
 8613SOL    HW126738   3.781   2.974   2.880
 8613SOL    HW226739   3.876   3.002   3.010
 8614SOL     OW26740   0.574   2.484   3.498
 8614SOL    HW126741   0.651   2.547   3.502
 8614SOL    HW226742   0.546   2.472   3.402
 8615SOL     OW26743   3.412   2.231   5.598
 8615SOL    HW126744   3.373   2.200   5.511
 8615SOL    HW226745   3.436   2.151   5.653
 8616SOL     OW26746   5.728   4.047   4.629
 8616SOL    HW126747   5.710   4.118   4.697
 8616SOL    HW226748   5.669   3.968   4.646
 8617SOL     OW26749   1.461   6.784   2.918
 8617SOL    HW126750   1.410   6.797   2.832
 8617SOL    HW226751   1.482   6.687   2.930
 8618SOL     OW26752   5.725   4.223   0.682
 8618SOL    HW126753   5.747   4.299   0.744
 8618SOL    HW226754   5.803   4.161   0.678
 8619SOL     OW26755   5.553   5.847   0.524
 8619SOL    HW126756   5.479   5.786   0.496
 8619SOL    HW226757   5.639   5.815   0.485
 8620SOL     OW26758   2.239   6.919   4.036
 8620SOL    HW126759   2.297   6.992   4.001
 8620SOL    HW226760   2.225   6.850   3.965
 8621SOL     OW26761   5.635   3.350   1.993
 8621SOL    HW126762   5.545   3.379   1.963
 8621SOL    HW226763   5.633   3.330   2.091
 8622SOL     OW26764   0.447   5.659   2.817
 8622SOL    HW126765   0.486   5.620   2.900
 8622SOL    HW226766   0.519   5.702   2.762
 8623SOL     OW26767   1.864   2.536   4.042
 8623SOL    HW126768   1.963   2.528   4.033
 8623SOL    HW226769   1.824   2.561   3.954
 8624SOL     OW26770   3.497   3.787   5.158
 8624SOL    HW126771   3.527   3.852   5.228
 8624SOL    HW226772   3.415   3.740   5.191
 8625SOL     OW26773   4.313   3.086   5.618
 8625SOL    HW126774   4.311   3.129   5.708
 8625SOL    HW226775   4.222   3.087   5.578
 8626SOL     OW26776   4.586   1.731   1.620
 8626SOL    HW126777   4.528   1.730   1.702
 8626SOL    HW226778   4.681   1.745   1.646
 8627SOL     OW26779   1.968   1.007   2.363
 8627SOL    HW126780   1.884   0.957   2.346
 8627SOL    HW226781   1.972   1.088   2.304
 8628SOL     OW26782   0.810   6.768   0.497
 8628SOL    HW126783   0.763   6.781   0.584
 8628SOL    HW226784   0.748   6.723   0.433
 8629SOL     OW26785   0.766   6.641   4.540
 8629SOL    HW126786   0.698   6.714   4.552
 8629SOL    HW226787   0.832   6.644   4.615
 8630SOL     OW26788   4.987   2.648   2.588
 8630SOL    HW126789   4.905   2.704   2.597
 8630SOL    HW226790   4.974   2.561   2.636
 8631SOL     OW26791   2.278   5.930   6.032
 8631SOL    HW126792   2.244   5.879   6.111
 8631SOL    HW226793   2.376   5.914   6.021
 8632SOL     OW26794   5.727   5.775   4.076
 8632SOL    HW126795   5.810   5.723   4.091
 8632SOL    HW226796   5.743   5.845   4.006
 8633SOL     OW26797   5.829   3.589   5.196
 8633SOL    HW126798   5.848   3.597   5.099
 8633SOL    HW226799   5.915   3.572   5.246
 8634SOL     OW26800   4.989   3.970   6.825
 8634SOL    HW126801   5.014   4.009   6.913
 8634SOL    HW226802   4.937   3.886   6.839
 8635SOL     OW26803   5.303   2.680   0.078
 8635SOL    HW126804   5.328   2.604   0.017
 8635SOL    HW226805   5.322   2.655   0.173
 8636SOL     OW26806   4.324   6.239   1.751
 8636SOL    HW126807   4.334   6.339   1.752
 8636SOL    HW226808   4.230   6.216   1.728
 8637SOL     OW26809   1.871   1.861   6.541
 8637SOL    HW126810   1.819   1.882   6.458
 8637SOL    HW226811   1.828   1.907   6.620
 8638SOL     OW26812   4.912   3.316   3.745
 8638SOL    HW126813   4.951   3.314   3.837
 8638SOL    HW226814   4.918   3.409   3.708
 8639SOL     OW26815   3.262   3.749   0.284
 8639SOL    HW126816   3.306   3.831   0.319
 8639SOL    HW226817   3.331   3.678   0.269
 8640SOL     OW26818   3.794   2.318   0.664
 8640SOL    HW126819   3.846   2.245   0.619
 8640SOL    HW226820   3.847   2.356   0.739
 8641SOL     OW26821   3.708   5.408   2.459
 8641SOL    HW126822   3.798   5.370   2.481
 8641SOL    HW226823   3.637   5.343   2.486
 8642SOL     OW26824   1.585   5.766   2.848
 8642SOL    HW126825   1.575   5.672   2.816
 8642SOL    HW226826   1.681   5.784   2.870
 8643SOL     OW26827   3.743   6.696   1.229
 8643SOL    HW126828   3.736   6.756   1.309
 8643SOL    HW226829   3.818   6.727   1.171
 8644SOL     OW26830   6.422   2.686   6.017
 8644SOL    HW126831   6.517   2.710   6.035
 8644SOL    HW226832   6.401   2.703   5.921
 8645SOL     OW26833   5.956   6.040   3.006
 8645SOL    HW126834   5.939   6.129   2.965
 8645SOL    HW226835   6.052   6.016   2.996
 8646SOL     OW26836   6.979   2.544   5.469
 8646SOL    HW126837   7.014   2.637   5.479
 8646SOL    HW226838   0.007   2.497   5.396
 8647SOL     OW26839   1.924   5.181   1.905
 8647SOL    HW126840   1.962   5.089   1.908
 8647SOL    HW226841   1.839   5.180   1.853
 8648SOL     OW26842   4.859   5.321   0.689
 8648SOL    HW126843   4.822   5.228   0.694
 8648SOL    HW226844   4.808   5.373   0.620
 8649SOL     OW26845   5.096   1.316   0.705
 8649SOL    HW126846   5.144   1.311   0.792
 8649SOL    HW226847   5.142   1.382   0.645
 8650SOL     OW26848   2.084   0.218   5.393
 8650SOL    HW126849   2.160   0.166   5.432
 8650SOL    HW226850   2.119   0.283   5.326
 8651SOL     OW26851   3.699   2.176   1.463
 8651SOL    HW126852   3.704   2.255   1.525
 8651SOL    HW226853   3.605   2.167   1.429
 8652SOL     OW26854   0.551   2.767   3.379
 8652SOL    HW126855   0.508   2.854   3.356
 8652SOL    HW226856   0.620   2.781   3.450
 8653SOL     OW26857   5.579   1.444   6.548
 8653SOL    HW126858   5.589   1.540   6.520
 8653SOL    HW226859   5.669   1.404   6.563
 8654SOL     OW26860   0.286   4.222   2.931
 8654SOL    HW126861   0.248   4.306   2.970
 8654SOL    HW226862   0.357   4.186   2.992
 8655SOL     OW26863   0.995   0.080   4.671
 8655SOL    HW126864   1.018   0.059   4.576
 8655SOL    HW226865   0.922   0.019   4.703
 8656SOL     OW26866   4.958   6.699   0.795
 8656SOL    HW126867   4.898   6.765   0.749
 8656SOL    HW226868   5.045   6.693   0.746
 8657SOL     OW26869   3.181   2.155   2.866
 8657SOL    HW126870   3.116   2.216   2.910
 8657SOL    HW226871   3.273   2.193   2.873
 8658SOL     OW26872   5.997   4.831   1.559
 8658SOL    HW126873   6.073   4.865   1.504
 8658SOL    HW226874   5.928   4.904   1.569
 8659SOL     OW26875   3.938   0.933   2.221
 8659SOL    HW126876   3.986   0.846   2.211
 8659SOL    HW226877   3.933   0.957   2.318
 8660SOL     OW26878   0.260   4.368   1.714
 8660SOL    HW126879   0.164   4.350   1.738
 8660SOL    HW226880   0.302   4.424   1.786
 8661SOL     OW26881   6.904   3.639   2.174
 8661SOL    HW126882   6.914   3.626   2.075
 8661SOL    HW226883   6.833   3.577   2.208
 8662SOL     OW26884   1.475   2.612   2.611
 8662SOL    HW126885   1.445   2.570   2.526
 8662SOL    HW226886   1.545   2.680   2.592
 8663SOL     OW26887   3.839   5.092   2.732
 8663SOL    HW126888   3.848   4.994   2.719
 8663SOL    HW226889   3.758   5.125   2.683
 8664SOL     OW26890   3.979   6.382   3.738
 8664SOL    HW126891   4.054   6.383   3.804
 8664SOL    HW226892   4.000   6.443   3.662
 8665SOL     OW26893   4.828   3.703   6.590
 8665SOL    HW126894   4.773   3.787   6.597
 8665SOL    HW226895   4.767   3.624   6.583
 8666SOL     OW26896   4.669   0.489   2.863
 8666SOL    HW126897   4.641   0.488   2.959
 8666SOL    HW226898   4.618   0.419   2.813
 8667SOL     OW26899   5.091   2.637   2.303
 8667SOL    HW126900   5.059   2.643   2.398
 8667SOL    HW226901   5.107   2.729   2.267
 8668SOL     OW26902   4.836   2.356   4.821
 8668SOL    HW126903   4.882   2.284   4.769
 8668SOL    HW226904   4.771   2.403   4.762
 8669SOL     OW26905   6.763   6.126   6.188
 8669SOL    HW126906   6.747   6.071   6.269
 8669SOL    HW226907   6.765   6.067   6.107
 8670SOL     OW26908   6.441   4.806   5.348
 8670SOL    HW126909   6.382   4.873   5.303
 8670SOL    HW226910   6.431   4.717   5.304
 8671SOL     OW26911   6.858   3.213   3.137
 8671SOL    HW126912   6.942   3.170   3.104
 8671SOL    HW226913   6.801   3.144   3.181
 8672SOL     OW26914   0.059   1.682   2.434
 8672SOL    HW126915   6.994   1.635   2.420
 8672SOL    HW226916   0.100   1.704   2.346
 8673SOL     OW26917   1.219   1.685   1.247
 8673SOL    HW126918   1.142   1.746   1.229
 8673SOL    HW226919   1.294   1.706   1.183
 8674SOL     OW26920   6.949   3.964   2.630
 8674SOL    HW126921   6.972   4.030   2.702
 8674SOL    HW226922   0.010   3.914   2.604
 8675SOL     OW26923   4.255   2.348   4.791
 8675SOL    HW126924   4.337   2.292   4.802
 8675SOL    HW226925   4.238   2.400   4.875
 8676SOL     OW26926   5.026   1.800   1.475
 8676SOL    HW126927   5.090   1.843   1.413
 8676SOL    HW226928   4.984   1.720   1.431
 8677SOL     OW26929   2.409   6.894   6.028
 8677SOL    HW126930   2.395   6.831   5.952
 8677SOL    HW226931   2.448   6.845   6.105
 8678SOL     OW26932   2.886   2.020   0.407
 8678SOL    HW126933   2.797   2.065   0.420
 8678SOL    HW226934   2.881   1.960   0.328
 8679SOL     OW26935   1.087   1.462   6.576
 8679SOL    HW126936   1.017   1.392   6.566
 8679SOL    HW226937   1.074   1.510   6.663
 8680SOL     OW26938   0.060   0.192   0.490
 8680SOL    HW126939   7.009   0.254   0.519
 8680SOL    HW226940   0.026   0.132   0.417
 8681SOL     OW26941   4.848   4.864   1.439
 8681SOL    HW126942   4.944   4.882   1.415
 8681SOL    HW226943   4.843   4.783   1.498
 8682SOL     OW26944   2.415   1.161   2.487
 8682SOL    HW126945   2.494   1.101   2.476
 8682SOL    HW226946   2.331   1.107   2.486
 8683SOL     OW26947   2.532   4.671   4.524
 8683SOL    HW126948   2.475   4.731   4.468
 8683SOL    HW226949   2.500   4.576   4.516
 8684SOL     OW26950   2.606   4.651   3.381
 8684SOL    HW126951   2.562   4.577   3.330
 8684SOL    HW226952   2.574   4.650   3.476
 8685SOL     OW26953   4.942   3.028   4.528
 8685SOL    HW126954   4.902   2.941   4.558
 8685SOL    HW226955   4.920   3.044   4.432
 8686SOL     OW26956   1.397   5.477   3.416
 8686SOL    HW126957   1.323   5.543   3.431
 8686SOL    HW226958   1.425   5.439   3.504
 8687SOL     OW26959   5.814   4.513   4.991
 8687SOL    HW126960   5.854   4.454   4.921
 8687SOL    HW226961   5.807   4.462   5.077
 8688SOL     OW26962   1.555   3.960   5.302
 8688SOL    HW126963   1.550   3.865   5.271
 8688SOL    HW226964   1.643   4.000   5.275
 8689SOL     OW26965   4.394   3.336   1.051
 8689SOL    HW126966   4.434   3.385   0.973
 8689SOL    HW226967   4.398   3.238   1.035
 8690SOL     OW26968   1.422   1.320   2.505
 8690SOL    HW126969   1.341   1.378   2.500
 8690SOL    HW226970   1.504   1.376   2.495
 8691SOL     OW26971   3.317   2.540   6.194
 8691SOL    HW126972   3.416   2.526   6.202
 8691SOL    HW226973   3.295   2.574   6.102
 8692SOL     OW26974   5.138   3.231   4.171
 8692SOL    HW126975   5.161   3.170   4.246
 8692SOL    HW226976   5.176   3.196   4.085
 8693SOL     OW26977   6.438   6.579   5.534
 8693SOL    HW126978   6.515   6.636   5.507
 8693SOL    HW226979   6.360   6.597   5.474
 8694SOL     OW26980   5.122   3.131   5.636
 8694SOL    HW126981   5.051   3.169   5.577
 8694SOL    HW226982   5.090   3.046   5.677
 8695SOL     OW26983   3.492   4.980   0.951
 8695SOL    HW126984   3.510   4.887   0.983
 8695SOL    HW226985   3.511   5.045   1.025
 8696SOL     OW26986   2.193   5.525   5.931
 8696SOL    HW126987   2.225   5.585   5.858
 8696SOL    HW226988   2.101   5.553   5.959
 8697SOL     OW26989   0.909   4.020   5.131
 8697SOL    HW126990   0.882   3.993   5.223
 8697SOL    HW226991   1.005   3.996   5.115
 8698SOL     OW26992   4.424   4.686   6.410
 8698SOL    HW126993   4.439   4.644   6.320
 8698SOL    HW226994   4.344   4.745   6.407
 8699SOL     OW26995   1.796   2.367   0.547
 8699SOL    HW126996   1.699   2.347   0.565
 8699SOL    HW226997   1.821   2.331   0.457
 8700SOL     OW26998   0.870   1.386   4.760
 8700SOL    HW126999   0.946   1.394   4.695
 8700SOL    HW227000   0.791   1.436   4.724
 8701SOL     OW27001   1.312   3.165   6.520
 8701SOL    HW127002   1.270   3.157   6.430
 8701SOL    HW227003   1.295   3.081   6.572
 8702SOL     OW27004   5.716   4.356   1.241
 8702SOL    HW127005   5.799   4.300   1.243
 8702SOL    HW227006   5.646   4.309   1.187
 8703SOL     OW27007   2.611   5.628   1.437
 8703SOL    HW127008   2.558   5.558   1.390
 8703SOL    HW227009   2.699   5.590   1.463
 8704SOL     OW27010   0.004   1.166   4.843
 8704SOL    HW127011   0.053   1.233   4.899
 8704SOL    HW227012   6.982   1.099   4.902
 8705SOL     OW27013   3.769   2.242   6.972
 8705SOL    HW127014   3.757   2.232   6.873
 8705SOL    HW227015   3.859   2.280   6.991
 8706SOL     OW27016   4.629   2.467   6.808
 8706SOL    HW127017   4.588   2.424   6.889
 8706SOL    HW227018   4.670   2.555   6.835
 8707SOL     OW27019   1.782   1.077   4.457
 8707SOL    HW127020   1.691   1.111   4.434
 8707SOL    HW227021   1.851   1.135   4.413
 8708SOL     OW27022   5.847   2.016   0.627
 8708SOL    HW127023   5.768   2.076   0.611
 8708SOL    HW227024   5.921   2.069   0.668
 8709SOL     OW27025   6.414   6.411   4.308
 8709SOL    HW127026   6.385   6.485   4.368
 8709SOL    HW227027   6.338   6.348   4.292
 8710SOL     OW27028   2.025   2.026   3.605
 8710SOL    HW127029   2.027   1.933   3.571
 8710SOL    HW227030   2.059   2.028   3.699
 8711SOL     OW27031   1.538   1.072   1.927
 8711SOL    HW127032   1.537   0.983   1.881
 8711SOL    HW227033   1.597   1.135   1.876
 8712SOL     OW27034   1.171   4.393   4.290
 8712SOL    HW127035   1.113   4.365   4.214
 8712SOL    HW227036   1.136   4.355   4.376
 8713SOL     OW27037   0.520   3.500   2.060
 8713SOL    HW127038   0.587   3.451   2.118
 8713SOL    HW227039   0.553   3.502   1.966
 8714SOL     OW27040   5.937   4.335   6.638
 8714SOL    HW127041   6.036   4.343   6.652
 8714SOL    HW227042   5.896   4.426   6.633
 8715SOL     OW27043   2.116   4.957   1.689
 8715SOL    HW127044   2.043   4.914   1.741
 8715SOL    HW227045   2.174   5.011   1.750
 8716SOL     OW27046   6.343   0.170   1.895
 8716SOL    HW127047   6.362   0.083   1.940
 8716SOL    HW227048   6.390   0.172   1.807
 8717SOL     OW27049   3.309   2.755   0.325
 8717SOL    HW127050   3.250   2.676   0.347
 8717SOL    HW227051   3.379   2.764   0.395
 8718SOL     OW27052   2.733   5.278   6.326
 8718SOL    HW127053   2.663   5.213   6.296
 8718SOL    HW227054   2.689   5.360   6.362
 8719SOL     OW27055   3.226   1.480   4.833
 8719SOL    HW127056   3.314   1.481   4.881
 8719SOL    HW227057   3.199   1.386   4.815
 8720SOL     OW27058   1.044   5.838   4.587
 8720SOL    HW127059   0.988   5.854   4.506
 8720SOL    HW227060   1.107   5.762   4.571
 8721SOL     OW27061   1.099   6.758   0.560
 8721SOL    HW127062   1.113   6.827   0.489
 8721SOL    HW227063   1.001   6.741   0.571
 8722SOL     OW27064   2.966   0.880   0.943
 8722SOL    HW127065   2.924   0.868   1.033
 8722SOL    HW227066   3.037   0.951   0.950
 8723SOL     OW27067   4.195   6.957   1.888
 8723SOL    HW127068   4.143   6.910   1.958
 8723SOL    HW227069   4.171   0.032   1.888
 8724SOL     OW27070   3.446   1.381   4.992
 8724SOL    HW127071   3.456   1.429   5.079
 8724SOL    HW227072   3.529   1.391   4.938
 8725SOL     OW27073   6.667   0.289   3.054
 8725SOL    HW127074   6.671   0.196   3.018
 8725SOL    HW227075   6.758   0.316   3.087
 8726SOL     OW27076   6.366   0.796   1.001
 8726SOL    HW127077   6.350   0.855   1.081
 8726SOL    HW227078   6.284   0.796   0.943
 8727SOL     OW27079   5.287   6.096   0.059
 8727SOL    HW127080   5.212   6.162   0.054
 8727SOL    HW227081   5.281   6.033   7.004
 8728SOL     OW27082   6.355   6.643   4.456
 8728SOL    HW127083   6.282   6.710   4.463
 8728SOL    HW227084   6.443   6.687   4.472
 8729SOL     OW27085   5.494   5.871   5.887
 8729SOL    HW127086   5.427   5.944   5.902
 8729SOL    HW227087   5.573   5.907   5.839
 8730SOL     OW27088   4.315   4.667   1.705
 8730SOL    HW127089   4.386   4.626   1.763
 8730SOL    HW227090   4.357   4.706   1.623
 8731SOL     OW27091   6.766   1.678   3.755
 8731SOL    HW127092   6.770   1.761   3.811
 8731SOL    HW227093   6.856   1.661   3.715
 8732SOL     OW27094   4.887   6.256   5.872
 8732SOL    HW127095   4.898   6.259   5.773
 8732SOL    HW227096   4.809   6.199   5.896
 8733SOL     OW27097   6.365   4.670   2.414
 8733SOL    HW127098   6.272   4.650   2.382
 8733SOL    HW227099   6.383   4.768   2.403
 8734SOL     OW27100   1.189   4.686   0.634
 8734SOL    HW127101   1.229   4.754   0.695
 8734SOL    HW227102   1.258   4.617   0.611
 8735SOL     OW27103   1.242   2.942   5.678
 8735SOL    HW127104   1.219   3.036   5.702
 8735SOL    HW227105   1.200   2.880   5.746
 8736SOL     OW27106   1.612   5.484   3.267
 8736SOL    HW127107   1.533   5.503   3.324
 8736SOL    HW227108   1.643   5.569   3.224
 8737SOL     OW27109   0.246   5.786   6.929
 8737SOL    HW127110   0.185   5.862   6.910
 8737SOL    HW227111   0.212   5.704   6.884
 8738SOL     OW27112   2.079   2.593   2.102
 8738SOL    HW127113   2.055   2.509   2.054
 8738SOL    HW227114   2.029   2.670   2.062
 8739SOL     OW27115   5.850   4.687   3.940
 8739SOL    HW127116   5.822   4.653   4.030
 8739SOL    HW227117   5.769   4.707   3.885
 8740SOL     OW27118   3.416   1.910   3.679
 8740SOL    HW127119   3.508   1.922   3.644
 8740SOL    HW227120   3.417   1.918   3.779
 8741SOL     OW27121   1.151   1.384   2.460
 8741SOL    HW127122   1.160   1.476   2.498
 8741SOL    HW227123   1.073   1.338   2.502
 8742SOL     OW27124   2.704   2.555   1.755
 8742SOL    HW127125   2.627   2.535   1.816
 8742SOL    HW227126   2.788   2.518   1.794
 8743SOL     OW27127   0.695   3.211   0.720
 8743SOL    HW127128   0.714   3.264   0.802
 8743SOL    HW227129   0.608   3.241   0.680
 8744SOL     OW27130   3.632   4.066   5.842
 8744SOL    HW127131   3.728   4.064   5.813
 8744SOL    HW227132   3.575   4.023   5.772
 8745SOL     OW27133   5.870   1.606   6.206
 8745SOL    HW127134   5.900   1.620   6.111
 8745SOL    HW227135   5.820   1.520   6.213
 8746SOL     OW27136   4.002   4.866   5.011
 8746SOL    HW127137   3.971   4.932   4.942
 8746SOL    HW227138   3.938   4.866   5.088
 8747SOL     OW27139   1.182   0.720   2.663
 8747SOL    HW127140   1.187   0.648   2.594
 8747SOL    HW227141   1.096   0.712   2.714
 8748SOL     OW27142   5.575   1.866   4.821
 8748SOL    HW127143   5.612   1.912   4.901
 8748SOL    HW227144   5.493   1.814   4.847
 8749SOL     OW27145   2.622   1.170   4.176
 8749SOL    HW127146   2.597   1.105   4.248
 8749SOL    HW227147   2.693   1.232   4.210
 8750SOL     OW27148   4.154   3.667   1.411
 8750SOL    HW127149   4.236   3.611   1.423
 8750SOL    HW227150   4.073   3.615   1.441
 8751SOL     OW27151   2.366   0.073   0.434
 8751SOL    HW127152   2.279   0.025   0.448
 8751SOL    HW227153   2.375   0.146   0.501
 8752SOL     OW27154   6.904   3.133   5.810
 8752SOL    HW127155   6.965   3.057   5.788
 8752SOL    HW227156   6.928   3.169   5.900
 8753SOL     OW27157   2.004   1.836   0.879
 8753SOL    HW127158   1.930   1.866   0.940
 8753SOL    HW227159   2.078   1.797   0.933
 8754SOL     OW27160   0.918   5.488   6.477
 8754SOL    HW127161   0.994   5.527   6.530
 8754SOL    HW227162   0.875   5.415   6.530
 8755SOL     OW27163   0.387   2.762   1.885
 8755SOL    HW127164   0.454   2.702   1.843
 8755SOL    HW227165   0.322   2.793   1.815
 8756SOL     OW27166   1.401   1.449   2.044
 8756SOL    HW127167   1.336   1.504   2.097
 8756SOL    HW227168   1.441   1.379   2.103
 8757SOL     OW27169   5.611   6.361   5.647
 8757SOL    HW127170   5.607   6.443   5.591
 8757SOL    HW227171   5.517   6.330   5.667
 8758SOL     OW27172   3.803   5.879   5.576
 8758SOL    HW127173   3.741   5.814   5.532
 8758SOL    HW227174   3.824   5.953   5.512
 8759SOL     OW27175   6.176   1.027   2.022
 8759SOL    HW127176   6.236   1.108   2.022
 8759SOL    HW227177   6.083   1.055   2.044
 8760SOL     OW27178   2.516   2.303   4.158
 8760SOL    HW127179   2.509   2.290   4.257
 8760SOL    HW227180   2.425   2.296   4.117
 8761SOL     OW27181   4.686   2.130   2.757
 8761SOL    HW127182   4.758   2.103   2.693
 8761SOL    HW227183   4.636   2.208   2.720
 8762SOL     OW27184   4.001   6.130   2.711
 8762SOL    HW127185   4.049   6.216   2.696
 8762SOL    HW227186   3.902   6.146   2.711
 8763SOL     OW27187   0.106   1.215   5.631
 8763SOL    HW127188   0.133   1.291   5.689
 8763SOL    HW227189   0.158   1.134   5.656
 8764SOL     OW27190   3.660   5.260   5.963
 8764SOL    HW127191   3.583   5.199   5.981
 8764SOL    HW227192   3.732   5.209   5.917
 8765SOL     OW27193   3.779   6.801   3.684
 8765SOL    HW127194   3.757   6.890   3.723
 8765SOL    HW227195   3.841   6.813   3.606
 8766SOL     OW27196   5.288   6.850   5.171
 8766SOL    HW127197   5.272   6.779   5.101
 8766SOL    HW227198   5.202   6.900   5.186
 8767SOL     OW27199   1.810   1.612   3.508
 8767SOL    HW127200   1.787   1.601   3.605
 8767SOL    HW227201   1.784   1.529   3.459
 8768SOL     OW27202   6.785   1.265   0.289
 8768SOL    HW127203   6.824   1.244   0.199
 8768SOL    HW227204   6.855   1.309   0.346
 8769SOL     OW27205   6.193   0.006   6.329
 8769SOL    HW127206   6.240   6.955   6.280
 8769SOL    HW227207   6.259   0.076   6.356
 8770SOL     OW27208   4.942   2.275   0.319
 8770SOL    HW127209   4.874   2.234   0.258
 8770SOL    HW227210   5.005   2.331   0.266
 8771SOL     OW27211   0.800   3.022   6.242
 8771SOL    HW127212   0.874   3.051   6.304
 8771SOL    HW227213   0.716   3.011   6.294
 8772SOL     OW27214   0.124   0.123   4.206
 8772SOL    HW127215   0.108   0.182   4.127
 8772SOL    HW227216   0.071   0.156   4.284
 8773SOL     OW27217   0.417   1.617   3.169
 8773SOL    HW127218   0.393   1.637   3.264
 8773SOL    HW227219   0.357   1.544   3.135
 8774SOL     OW27220   1.091   1.861   6.934
 8774SOL    HW127221   1.050   1.878   0.002
 8774SOL    HW227222   1.094   1.946   6.882
 8775SOL     OW27223   5.469   2.491   3.011
 8775SOL    HW127224   5.405   2.564   3.033
 8775SOL    HW227225   5.541   2.488   3.080
 8776SOL     OW27226   4.794   2.598   1.053
 8776SOL    HW127227   4.847   2.672   1.011
 8776SOL    HW227228   4.809   2.598   1.151
 8777SOL     OW27229   6.773   2.372   3.661
 8777SOL    HW127230   6.813   2.353   3.751
 8777SOL    HW227231   6.677   2.345   3.661
 8778SOL     OW27232   3.226   3.924   6.746
 8778SOL    HW127233   3.177   3.864   6.809
 8778SOL    HW227234   3.164   3.952   6.672
 8779SOL     OW27235   4.062   5.318   2.704
 8779SOL    HW127236   3.983   5.354   2.754
 8779SOL    HW227237   4.077   5.222   2.729
 8780SOL     OW27238   1.145   4.133   3.735
 8780SOL    HW127239   1.094   4.058   3.777
 8780SOL    HW227240   1.240   4.104   3.720
 8781SOL     OW27241   2.417   0.760   0.873
 8781SOL    HW127242   2.510   0.792   0.889
 8781SOL    HW227243   2.414   0.660   0.883
 8782SOL     OW27244   5.999   2.211   0.728
 8782SOL    HW127245   5.998   2.307   0.701
 8782SOL    HW227246   6.084   2.190   0.775
 8783SOL     OW27247   4.749   4.169   4.707
 8783SOL    HW127248   4.699   4.256   4.705
 8783SOL    HW227249   4.755   4.137   4.802
 8784SOL     OW27250   4.526   0.818   6.924
 8784SOL    HW127251   4.454   0.851   6.862
 8784SOL    HW227252   4.591   0.763   6.873
 8785SOL     OW27253   6.977   5.334   5.671
 8785SOL    HW127254   6.994   5.290   5.759
 8785SOL    HW227255   6.895   5.295   5.630
 8786SOL     OW27256   5.719   1.927   3.211
 8786SOL    HW127257   5.814   1.942   3.184
 8786SOL    HW227258   5.675   1.864   3.147
 8787SOL     OW27259   3.500   5.685   1.435
 8787SOL    HW127260   3.478   5.599   1.388
 8787SOL    HW227261   3.533   5.751   1.368
 8788SOL     OW27262   0.398   6.106   4.213
 8788SOL    HW127263   0.425   6.160   4.293
 8788SOL    HW227264   0.316   6.146   4.172
 8789SOL     OW27265   1.585   2.574   6.316
 8789SOL    HW127266   1.579   2.656   6.372
 8789SOL    HW227267   1.607   2.496   6.375
 8790SOL     OW27268   4.452   2.684   5.240
 8790SOL    HW127269   4.355   2.676   5.214
 8790SOL    HW227270   4.478   2.605   5.295
 8791SOL     OW27271   4.056   6.416   4.505
 8791SOL    HW127272   4.078   6.454   4.415
 8791SOL    HW227273   4.025   6.321   4.494
 8792SOL     OW27274   5.518   5.387   1.824
 8792SOL    HW127275   5.449   5.325   1.861
 8792SOL    HW227276   5.531   5.464   1.887
 8793SOL     OW27277   6.786   6.216   5.566
 8793SOL    HW127278   6.709   6.252   5.617
 8793SOL    HW227279   6.847   6.291   5.540
 8794SOL     OW27280   0.118   1.665   2.694
 8794SOL    HW127281   0.116   1.656   2.595
 8794SOL    HW227282   0.186   1.734   2.720
 8795SOL     OW27283   1.223   6.390   6.855
 8795SOL    HW127284   1.217   6.466   6.919
 8795SOL    HW227285   1.142   6.331   6.866
 8796SOL     OW27286   5.806   3.549   4.910
 8796SOL    HW127287   5.798   3.452   4.886
 8796SOL    HW227288   5.717   3.594   4.896
 8797SOL     OW27289   5.013   6.152   4.359
 8797SOL    HW127290   5.038   6.061   4.324
 8797SOL    HW227291   5.095   6.206   4.374
 8798SOL     OW27292   2.545   6.354   5.371
 8798SOL    HW127293   2.481   6.279   5.354
 8798SOL    HW227294   2.618   6.323   5.432
 8799SOL     OW27295   1.391   5.829   2.006
 8799SOL    HW127296   1.361   5.762   1.939
 8799SOL    HW227297   1.491   5.831   2.011
 8800SOL     OW27298   6.463   6.053   4.117
 8800SOL    HW127299   6.458   6.111   4.036
 8800SOL    HW227300   6.387   5.988   4.115
 8801SOL     OW27301   5.602   3.627   5.778
 8801SOL    HW127302   5.690   3.629   5.825
 8801SOL    HW227303   5.616   3.635   5.680
 8802SOL     OW27304   1.812   5.752   6.261
 8802SOL    HW127305   1.786   5.791   6.349
 8802SOL    HW227306   1.778   5.810   6.187
 8803SOL     OW27307   5.910   5.916   5.521
 8803SOL    HW127308   5.865   6.000   5.551
 8803SOL    HW227309   5.994   5.903   5.573
 8804SOL     OW27310   1.051   6.135   2.012
 8804SOL    HW127311   1.004   6.142   1.924
 8804SOL    HW227312   1.150   6.138   1.996
 8805SOL     OW27313   5.301   4.908   3.199
 8805SOL    HW127314   5.217   4.858   3.220
 8805SOL    HW227315   5.285   5.006   3.209
 8806SOL     OW27316   1.219   0.218   1.936
 8806SOL    HW127317   1.284   0.293   1.949
 8806SOL    HW227318   1.141   0.230   1.998
 8807SOL     OW27319   5.470   2.421   0.495
 8807SOL    HW127320   5.477   2.343   0.557
 8807SOL    HW227321   5.484   2.506   0.546
 8808SOL     OW27322   2.279   2.376   0.127
 8808SOL    HW127323   2.286   2.324   0.212
 8808SOL    HW227324   2.198   2.347   0.077
 8809SOL     OW27325   6.629   3.354   3.052
 8809SOL    HW127326   6.723   3.337   3.083
 8809SOL    HW227327   6.623   3.336   2.954
 8810SOL     OW27328   0.448   1.864   5.245
 8810SOL    HW127329   0.522   1.869   5.313
 8810SOL    HW227330   0.378   1.930   5.268
 8811SOL     OW27331   4.250   4.667   2.470
 8811SOL    HW127332   4.162   4.629   2.442
 8811SOL    HW227333   4.322   4.600   2.452
 8812SOL     OW27334   5.133   1.047   0.126
 8812SOL    HW127335   5.208   0.980   0.132
 8812SOL    HW227336   5.057   1.017   0.184
 8813SOL     OW27337   1.993   3.387   2.610
 8813SOL    HW127338   2.014   3.348   2.520
 8813SOL    HW227339   1.929   3.463   2.599
 8814SOL     OW27340   5.353   6.716   5.422
 8814SOL    HW127341   5.264   6.706   5.468
 8814SOL    HW227342   5.339   6.753   5.331
 8815SOL     OW27343   5.156   0.916   1.187
 8815SOL    HW127344   5.186   0.952   1.276
 8815SOL    HW227345   5.082   0.973   1.152
 8816SOL     OW27346   0.521   6.800   3.895
 8816SOL    HW127347   0.439   6.821   3.948
 8816SOL    HW227348   0.592   6.868   3.915
 8817SOL     OW27349   1.274   2.640   3.109
 8817SOL    HW127350   1.277   2.680   3.200
 8817SOL    HW227351   1.187   2.662   3.066
 8818SOL     OW27352   0.800   6.600   5.545
 8818SOL    HW127353   0.818   6.503   5.558
 8818SOL    HW227354   0.745   6.614   5.463
 8819SOL     OW27355   4.798   5.739   6.101
 8819SOL    HW127356   4.784   5.646   6.137
 8819SOL    HW227357   4.711   5.787   6.098
 8820SOL     OW27358   4.261   0.257   5.379
 8820SOL    HW127359   4.302   0.261   5.470
 8820SOL    HW227360   4.214   0.343   5.360
 8821SOL     OW27361   0.745   4.786   6.222
 8821SOL    HW127362   0.807   4.718   6.183
 8821SOL    HW227363   0.718   4.851   6.151
 8822SOL     OW27364   6.117   0.168   4.859
 8822SOL    HW127365   6.130   0.258   4.902
 8822SOL    HW227366   6.028   0.132   4.886
 8823SOL     OW27367   3.951   1.760   2.706
 8823SOL    HW127368   4.035   1.814   2.712
 8823SOL    HW227369   3.881   1.800   2.765
 8824SOL     OW27370   1.526   0.041   3.335
 8824SOL    HW127371   1.557   0.022   3.242
 8824SOL    HW227372   1.437   0.086   3.332
 8825SOL     OW27373   0.275   0.225   0.247
 8825SOL    HW127374   0.192   0.184   0.208
 8825SOL    HW227375   0.353   0.165   0.231
 8826SOL     OW27376   6.979   4.139   0.218
 8826SOL    HW127377   0.023   4.068   0.194
 8826SOL    HW227378   7.001   4.223   0.167
 8827SOL     OW27379   4.465   6.671   3.409
 8827SOL    HW127380   4.383   6.704   3.456
 8827SOL    HW227381   4.534   6.648   3.477
 8828SOL     OW27382   5.076   2.415   6.203
 8828SOL    HW127383   5.032   2.430   6.115
 8828SOL    HW227384   5.087   2.317   6.219
 8829SOL     OW27385   6.761   0.907   2.945
 8829SOL    HW127386   6.793   0.988   2.897
 8829SOL    HW227387   6.723   0.842   2.879
 8830SOL     OW27388   3.033   0.624   3.904
 8830SOL    HW127389   3.001   0.702   3.959
 8830SOL    HW227390   2.966   0.602   3.834
 8831SOL     OW27391   0.103   3.355   2.617
 8831SOL    HW127392   0.055   3.293   2.679
 8831SOL    HW227393   0.037   3.409   2.566
 8832SOL     OW27394   5.514   0.639   5.896
 8832SOL    HW127395   5.493   0.611   5.990
 8832SOL    HW227396   5.429   0.653   5.846
 8833SOL     OW27397   5.114   2.126   1.298
 8833SOL    HW127398   5.164   2.213   1.295
 8833SOL    HW227399   5.076   2.113   1.390
 8834SOL     OW27400   5.387   4.527   6.375
 8834SOL    HW127401   5.393   4.625   6.354
 8834SOL    HW227402   5.291   4.501   6.385
 8835SOL     OW27403   0.133   0.755   5.252
 8835SOL    HW127404   0.233   0.765   5.246
 8835SOL    HW227405   0.111   0.692   5.327
 8836SOL     OW27406   4.279   1.466   1.155
 8836SOL    HW127407   4.198   1.509   1.194
 8836SOL    HW227408   4.353   1.466   1.222
 8837SOL     OW27409   4.638   6.135   0.426
 8837SOL    HW127410   4.657   6.226   0.389
 8837SOL    HW227411   4.571   6.088   0.369
 8838SOL     OW27412   1.861   3.326   3.451
 8838SOL    HW127413   1.829   3.231   3.454
 8838SOL    HW227414   1.959   3.329   3.470
 8839SOL     OW27415   4.827   5.175   1.400
 8839SOL    HW127416   4.832   5.199   1.497
 8839SOL    HW227417   4.864   5.083   1.386
 8840SOL     OW27418   6.679   1.038   0.654
 8840SOL    HW127419   6.707   0.965   0.716
 8840SOL    HW227420   6.702   1.127   0.696
 8841SOL     OW27421   3.249   1.046   0.576
 8841SOL    HW127422   3.194   1.115   0.624
 8841SOL    HW227423   3.295   0.988   0.643
 8842SOL     OW27424   3.690   3.343   4.170
 8842SOL    HW127425   3.669   3.373   4.263
 8842SOL    HW227426   3.664   3.415   4.106
 8843SOL     OW27427   2.988   5.558   5.089
 8843SOL    HW127428   2.987   5.470   5.041
 8843SOL    HW227429   2.940   5.550   5.176
 8844SOL     OW27430   3.581   2.833   6.112
 8844SOL    HW127431   3.598   2.752   6.055
 8844SOL    HW227432   3.516   2.893   6.066
 8845SOL     OW27433   0.969   3.486   1.766
 8845SOL    HW127434   1.060   3.520   1.790
 8845SOL    HW227435   0.939   3.420   1.835
 8846SOL     OW27436   5.773   4.584   4.424
 8846SOL    HW127437   5.674   4.576   4.434
 8846SOL    HW227438   5.815   4.495   4.444
 8847SOL     OW27439   1.122   2.199   3.869
 8847SOL    HW127440   1.177   2.125   3.908
 8847SOL    HW227441   1.033   2.164   3.841
 8848SOL     OW27442   6.493   1.376   0.667
 8848SOL    HW127443   6.420   1.318   0.702
 8848SOL    HW227444   6.497   1.368   0.567
 8849SOL     OW27445   3.514   5.403   4.314
 8849SOL    HW127446   3.525   5.305   4.299
 8849SOL    HW227447   3.423   5.432   4.284
 8850SOL     OW27448   2.518   1.764   1.397
 8850SOL    HW127449   2.456   1.809   1.463
 8850SOL    HW227450   2.537   1.827   1.322
 8851SOL     OW27451   6.971   5.337   2.781
 8851SOL    HW127452   6.877   5.333   2.747
 8851SOL    HW227453   0.008   5.372   2.709
 8852SOL     OW27454   5.256   2.758   4.815
 8852SOL    HW127455   5.200   2.840   4.803
 8852SOL    HW227456   5.223   2.706   4.894
 8853SOL     OW27457   4.721   2.063   5.500
 8853SOL    HW127458   4.747   2.010   5.581
 8853SOL    HW227459   4.711   2.001   5.422
 8854SOL     OW27460   1.592   0.774   6.287
 8854SOL    HW127461   1.601   0.863   6.243
 8854SOL    HW227462   1.681   0.747   6.325
 8855SOL     OW27463   6.564   4.976   6.394
 8855SOL    HW127464   6.630   4.914   6.350
 8855SOL    HW227465   6.608   5.022   6.471
 8856SOL     OW27466   5.137   0.803   5.252
 8856SOL    HW127467   5.225   0.784   5.207
 8856SOL    HW227468   5.103   0.892   5.222
 8857SOL     OW27469   0.895   3.187   4.503
 8857SOL    HW127470   0.983   3.141   4.496
 8857SOL    HW227471   0.831   3.148   4.437
 8858SOL     OW27472   6.828   4.046   5.785
 8858SOL    HW127473   6.896   4.102   5.738
 8858SOL    HW227474   6.758   4.105   5.824
 8859SOL     OW27475   2.986   6.136   5.117
 8859SOL    HW127476   2.909   6.175   5.066
 8859SOL    HW227477   3.032   6.067   5.060
 8860SOL     OW27478   1.200   2.083   1.148
 8860SOL    HW127479   1.299   2.092   1.159
 8860SOL    HW227480   1.174   1.987   1.152
 8861SOL     OW27481   2.257   2.692   1.252
 8861SOL    HW127482   2.162   2.715   1.276
 8861SOL    HW227483   2.316   2.709   1.331
 8862SOL     OW27484   6.489   2.276   5.135
 8862SOL    HW127485   6.496   2.244   5.041
 8862SOL    HW227486   6.493   2.376   5.137
 8863SOL     OW27487   1.227   5.558   5.081
 8863SOL    HW127488   1.270   5.497   5.147
 8863SOL    HW227489   1.216   5.649   5.120
 8864SOL     OW27490   1.354   4.062   6.011
 8864SOL    HW127491   1.422   4.056   5.938
 8864SOL    HW227492   1.385   4.127   6.080
 8865SOL     OW27493   2.322   2.332   5.532
 8865SOL    HW127494   2.284   2.424   5.537
 8865SOL    HW227495   2.409   2.329   5.581
 8866SOL     OW27496   4.667   6.753   5.758
 8866SOL    HW127497   4.567   6.748   5.751
 8866SOL    HW227498   4.702   6.666   5.793
 8867SOL     OW27499   6.628   1.243   4.157
 8867SOL    HW127500   6.531   1.241   4.131
 8867SOL    HW227501   6.656   1.338   4.171
 8868SOL     OW27502   4.778   3.371   1.091
 8868SOL    HW127503   4.710   3.308   1.053
 8868SOL    HW227504   4.843   3.320   1.148
 8869SOL     OW27505   4.038   2.188   3.423
 8869SOL    HW127506   3.995   2.197   3.334
 8869SOL    HW227507   3.969   2.162   3.491
 8870SOL     OW27508   4.753   1.209   2.126
 8870SOL    HW127509   4.670   1.160   2.099
 8870SOL    HW227510   4.818   1.145   2.166
 8871SOL     OW27511   1.273   2.585   4.481
 8871SOL    HW127512   1.342   2.525   4.442
 8871SOL    HW227513   1.286   2.678   4.447
 8872SOL     OW27514   1.759   3.093   2.364
 8872SOL    HW127515   1.711   3.116   2.280
 8872SOL    HW227516   1.798   3.001   2.356
 8873SOL     OW27517   0.204   5.810   5.071
 8873SOL    HW127518   0.232   5.871   4.996
 8873SOL    HW227519   0.162   5.728   5.033
 8874SOL     OW27520   0.685   1.338   6.707
 8874SOL    HW127521   0.714   1.315   6.614
 8874SOL    HW227522   0.598   1.293   6.727
 8875SOL     OW27523   1.497   0.869   4.552
 8875SOL    HW127524   1.483   0.840   4.646
 8875SOL    HW227525   1.568   0.812   4.510
 8876SOL     OW27526   2.508   0.438   4.776
 8876SOL    HW127527   2.564   0.412   4.854
 8876SOL    HW227528   2.418   0.468   4.808
 8877SOL     OW27529   3.168   6.602   4.559
 8877SOL    HW127530   3.128   6.675   4.616
 8877SOL    HW227531   3.095   6.559   4.505
 8878SOL     OW27532   5.506   4.707   5.572
 8878SOL    HW127533   5.495   4.610   5.595
 8878SOL    HW227534   5.603   4.730   5.569
 8879SOL     OW27535   4.994   5.659   4.685
 8879SOL    HW127536   4.946   5.743   4.660
 8879SOL    HW227537   5.092   5.677   4.687
 8880SOL     OW27538   0.244   6.126   5.415
 8880SOL    HW127539   0.300   6.051   5.450
 8880SOL    HW227540   0.266   6.142   5.319
 8881SOL     OW27541   6.827   0.740   1.621
 8881SOL    HW127542   6.865   0.688   1.545
 8881SOL    HW227543   6.803   0.678   1.696
 8882SOL     OW27544   5.342   2.472   6.903
 8882SOL    HW127545   5.420   2.413   6.922
 8882SOL    HW227546   5.371   2.551   6.850
 8883SOL     OW27547   0.377   1.583   5.549
 8883SOL    HW127548   0.337   1.635   5.473
 8883SOL    HW227549   0.327   1.498   5.562
 8884SOL     OW27550   6.956   1.026   5.496
 8884SOL    HW127551   6.864   1.059   5.517
 8884SOL    HW227552   0.001   1.092   5.528
 8885SOL     OW27553   5.500   3.425   1.659
 8885SOL    HW127554   5.459   3.419   1.750
 8885SOL    HW227555   5.517   3.334   1.623
 8886SOL     OW27556   2.951   5.609   6.083
 8886SOL    HW127557   2.954   5.537   6.153
 8886SOL    HW227558   3.021   5.677   6.103
 8887SOL     OW27559   1.608   0.125   1.433
 8887SOL    HW127560   1.546   0.158   1.361
 8887SOL    HW227561   1.702   0.125   1.399
 8888SOL     OW27562   3.412   2.078   3.405
 8888SOL    HW127563   3.465   2.007   3.453
 8888SOL    HW227564   3.359   2.129   3.472
 8889SOL     OW27565   3.521   0.213   4.769
 8889SOL    HW127566   3.459   0.135   4.774
 8889SOL    HW227567   3.472   0.296   4.797
 8890SOL     OW27568   0.648   4.118   3.576
 8890SOL    HW127569   0.615   4.176   3.501
 8890SOL    HW227570   0.746   4.100   3.564
 8891SOL     OW27571   2.590   1.781   5.851
 8891SOL    HW127572   2.523   1.855   5.842
 8891SOL    HW227573   2.681   1.816   5.833
 8892SOL     OW27574   1.078   6.940   2.578
 8892SOL    HW127575   1.082   6.864   2.512
 8892SOL    HW227576   1.009   7.006   2.548
 8893SOL     OW27577   0.285   0.703   0.712
 8893SOL    HW127578   0.368   0.725   0.762
 8893SOL    HW227579   0.280   0.604   0.698
 8894SOL     OW27580   4.183   2.578   6.562
 8894SOL    HW127581   4.240   2.641   6.615
 8894SOL    HW227582   4.192   2.599   6.465
 8895SOL     OW27583   1.681   0.943   2.367
 8895SOL    HW127584   1.583   0.928   2.359
 8895SOL    HW227585   1.699   1.033   2.406
 8896SOL     OW27586   2.282   4.237   4.637
 8896SOL    HW127587   2.251   4.226   4.732
 8896SOL    HW227588   2.307   4.147   4.600
 8897SOL     OW27589   1.033   2.410   1.320
 8897SOL    HW127590   1.015   2.327   1.268
 8897SOL    HW227591   1.016   2.490   1.262
 8898SOL     OW27592   6.706   2.905   4.790
 8898SOL    HW127593   6.677   2.811   4.810
 8898SOL    HW227594   6.658   2.968   4.851
 8899SOL     OW27595   3.475   4.740   0.708
 8899SOL    HW127596   3.468   4.640   0.703
 8899SOL    HW227597   3.417   4.773   0.783
 8900SOL     OW27598   0.041   1.604   3.347
 8900SOL    HW127599   0.041   1.688   3.294
 8900SOL    HW227600   0.133   1.564   3.346
 8901SOL     OW27601   2.043   6.865   1.882
 8901SOL    HW127602   2.000   6.913   1.958
 8901SOL    HW227603   2.130   6.911   1.860
 8902SOL     OW27604   3.147   5.976   4.946
 8902SOL    HW127605   3.146   6.054   4.883
 8902SOL    HW227606   3.238   5.934   4.945
 8903SOL     OW27607   0.685   0.646   3.545
 8903SOL    HW127608   0.635   0.654   3.459
 8903SOL    HW227609   0.763   0.709   3.544
 8904SOL     OW27610   1.561   5.300   3.107
 8904SOL    HW127611   1.577   5.212   3.151
 8904SOL    HW227612   1.594   5.374   3.166
 8905SOL     OW27613   2.158   4.171   4.879
 8905SOL    HW127614   2.073   4.119   4.877
 8905SOL    HW227615   2.232   4.113   4.914
 8906SOL     OW27616   1.562   5.284   4.448
 8906SOL    HW127617   1.558   5.344   4.528
 8906SOL    HW227618   1.527   5.193   4.473
 8907SOL     OW27619   4.141   2.899   5.850
 8907SOL    HW127620   4.132   2.874   5.753
 8907SOL    HW227621   4.066   2.858   5.902
 8908SOL     OW27622   0.236   2.604   2.384
 8908SOL    HW127623   0.217   2.639   2.292
 8908SOL    HW227624   0.329   2.630   2.411
 8909SOL     OW27625   2.299   0.052   5.411
 8909SOL    HW127626   2.383   0.106   5.425
 8909SOL    HW227627   2.288   0.033   5.314
 8910SOL     OW27628   4.055   2.902   6.596
 8910SOL    HW127629   4.074   2.827   6.659
 8910SOL    HW227630   4.087   2.988   6.636
 8911SOL     OW27631   4.729   2.357   3.835
 8911SOL    HW127632   4.657   2.290   3.821
 8911SOL    HW227633   4.690   2.440   3.875
 8912SOL     OW27634   5.545   1.740   6.605
 8912SOL    HW127635   5.535   1.772   6.510
 8912SOL    HW227636   5.455   1.715   6.642
 8913SOL     OW27637   4.716   4.203   0.828
 8913SOL    HW127638   4.627   4.159   0.843
 8913SOL    HW227639   4.743   4.250   0.912
 8914SOL     OW27640   4.696   1.822   3.450
 8914SOL    HW127641   4.709   1.907   3.500
 8914SOL    HW227642   4.598   1.799   3.447
 8915SOL     OW27643   1.097   5.642   2.069
 8915SOL    HW127644   1.018   5.700   2.051
 8915SOL    HW227645   1.120   5.645   2.166
 8916SOL     OW27646   6.184   3.337   2.420
 8916SOL    HW127647   6.277   3.303   2.432
 8916SOL    HW227648   6.155   3.319   2.326
 8917SOL     OW27649   5.594   5.681   5.312
 8917SOL    HW127650   5.539   5.597   5.309
 8917SOL    HW227651   5.684   5.660   5.351
 8918SOL     OW27652   4.711   4.008   6.178
 8918SOL    HW127653   4.796   4.058   6.170
 8918SOL    HW227654   4.728   3.919   6.220
 8919SOL     OW27655   2.367   3.774   1.349
 8919SOL    HW127656   2.305   3.721   1.291
 8919SOL    HW227657   2.390   3.860   1.304
 8920SOL     OW27658   6.485   5.045   5.618
 8920SOL    HW127659   6.458   5.130   5.573
 8920SOL    HW227660   6.468   4.968   5.557
 8921SOL     OW27661   1.520   5.352   3.672
 8921SOL    HW127662   1.557   5.272   3.625
 8921SOL    HW227663   1.548   5.352   3.768
 8922SOL     OW27664   6.356   4.181   6.897
 8922SOL    HW127665   6.331   4.277   6.886
 8922SOL    HW227666   6.274   4.126   6.913
 8923SOL     OW27667   2.141   3.948   4.674
 8923SOL    HW127668   2.168   3.887   4.749
 8923SOL    HW227669   2.046   3.977   4.688
 8924SOL     OW27670   2.597   5.592   5.348
 8924SOL    HW127671   2.501   5.576   5.322
 8924SOL    HW227672   2.639   5.656   5.283
 8925SOL     OW27673   5.034   5.959   1.701
 8925SOL    HW127674   5.057   5.907   1.619
 8925SOL    HW227675   4.964   6.027   1.679
 8926SOL     OW27676   4.865   0.696   6.982
 8926SOL    HW127677   4.947   0.644   7.007
 8926SOL    HW227678   4.885   0.794   6.983
 8927SOL     OW27679   2.328   1.687   4.169
 8927SOL    HW127680   2.325   1.619   4.242
 8927SOL    HW227681   2.415   1.681   4.121
 8928SOL     OW27682   0.987   0.006   3.915
 8928SOL    HW127683   1.040   0.085   3.885
 8928SOL    HW227684   0.910   7.014   3.852
 8929SOL     OW27685   5.333   4.531   3.909
 8929SOL    HW127686   5.344   4.627   3.935
 8929SOL    HW227687   5.367   4.517   3.816
 8930SOL     OW27688   1.327   4.753   5.123
 8930SOL    HW127689   1.331   4.677   5.059
 8930SOL    HW227690   1.240   4.752   5.172
 8931SOL     OW27691   5.187   1.001   1.461
 8931SOL    HW127692   5.174   1.097   1.488
 8931SOL    HW227693   5.283   0.976   1.474
 8932SOL     OW27694   5.985   0.727   0.005
 8932SOL    HW127695   5.962   0.671   0.085
 8932SOL    HW227696   5.903   0.770   6.992
 8933SOL     OW27697   1.306   0.375   5.620
 8933SOL    HW127698   1.267   0.306   5.559
 8933SOL    HW227699   1.319   0.460   5.569
 8934SOL     OW27700   4.305   6.927   3.501
 8934SOL    HW127701   4.349   6.961   3.418
 8934SOL    HW227702   4.356   6.959   3.581
 8935SOL     OW27703   6.296   1.902   2.519
 8935SOL    HW127704   6.342   1.975   2.570
 8935SOL    HW227705   6.271   1.937   2.428
 8936SOL     OW27706   1.824   4.056   2.963
 8936SOL    HW127707   1.735   4.018   2.992
 8936SOL    HW227708   1.832   4.048   2.863
 8937SOL     OW27709   4.096   0.451   5.251
 8937SOL    HW127710   4.005   0.489   5.269
 8937SOL    HW227711   4.095   0.402   5.164
 8938SOL     OW27712   5.878   6.603   1.609
 8938SOL    HW127713   5.863   6.509   1.580
 8938SOL    HW227714   5.969   6.633   1.580
 8939SOL     OW27715   0.428   2.888   4.689
 8939SOL    HW127716   0.519   2.904   4.653
 8939SOL    HW227717   0.359   2.924   4.626
 8940SOL     OW27718   6.311   3.102   1.898
 8940SOL    HW127719   6.344   3.026   1.955
 8940SOL    HW227720   6.227   3.139   1.938
 8941SOL     OW27721   5.394   2.233   2.938
 8941SOL    HW127722   5.454   2.157   2.915
 8941SOL    HW227723   5.445   2.302   2.990
 8942SOL     OW27724   4.824   4.396   3.992
 8942SOL    HW127725   4.798   4.491   3.973
 8942SOL    HW227726   4.923   4.387   3.993
 8943SOL     OW27727   4.339   2.452   0.761
 8943SOL    HW127728   4.346   2.377   0.695
 8943SOL    HW227729   4.419   2.451   0.821
 8944SOL     OW27730   4.562   5.598   5.108
 8944SOL    HW127731   4.576   5.645   5.022
 8944SOL    HW227732   4.597   5.653   5.183
 8945SOL     OW27733   5.743   3.882   2.279
 8945SOL    HW127734   5.704   3.886   2.187
 8945SOL    HW227735   5.670   3.867   2.345
 8946SOL     OW27736   4.406   1.446   4.912
 8946SOL    HW127737   4.455   1.518   4.961
 8946SOL    HW227738   4.351   1.487   4.839
 8947SOL     OW27739   2.021   4.599   0.289
 8947SOL    HW127740   2.047   4.533   0.360
 8947SOL    HW227741   2.100   4.616   0.230
 8948SOL     OW27742   5.402   0.618   2.830
 8948SOL    HW127743   5.308   0.619   2.796
 8948SOL    HW227744   5.422   0.528   2.869
 8949SOL     OW27745   3.405   6.004   0.492
 8949SOL    HW127746   3.465   6.000   0.413
 8949SOL    HW227747   3.403   5.915   0.537
 8950SOL     OW27748   3.081   3.662   2.677
 8950SOL    HW127749   3.137   3.580   2.692
 8950SOL    HW227750   3.140   3.738   2.651
 8951SOL     OW27751   0.770   0.424   4.302
 8951SOL    HW127752   0.837   0.350   4.306
 8951SOL    HW227753   0.680   0.389   4.326
 8952SOL     OW27754   1.891   4.437   4.537
 8952SOL    HW127755   1.923   4.438   4.442
 8952SOL    HW227756   1.811   4.377   4.544
 8953SOL     OW27757   0.794   4.810   1.408
 8953SOL    HW127758   0.807   4.715   1.437
 8953SOL    HW227759   0.765   4.865   1.486
 8954SOL     OW27760   2.040   4.057   5.485
 8954SOL    HW127761   2.079   3.999   5.414
 8954SOL    HW227762   2.114   4.096   5.540
 8955SOL     OW27763   5.663   2.802   5.618
 8955SOL    HW127764   5.678   2.765   5.526
 8955SOL    HW227765   5.569   2.838   5.624
 8956SOL     OW27766   0.850   6.043   0.962
 8956SOL    HW127767   0.902   6.064   1.044
 8956SOL    HW227768   0.898   6.078   0.881
 8957SOL     OW27769   1.096   6.750   2.379
 8957SOL    HW127770   1.181   6.698   2.393
 8957SOL    HW227771   1.064   6.736   2.285
 8958SOL     OW27772   0.849   4.267   4.586
 8958SOL    HW127773   0.825   4.318   4.503
 8958SOL    HW227774   0.779   4.198   4.604
 8959SOL     OW27775   5.854   2.067   4.214
 8959SOL    HW127776   5.834   2.003   4.140
 8959SOL    HW227777   5.795   2.147   4.207
 8960SOL     OW27778   5.140   5.182   3.041
 8960SOL    HW127779   5.164   5.188   3.138
 8960SOL    HW227780   5.207   5.125   2.993
 8961SOL     OW27781   2.806   1.708   4.913
 8961SOL    HW127782   2.855   1.785   4.870
 8961SOL    HW227783   2.850   1.684   4.999
 8962SOL     OW27784   6.176   5.668   2.117
 8962SOL    HW127785   6.186   5.570   2.133
 8962SOL    HW227786   6.132   5.710   2.197
 8963SOL     OW27787   2.893   6.399   6.088
 8963SOL    HW127788   2.817   6.347   6.127
 8963SOL    HW227789   2.916   6.475   6.149
 8964SOL     OW27790   2.164   3.095   3.732
 8964SOL    HW127791   2.215   3.169   3.689
 8964SOL    HW227792   2.183   3.094   3.831
 8965SOL     OW27793   4.124   5.693   0.530
 8965SOL    HW127794   4.212   5.670   0.570
 8965SOL    HW227795   4.111   5.641   0.446
 8966SOL     OW27796   5.273   0.080   5.457
 8966SOL    HW127797   5.180   0.042   5.455
 8966SOL    HW227798   5.339   0.008   5.436
 8967SOL     OW27799   2.984   0.246   3.350
 8967SOL    HW127800   2.948   0.155   3.331
 8967SOL    HW227801   3.030   0.245   3.439
 8968SOL     OW27802   3.562   4.965   2.297
 8968SOL    HW127803   3.494   4.943   2.366
 8968SOL    HW227804   3.520   4.961   2.206
 8969SOL     OW27805   7.012   0.869   2.715
 8969SOL    HW127806   6.973   0.957   2.742
 8969SOL    HW227807   0.008   0.871   2.617
 8970SOL     OW27808   1.923   1.202   3.512
 8970SOL    HW127809   1.924   1.240   3.420
 8970SOL    HW227810   2.013   1.164   3.533
 8971SOL     OW27811   3.262   4.076   1.189
 8971SOL    HW127812   3.251   3.998   1.127
 8971SOL    HW227813   3.186   4.139   1.176
 8972SOL     OW27814   5.210   3.874   6.596
 8972SOL    HW127815   5.129   3.899   6.649
 8972SOL    HW227816   5.199   3.781   6.561
 8973SOL     OW27817   2.616   2.062   2.876
 8973SOL    HW127818   2.518   2.081   2.877
 8973SOL    HW227819   2.666   2.146   2.855
 8974SOL     OW27820   2.168   4.498   4.026
 8974SOL    HW127821   2.167   4.466   4.121
 8974SOL    HW227822   2.148   4.596   4.024
 8975SOL     OW27823   6.824   4.456   5.761
 8975SOL    HW127824   6.863   4.486   5.673
 8975SOL    HW227825   6.841   4.526   5.830
 8976SOL     OW27826   5.975   0.127   1.963
 8976SOL    HW127827   5.999   0.187   1.886
 8976SOL    HW227828   6.010   0.166   2.048
 8977SOL     OW27829   6.876   4.700   6.766
 8977SOL    HW127830   6.941   4.646   6.712
 8977SOL    HW227831   6.783   4.678   6.736
 8978SOL     OW27832   6.068   5.595   6.048
 8978SOL    HW127833   6.158   5.625   6.078
 8978SOL    HW227834   6.029   5.533   6.116
 8979SOL     OW27835   1.912   5.323   3.818
 8979SOL    HW127836   1.884   5.243   3.870
 8979SOL    HW227837   1.861   5.403   3.850
 8980SOL     OW27838   3.801   0.855   0.169
 8980SOL    HW127839   3.755   0.772   0.201
 8980SOL    HW227840   3.745   0.935   0.190
 8981SOL     OW27841   3.996   2.130   6.607
 8981SOL    HW127842   3.906   2.149   6.647
 8981SOL    HW227843   3.984   2.105   6.511
 8982SOL     OW27844   0.056   1.191   1.634
 8982SOL    HW127845   0.100   1.179   1.545
 8982SOL    HW227846   0.032   1.101   1.672
 8983SOL     OW27847   1.708   7.018   2.287
 8983SOL    HW127848   1.702   6.920   2.269
 8983SOL    HW227849   1.662   0.046   2.213
 8984SOL     OW27850   6.840   1.600   5.165
 8984SOL    HW127851   6.908   1.528   5.180
 8984SOL    HW227852   6.885   1.689   5.165
 8985SOL     OW27853   4.879   1.473   2.548
 8985SOL    HW127854   4.791   1.519   2.561
 8985SOL    HW227855   4.867   1.375   2.566
 8986SOL     OW27856   0.271   5.682   0.330
 8986SOL    HW127857   0.329   5.681   0.411
 8986SOL    HW227858   0.175   5.674   0.358
 8987SOL     OW27859   2.555   6.693   1.593
 8987SOL    HW127860   2.583   6.598   1.608
 8987SOL    HW227861   2.457   6.702   1.609
 8988SOL     OW27862   2.944   0.036   1.069
 8988SOL    HW127863   2.926   6.966   1.100
 8988SOL    HW227864   3.019   0.075   1.123
 8989SOL     OW27865   5.780   1.741   2.579
 8989SOL    HW127866   5.879   1.741   2.561
 8989SOL    HW227867   5.732   1.769   2.496
 8990SOL     OW27868   3.247   0.922   2.988
 8990SOL    HW127869   3.211   0.949   3.078
 8990SOL    HW227870   3.289   1.001   2.944
 8991SOL     OW27871   1.305   2.868   0.896
 8991SOL    HW127872   1.404   2.867   0.893
 8991SOL    HW227873   1.268   2.841   0.807
 8992SOL     OW27874   6.402   4.252   6.223
 8992SOL    HW127875   6.387   4.239   6.125
 8992SOL    HW227876   6.342   4.325   6.256
 8993SOL     OW27877   5.545   4.331   4.793
 8993SOL    HW127878   5.598   4.416   4.800
 8993SOL    HW227879   5.482   4.337   4.716
 8994SOL     OW27880   1.513   6.250   2.694
 8994SOL    HW127881   1.505   6.317   2.768
 8994SOL    HW227882   1.563   6.291   2.617
 8995SOL     OW27883   2.228   4.008   4.420
 8995SOL    HW127884   2.212   3.986   4.516
 8995SOL    HW227885   2.141   4.010   4.371
 8996SOL     OW27886   1.932   3.718   1.427
 8996SOL    HW127887   2.012   3.673   1.386
 8996SOL    HW227888   1.950   3.816   1.435
 8997SOL     OW27889   4.371   1.049   5.503
 8997SOL    HW127890   4.404   1.143   5.500
 8997SOL    HW227891   4.313   1.038   5.584
 8998SOL     OW27892   0.531   1.592   6.091
 8998SOL    HW127893   0.612   1.540   6.061
 8998SOL    HW227894   0.462   1.528   6.124
 8999SOL     OW27895   5.289   2.636   5.570
 8999SOL    HW127896   5.210   2.684   5.532
 8999SOL    HW227897   5.358   2.702   5.599
 9000SOL     OW27898   3.559   5.059   0.699
 9000SOL    HW127899   3.602   5.003   0.629
 9000SOL    HW227900   3.550   5.006   0.784
 9001SOL     OW27901   2.103   4.070   3.459
 9001SOL    HW127902   2.084   4.126   3.540
 9001SOL    HW227903   2.199   4.083   3.432
 9002SOL     OW27904   5.489   4.168   5.489
 9002SOL    HW127905   5.569   4.124   5.447
 9002SOL    HW227906   5.503   4.174   5.588
 9003SOL     OW27907   6.384   3.231   6.542
 9003SOL    HW127908   6.340   3.164   6.601
 9003SOL    HW227909   6.359   3.213   6.447
 9004SOL     OW27910   4.796   5.498   0.960
 9004SOL    HW127911   4.805   5.410   1.007
 9004SOL    HW227912   4.776   5.570   1.028
 9005SOL     OW27913   5.070   2.812   3.735
 9005SOL    HW127914   5.139   2.779   3.798
 9005SOL    HW227915   5.024   2.735   3.691
 9006SOL     OW27916   2.316   6.904   0.981
 9006SOL    HW127917   2.346   6.811   0.960
 9006SOL    HW227918   2.396   6.965   0.982
 9007SOL     OW27919   2.301   6.063   5.020
 9007SOL    HW127920   2.369   6.063   4.946
 9007SOL    HW227921   2.299   5.973   5.063
 9008SOL     OW27922   0.508   4.239   2.640
 9008SOL    HW127923   0.597   4.251   2.595
 9008SOL    HW227924   0.513   4.277   2.732
 9009SOL     OW27925   4.421   6.210   6.975
 9009SOL    HW127926   4.362   6.272   0.004
 9009SOL    HW227927   4.404   6.116   7.003
 9010SOL     OW27928   7.008   5.292   4.715
 9010SOL    HW127929   6.972   5.381   4.687
 9010SOL    HW227930   0.068   5.271   4.662
 9011SOL     OW27931   4.523   2.322   2.654
 9011SOL    HW127932   4.552   2.369   2.571
 9011SOL    HW227933   4.430   2.288   2.643
 9012SOL     OW27934   5.208   5.303   2.252
 9012SOL    HW127935   5.293   5.343   2.218
 9012SOL    HW227936   5.154   5.374   2.297
 9013SOL     OW27937   4.611   6.473   2.694
 9013SOL    HW127938   4.581   6.543   2.760
 9013SOL    HW227939   4.587   6.503   2.601
 9014SOL     OW27940   2.334   0.626   1.203
 9014SOL    HW127941   2.383   0.675   1.131
 9014SOL    HW227942   2.297   0.541   1.166
 9015SOL     OW27943   6.236   1.818   4.855
 9015SOL    HW127944   6.191   1.905   4.874
 9015SOL    HW227945   6.292   1.826   4.772
 9016SOL     OW27946   6.859   5.815   6.282
 9016SOL    HW127947   6.821   5.724   6.301
 9016SOL    HW227948   6.910   5.847   6.362
 9017SOL     OW27949   6.977   3.748   2.911
 9017SOL    HW127950   7.015   3.835   2.880
 9017SOL    HW227951   6.945   3.757   3.005
 9018SOL     OW27952   3.845   1.823   5.948
 9018SOL    HW127953   3.836   1.909   5.898
 9018SOL    HW227954   3.909   1.763   5.900
 9019SOL     OW27955   1.629   5.454   0.058
 9019SOL    HW127956   1.646   5.551   0.041
 9019SOL    HW227957   1.660   5.400   7.002
 9020SOL     OW27958   1.206   4.781   4.049
 9020SOL    HW127959   1.220   4.880   4.060
 9020SOL    HW227960   1.108   4.760   4.060
 9021SOL     OW27961   6.262   5.655   5.409
 9021SOL    HW127962   6.183   5.598   5.387
 9021SOL    HW227963   6.313   5.676   5.325
 9022SOL     OW27964   2.953   6.343   6.662
 9022SOL    HW127965   3.009   6.331   6.581
 9022SOL    HW227966   2.964   6.264   6.723
 9023SOL     OW27967   3.364   3.128   3.617
 9023SOL    HW127968   3.374   3.044   3.670
 9023SOL    HW227969   3.444   3.142   3.559
 9024SOL     OW27970   1.104   0.422   6.564
 9024SOL    HW127971   1.008   0.436   6.588
 9024SOL    HW227972   1.109   0.384   6.471
 9025SOL     OW27973   0.187   3.687   0.209
 9025SOL    HW127974   0.197   3.631   0.127
 9025SOL    HW227975   0.230   3.641   0.286
 9026SOL     OW27976   3.002   3.280   5.641
 9026SOL    HW127977   3.004   3.368   5.593
 9026SOL    HW227978   3.005   3.295   5.739
 9027SOL     OW27979   2.310   2.661   2.439
 9027SOL    HW127980   2.303   2.597   2.516
 9027SOL    HW227981   2.318   2.609   2.354
 9028SOL     OW27982   2.814   4.729   4.551
 9028SOL    HW127983   2.868   4.664   4.498
 9028SOL    HW227984   2.717   4.707   4.542
 9029SOL     OW27985   5.775   5.450   2.514
 9029SOL    HW127986   5.706   5.482   2.449
 9029SOL    HW227987   5.766   5.500   2.600
 9030SOL     OW27988   3.810   2.116   2.257
 9030SOL    HW127989   3.804   2.157   2.166
 9030SOL    HW227990   3.745   2.162   2.318
 9031SOL     OW27991   1.595   1.227   1.319
 9031SOL    HW127992   1.668   1.159   1.314
 9031SOL    HW227993   1.536   1.220   1.238
 9032SOL     OW27994   0.953   2.486   2.534
 9032SOL    HW127995   0.997   2.399   2.512
 9032SOL    HW227996   0.855   2.471   2.548
 9033SOL     OW27997   1.409   3.972   1.770
 9033SOL    HW127998   1.458   3.969   1.857
 9033SOL    HW227999   1.389   4.067   1.746
 9034SOL     OW28000   1.798   6.693   6.804
 9034SOL    HW128001   1.884   6.730   6.767
 9034SOL    HW228002   1.813   6.598   6.834
 9035SOL     OW28003   7.021   0.437   4.301
 9035SOL    HW128004   0.036   0.475   4.216
 9035SOL    HW228005   6.952   0.368   4.278
 9036SOL     OW28006   1.100   1.523   4.123
 9036SOL    HW128007   1.042   1.496   4.200
 9036SOL    HW228008   1.182   1.465   4.121
 9037SOL     OW28009   2.693   3.769   5.789
 9037SOL    HW128010   2.656   3.856   5.819
 9037SOL    HW228011   2.626   3.722   5.730
 9038SOL     OW28012   4.575   5.964   5.025
 9038SOL    HW128013   4.607   6.059   5.024
 9038SOL    HW228014   4.479   5.961   4.998
 9039SOL     OW28015   2.723   4.379   6.682
 9039SOL    HW128016   2.711   4.459   6.624
 9039SOL    HW228017   2.641   4.365   6.737
 9040SOL     OW28018   2.866   1.941   2.275
 9040SOL    HW128019   2.834   1.984   2.191
 9040SOL    HW228020   2.804   1.868   2.301
 9041SOL     OW28021   1.736   3.080   6.416
 9041SOL    HW128022   1.725   3.161   6.474
 9041SOL    HW228023   1.693   3.097   6.327
 9042SOL     OW28024   2.315   5.471   3.139
 9042SOL    HW128025   2.353   5.557   3.171
 9042SOL    HW228026   2.316   5.404   3.214
 9043SOL     OW28027   6.361   2.053   0.664
 9043SOL    HW128028   6.365   2.100   0.751
 9043SOL    HW228029   6.336   2.118   0.592
 9044SOL     OW28030   6.793   4.099   0.426
 9044SOL    HW128031   6.701   4.085   0.389
 9044SOL    HW228032   6.859   4.102   0.351
 9045SOL     OW28033   2.403   5.497   3.862
 9045SOL    HW128034   2.366   5.589   3.855
 9045SOL    HW228035   2.426   5.477   3.957
 9046SOL     OW28036   3.844   4.457   6.040
 9046SOL    HW128037   3.754   4.455   6.084
 9046SOL    HW228038   3.915   4.436   6.108
 9047SOL     OW28039   1.101   4.350   4.555
 9047SOL    HW128040   1.017   4.296   4.569
 9047SOL    HW228041   1.181   4.292   4.572
 9048SOL     OW28042   1.770   2.210   5.049
 9048SOL    HW128043   1.771   2.296   4.998
 9048SOL    HW228044   1.689   2.208   5.108
 9049SOL     OW28045   4.766   6.355   6.670
 9049SOL    HW128046   4.786   6.345   6.572
 9049SOL    HW228047   4.829   6.421   6.710
 9050SOL     OW28048   6.789   5.133   5.550
 9050SOL    HW128049   6.872   5.080   5.530
 9050SOL    HW228050   6.730   5.079   5.610
 9051SOL     OW28051   5.414   6.648   6.038
 9051SOL    HW128052   5.503   6.607   6.018
 9051SOL    HW228053   5.418   6.698   6.125
 9052SOL     OW28054   2.912   5.312   4.965
 9052SOL    HW128055   2.894   5.265   4.878
 9052SOL    HW228056   2.826   5.348   5.002
 9053SOL     OW28057   3.283   1.587   3.060
 9053SOL    HW128058   3.212   1.653   3.087
 9053SOL    HW228059   3.316   1.610   2.969
 9054SOL     OW28060   2.439   0.137   0.915
 9054SOL    HW128061   2.539   0.135   0.922
 9054SOL    HW228062   2.401   0.177   0.999
 9055SOL     OW28063   0.653   2.711   5.057
 9055SOL    HW128064   0.678   2.700   4.960
 9055SOL    HW228065   0.594   2.634   5.084
 9056SOL     OW28066   4.775   2.815   2.702
 9056SOL    HW128067   4.753   2.744   2.768
 9056SOL    HW228068   4.804   2.898   2.750
 9057SOL     OW28069   3.795   6.304   0.476
 9057SOL    HW128070   3.796   6.379   0.542
 9057SOL    HW228071   3.860   6.234   0.503
 9058SOL     OW28072   2.385   2.666   4.498
 9058SOL    HW128073   2.369   2.596   4.567
 9058SOL    HW228074   2.460   2.638   4.438
 9059SOL     OW28075   0.296   1.088   2.506
 9059SOL    HW128076   0.314   1.022   2.578
 9059SOL    HW228077   0.341   1.175   2.528
 9060SOL     OW28078   0.297   5.304   1.151
 9060SOL    HW128079   0.264   5.363   1.078
 9060SOL    HW228080   0.396   5.290   1.140
 9061SOL     OW28081   5.205   4.047   2.450
 9061SOL    HW128082   5.136   4.079   2.515
 9061SOL    HW228083   5.167   3.972   2.395
 9062SOL     OW28084   1.246   5.698   2.843
 9062SOL    HW128085   1.302   5.652   2.912
 9062SOL    HW228086   1.233   5.794   2.870
 9063SOL     OW28087   4.725   1.468   1.605
 9063SOL    HW128088   4.629   1.447   1.621
 9063SOL    HW228089   4.780   1.431   1.680
 9064SOL     OW28090   1.285   5.883   3.306
 9064SOL    HW128091   1.195   5.840   3.319
 9064SOL    HW228092   1.333   5.838   3.231
 9065SOL     OW28093   3.702   4.273   6.517
 9065SOL    HW128094   3.628   4.272   6.584
 9065SOL    HW228095   3.787   4.245   6.562
 9066SOL     OW28096   4.316   5.281   4.065
 9066SOL    HW128097   4.406   5.322   4.082
 9066SOL    HW228098   4.262   5.341   4.008
 9067SOL     OW28099   1.884   6.648   4.453
 9067SOL    HW128100   1.799   6.617   4.411
 9067SOL    HW228101   1.872   6.656   4.552
 9068SOL     OW28102   3.832   0.635   6.227
 9068SOL    HW128103   3.881   0.660   6.143
 9068SOL    HW228104   3.781   0.713   6.261
 9069SOL     OW28105   5.428   2.843   1.936
 9069SOL    HW128106   5.462   2.766   1.882
 9069SOL    HW228107   5.334   2.864   1.910
 9070SOL     OW28108   1.865   1.509   5.549
 9070SOL    HW128109   1.786   1.468   5.594
 9070SOL    HW228110   1.877   1.603   5.582
 9071SOL     OW28111   5.614   2.508   6.557
 9071SOL    HW128112   5.642   2.469   6.470
 9071SOL    HW228113   5.687   2.496   6.625
 9072SOL     OW28114   5.540   0.096   2.482
 9072SOL    HW128115   5.497   0.009   2.456
 9072SOL    HW228116   5.617   0.079   2.543
 9073SOL     OW28117   4.771   2.955   5.265
 9073SOL    HW128118   4.754   2.883   5.198
 9073SOL    HW228119   4.685   2.989   5.301
 9074SOL     OW28120   1.922   1.256   2.973
 9074SOL    HW128121   1.832   1.213   2.979
 9074SOL    HW228122   1.915   1.353   2.997
 9075SOL     OW28123   5.773   6.276   0.374
 9075SOL    HW128124   5.694   6.228   0.412
 9075SOL    HW228125   5.748   6.321   0.289
 9076SOL     OW28126   0.821   6.739   2.444
 9076SOL    HW128127   0.920   6.738   2.426
 9076SOL    HW228128   0.772   6.742   2.357
 9077SOL     OW28129   6.169   1.812   6.682
 9077SOL    HW128130   6.126   1.737   6.732
 9077SOL    HW228131   6.153   1.799   6.584
 9078SOL     OW28132   5.287   0.418   0.196
 9078SOL    HW128133   5.294   0.328   0.154
 9078SOL    HW228134   5.223   0.415   0.273
 9079SOL     OW28135   0.602   1.459   6.427
 9079SOL    HW128136   0.589   1.556   6.448
 9079SOL    HW228137   0.679   1.449   6.364
 9080SOL     OW28138   6.213   3.999   2.164
 9080SOL    HW128139   6.234   4.076   2.225
 9080SOL    HW228140   6.156   3.933   2.212
 9081SOL     OW28141   4.705   1.557   0.777
 9081SOL    HW128142   4.707   1.523   0.683
 9081SOL    HW228143   4.783   1.618   0.792
 9082SOL     OW28144   3.478   5.361   6.215
 9082SOL    HW128145   3.400   5.407   6.172
 9082SOL    HW228146   3.527   5.306   6.148
 9083SOL     OW28147   3.574   6.975   0.907
 9083SOL    HW128148   3.626   6.938   0.830
 9083SOL    HW228149   3.561   0.051   0.895
 9084SOL     OW28150   6.958   3.838   4.915
 9084SOL    HW128151   7.019   3.900   4.964
 9084SOL    HW228152   7.009   3.791   4.843
 9085SOL     OW28153   2.777   5.139   0.118
 9085SOL    HW128154   2.845   5.210   0.138
 9085SOL    HW228155   2.790   5.062   0.181
 9086SOL     OW28156   0.157   3.237   0.613
 9086SOL    HW128157   0.085   3.219   0.546
 9086SOL    HW228158   0.174   3.335   0.619
 9087SOL     OW28159   5.197   1.320   0.966
 9087SOL    HW128160   5.149   1.331   1.053
 9087SOL    HW228161   5.255   1.400   0.950
 9088SOL     OW28162   6.140   5.692   0.245
 9088SOL    HW128163   6.103   5.707   0.154
 9088SOL    HW228164   6.140   5.777   0.297
 9089SOL     OW28165   4.954   5.712   3.661
 9089SOL    HW128166   4.983   5.668   3.576
 9089SOL    HW228167   5.017   5.786   3.683
 9090SOL     OW28168   5.175   5.789   5.908
 9090SOL    HW128169   5.265   5.808   5.869
 9090SOL    HW228170   5.148   5.865   5.967
 9091SOL     OW28171   2.857   2.146   1.821
 9091SOL    HW128172   2.831   2.067   1.876
 9091SOL    HW228173   2.872   2.225   1.881
 9092SOL     OW28174   2.280   1.365   5.069
 9092SOL    HW128175   2.290   1.456   5.029
 9092SOL    HW228176   2.241   1.373   5.160
 9093SOL     OW28177   2.461   3.559   0.943
 9093SOL    HW128178   2.531   3.493   0.917
 9093SOL    HW228179   2.496   3.652   0.929
 9094SOL     OW28180   6.519   4.143   0.592
 9094SOL    HW128181   6.520   4.164   0.494
 9094SOL    HW228182   6.427   4.117   0.620
 9095SOL     OW28183   2.080   3.274   0.109
 9095SOL    HW128184   1.997   3.265   0.054
 9095SOL    HW228185   2.074   3.358   0.164
 9096SOL     OW28186   6.239   3.357   3.033
 9096SOL    HW128187   6.301   3.299   3.086
 9096SOL    HW228188   6.169   3.300   2.990
 9097SOL     OW28189   6.480   5.494   5.866
 9097SOL    HW128190   6.486   5.394   5.866
 9097SOL    HW228191   6.571   5.534   5.855
 9098SOL     OW28192   3.753   3.752   4.494
 9098SOL    HW128193   3.656   3.775   4.501
 9098SOL    HW228194   3.767   3.658   4.525
 9099SOL     OW28195   2.208   2.243   0.373
 9099SOL    HW128196   2.206   2.276   0.467
 9099SOL    HW228197   2.239   2.147   0.372
 9100SOL     OW28198   1.081   2.745   0.395
 9100SOL    HW128199   1.156   2.681   0.374
 9100SOL    HW228200   1.080   2.818   0.327
 9101SOL     OW28201   2.061   2.276   6.993
 9101SOL    HW128202   2.000   2.326   6.932
 9101SOL    HW228203   2.063   2.180   6.966
 9102SOL     OW28204   5.097   6.685   2.684
 9102SOL    HW128205   5.175   6.681   2.746
 9102SOL    HW228206   5.014   6.660   2.734
 9103SOL     OW28207   0.286   4.053   6.380
 9103SOL    HW128208   0.350   4.064   6.457
 9103SOL    HW228209   0.192   4.051   6.415
 9104SOL     OW28210   5.139   0.311   1.724
 9104SOL    HW128211   5.234   0.326   1.694
 9104SOL    HW228212   5.107   0.222   1.691
 9105SOL     OW28213   2.458   1.634   5.662
 9105SOL    HW128214   2.393   1.572   5.706
 9105SOL    HW228215   2.519   1.673   5.732
 9106SOL     OW28216   6.380   5.100   1.514
 9106SOL    HW128217   6.445   5.173   1.494
 9106SOL    HW228218   6.430   5.015   1.532
 9107SOL     OW28219   4.636   0.371   1.047
 9107SOL    HW128220   4.603   0.463   1.068
 9107SOL    HW228221   4.616   0.349   0.952
 9108SOL     OW28222   4.037   6.118   6.977
 9108SOL    HW128223   3.941   6.144   6.971
 9108SOL    HW228224   4.072   6.140   0.046
 9109SOL     OW28225   2.742   1.762   4.355
 9109SOL    HW128226   2.672   1.816   4.309
 9109SOL    HW228227   2.739   1.781   4.453
 9110SOL     OW28228   1.402   2.934   2.968
 9110SOL    HW128229   1.437   2.842   2.979
 9110SOL    HW228230   1.306   2.930   2.937
 9111SOL     OW28231   4.367   4.001   1.694
 9111SOL    HW128232   4.305   3.947   1.751
 9111SOL    HW228233   4.393   4.085   1.743
 9112SOL     OW28234   0.578   4.947   2.366
 9112SOL    HW128235   0.661   4.908   2.327
 9112SOL    HW228236   0.560   4.907   2.456
 9113SOL     OW28237   3.587   6.181   0.357
 9113SOL    HW128238   3.657   6.244   0.390
 9113SOL    HW228239   3.505   6.232   0.332
 9114SOL     OW28240   2.524   4.406   1.701
 9114SOL    HW128241   2.446   4.414   1.763
 9114SOL    HW228242   2.525   4.484   1.639
 9115SOL     OW28243   1.936   4.359   3.947
 9115SOL    HW128244   2.028   4.399   3.948
 9115SOL    HW228245   1.873   4.422   3.904
 9116SOL     OW28246   1.943   1.323   5.937
 9116SOL    HW128247   1.970   1.372   5.855
 9116SOL    HW228248   1.974   1.373   6.018
 9117SOL     OW28249   6.539   2.460   6.732
 9117SOL    HW128250   6.607   2.504   6.791
 9117SOL    HW228251   6.585   2.402   6.665
 9118SOL     OW28252   0.202   5.767   1.559
 9118SOL    HW128253   0.275   5.771   1.628
 9118SOL    HW228254   0.230   5.708   1.484
 9119SOL     OW28255   6.177   6.912   1.286
 9119SOL    HW128256   6.123   6.996   1.275
 9119SOL    HW228257   6.149   6.847   1.216
 9120SOL     OW28258   5.484   1.192   6.391
 9120SOL    HW128259   5.477   1.265   6.324
 9120SOL    HW228260   5.570   1.200   6.441
 9121SOL     OW28261   1.735   0.933   6.777
 9121SOL    HW128262   1.823   0.943   6.730
 9121SOL    HW228263   1.666   0.901   6.713
 9122SOL     OW28264   0.535   2.575   0.966
 9122SOL    HW128265   0.582   2.635   1.031
 9122SOL    HW228266   0.584   2.575   0.879
 9123SOL     OW28267   2.968   5.784   0.148
 9123SOL    HW128268   2.920   5.863   0.110
 9123SOL    HW228269   2.902   5.712   0.169
 9124SOL     OW28270   5.769   4.811   5.539
 9124SOL    HW128271   5.837   4.757   5.589
 9124SOL    HW228272   5.789   4.909   5.551
 9125SOL     OW28273   4.800   6.307   2.583
 9125SOL    HW128274   4.778   6.391   2.633
 9125SOL    HW228275   4.732   6.237   2.606
 9126SOL     OW28276   5.939   0.803   2.258
 9126SOL    HW128277   5.907   0.770   2.347
 9126SOL    HW228278   5.885   0.883   2.230
 9127SOL     OW28279   4.934   0.310   6.652
 9127SOL    HW128280   4.977   0.291   6.740
 9127SOL    HW228281   4.962   0.401   6.621
 9128SOL     OW28282   4.714   2.456   5.033
 9128SOL    HW128283   4.715   2.391   5.109
 9128SOL    HW228284   4.775   2.424   4.961
 9129SOL     OW28285   1.860   1.858   6.141
 9129SOL    HW128286   1.891   1.947   6.108
 9129SOL    HW228287   1.802   1.869   6.221
 9130SOL     OW28288   5.949   5.195   0.681
 9130SOL    HW128289   6.036   5.244   0.680
 9130SOL    HW228290   5.962   5.103   0.718
 9131SOL     OW28291   0.621   4.126   4.209
 9131SOL    HW128292   0.682   4.047   4.210
 9131SOL    HW228293   0.662   4.201   4.260
 9132SOL     OW28294   0.896   3.205   4.781
 9132SOL    HW128295   0.841   3.284   4.805
 9132SOL    HW228296   0.915   3.206   4.683
 9133SOL     OW28297   1.572   4.332   1.175
 9133SOL    HW128298   1.536   4.326   1.082
 9133SOL    HW228299   1.670   4.352   1.172
 9134SOL     OW28300   3.179   5.240   6.219
 9134SOL    HW128301   3.244   5.219   6.292
 9134SOL    HW228302   3.120   5.315   6.248
 9135SOL     OW28303   6.799   6.185   4.241
 9135SOL    HW128304   6.715   6.176   4.294
 9135SOL    HW228305   6.803   6.114   4.171
 9136SOL     OW28306   4.637   4.602   5.625
 9136SOL    HW128307   4.722   4.606   5.574
 9136SOL    HW228308   4.649   4.648   5.713
 9137SOL     OW28309   4.218   1.077   2.368
 9137SOL    HW128310   4.234   0.989   2.324
 9137SOL    HW228311   4.244   1.150   2.305
 9138SOL     OW28312   3.768   5.026   0.169
 9138SOL    HW128313   3.684   5.074   0.144
 9138SOL    HW228314   3.809   4.985   0.088
 9139SOL     OW28315   2.577   1.216   5.887
 9139SOL    HW128316   2.494   1.173   5.922
 9139SOL    HW228317   2.565   1.315   5.887
 9140SOL     OW28318   6.945   2.262   3.844
 9140SOL    HW128319   6.922   2.167   3.824
 9140SOL    HW228320   7.017   2.293   3.783
 9141SOL     OW28321   5.880   0.433   5.988
 9141SOL    HW128322   5.883   0.427   6.088
 9141SOL    HW228323   5.793   0.397   5.955
 9142SOL     OW28324   0.427   3.891   6.225
 9142SOL    HW128325   0.365   3.952   6.275
 9142SOL    HW228326   0.382   3.860   6.141
 9143SOL     OW28327   5.076   3.350   0.797
 9143SOL    HW128328   5.027   3.431   0.829
 9143SOL    HW228329   5.062   3.339   0.699
 9144SOL     OW28330   2.058   4.435   5.120
 9144SOL    HW128331   2.137   4.436   5.059
 9144SOL    HW228332   1.979   4.476   5.074
 9145SOL     OW28333   0.469   4.346   6.470
 9145SOL    HW128334   0.476   4.341   6.370
 9145SOL    HW228335   0.377   4.375   6.496
 9146SOL     OW28336   6.332   2.164   2.270
 9146SOL    HW128337   6.274   2.227   2.218
 9146SOL    HW228338   6.403   2.217   2.318
 9147SOL     OW28339   4.283   5.699   5.837
 9147SOL    HW128340   4.208   5.751   5.880
 9147SOL    HW228341   4.296   5.732   5.744
 9148SOL     OW28342   4.121   6.134   2.976
 9148SOL    HW128343   4.078   6.117   2.888
 9148SOL    HW228344   4.220   6.124   2.967
 9149SOL     OW28345   5.644   3.599   3.856
 9149SOL    HW128346   5.562   3.631   3.904
 9149SOL    HW228347   5.684   3.674   3.805
 9150SOL     OW28348   4.919   1.105   2.979
 9150SOL    HW128349   4.920   1.084   3.076
 9150SOL    HW228350   4.830   1.143   2.954
 9151SOL     OW28351   1.586   3.907   2.029
 9151SOL    HW128352   1.551   3.979   2.089
 9151SOL    HW228353   1.673   3.873   2.065
 9152SOL     OW28354   2.532   5.763   2.635
 9152SOL    HW128355   2.495   5.732   2.723
 9152SOL    HW228356   2.460   5.762   2.566
 9153SOL     OW28357   1.577   3.118   6.210
 9153SOL    HW128358   1.560   3.082   6.119
 9153SOL    HW228359   1.491   3.151   6.249
 9154SOL     OW28360   2.176   5.969   0.355
 9154SOL    HW128361   2.188   5.934   0.448
 9154SOL    HW228362   2.162   5.893   0.292
 9155SOL     OW28363   1.434   4.068   0.618
 9155SOL    HW128364   1.482   3.987   0.586
 9155SOL    HW228365   1.348   4.041   0.661
 9156SOL     OW28366   4.840   2.581   1.639
 9156SOL    HW128367   4.829   2.657   1.576
 9156SOL    HW228368   4.796   2.603   1.726
 9157SOL     OW28369   5.212   3.893   5.373
 9157SOL    HW128370   5.178   3.896   5.467
 9157SOL    HW228371   5.147   3.939   5.312
 9158SOL     OW28372   0.631   4.070   3.848
 9158SOL    HW128373   0.637   3.970   3.854
 9158SOL    HW228374   0.658   4.099   3.756
 9159SOL     OW28375   6.781   4.347   3.105
 9159SOL    HW128376   6.782   4.441   3.070
 9159SOL    HW228377   6.707   4.337   3.171
 9160SOL     OW28378   6.543   6.852   6.674
 9160SOL    HW128379   6.543   6.921   6.601
 9160SOL    HW228380   6.581   6.892   6.757
 9161SOL     OW28381   5.092   4.068   4.484
 9161SOL    HW128382   5.010   4.012   4.495
 9161SOL    HW228383   5.102   4.093   4.388
 9162SOL     OW28384   4.977   2.251   2.747
 9162SOL    HW128385   4.914   2.328   2.735
 9162SOL    HW228386   4.926   2.165   2.747
 9163SOL     OW28387   3.278   1.903   4.031
 9163SOL    HW128388   3.348   1.842   4.068
 9163SOL    HW228389   3.204   1.849   3.991
 9164SOL     OW28390   3.140   0.477   0.516
 9164SOL    HW128391   3.057   0.431   0.484
 9164SOL    HW228392   3.196   0.412   0.568
 9165SOL     OW28393   6.047   6.903   6.927
 9165SOL    HW128394   6.036   6.884   6.830
 9165SOL    HW228395   6.095   6.990   6.939
 9166SOL     OW28396   3.171   5.544   1.174
 9166SOL    HW128397   3.087   5.514   1.128
 9166SOL    HW228398   3.174   5.644   1.176
 9167SOL     OW28399   1.501   4.445   5.158
 9167SOL    HW128400   1.443   4.458   5.077
 9167SOL    HW228401   1.584   4.500   5.148
 9168SOL     OW28402   2.112   0.916   6.348
 9168SOL    HW128403   2.096   0.823   6.318
 9168SOL    HW228404   2.096   0.979   6.272
 9169SOL     OW28405   6.992   0.110   3.782
 9169SOL    HW128406   0.032   0.069   3.848
 9169SOL    HW228407   7.016   0.206   3.770
 9170SOL     OW28408   6.310   6.146   6.519
 9170SOL    HW128409   6.235   6.097   6.563
 9170SOL    HW228410   6.383   6.081   6.497
 9171SOL     OW28411   2.626   5.918   6.511
 9171SOL    HW128412   2.673   5.862   6.580
 9171SOL    HW228413   2.623   6.013   6.542
 9172SOL     OW28414   3.001   1.945   4.186
 9172SOL    HW128415   3.031   1.895   4.104
 9172SOL    HW228416   3.068   2.016   4.207
 9173SOL     OW28417   0.564   5.342   4.396
 9173SOL    HW128418   0.647   5.398   4.391
 9173SOL    HW228419   0.571   5.279   4.473
 9174SOL     OW28420   0.678   4.944   0.561
 9174SOL    HW128421   0.645   4.891   0.482
 9174SOL    HW228422   0.645   4.902   0.645
 9175SOL     OW28423   1.934   6.207   5.867
 9175SOL    HW128424   2.003   6.205   5.794
 9175SOL    HW228425   1.952   6.134   5.933
 9176SOL     OW28426   2.342   0.703   6.065
 9176SOL    HW128427   2.343   0.646   5.983
 9176SOL    HW228428   2.371   0.648   6.144
 9177SOL     OW28429   0.912   5.060   3.972
 9177SOL    HW128430   0.986   5.033   4.034
 9177SOL    HW228431   0.948   5.069   3.879
 9178SOL     OW28432   2.743   4.700   7.004
 9178SOL    HW128433   2.774   4.609   6.975
 9178SOL    HW228434   2.664   4.690   0.042
 9179SOL     OW28435   3.599   5.122   4.296
 9179SOL    HW128436   3.546   5.047   4.257
 9179SOL    HW228437   3.696   5.108   4.278
 9180SOL     OW28438   5.302   1.740   3.187
 9180SOL    HW128439   5.358   1.822   3.172
 9180SOL    HW228440   5.219   1.746   3.132
 9181SOL     OW28441   4.410   1.683   2.459
 9181SOL    HW128442   4.429   1.776   2.489
 9181SOL    HW228443   4.348   1.639   2.525
 9182SOL     OW28444   1.366   6.849   1.341
 9182SOL    HW128445   1.358   6.844   1.441
 9182SOL    HW228446   1.458   6.881   1.317
 9183SOL     OW28447   5.143   6.095   0.436
 9183SOL    HW128448   5.068   6.083   0.371
 9183SOL    HW228449   5.228   6.064   0.394
 9184SOL     OW28450   5.039   0.239   0.316
 9184SOL    HW128451   4.957   0.185   0.293
 9184SOL    HW228452   5.120   0.182   0.307
 9185SOL     OW28453   3.601   1.054   5.098
 9185SOL    HW128454   3.584   1.072   5.001
 9185SOL    HW228455   3.692   1.015   5.109
 9186SOL     OW28456   5.424   0.790   6.231
 9186SOL    HW128457   5.474   0.864   6.185
 9186SOL    HW228458   5.432   0.706   6.177
 9187SOL     OW28459   2.159   6.130   2.263
 9187SOL    HW128460   2.231   6.133   2.194
 9187SOL    HW228461   2.152   6.036   2.299
 9188SOL     OW28462   2.622   6.213   0.911
 9188SOL    HW128463   2.693   6.205   0.981
 9188SOL    HW228464   2.616   6.128   0.860
 9189SOL     OW28465   5.294   5.558   2.446
 9189SOL    HW128466   5.196   5.546   2.432
 9189SOL    HW228467   5.322   5.511   2.530
 9190SOL     OW28468   2.081   5.076   0.261
 9190SOL    HW128469   2.140   5.152   0.288
 9190SOL    HW228470   2.065   5.078   0.163
 9191SOL     OW28471   0.077   0.425   6.017
 9191SOL    HW128472   0.137   0.503   6.000
 9191SOL    HW228473   0.021   0.408   5.936
 9192SOL     OW28474   6.971   4.108   4.294
 9192SOL    HW128475   6.920   4.062   4.220
 9192SOL    HW228476   0.045   4.081   4.289
 9193SOL     OW28477   2.768   3.324   6.900
 9193SOL    HW128478   2.687   3.316   6.958
 9193SOL    HW228479   2.740   3.350   6.808
 9194SOL     OW28480   3.803   0.524   3.885
 9194SOL    HW128481   3.874   0.454   3.886
 9194SOL    HW228482   3.838   0.608   3.842
 9195SOL     OW28483   1.857   1.679   4.037
 9195SOL    HW128484   1.893   1.593   4.002
 9195SOL    HW228485   1.930   1.748   4.036
 9196SOL     OW28486   4.925   2.517   5.342
 9196SOL    HW128487   4.919   2.422   5.372
 9196SOL    HW228488   4.833   2.553   5.329
 9197SOL     OW28489   2.333   3.669   1.657
 9197SOL    HW128490   2.327   3.762   1.693
 9197SOL    HW228491   2.350   3.605   1.731
 9198SOL     OW28492   6.941   4.663   4.249
 9198SOL    HW128493   6.857   4.614   4.272
 9198SOL    HW228494   7.018   4.623   4.298
 9199SOL     OW28495   6.310   4.278   4.801
 9199SOL    HW128496   6.383   4.342   4.821
 9199SOL    HW228497   6.227   4.328   4.775
 9200SOL     OW28498   3.081   6.991   0.510
 9200SOL    HW128499   3.173   0.008   0.519
 9200SOL    HW228500   3.084   6.894   0.537
 9201SOL     OW28501   1.742   4.368   0.644
 9201SOL    HW128502   1.690   4.413   0.716
 9201SOL    HW228503   1.800   4.435   0.598
 9202SOL     OW28504   2.170   0.401   3.232
 9202SOL    HW128505   2.263   0.368   3.242
 9202SOL    HW228506   2.113   0.330   3.190
 9203SOL     OW28507   6.890   6.406   0.978
 9203SOL    HW128508   6.961   6.431   1.044
 9203SOL    HW228509   6.932   6.357   0.902
 9204SOL     OW28510   5.042   1.209   6.046
 9204SOL    HW128511   4.974   1.193   6.117
 9204SOL    HW228512   5.076   1.122   6.011
 9205SOL     OW28513   6.978   4.225   1.809
 9205SOL    HW128514   6.950   4.264   1.897
 9205SOL    HW228515   0.039   4.172   1.822
 9206SOL     OW28516   3.365   5.723   0.566
 9206SOL    HW128517   3.344   5.684   0.656
 9206SOL    HW228518   3.451   5.685   0.532
 9207SOL     OW28519   4.755   5.494   6.898
 9207SOL    HW128520   4.730   5.455   6.986
 9207SOL    HW228521   4.772   5.421   6.832
 9208SOL     OW28522   0.937   3.883   3.360
 9208SOL    HW128523   0.958   3.897   3.264
 9208SOL    HW228524   0.934   3.785   3.380
 9209SOL     OW28525   2.819   0.848   6.522
 9209SOL    HW128526   2.903   0.794   6.518
 9209SOL    HW228527   2.841   0.944   6.537
 9210SOL     OW28528   0.055   0.695   3.291
 9210SOL    HW128529   0.149   0.715   3.265
 9210SOL    HW228530   7.017   0.764   3.252
 9211SOL     OW28531   0.817   1.528   2.774
 9211SOL    HW128532   0.832   1.567   2.865
 9211SOL    HW228533   0.876   1.448   2.763
 9212SOL     OW28534   3.157   4.997   4.226
 9212SOL    HW128535   3.089   4.938   4.182
 9212SOL    HW228536   3.207   5.047   4.156
 9213SOL     OW28537   5.673   3.883   6.602
 9213SOL    HW128538   5.629   3.922   6.521
 9213SOL    HW228539   5.772   3.883   6.589
 9214SOL     OW28540   6.941   4.845   0.816
 9214SOL    HW128541   7.016   4.849   0.882
 9214SOL    HW228542   6.883   4.766   0.835
 9215SOL     OW28543   0.681   1.151   0.887
 9215SOL    HW128544   0.732   1.224   0.842
 9215SOL    HW228545   0.620   1.106   0.821
 9216SOL     OW28546   2.444   6.556   3.104
 9216SOL    HW128547   2.501   6.595   3.176
 9216SOL    HW228548   2.493   6.479   3.061
 9217SOL     OW28549   1.104   2.446   6.788
 9217SOL    HW128550   1.197   2.453   6.755
 9217SOL    HW228551   1.040   2.470   6.715
 9218SOL     OW28552   2.687   0.505   0.351
 9218SOL    HW128553   2.651   0.415   0.327
 9218SOL    HW228554   2.611   0.567   0.372
 9219SOL     OW28555   6.925   2.243   0.894
 9219SOL    HW128556   6.892   2.158   0.853
 9219SOL    HW228557   6.941   2.310   0.822
 9220SOL     OW28558   3.295   6.467   1.895
 9220SOL    HW128559   3.384   6.511   1.877
 9220SOL    HW228560   3.311   6.374   1.928
 9221SOL     OW28561   3.078   5.618   4.048
 9221SOL    HW128562   3.165   5.612   4.097
 9221SOL    HW228563   3.035   5.528   4.045
 9222SOL     OW28564   2.533   2.193   5.955
 9222SOL    HW128565   2.630   2.214   5.964
 9222SOL    HW228566   2.521   2.119   5.890
 9223SOL     OW28567   2.728   3.135   5.304
 9223SOL    HW128568   2.719   3.233   5.290
 9223SOL    HW228569   2.652   3.088   5.259
 9224SOL     OW28570   2.389   4.585   5.441
 9224SOL    HW128571   2.428   4.500   5.405
 9224SOL    HW228572   2.308   4.610   5.387
 9225SOL     OW28573   2.158   6.252   6.989
 9225SOL    HW128574   2.141   6.351   6.982
 9225SOL    HW228575   2.096   6.204   6.927
 9226SOL     OW28576   4.182   6.743   1.253
 9226SOL    HW128577   4.243   6.729   1.175
 9226SOL    HW228578   4.202   6.674   1.323
 9227SOL     OW28579   1.668   5.945   2.587
 9227SOL    HW128580   1.661   6.028   2.642
 9227SOL    HW228581   1.599   5.879   2.616
 9228SOL     OW28582   0.998   0.023   6.379
 9228SOL    HW128583   0.939   6.982   6.329
 9228SOL    HW228584   0.995   0.113   6.335
 9229SOL     OW28585   0.522   5.118   5.201
 9229SOL    HW128586   0.579   5.184   5.154
 9229SOL    HW228587   0.546   5.025   5.170
 9230SOL     OW28588   5.546   0.190   4.217
 9230SOL    HW128589   5.569   0.201   4.121
 9230SOL    HW228590   5.625   0.216   4.273
 9231SOL     OW28591   1.604   2.757   3.189
 9231SOL    HW128592   1.513   2.716   3.181
 9231SOL    HW228593   1.594   2.854   3.211
 9232SOL     OW28594   3.906   4.853   1.396
 9232SOL    HW128595   3.835   4.912   1.357
 9232SOL    HW228596   3.919   4.876   1.493
 9233SOL     OW28597   5.079   5.196   1.039
 9233SOL    HW128598   4.993   5.232   1.075
 9233SOL    HW228599   5.098   5.107   1.078
 9234SOL     OW28600   2.076   6.189   3.715
 9234SOL    HW128601   2.008   6.260   3.733
 9234SOL    HW228602   2.162   6.213   3.761
 9235SOL     OW28603   0.666   2.266   3.205
 9235SOL    HW128604   0.691   2.361   3.189
 9235SOL    HW228605   0.749   2.210   3.208
 9236SOL     OW28606   3.172   2.821   5.638
 9236SOL    HW128607   3.107   2.891   5.607
 9236SOL    HW228608   3.139   2.731   5.613
 9237SOL     OW28609   1.846   3.587   3.484
 9237SOL    HW128610   1.828   3.634   3.571
 9237SOL    HW228611   1.829   3.489   3.495
 9238SOL     OW28612   4.464   3.147   6.040
 9238SOL    HW128613   4.470   3.245   6.059
 9238SOL    HW228614   4.424   3.100   6.118
 9239SOL     OW28615   2.156   4.142   0.655
 9239SOL    HW128616   2.189   4.079   0.585
 9239SOL    HW228617   2.072   4.106   0.696
 9240SOL     OW28618   4.564   1.285   2.357
 9240SOL    HW128619   4.525   1.276   2.448
 9240SOL    HW228620   4.641   1.222   2.347
 9241SOL     OW28621   0.547   5.820   6.325
 9241SOL    HW128622   0.602   5.748   6.367
 9241SOL    HW228623   0.608   5.888   6.283
 9242SOL     OW28624   6.943   6.042   1.901
 9242SOL    HW128625   7.005   6.024   1.824
 9242SOL    HW228626   6.921   6.140   1.903
 9243SOL     OW28627   6.119   6.034   4.782
 9243SOL    HW128628   6.152   5.940   4.778
 9243SOL    HW228629   6.149   6.076   4.868
 9244SOL     OW28630   3.626   5.111   6.618
 9244SOL    HW128631   3.562   5.153   6.554
 9244SOL    HW228632   3.668   5.031   6.575
 9245SOL     OW28633   0.395   5.115   0.829
 9245SOL    HW128634   0.330   5.185   0.801
 9245SOL    HW228635   0.488   5.145   0.807
 9246SOL     OW28636   0.110   4.929   4.382
 9246SOL    HW128637   0.062   5.004   4.335
 9246SOL    HW228638   0.194   4.964   4.423
 9247SOL     OW28639   1.645   6.360   2.488
 9247SOL    HW128640   1.662   6.339   2.392
 9247SOL    HW228641   1.674   6.454   2.507
 9248SOL     OW28642   2.948   1.468   6.562
 9248SOL    HW128643   3.042   1.437   6.548
 9248SOL    HW228644   2.899   1.401   6.618
 9249SOL     OW28645   4.675   0.480   3.809
 9249SOL    HW128646   4.608   0.415   3.845
 9249SOL    HW228647   4.754   0.430   3.775
 9250SOL     OW28648   5.197   3.688   4.010
 9250SOL    HW128649   5.218   3.660   4.104
 9250SOL    HW228650   5.099   3.711   4.004
 9251SOL     OW28651   3.144   2.070   2.575
 9251SOL    HW128652   3.129   2.105   2.667
 9251SOL    HW228653   3.066   2.094   2.517
 9252SOL     OW28654   1.436   0.016   4.768
 9252SOL    HW128655   1.476   0.072   4.696
 9252SOL    HW228656   1.455   6.942   4.749
 9253SOL     OW28657   1.245   6.660   5.787
 9253SOL    HW128658   1.310   6.730   5.759
 9253SOL    HW228659   1.162   6.666   5.732
 9254SOL     OW28660   5.785   3.421   1.406
 9254SOL    HW128661   5.832   3.393   1.490
 9254SOL    HW228662   5.755   3.516   1.415
 9255SOL     OW28663   5.954   4.566   0.929
 9255SOL    HW128664   5.872   4.579   0.984
 9255SOL    HW228665   5.934   4.506   0.851
 9256SOL     OW28666   4.203   4.965   1.713
 9256SOL    HW128667   4.187   4.912   1.797
 9256SOL    HW228668   4.153   5.051   1.717
 9257SOL     OW28669   0.950   4.344   1.205
 9257SOL    HW128670   1.037   4.308   1.173
 9257SOL    HW228671   0.877   4.278   1.185
 9258SOL     OW28672   4.010   3.826   3.631
 9258SOL    HW128673   3.955   3.750   3.597
 9258SOL    HW228674   4.093   3.835   3.576
 9259SOL     OW28675   0.764   2.796   0.057
 9259SOL    HW128676   0.770   2.885   0.103
 9259SOL    HW228677   0.778   2.723   0.124
 9260SOL     OW28678   5.540   3.481   6.383
 9260SOL    HW128679   5.462   3.497   6.445
 9260SOL    HW228680   5.509   3.494   6.289
 9261SOL     OW28681   4.577   6.881   6.753
 9261SOL    HW128682   4.550   6.846   6.663
 9261SOL    HW228683   4.674   6.863   6.768
 9262SOL     OW28684   4.634   1.055   5.502
 9262SOL    HW128685   4.542   1.038   5.467
 9262SOL    HW228686   4.698   0.990   5.460
 9263SOL     OW28687   5.345   3.628   1.449
 9263SOL    HW128688   5.395   3.555   1.496
 9263SOL    HW228689   5.368   3.627   1.352
 9264SOL     OW28690   6.272   3.369   0.477
 9264SOL    HW128691   6.340   3.297   0.462
 9264SOL    HW228692   6.222   3.386   0.392
 9265SOL     OW28693   1.828   0.713   6.441
 9265SOL    HW128694   1.893   0.669   6.379
 9265SOL    HW228695   1.873   0.786   6.491
 9266SOL     OW28696   1.942   6.153   2.536
 9266SOL    HW128697   2.032   6.190   2.558
 9266SOL    HW228698   1.934   6.142   2.436
 9267SOL     OW28699   2.165   4.614   5.306
 9267SOL    HW128700   2.128   4.538   5.253
 9267SOL    HW228701   2.129   4.700   5.270
 9268SOL     OW28702   6.954   0.628   2.844
 9268SOL    HW128703   6.992   0.720   2.829
 9268SOL    HW228704   6.955   0.608   2.942
 9269SOL     OW28705   3.458   1.313   5.964
 9269SOL    HW128706   3.530   1.305   5.894
 9269SOL    HW228707   3.369   1.320   5.919
 9270SOL     OW28708   0.181   0.016   5.557
 9270SOL    HW128709   0.250   0.080   5.521
 9270SOL    HW228710   0.227   6.967   5.609
 9271SOL     OW28711   1.654   4.906   0.195
 9271SOL    HW128712   1.717   4.976   0.226
 9271SOL    HW228713   1.578   4.898   0.260
 9272SOL     OW28714   2.693   4.599   6.536
 9272SOL    HW128715   2.602   4.634   6.514
 9272SOL    HW228716   2.757   4.675   6.546
 9273SOL     OW28717   3.714   6.484   5.469
 9273SOL    HW128718   3.742   6.468   5.375
 9273SOL    HW228719   3.785   6.535   5.517
 9274SOL     OW28720   6.421   1.903   0.228
 9274SOL    HW128721   6.520   1.889   0.222
 9274SOL    HW228722   6.374   1.818   0.203
 9275SOL     OW28723   1.282   0.619   6.666
 9275SOL    HW128724   1.228   0.541   6.633
 9275SOL    HW228725   1.248   0.648   6.756
 9276SOL     OW28726   4.607   6.255   4.980
 9276SOL    HW128727   4.633   6.288   4.889
 9276SOL    HW228728   4.688   6.256   5.040
 9277SOL     OW28729   3.443   3.299   0.249
 9277SOL    HW128730   3.350   3.314   0.217
 9277SOL    HW228731   3.457   3.201   0.266
 9278SOL     OW28732   1.226   2.211   1.638
 9278SOL    HW128733   1.312   2.201   1.688
 9278SOL    HW228734   1.245   2.218   1.540
 9279SOL     OW28735   3.305   0.120   2.111
 9279SOL    HW128736   3.234   0.155   2.172
 9279SOL    HW228737   3.262   0.068   2.037
 9280SOL     OW28738   2.254   0.157   3.475
 9280SOL    HW128739   2.276   0.230   3.411
 9280SOL    HW228740   2.279   0.069   3.436
 9281SOL     OW28741   1.912   2.222   0.322
 9281SOL    HW128742   1.873   2.145   0.373
 9281SOL    HW228743   2.011   2.212   0.317
 9282SOL     OW28744   4.660   2.105   5.902
 9282SOL    HW128745   4.654   2.063   5.993
 9282SOL    HW228746   4.586   2.171   5.891
 9283SOL     OW28747   5.783   2.522   2.160
 9283SOL    HW128748   5.694   2.534   2.117
 9283SOL    HW228749   5.850   2.582   2.115
 9284SOL     OW28750   3.055   3.601   1.418
 9284SOL    HW128751   3.034   3.582   1.322
 9284SOL    HW228752   3.027   3.523   1.474
 9285SOL     OW28753   6.264   3.049   6.674
 9285SOL    HW128754   6.172   3.079   6.696
 9285SOL    HW228755   6.259   2.969   6.613
 9286SOL     OW28756   5.489   6.477   5.374
 9286SOL    HW128757   5.441   6.392   5.396
 9286SOL    HW228758   5.426   6.554   5.382
 9287SOL     OW28759   3.192   6.628   1.687
 9287SOL    HW128760   3.281   6.659   1.654
 9287SOL    HW228761   3.203   6.588   1.779
 9288SOL     OW28762   4.979   2.579   6.005
 9288SOL    HW128763   5.058   2.622   5.961
 9288SOL    HW228764   4.919   2.542   5.934
 9289SOL     OW28765   4.924   3.213   3.055
 9289SOL    HW128766   4.921   3.290   2.991
 9289SOL    HW228767   4.969   3.242   3.140
 9290SOL     OW28768   4.801   2.197   5.124
 9290SOL    HW128769   4.812   2.101   5.098
 9290SOL    HW228770   4.890   2.241   5.131
 9291SOL     OW28771   0.887   1.935   5.093
 9291SOL    HW128772   0.878   1.927   4.994
 9291SOL    HW228773   0.971   1.890   5.123
 9292SOL     OW28774   0.143   3.358   6.690
 9292SOL    HW128775   0.186   3.354   6.600
 9292SOL    HW228776   0.057   3.407   6.684
 9293SOL     OW28777   5.347   4.204   6.825
 9293SOL    HW128778   5.422   4.227   6.887
 9293SOL    HW228779   5.358   4.111   6.791
 9294SOL     OW28780   6.337   6.167   6.835
 9294SOL    HW128781   6.396   6.147   6.913
 9294SOL    HW228782   6.272   6.239   6.860
 9295SOL     OW28783   4.350   1.712   3.523
 9295SOL    HW128784   4.349   1.613   3.510
 9295SOL    HW228785   4.384   1.756   3.440
 9296SOL     OW28786   6.130   0.177   5.782
 9296SOL    HW128787   6.034   0.180   5.752
 9296SOL    HW228788   6.136   0.127   5.868
 9297SOL     OW28789   0.638   1.565   0.470
 9297SOL    HW128790   0.595   1.487   0.516
 9297SOL    HW228791   0.718   1.534   0.419
 9298SOL     OW28792   1.106   6.179   4.602
 9298SOL    HW128793   1.087   6.274   4.627
 9298SOL    HW228794   1.026   6.123   4.623
 9299SOL     OW28795   2.014   2.971   4.259
 9299SOL    HW128796   2.052   2.902   4.197
 9299SOL    HW228797   2.085   3.003   4.321
 9300SOL     OW28798   5.497   4.638   4.445
 9300SOL    HW128799   5.418   4.591   4.405
 9300SOL    HW228800   5.495   4.626   4.545
 9301SOL     OW28801   5.495   4.128   2.769
 9301SOL    HW128802   5.541   4.080   2.695
 9301SOL    HW228803   5.498   4.227   2.753
 9302SOL     OW28804   2.308   1.756   2.353
 9302SOL    HW128805   2.374   1.760   2.279
 9302SOL    HW228806   2.217   1.735   2.316
 9303SOL     OW28807   3.569   5.444   0.308
 9303SOL    HW128808   3.625   5.440   0.391
 9303SOL    HW228809   3.533   5.353   0.288
 9304SOL     OW28810   3.785   3.241   1.186
 9304SOL    HW128811   3.760   3.147   1.164
 9304SOL    HW228812   3.704   3.299   1.183
 9305SOL     OW28813   5.578   2.899   2.237
 9305SOL    HW128814   5.528   2.900   2.150
 9305SOL    HW228815   5.560   2.813   2.285
 9306SOL     OW28816   6.870   3.935   4.005
 9306SOL    HW128817   6.794   3.940   3.939
 9306SOL    HW228818   6.931   4.013   3.991
 9307SOL     OW28819   1.721   1.575   6.769
 9307SOL    HW128820   1.689   1.495   6.718
 9307SOL    HW228821   1.768   1.544   6.852
 9308SOL     OW28822   6.563   2.852   0.979
 9308SOL    HW128823   6.628   2.838   1.054
 9308SOL    HW228824   6.484   2.904   1.013
 9309SOL     OW28825   4.732   3.310   6.712
 9309SOL    HW128826   4.802   3.263   6.658
 9309SOL    HW228827   4.777   3.370   6.779
 9310SOL     OW28828   4.131   5.966   6.769
 9310SOL    HW128829   4.195   6.015   6.710
 9310SOL    HW228830   4.075   6.032   6.820
 9311SOL     OW28831   6.150   2.933   0.749
 9311SOL    HW128832   6.113   3.000   0.813
 9311SOL    HW228833   6.225   2.974   0.697
 9312SOL     OW28834   1.272   4.495   6.307
 9312SOL    HW128835   1.311   4.567   6.364
 9312SOL    HW228836   1.300   4.508   6.212
 9313SOL     OW28837   6.381   6.695   3.066
 9313SOL    HW128838   6.309   6.764   3.065
 9313SOL    HW228839   6.423   6.690   2.975
 9314SOL     OW28840   5.089   4.715   0.089
 9314SOL    HW128841   5.164   4.705   0.024
 9314SOL    HW228842   5.035   4.796   0.065
 9315SOL     OW28843   0.039   6.522   6.301
 9315SOL    HW128844   6.972   6.480   6.282
 9315SOL    HW228845   0.055   6.521   6.400
 9316SOL     OW28846   3.861   6.015   3.756
 9316SOL    HW128847   3.769   5.984   3.781
 9316SOL    HW228848   3.925   5.939   3.761
 9317SOL     OW28849   6.160   4.249   4.173
 9317SOL    HW128850   6.100   4.329   4.173
 9317SOL    HW228851   6.160   4.208   4.081
 9318SOL     OW28852   6.754   6.871   6.379
 9318SOL    HW128853   6.683   6.824   6.328
 9318SOL    HW228854   6.826   6.902   6.317
 9319SOL     OW28855   0.318   3.270   5.241
 9319SOL    HW128856   0.260   3.276   5.322
 9319SOL    HW228857   0.267   3.227   5.166
 9320SOL     OW28858   4.978   2.738   6.484
 9320SOL    HW128859   5.015   2.684   6.408
 9320SOL    HW228860   5.052   2.786   6.530
 9321SOL     OW28861   6.759   5.549   3.011
 9321SOL    HW128862   6.704   5.560   3.094
 9321SOL    HW228863   6.778   5.452   2.996
 9322SOL     OW28864   0.774   6.090   6.574
 9322SOL    HW128865   0.870   6.088   6.546
 9322SOL    HW228866   0.759   6.024   6.647
 9323SOL     OW28867   0.237   1.090   6.034
 9323SOL    HW128868   0.292   1.166   6.001
 9323SOL    HW228869   0.170   1.123   6.100
 9324SOL     OW28870   1.797   5.801   6.739
 9324SOL    HW128871   1.798   5.704   6.717
 9324SOL    HW228872   1.829   5.853   6.660
 9325SOL     OW28873   6.181   2.381   0.871
 9325SOL    HW128874   6.106   2.366   0.936
 9325SOL    HW228875   6.188   2.479   0.851
 9326SOL     OW28876   2.462   6.433   0.939
 9326SOL    HW128877   2.461   6.431   1.039
 9326SOL    HW228878   2.515   6.355   0.905
 9327SOL     OW28879   3.929   1.093   3.117
 9327SOL    HW128880   3.910   0.995   3.108
 9327SOL    HW228881   3.948   1.132   3.027
 9328SOL     OW28882   3.239   1.155   1.984
 9328SOL    HW128883   3.208   1.146   1.890
 9328SOL    HW228884   3.217   1.072   2.035
 9329SOL     OW28885   1.552   3.801   1.561
 9329SOL    HW128886   1.609   3.736   1.611
 9329SOL    HW228887   1.488   3.845   1.623
 9330SOL     OW28888   5.403   0.703   6.801
 9330SOL    HW128889   5.485   0.707   6.858
 9330SOL    HW228890   5.328   0.751   6.848
 9331SOL     OW28891   0.674   1.257   6.995
 9331SOL    HW128892   0.657   1.318   6.918
 9331SOL    HW228893   0.623   1.172   6.982
 9332SOL     OW28894   3.545   3.415   4.428
 9332SOL    HW128895   3.484   3.491   4.408
 9332SOL    HW228896   3.495   3.344   4.477
 9333SOL     OW28897   6.085   4.867   1.019
 9333SOL    HW128898   6.129   4.811   0.949
 9333SOL    HW228899   5.990   4.884   0.993
 9334SOL     OW28900   3.019   6.899   5.084
 9334SOL    HW128901   2.936   6.940   5.122
 9334SOL    HW228902   3.025   6.803   5.111
 9335SOL     OW28903   0.851   0.980   1.037
 9335SOL    HW128904   0.783   0.912   1.066
 9335SOL    HW228905   0.804   1.059   0.999
 9336SOL     OW28906   3.357   6.797   5.797
 9336SOL    HW128907   3.278   6.846   5.834
 9336SOL    HW228908   3.374   6.827   5.703
 9337SOL     OW28909   5.229   0.498   2.462
 9337SOL    HW128910   5.189   0.443   2.389
 9337SOL    HW228911   5.212   0.455   2.550
 9338SOL     OW28912   3.459   0.076   1.805
 9338SOL    HW128913   3.462   0.045   1.710
 9338SOL    HW228914   3.446   0.175   1.808
 9339SOL     OW28915   4.499   6.473   0.692
 9339SOL    HW128916   4.458   6.482   0.601
 9339SOL    HW228917   4.597   6.456   0.682
 9340SOL     OW28918   5.960   3.324   0.501
 9340SOL    HW128919   5.968   3.225   0.514
 9340SOL    HW228920   6.050   3.366   0.509
 9341SOL     OW28921   6.971   4.977   6.180
 9341SOL    HW128922   6.960   4.960   6.082
 9341SOL    HW228923   0.005   5.059   6.193
 9342SOL     OW28924   1.284   6.072   5.890
 9342SOL    HW128925   1.216   6.018   5.939
 9342SOL    HW228926   1.323   6.140   5.952
 9343SOL     OW28927   6.422   5.624   4.560
 9343SOL    HW128928   6.401   5.722   4.568
 9343SOL    HW228929   6.366   5.572   4.625
 9344SOL     OW28930   4.890   6.539   1.351
 9344SOL    HW128931   4.810   6.478   1.343
 9344SOL    HW228932   4.949   6.506   1.424
 9345SOL     OW28933   6.625   2.388   0.845
 9345SOL    HW128934   6.580   2.475   0.826
 9345SOL    HW228935   6.635   2.375   0.943
 9346SOL     OW28936   5.725   0.392   0.294
 9346SOL    HW128937   5.663   0.449   0.240
 9346SOL    HW228938   5.811   0.441   0.309
 9347SOL     OW28939   1.559   6.667   1.998
 9347SOL    HW128940   1.564   6.713   1.910
 9347SOL    HW228941   1.591   6.728   2.071
 9348SOL     OW28942   3.406   4.674   6.719
 9348SOL    HW128943   3.386   4.772   6.723
 9348SOL    HW228944   3.320   4.623   6.723
 9349SOL     OW28945   1.810   6.545   2.730
 9349SOL    HW128946   1.844   6.591   2.648
 9349SOL    HW228947   1.885   6.499   2.777
 9350SOL     OW28948   0.673   2.965   6.014
 9350SOL    HW128949   0.730   2.934   5.938
 9350SOL    HW228950   0.730   2.986   6.093
 9351SOL     OW28951   2.710   1.570   6.899
 9351SOL    HW128952   2.635   1.625   6.862
 9351SOL    HW228953   2.792   1.626   6.908
 9352SOL     OW28954   2.664   4.462   5.805
 9352SOL    HW128955   2.728   4.537   5.821
 9352SOL    HW228956   2.637   4.423   5.893
 9353SOL     OW28957   6.688   0.109   1.030
 9353SOL    HW128958   6.682   0.132   0.932
 9353SOL    HW228959   6.595   0.104   1.067
 9354SOL     OW28960   0.489   1.863   6.755
 9354SOL    HW128961   0.437   1.876   6.671
 9354SOL    HW228962   0.428   1.834   6.829
 9355SOL     OW28963   0.832   1.695   5.712
 9355SOL    HW128964   0.880   1.669   5.795
 9355SOL    HW228965   0.885   1.667   5.632
 9356SOL     OW28966   5.483   6.765   3.015
 9356SOL    HW128967   5.497   6.670   2.986
 9356SOL    HW228968   5.389   6.776   3.047
 9357SOL     OW28969   0.907   1.841   0.148
 9357SOL    HW128970   0.871   1.800   0.231
 9357SOL    HW228971   0.855   1.807   0.069
 9358SOL     OW28972   0.339   3.039   1.518
 9358SOL    HW128973   0.315   3.086   1.433
 9358SOL    HW228974   0.398   3.099   1.573
 9359SOL     OW28975   0.969   0.197   5.424
 9359SOL    HW128976   1.048   0.160   5.376
 9359SOL    HW228977   0.913   0.250   5.359
 9360SOL     OW28978   0.995   0.179   5.916
 9360SOL    HW128979   0.904   0.220   5.919
 9360SOL    HW228980   1.015   0.138   6.005
 9361SOL     OW28981   1.743   6.188   3.700
 9361SOL    HW128982   1.697   6.250   3.762
 9361SOL    HW228983   1.745   6.096   3.740
 9362SOL     OW28984   2.254   0.019   1.853
 9362SOL    HW128985   2.300   0.107   1.864
 9362SOL    HW228986   2.297   6.974   1.914
 9363SOL     OW28987   1.898   4.669   2.499
 9363SOL    HW128988   1.905   4.585   2.553
 9363SOL    HW228989   1.940   4.744   2.550
 9364SOL     OW28990   1.145   2.903   1.469
 9364SOL    HW128991   1.226   2.905   1.411
 9364SOL    HW228992   1.137   2.991   1.517
 9365SOL     OW28993   3.052   1.362   4.530
 9365SOL    HW128994   2.994   1.289   4.493
 9365SOL    HW228995   3.052   1.439   4.467
 9366SOL     OW28996   4.136   5.928   1.983
 9366SOL    HW128997   4.069   5.854   1.991
 9366SOL    HW228998   4.181   5.941   2.071
 9367SOL     OW28999   0.092   0.737   1.573
 9367SOL    HW129000   0.093   0.637   1.563
 9367SOL    HW229001   0.185   0.772   1.566
 9368SOL     OW29002   2.683   0.225   3.264
 9368SOL    HW129003   2.737   0.277   3.197
 9368SOL    HW229004   2.725   0.135   3.277
 9369SOL     OW29005   3.431   5.213   0.251
 9369SOL    HW129006   3.480   5.206   0.164
 9369SOL    HW229007   3.368   5.136   0.260
 9370SOL     OW29008   4.819   1.873   4.739
 9370SOL    HW129009   4.830   1.787   4.689
 9370SOL    HW229010   4.889   1.938   4.710
 9371SOL     OW29011   4.485   5.551   1.028
 9371SOL    HW129012   4.400   5.548   0.975
 9371SOL    HW229013   4.513   5.458   1.052
 9372SOL     OW29014   4.583   6.239   1.596
 9372SOL    HW129015   4.489   6.216   1.621
 9372SOL    HW229016   4.603   6.333   1.624
 9373SOL     OW29017   6.964   2.351   1.344
 9373SOL    HW129018   6.970   2.400   1.257
 9373SOL    HW229019   6.898   2.276   1.336
 9374SOL     OW29020   0.395   5.535   5.708
 9374SOL    HW129021   0.312   5.485   5.686
 9374SOL    HW229022   0.468   5.509   5.645
 9375SOL     OW29023   0.574   1.351   0.224
 9375SOL    HW129024   0.477   1.343   0.248
 9375SOL    HW229025   0.590   1.307   0.136
 9376SOL     OW29026   2.279   4.065   1.465
 9376SOL    HW129027   2.324   4.154   1.471
 9376SOL    HW229028   2.291   4.027   1.374
 9377SOL     OW29029   1.397   1.053   3.527
 9377SOL    HW129030   1.326   1.117   3.555
 9377SOL    HW229031   1.484   1.102   3.516
 9378SOL     OW29032   3.583   1.081   4.839
 9378SOL    HW129033   3.611   1.009   4.777
 9378SOL    HW229034   3.484   1.076   4.853
 9379SOL     OW29035   5.030   6.484   4.400
 9379SOL    HW129036   5.116   6.433   4.407
 9379SOL    HW229037   4.957   6.421   4.372
 9380SOL     OW29038   5.380   5.386   0.280
 9380SOL    HW129039   5.374   5.447   0.201
 9380SOL    HW229040   5.392   5.292   0.248
 9381SOL     OW29041   5.756   1.617   5.197
 9381SOL    HW129042   5.751   1.555   5.118
 9381SOL    HW229043   5.845   1.606   5.242
 9382SOL     OW29044   3.237   5.427   5.708
 9382SOL    HW129045   3.162   5.415   5.773
 9382SOL    HW229046   3.200   5.458   5.621
 9383SOL     OW29047   5.914   4.031   2.818
 9383SOL    HW129048   5.879   4.122   2.834
 9383SOL    HW229049   5.869   3.991   2.738
 9384SOL     OW29050   2.763   0.883   1.916
 9384SOL    HW129051   2.713   0.839   1.841
 9384SOL    HW229052   2.833   0.944   1.878
 9385SOL     OW29053   4.697   1.697   3.892
 9385SOL    HW129054   4.782   1.657   3.856
 9385SOL    HW229055   4.693   1.794   3.868
 9386SOL     OW29056   4.822   5.861   0.467
 9386SOL    HW129057   4.907   5.819   0.501
 9386SOL    HW229058   4.791   5.931   0.531
 9387SOL     OW29059   2.849   1.816   0.194
 9387SOL    HW129060   2.929   1.831   0.135
 9387SOL    HW229061   2.768   1.804   0.137
 9388SOL     OW29062   2.348   6.951   5.171
 9388SOL    HW129063   2.370   6.910   5.083
 9388SOL    HW229064   2.345   6.880   5.242
 9389SOL     OW29065   2.009   4.624   2.226
 9389SOL    HW129066   2.012   4.631   2.325
 9389SOL    HW229067   1.953   4.545   2.199
 9390SOL     OW29068   5.093   5.280   4.521
 9390SOL    HW129069   5.072   5.184   4.542
 9390SOL    HW229070   5.188   5.288   4.492
 9391SOL     OW29071   1.624   3.890   4.254
 9391SOL    HW129072   1.711   3.888   4.302
 9391SOL    HW229073   1.600   3.798   4.223
 9392SOL     OW29074   5.104   4.811   2.953
 9392SOL    HW129075   5.133   4.740   2.888
 9392SOL    HW229076   5.180   4.872   2.972
 9393SOL     OW29077   2.143   6.343   6.178
 9393SOL    HW129078   2.159   6.418   6.243
 9393SOL    HW229079   2.231   6.304   6.150
 9394SOL     OW29080   3.884   0.702   0.442
 9394SOL    HW129081   3.820   0.666   0.374
 9394SOL    HW229082   3.872   0.801   0.450
 9395SOL     OW29083   1.451   1.743   1.101
 9395SOL    HW129084   1.454   1.753   1.001
 9395SOL    HW229085   1.511   1.668   1.128
 9396SOL     OW29086   0.769   0.192   6.182
 9396SOL    HW129087   0.745   0.095   6.192
 9396SOL    HW229088   0.752   0.220   6.087
 9397SOL     OW29089   3.387   0.803   4.934
 9397SOL    HW129090   3.484   0.780   4.941
 9397SOL    HW229091   3.365   0.827   4.839
 9398SOL     OW29092   0.656   2.215   0.046
 9398SOL    HW129093   0.723   2.284   0.021
 9398SOL    HW229094   0.604   2.188   6.987
 9399SOL     OW29095   0.758   2.483   4.611
 9399SOL    HW129096   0.830   2.414   4.601
 9399SOL    HW229097   0.739   2.526   4.523
 9400SOL     OW29098   5.600   1.511   1.131
 9400SOL    HW129099   5.575   1.564   1.050
 9400SOL    HW229100   5.671   1.560   1.182
 9401SOL     OW29101   0.318   2.467   3.808
 9401SOL    HW129102   0.376   2.539   3.846
 9401SOL    HW229103   0.361   2.378   3.823
 9402SOL     OW29104   2.612   6.664   4.620
 9402SOL    HW129105   2.517   6.686   4.642
 9402SOL    HW229106   2.648   6.733   4.557
 9403SOL     OW29107   5.279   2.098   1.649
 9403SOL    HW129108   5.250   2.144   1.733
 9403SOL    HW229109   5.203   2.046   1.611
 9404SOL     OW29110   2.381   2.035   0.743
 9404SOL    HW129111   2.353   2.107   0.806
 9404SOL    HW229112   2.307   1.967   0.735
 9405SOL     OW29113   6.607   5.485   5.460
 9405SOL    HW129114   6.558   5.426   5.525
 9405SOL    HW229115   6.705   5.470   5.469
 9406SOL     OW29116   0.763   2.198   0.493
 9406SOL    HW129117   0.746   2.268   0.562
 9406SOL    HW229118   0.682   2.139   0.485
 9407SOL     OW29119   2.286   4.885   4.979
 9407SOL    HW129120   2.350   4.808   4.984
 9407SOL    HW229121   2.263   4.915   5.071
 9408SOL     OW29122   6.832   3.809   4.321
 9408SOL    HW129123   6.902   3.774   4.383
 9408SOL    HW229124   6.852   3.779   4.227
 9409SOL     OW29125   6.211   5.399   2.157
 9409SOL    HW129126   6.303   5.382   2.119
 9409SOL    HW229127   6.142   5.374   2.089
 9410SOL     OW29128   3.831   0.658   0.739
 9410SOL    HW129129   3.829   0.688   0.643
 9410SOL    HW229130   3.864   0.732   0.797
 9411SOL     OW29131   3.123   4.049   3.676
 9411SOL    HW129132   3.221   4.060   3.662
 9411SOL    HW229133   3.104   4.042   3.774
 9412SOL     OW29134   4.756   6.454   1.669
 9412SOL    HW129135   4.712   6.457   1.758
 9412SOL    HW229136   4.850   6.422   1.679
 9413SOL     OW29137   4.716   4.163   3.150
 9413SOL    HW129138   4.754   4.151   3.058
 9413SOL    HW229139   4.744   4.086   3.208
 9414SOL     OW29140   2.647   2.454   3.251
 9414SOL    HW129141   2.639   2.438   3.153
 9414SOL    HW229142   2.714   2.526   3.268
 9415SOL     OW29143   5.361   0.922   1.854
 9415SOL    HW129144   5.457   0.895   1.854
 9415SOL    HW229145   5.351   1.009   1.806
 9416SOL     OW29146   5.401   5.136   5.771
 9416SOL    HW129147   5.339   5.078   5.823
 9416SOL    HW229148   5.440   5.084   5.694
 9417SOL     OW29149   3.328   5.707   2.493
 9417SOL    HW129150   3.260   5.637   2.473
 9417SOL    HW229151   3.371   5.736   2.408
 9418SOL     OW29152   3.106   1.737   5.121
 9418SOL    HW129153   3.202   1.752   5.096
 9418SOL    HW229154   3.053   1.819   5.099
 9419SOL     OW29155   1.878   2.913   6.585
 9419SOL    HW129156   1.897   2.952   6.675
 9419SOL    HW229157   1.807   2.967   6.539
 9420SOL     OW29158   5.921   4.225   5.961
 9420SOL    HW129159   5.899   4.276   6.044
 9420SOL    HW229160   5.964   4.286   5.895
 9421SOL     OW29161   3.806   6.362   6.986
 9421SOL    HW129162   3.881   6.354   6.921
 9421SOL    HW229163   3.737   6.424   6.950
 9422SOL     OW29164   2.488   6.280   5.914
 9422SOL    HW129165   2.579   6.238   5.909
 9422SOL    HW229166   2.419   6.213   5.885
 9423SOL     OW29167   4.480   4.475   2.436
 9423SOL    HW129168   4.511   4.488   2.342
 9423SOL    HW229169   4.498   4.381   2.465
 9424SOL     OW29170   6.145   0.277   4.205
 9424SOL    HW129171   6.219   0.326   4.160
 9424SOL    HW229172   6.073   0.341   4.230
 9425SOL     OW29173   6.775   3.712   0.765
 9425SOL    HW129174   6.831   3.775   0.819
 9425SOL    HW229175   6.812   3.619   0.772
 9426SOL     OW29176   6.037   3.142   6.247
 9426SOL    HW129177   5.981   3.167   6.326
 9426SOL    HW229178   6.128   3.181   6.257
 9427SOL     OW29179   4.627   4.268   2.493
 9427SOL    HW129180   4.695   4.303   2.428
 9427SOL    HW229181   4.619   4.169   2.482
 9428SOL     OW29182   1.128   6.083   5.359
 9428SOL    HW129183   1.077   6.058   5.442
 9428SOL    HW229184   1.189   6.008   5.334
 9429SOL     OW29185   2.332   2.845   3.994
 9429SOL    HW129186   2.354   2.811   3.902
 9429SOL    HW229187   2.386   2.794   4.062
 9430SOL     OW29188   1.399   1.793   4.100
 9430SOL    HW129189   1.494   1.763   4.113
 9430SOL    HW229190   1.339   1.713   4.096
 9431SOL     OW29191   1.068   4.645   5.711
 9431SOL    HW129192   1.095   4.569   5.653
 9431SOL    HW229193   1.040   4.722   5.654
 9432SOL     OW29194   0.045   0.862   4.272
 9432SOL    HW129195   0.141   0.836   4.269
 9432SOL    HW229196   7.019   0.822   4.194
 9433SOL     OW29197   4.818   5.481   1.811
 9433SOL    HW129198   4.901   5.426   1.800
 9433SOL    HW229199   4.766   5.481   1.726
 9434SOL     OW29200   4.175   5.883   3.730
 9434SOL    HW129201   4.170   5.784   3.712
 9434SOL    HW229202   4.179   5.932   3.643
 9435SOL     OW29203   6.263   3.636   0.568
 9435SOL    HW129204   6.272   3.540   0.541
 9435SOL    HW229205   6.236   3.641   0.664
 9436SOL     OW29206   2.500   0.790   3.165
 9436SOL    HW129207   2.535   0.840   3.085
 9436SOL    HW229208   2.576   0.767   3.226
 9437SOL     OW29209   5.339   0.731   5.111
 9437SOL    HW129210   5.375   0.651   5.159
 9437SOL    HW229211   5.393   0.748   5.029
 9438SOL     OW29212   4.803   0.269   2.537
 9438SOL    HW129213   4.806   0.359   2.492
 9438SOL    HW229214   4.714   0.257   2.582
 9439SOL     OW29215   1.833   4.171   0.850
 9439SOL    HW129216   1.737   4.141   0.849
 9439SOL    HW229217   1.843   4.252   0.793
 9440SOL     OW29218   2.024   5.238   3.588
 9440SOL    HW129219   2.113   5.277   3.561
 9440SOL    HW229220   2.000   5.269   3.680
 9441SOL     OW29221   0.275   6.502   4.410
 9441SOL    HW129222   0.317   6.416   4.440
 9441SOL    HW229223   0.178   6.501   4.432
 9442SOL     OW29224   5.658   3.318   1.018
 9442SOL    HW129225   5.607   3.335   1.102
 9442SOL    HW229226   5.640   3.392   0.953
 9443SOL     OW29227   1.900   4.905   1.921
 9443SOL    HW129228   1.836   4.836   1.889
 9443SOL    HW229229   1.905   4.901   2.021
 9444SOL     OW29230   2.085   4.424   6.474
 9444SOL    HW129231   2.023   4.369   6.531
 9444SOL    HW229232   2.142   4.363   6.419
 9445SOL     OW29233   0.279   1.883   4.368
 9445SOL    HW129234   0.219   1.838   4.302
 9445SOL    HW229235   0.332   1.954   4.321
 9446SOL     OW29236   6.298   3.825   4.862
 9446SOL    HW129237   6.293   3.915   4.906
 9446SOL    HW229238   6.388   3.814   4.821
 9447SOL     OW29239   4.883   4.227   2.104
 9447SOL    HW129240   4.836   4.232   2.016
 9447SOL    HW229241   4.977   4.260   2.093
 9448SOL     OW29242   6.368   1.949   6.525
 9448SOL    HW129243   6.451   1.937   6.470
 9448SOL    HW229244   6.394   1.954   6.622
 9449SOL     OW29245   5.507   0.376   2.496
 9449SOL    HW129246   5.530   0.282   2.471
 9449SOL    HW229247   5.408   0.384   2.507
 9450SOL     OW29248   1.372   6.688   3.338
 9450SOL    HW129249   1.330   6.642   3.416
 9450SOL    HW229250   1.470   6.668   3.336
 9451SOL     OW29251   4.018   5.244   0.095
 9451SOL    HW129252   3.937   5.232   0.153
 9451SOL    HW229253   4.100   5.221   0.147
 9452SOL     OW29254   6.238   4.154   6.465
 9452SOL    HW129255   6.300   4.209   6.520
 9452SOL    HW229256   6.288   4.078   6.422
 9453SOL     OW29257   5.307   4.470   1.609
 9453SOL    HW129258   5.375   4.488   1.538
 9453SOL    HW229259   5.227   4.427   1.570
 9454SOL     OW29260   6.246   5.097   0.348
 9454SOL    HW129261   6.179   5.043   0.399
 9454SOL    HW229262   6.323   5.039   0.322
 9455SOL     OW29263   4.035   0.794   1.697
 9455SOL    HW129264   4.099   0.736   1.647
 9455SOL    HW229265   3.976   0.737   1.755
 9456SOL     OW29266   6.592   2.030   3.277
 9456SOL    HW129267   6.620   1.980   3.195
 9456SOL    HW229268   6.556   1.966   3.345
 9457SOL     OW29269   6.548   6.037   4.565
 9457SOL    HW129270   6.511   6.097   4.636
 9457SOL    HW229271   6.542   6.082   4.476
 9458SOL     OW29272   5.742   4.138   0.091
 9458SOL    HW129273   5.822   4.175   0.046
 9458SOL    HW229274   5.760   4.128   0.189
 9459SOL     OW29275   4.577   4.388   4.721
 9459SOL    HW129276   4.545   4.466   4.774
 9459SOL    HW229277   4.567   4.407   4.623
 9460SOL     OW29278   1.031   3.444   2.234
 9460SOL    HW129279   1.018   3.372   2.302
 9460SOL    HW229280   1.128   3.453   2.213
 9461SOL     OW29281   1.759   1.423   1.551
 9461SOL    HW129282   1.715   1.513   1.547
 9461SOL    HW229283   1.713   1.361   1.487
 9462SOL     OW29284   6.712   1.291   5.053
 9462SOL    HW129285   6.760   1.349   4.987
 9462SOL    HW229286   6.764   1.207   5.068
 9463SOL     OW29287   6.521   4.113   0.317
 9463SOL    HW129288   6.551   4.111   0.221
 9463SOL    HW229289   6.492   4.021   0.344
 9464SOL     OW29290   1.228   0.497   1.561
 9464SOL    HW129291   1.253   0.411   1.607
 9464SOL    HW229292   1.304   0.561   1.568
 9465SOL     OW29293   0.039   5.710   0.432
 9465SOL    HW129294   7.015   5.789   0.473
 9465SOL    HW229295   6.999   5.632   0.432
 9466SOL     OW29296   4.665   3.624   5.432
 9466SOL    HW129297   4.734   3.665   5.491
 9466SOL    HW229298   4.695   3.628   5.336
 9467SOL     OW29299   1.270   3.152   0.871
 9467SOL    HW129300   1.261   3.171   0.773
 9467SOL    HW229301   1.270   3.053   0.886
 9468SOL     OW29302   5.804   1.250   0.846
 9468SOL    HW129303   5.781   1.297   0.760
 9468SOL    HW229304   5.729   1.263   0.911
 9469SOL     OW29305   6.702   6.725   1.524
 9469SOL    HW129306   6.657   6.727   1.435
 9469SOL    HW229307   6.789   6.677   1.516
 9470SOL     OW29308   3.729   3.063   0.507
 9470SOL    HW129309   3.782   3.093   0.428
 9470SOL    HW229310   3.759   2.972   0.535
 9471SOL     OW29311   6.403   2.681   4.936
 9471SOL    HW129312   6.305   2.660   4.934
 9471SOL    HW229313   6.446   2.650   4.851
 9472SOL     OW29314   1.884   3.735   5.471
 9472SOL    HW129315   1.804   3.720   5.530
 9472SOL    HW229316   1.963   3.757   5.528
 9473SOL     OW29317   2.820   3.821   1.118
 9473SOL    HW129318   2.790   3.914   1.100
 9473SOL    HW229319   2.911   3.823   1.161
 9474SOL     OW29320   5.242   4.228   0.862
 9474SOL    HW129321   5.321   4.180   0.825
 9474SOL    HW229322   5.244   4.324   0.834
 9475SOL     OW29323   4.832   3.900   5.542
 9475SOL    HW129324   4.874   3.990   5.534
 9475SOL    HW229325   4.733   3.908   5.531
 9476SOL     OW29326   4.420   3.727   1.221
 9476SOL    HW129327   4.472   3.643   1.234
 9476SOL    HW229328   4.325   3.711   1.247
 9477SOL     OW29329   3.018   4.431   0.530
 9477SOL    HW129330   2.998   4.389   0.441
 9477SOL    HW229331   2.954   4.507   0.545
 9478SOL     OW29332   5.589   4.027   6.391
 9478SOL    HW129333   5.644   4.095   6.439
 9478SOL    HW229334   5.493   4.055   6.394
 9479SOL     OW29335   4.661   0.832   1.788
 9479SOL    HW129336   4.700   0.920   1.761
 9479SOL    HW229337   4.734   0.770   1.816
 9480SOL     OW29338   5.667   0.634   1.016
 9480SOL    HW129339   5.597   0.577   0.973
 9480SOL    HW229340   5.623   0.704   1.073
 9481SOL     OW29341   4.467   0.493   3.492
 9481SOL    HW129342   4.487   0.574   3.547
 9481SOL    HW229343   4.538   0.481   3.423
 9482SOL     OW29344   6.127   5.426   6.312
 9482SOL    HW129345   6.194   5.352   6.310
 9482SOL    HW229346   6.156   5.495   6.378
 9483SOL     OW29347   6.874   6.841   0.028
 9483SOL    HW129348   6.906   6.919   6.997
 9483SOL    HW229349   6.881   6.757   6.997
 9484SOL     OW29350   3.036   5.770   4.589
 9484SOL    HW129351   3.064   5.758   4.684
 9484SOL    HW229352   2.957   5.711   4.570
 9485SOL     OW29353   0.213   1.439   5.793
 9485SOL    HW129354   0.205   1.538   5.791
 9485SOL    HW229355   0.267   1.411   5.872
 9486SOL     OW29356   6.240   5.474   6.852
 9486SOL    HW129357   6.320   5.498   6.908
 9486SOL    HW229358   6.239   5.375   6.838
 9487SOL     OW29359   3.559   3.860   3.310
 9487SOL    HW129360   3.512   3.798   3.373
 9487SOL    HW229361   3.492   3.909   3.254
 9488SOL     OW29362   1.412   0.685   1.513
 9488SOL    HW129363   1.412   0.783   1.533
 9488SOL    HW229364   1.413   0.671   1.414
 9489SOL     OW29365   5.482   3.500   0.430
 9489SOL    HW129366   5.577   3.468   0.434
 9489SOL    HW229367   5.455   3.512   0.335
 9490SOL     OW29368   5.546   3.607   5.243
 9490SOL    HW129369   5.642   3.620   5.220
 9490SOL    HW229370   5.525   3.509   5.242
 9491SOL     OW29371   5.746   0.218   2.849
 9491SOL    HW129372   5.739   0.187   2.943
 9491SOL    HW229373   5.841   0.214   2.818
 9492SOL     OW29374   4.859   2.653   3.444
 9492SOL    HW129375   4.842   2.732   3.503
 9492SOL    HW229376   4.897   2.578   3.498
 9493SOL     OW29377   3.708   6.264   1.038
 9493SOL    HW129378   3.740   6.316   1.118
 9493SOL    HW229379   3.615   6.231   1.054
 9494SOL     OW29380   5.533   2.207   1.875
 9494SOL    HW129381   5.597   2.284   1.882
 9494SOL    HW229382   5.441   2.242   1.860
 9495SOL     OW29383   5.789   2.647   1.374
 9495SOL    HW129384   5.809   2.552   1.400
 9495SOL    HW229385   5.870   2.688   1.332
 9496SOL     OW29386   5.770   2.149   1.484
 9496SOL    HW129387   5.795   2.062   1.527
 9496SOL    HW229388   5.671   2.162   1.491
 9497SOL     OW29389   4.544   4.681   4.933
 9497SOL    HW129390   4.528   4.704   4.837
 9497SOL    HW229391   4.474   4.616   4.963
 9498SOL     OW29392   0.999   5.475   4.539
 9498SOL    HW129393   1.016   5.378   4.521
 9498SOL    HW229394   1.084   5.527   4.523
 9499SOL     OW29395   5.689   5.806   4.356
 9499SOL    HW129396   5.600   5.846   4.379
 9499SOL    HW229397   5.692   5.785   4.258
 9500SOL     OW29398   2.998   1.476   0.542
 9500SOL    HW129399   2.957   1.564   0.520
 9500SOL    HW229400   2.929   1.404   0.536
 9501SOL     OW29401   2.108   3.854   4.942
 9501SOL    HW129402   2.021   3.902   4.952
 9501SOL    HW229403   2.177   3.899   4.999
 9502SOL     OW29404   5.281   4.801   3.908
 9502SOL    HW129405   5.202   4.812   3.849
 9502SOL    HW229406   5.354   4.863   3.879
 9503SOL     OW29407   5.975   0.873   0.542
 9503SOL    HW129408   5.943   0.779   0.527
 9503SOL    HW229409   5.904   0.925   0.588
 9504SOL     OW29410   6.244   5.681   1.721
 9504SOL    HW129411   6.202   5.739   1.791
 9504SOL    HW229412   6.174   5.652   1.655
 9505SOL     OW29413   4.549   4.110   5.984
 9505SOL    HW129414   4.609   4.106   6.064
 9505SOL    HW229415   4.540   4.205   5.953
 9506SOL     OW29416   2.633   1.079   0.841
 9506SOL    HW129417   2.637   0.981   0.863
 9506SOL    HW229418   2.706   1.127   0.891
 9507SOL     OW29419   5.883   6.928   2.383
 9507SOL    HW129420   5.966   6.967   2.425
 9507SOL    HW229421   5.836   6.999   2.331
 9508SOL     OW29422   4.575   1.530   2.255
 9508SOL    HW129423   4.601   1.438   2.285
 9508SOL    HW229424   4.508   1.568   2.319
 9509SOL     OW29425   5.494   0.930   3.703
 9509SOL    HW129426   5.454   0.918   3.612
 9509SOL    HW229427   5.568   0.996   3.699
 9510SOL     OW29428   2.100   2.708   3.056
 9510SOL    HW129429   2.015   2.759   3.046
 9510SOL    HW229430   2.084   2.626   3.110
 9511SOL     OW29431   0.339   1.784   1.165
 9511SOL    HW129432   0.424   1.738   1.191
 9511SOL    HW229433   0.313   1.849   1.236
 9512SOL     OW29434   6.338   1.669   1.736
 9512SOL    HW129435   6.356   1.572   1.718
 9512SOL    HW229436   6.313   1.681   1.832
 9513SOL     OW29437   4.788   3.915   5.198
 9513SOL    HW129438   4.769   3.820   5.177
 9513SOL    HW229439   4.718   3.950   5.261
 9514SOL     OW29440   3.675   2.624   6.875
 9514SOL    HW129441   3.675   2.617   6.975
 9514SOL    HW229442   3.628   2.709   6.848
 9515SOL     OW29443   0.731   5.671   3.763
 9515SOL    HW129444   0.642   5.669   3.717
 9515SOL    HW229445   0.796   5.721   3.706
 9516SOL     OW29446   6.916   3.926   6.168
 9516SOL    HW129447   6.831   3.898   6.123
 9516SOL    HW229448   6.935   3.864   6.245
 9517SOL     OW29449   0.406   6.560   1.511
 9517SOL    HW129450   0.394   6.475   1.563
 9517SOL    HW229451   0.487   6.609   1.544
 9518SOL     OW29452   1.360   0.465   0.935
 9518SOL    HW129453   1.436   0.401   0.946
 9518SOL    HW229454   1.307   0.440   0.854
 9519SOL     OW29455   0.883   2.936   5.378
 9519SOL    HW129456   0.949   2.906   5.309
 9519SOL    HW229457   0.794   2.948   5.335
 9520SOL     OW29458   3.931   6.744   1.541
 9520SOL    HW129459   3.966   6.669   1.598
 9520SOL    HW229460   4.002   6.812   1.528
 9521SOL     OW29461   5.224   5.770   3.425
 9521SOL    HW129462   5.322   5.756   3.415
 9521SOL    HW229463   5.179   5.681   3.436
 9522SOL     OW29464   3.248   5.408   0.015
 9522SOL    HW129465   3.208   5.335   0.071
 9522SOL    HW229466   3.179   5.478   7.020
 9523SOL     OW29467   2.680   6.401   5.686
 9523SOL    HW129468   2.766   6.435   5.724
 9523SOL    HW229469   2.624   6.362   5.759
 9524SOL     OW29470   4.569   2.496   0.926
 9524SOL    HW129471   4.643   2.551   0.965
 9524SOL    HW229472   4.594   2.399   0.930
 9525SOL     OW29473   3.755   0.206   4.906
 9525SOL    HW129474   3.659   0.216   4.881
 9525SOL    HW229475   3.794   0.295   4.926
 9526SOL     OW29476   4.531   6.558   2.197
 9526SOL    HW129477   4.579   6.470   2.197
 9526SOL    HW229478   4.483   6.569   2.110
 9527SOL     OW29479   6.772   2.143   1.329
 9527SOL    HW129480   6.847   2.078   1.341
 9527SOL    HW229481   6.695   2.115   1.386
 9528SOL     OW29482   6.738   1.058   1.807
 9528SOL    HW129483   6.824   1.017   1.778
 9528SOL    HW229484   6.753   1.155   1.828
 9529SOL     OW29485   0.964   3.775   4.808
 9529SOL    HW129486   0.943   3.706   4.877
 9529SOL    HW229487   0.929   3.746   4.719
 9530SOL     OW29488   1.517   2.444   4.366
 9530SOL    HW129489   1.612   2.465   4.340
 9530SOL    HW229490   1.513   2.356   4.412
 9531SOL     OW29491   2.949   6.265   3.674
 9531SOL    HW129492   2.890   6.302   3.746
 9531SOL    HW229493   2.893   6.224   3.602
 9532SOL     OW29494   2.859   1.676   1.967
 9532SOL    HW129495   2.950   1.687   1.927
 9532SOL    HW229496   2.793   1.653   1.896
 9533SOL     OW29497   1.049   1.136   4.845
 9533SOL    HW129498   0.999   1.220   4.826
 9533SOL    HW229499   0.991   1.073   4.896
 9534SOL     OW29500   5.565   1.748   4.543
 9534SOL    HW129501   5.494   1.678   4.544
 9534SOL    HW229502   5.553   1.810   4.620
 9535SOL     OW29503   3.202   2.104   4.748
 9535SOL    HW129504   3.253   2.123   4.664
 9535SOL    HW229505   3.166   2.189   4.786
 9536SOL     OW29506   2.502   6.275   6.578
 9536SOL    HW129507   2.511   6.226   6.664
 9536SOL    HW229508   2.592   6.288   6.536
 9537SOL     OW29509   2.908   6.737   0.750
 9537SOL    HW129510   2.962   6.711   0.670
 9537SOL    HW229511   2.957   6.808   0.801
 9538SOL     OW29512   5.973   3.852   3.357
 9538SOL    HW129513   6.018   3.902   3.283
 9538SOL    HW229514   5.874   3.862   3.348
 9539SOL     OW29515   0.314   3.866   6.921
 9539SOL    HW129516   0.257   3.791   6.887
 9539SOL    HW229517   0.408   3.836   6.930
 9540SOL     OW29518   5.511   3.339   5.622
 9540SOL    HW129519   5.464   3.363   5.707
 9540SOL    HW229520   5.582   3.271   5.642
 9541SOL     OW29521   0.311   1.844   3.605
 9541SOL    HW129522   0.375   1.921   3.601
 9541SOL    HW229523   0.256   1.842   3.522
 9542SOL     OW29524   4.489   4.510   4.454
 9542SOL    HW129525   4.489   4.502   4.354
 9542SOL    HW229526   4.458   4.602   4.479
 9543SOL     OW29527   5.251   2.302   1.853
 9543SOL    HW129528   5.155   2.301   1.827
 9543SOL    HW229529   5.294   2.387   1.821
 9544SOL     OW29530   3.922   1.325   1.605
 9544SOL    HW129531   3.908   1.371   1.693
 9544SOL    HW229532   3.967   1.237   1.620
 9545SOL     OW29533   1.324   0.249   4.439
 9545SOL    HW129534   1.361   0.291   4.356
 9545SOL    HW229535   1.234   0.288   4.459
 9546SOL     OW29536   2.155   4.611   1.962
 9546SOL    HW129537   2.099   4.689   1.933
 9546SOL    HW229538   2.135   4.590   2.058
 9547SOL     OW29539   5.962   5.483   3.546
 9547SOL    HW129540   5.899   5.472   3.623
 9547SOL    HW229541   5.979   5.581   3.531
 9548SOL     OW29542   5.141   0.723   2.788
 9548SOL    HW129543   5.129   0.822   2.801
 9548SOL    HW229544   5.065   0.675   2.831
 9549SOL     OW29545   2.594   5.532   0.293
 9549SOL    HW129546   2.510   5.483   0.270
 9549SOL    HW229547   2.582   5.581   0.379
 9550SOL     OW29548   1.334   1.121   0.343
 9550SOL    HW129549   1.296   1.071   0.265
 9550SOL    HW229550   1.325   1.065   0.426
 9551SOL     OW29551   1.624   5.738   5.428
 9551SOL    HW129552   1.615   5.676   5.350
 9551SOL    HW229553   1.619   5.833   5.396
 9552SOL     OW29554   0.847   5.366   3.556
 9552SOL    HW129555   0.806   5.317   3.480
 9552SOL    HW229556   0.899   5.445   3.521
 9553SOL     OW29557   5.357   4.373   6.059
 9553SOL    HW129558   5.354   4.273   6.052
 9553SOL    HW229559   5.412   4.399   6.139
 9554SOL     OW29560   1.895   1.951   1.504
 9554SOL    HW129561   1.872   1.892   1.427
 9554SOL    HW229562   1.817   2.010   1.525
 9555SOL     OW29563   6.993   2.709   6.066
 9555SOL    HW129564   6.977   2.619   6.027
 9555SOL    HW229565   6.970   2.708   6.163
 9556SOL     OW29566   6.707   1.269   0.819
 9556SOL    HW129567   6.734   1.343   0.881
 9556SOL    HW229568   6.659   1.307   0.740
 9557SOL     OW29569   5.075   1.607   2.033
 9557SOL    HW129570   5.114   1.687   2.079
 9557SOL    HW229571   5.017   1.557   2.097
 9558SOL     OW29572   6.215   4.272   1.594
 9558SOL    HW129573   6.179   4.276   1.501
 9558SOL    HW229574   6.309   4.238   1.592
 9559SOL     OW29575   6.854   4.161   2.059
 9559SOL    HW129576   6.873   4.093   2.130
 9559SOL    HW229577   6.755   4.173   2.050
 9560SOL     OW29578   4.099   2.145   5.072
 9560SOL    HW129579   4.126   2.226   5.018
 9560SOL    HW229580   4.093   2.170   5.168
 9561SOL     OW29581   2.889   6.543   5.845
 9561SOL    HW129582   2.890   6.479   5.921
 9561SOL    HW229583   2.982   6.578   5.829
 9562SOL     OW29584   5.806   5.012   4.312
 9562SOL    HW129585   5.737   4.940   4.312
 9562SOL    HW229586   5.844   5.022   4.219
 9563SOL     OW29587   0.727   6.342   6.750
 9563SOL    HW129588   0.756   6.248   6.727
 9563SOL    HW229589   0.753   6.362   6.845
 9564SOL     OW29590   1.463   0.414   6.207
 9564SOL    HW129591   1.489   0.426   6.302
 9564SOL    HW229592   1.478   0.499   6.156
 9565SOL     OW29593   3.743   6.026   4.072
 9565SOL    HW129594   3.838   5.996   4.061
 9565SOL    HW229595   3.699   5.973   4.144
 9566SOL     OW29596   3.647   4.695   6.161
 9566SOL    HW129597   3.666   4.675   6.064
 9566SOL    HW229598   3.654   4.610   6.214
 9567SOL     OW29599   6.186   4.905   4.906
 9567SOL    HW129600   6.098   4.947   4.926
 9567SOL    HW229601   6.178   4.843   4.828
 9568SOL     OW29602   4.924   4.161   6.116
 9568SOL    HW129603   4.976   4.141   6.033
 9568SOL    HW229604   4.873   4.246   6.105
 9569SOL     OW29605   5.275   6.824   1.936
 9569SOL    HW129606   5.323   6.891   1.991
 9569SOL    HW229607   5.270   6.856   1.841
 9570SOL     OW29608   1.081   1.567   6.863
 9570SOL    HW129609   1.076   1.666   6.878
 9570SOL    HW229610   1.122   1.523   6.943
 9571SOL     OW29611   2.695   2.235   0.654
 9571SOL    HW129612   2.621   2.285   0.698
 9571SOL    HW229613   2.660   2.189   0.572
 9572SOL     OW29614   0.279   3.589   1.314
 9572SOL    HW129615   0.192   3.633   1.290
 9572SOL    HW229616   0.354   3.636   1.267
 9573SOL     OW29617   5.248   1.278   2.644
 9573SOL    HW129618   5.174   1.333   2.684
 9573SOL    HW229619   5.209   1.204   2.589
 9574SOL     OW29620   2.866   2.166   3.615
 9574SOL    HW129621   2.963   2.148   3.597
 9574SOL    HW229622   2.812   2.133   3.538
 9575SOL     OW29623   4.269   1.122   3.034
 9575SOL    HW129624   4.239   1.069   3.113
 9575SOL    HW229625   4.369   1.124   3.030
 9576SOL     OW29626   3.934   3.043   5.332
 9576SOL    HW129627   3.964   2.952   5.303
 9576SOL    HW229628   3.845   3.036   5.376
 9577SOL     OW29629   0.873   5.902   3.601
 9577SOL    HW129630   0.865   5.957   3.518
 9577SOL    HW229631   0.967   5.906   3.635
 9578SOL     OW29632   6.498   3.989   1.434
 9578SOL    HW129633   6.579   4.039   1.467
 9578SOL    HW229634   6.421   4.008   1.495
 9579SOL     OW29635   1.962   5.176   2.906
 9579SOL    HW129636   2.026   5.230   2.961
 9579SOL    HW229637   1.945   5.222   2.819
 9580SOL     OW29638   4.601   3.452   5.810
 9580SOL    HW129639   4.570   3.453   5.905
 9580SOL    HW229640   4.617   3.546   5.779
 9581SOL     OW29641   0.956   5.797   5.413
 9581SOL    HW129642   0.928   5.731   5.483
 9581SOL    HW229643   0.910   5.776   5.327
 9582SOL     OW29644   4.626   5.369   2.821
 9582SOL    HW129645   4.675   5.286   2.848
 9582SOL    HW229646   4.535   5.345   2.789
 9583SOL     OW29647   1.960   4.893   2.188
 9583SOL    HW129648   1.928   4.919   2.279
 9583SOL    HW229649   1.994   4.799   2.191
 9584SOL     OW29650   5.285   5.044   0.047
 9584SOL    HW129651   5.277   4.973   0.117
 9584SOL    HW229652   5.197   5.089   0.034
 9585SOL     OW29653   6.949   0.860   3.129
 9585SOL    HW129654   0.021   0.877   3.098
 9585SOL    HW229655   6.886   0.868   3.052
 9586SOL     OW29656   4.924   3.686   2.638
 9586SOL    HW129657   4.983   3.662   2.562
 9586SOL    HW229658   4.896   3.602   2.687
 9587SOL     OW29659   5.206   6.222   1.539
 9587SOL    HW129660   5.184   6.131   1.503
 9587SOL    HW229661   5.277   6.214   1.609
 9588SOL     OW29662   6.696   1.154   3.310
 9588SOL    HW129663   6.601   1.128   3.328
 9588SOL    HW229664   6.739   1.185   3.395
 9589SOL     OW29665   3.017   1.976   5.047
 9589SOL    HW129666   2.994   1.952   4.953
 9589SOL    HW229667   3.055   2.069   5.049
 9590SOL     OW29668   0.722   4.980   4.365
 9590SOL    HW129669   0.754   5.066   4.325
 9590SOL    HW229670   0.800   4.920   4.382
 9591SOL     OW29671   1.218   4.183   2.628
 9591SOL    HW129672   1.309   4.218   2.649
 9591SOL    HW229673   1.157   4.259   2.607
 9592SOL     OW29674   4.986   5.905   0.990
 9592SOL    HW129675   5.017   5.826   1.041
 9592SOL    HW229676   4.923   5.876   0.918
 9593SOL     OW29677   2.885   2.289   3.344
 9593SOL    HW129678   2.900   2.243   3.431
 9593SOL    HW229679   2.793   2.329   3.343
 9594SOL     OW29680   5.919   6.982   0.963
 9594SOL    HW129681   5.897   7.014   0.871
 9594SOL    HW229682   5.873   6.895   0.980
 9595SOL     OW29683   0.798   5.467   4.760
 9595SOL    HW129684   0.827   5.427   4.847
 9595SOL    HW229685   0.865   5.444   4.689
 9596SOL     OW29686   5.104   5.713   1.952
 9596SOL    HW129687   5.171   5.650   1.991
 9596SOL    HW229688   5.026   5.722   2.014
 9597SOL     OW29689   1.911   4.505   0.950
 9597SOL    HW129690   1.975   4.428   0.951
 9597SOL    HW229691   1.883   4.526   1.044
 9598SOL     OW29692   0.664   5.907   5.831
 9598SOL    HW129693   0.647   5.900   5.733
 9598SOL    HW229694   0.589   5.955   5.876
 9599SOL     OW29695   3.755   1.555   4.930
 9599SOL    HW129696   3.752   1.457   4.910
 9599SOL    HW229697   3.671   1.598   4.899
 9600SOL     OW29698   1.461   6.300   6.498
 9600SOL    HW129699   1.372   6.340   6.478
 9600SOL    HW229700   1.522   6.371   6.535
 9601SOL     OW29701   0.641   6.629   5.313
 9601SOL    HW129702   0.638   6.623   5.213
 9601SOL    HW229703   0.572   6.569   5.352
 9602SOL     OW29704   1.020   5.296   6.256
 9602SOL    HW129705   0.960   5.336   6.326
 9602SOL    HW229706   1.095   5.248   6.301
 9603SOL     OW29707   1.030   4.872   2.333
 9603SOL    HW129708   1.128   4.858   2.343
 9603SOL    HW229709   1.009   4.969   2.345
 9604SOL     OW29710   0.084   6.852   6.540
 9604SOL    HW129711   0.116   6.813   6.454
 9604SOL    HW229712   7.007   6.842   6.546
 9605SOL     OW29713   3.035   4.764   0.303
 9605SOL    HW129714   3.048   4.686   0.241
 9605SOL    HW229715   3.124   4.807   0.320
 9606SOL     OW29716   6.920   6.900   5.285
 9606SOL    HW129717   6.915   6.892   5.384
 9606SOL    HW229718   7.013   6.876   5.255
 9607SOL     OW29719   6.951   2.267   2.334
 9607SOL    HW129720   6.893   2.335   2.289
 9607SOL    HW229721   0.024   2.298   2.332
 9608SOL     OW29722   6.702   0.529   2.243
 9608SOL    HW129723   6.766   0.521   2.319
 9608SOL    HW229724   6.704   0.445   2.189
 9609SOL     OW29725   1.662   2.028   3.492
 9609SOL    HW129726   1.685   1.950   3.433
 9609SOL    HW229727   1.663   1.999   3.588
 9610SOL     OW29728   3.705   0.592   5.476
 9610SOL    HW129729   3.607   0.606   5.462
 9610SOL    HW229730   3.744   0.672   5.523
 9611SOL     OW29731   5.387   6.055   1.267
 9611SOL    HW129732   5.421   5.965   1.297
 9611SOL    HW229733   5.395   6.062   1.168
 9612SOL     OW29734   5.295   3.758   3.550
 9612SOL    HW129735   5.258   3.700   3.622
 9612SOL    HW229736   5.332   3.701   3.477
 9613SOL     OW29737   5.801   0.862   5.315
 9613SOL    HW129738   5.718   0.807   5.324
 9613SOL    HW229739   5.868   0.833   5.384
 9614SOL     OW29740   2.718   2.731   0.455
 9614SOL    HW129741   2.637   2.722   0.397
 9614SOL    HW229742   2.783   2.659   0.431
 9615SOL     OW29743   0.733   5.740   4.025
 9615SOL    HW129744   0.780   5.727   3.938
 9615SOL    HW229745   0.649   5.793   4.010
 9616SOL     OW29746   0.861   2.595   1.137
 9616SOL    HW129747   0.776   2.558   1.175
 9616SOL    HW229748   0.846   2.689   1.105
 9617SOL     OW29749   0.292   3.208   2.463
 9617SOL    HW129750   0.210   3.190   2.409
 9617SOL    HW229751   0.267   3.252   2.549
 9618SOL     OW29752   4.841   3.914   1.229
 9618SOL    HW129753   4.858   4.008   1.256
 9618SOL    HW229754   4.901   3.852   1.280
 9619SOL     OW29755   0.487   6.878   1.258
 9619SOL    HW129756   0.390   6.868   1.279
 9619SOL    HW229757   0.529   6.943   1.322
 9620SOL     OW29758   3.174   1.501   6.810
 9620SOL    HW129759   3.167   1.491   6.711
 9620SOL    HW229760   3.157   1.413   6.854
 9621SOL     OW29761   0.485   0.455   1.688
 9621SOL    HW129762   0.489   0.539   1.634
 9621SOL    HW229763   0.562   0.453   1.753
 9622SOL     OW29764   6.299   5.705   5.819
 9622SOL    HW129765   6.262   5.722   5.910
 9622SOL    HW229766   6.348   5.618   5.819
 9623SOL     OW29767   3.203   5.984   5.475
 9623SOL    HW129768   3.201   6.064   5.415
 9623SOL    HW229769   3.288   5.933   5.461
 9624SOL     OW29770   4.468   5.175   5.529
 9624SOL    HW129771   4.520   5.100   5.487
 9624SOL    HW229772   4.527   5.226   5.592
 9625SOL     OW29773   4.328   3.955   5.959
 9625SOL    HW129774   4.332   3.856   5.947
 9625SOL    HW229775   4.421   3.992   5.960
 9626SOL     OW29776   2.504   2.312   6.425
 9626SOL    HW129777   2.594   2.303   6.468
 9626SOL    HW229778   2.434   2.270   6.483
 9627SOL     OW29779   0.125   5.756   0.841
 9627SOL    HW129780   0.140   5.796   0.931
 9627SOL    HW229781   0.028   5.766   0.816
 9628SOL     OW29782   6.256   1.576   5.828
 9628SOL    HW129783   6.185   1.512   5.798
 9628SOL    HW229784   6.222   1.628   5.907
 9629SOL     OW29785   0.468   5.537   3.735
 9629SOL    HW129786   0.499   5.443   3.720
 9629SOL    HW229787   0.414   5.541   3.819
 9630SOL     OW29788   5.327   1.530   6.357
 9630SOL    HW129789   5.373   1.490   6.436
 9630SOL    HW229790   5.380   1.608   6.323
 9631SOL     OW29791   4.602   6.724   0.522
 9631SOL    HW129792   4.653   6.642   0.546
 9631SOL    HW229793   4.563   6.764   0.605
 9632SOL     OW29794   2.434   4.966   2.945
 9632SOL    HW129795   2.438   4.879   2.896
 9632SOL    HW229796   2.429   5.041   2.878
 9633SOL     OW29797   3.736   2.870   4.897
 9633SOL    HW129798   3.761   2.775   4.875
 9633SOL    HW229799   3.798   2.933   4.851
 9634SOL     OW29800   5.498   4.837   3.038
 9634SOL    HW129801   5.577   4.812   3.095
 9634SOL    HW229802   5.423   4.867   3.098
 9635SOL     OW29803   0.560   4.673   4.025
 9635SOL    HW129804   0.515   4.614   3.958
 9635SOL    HW229805   0.518   4.763   4.024
 9636SOL     OW29806   5.800   3.972   3.917
 9636SOL    HW129807   5.871   3.905   3.935
 9636SOL    HW229808   5.757   3.999   4.003
 9637SOL     OW29809   1.553   3.849   0.507
 9637SOL    HW129810   1.638   3.902   0.500
 9637SOL    HW229811   1.562   3.780   0.578
 9638SOL     OW29812   6.077   5.413   5.801
 9638SOL    HW129813   5.995   5.358   5.784
 9638SOL    HW229814   6.066   5.464   5.886
 9639SOL     OW29815   4.983   2.339   1.752
 9639SOL    HW129816   4.927   2.405   1.704
 9639SOL    HW229817   4.940   2.316   1.840
 9640SOL     OW29818   3.434   0.443   3.121
 9640SOL    HW129819   3.408   0.525   3.071
 9640SOL    HW229820   3.369   0.427   3.195
 9641SOL     OW29821   6.689   3.015   5.088
 9641SOL    HW129822   6.686   3.092   5.152
 9641SOL    HW229823   6.651   3.043   5.000
 9642SOL     OW29824   0.544   2.353   4.760
 9642SOL    HW129825   0.464   2.395   4.718
 9642SOL    HW229826   0.624   2.410   4.743
 9643SOL     OW29827   5.390   5.059   4.483
 9643SOL    HW129828   5.341   4.982   4.442
 9643SOL    HW229829   5.357   5.145   4.444
 9644SOL     OW29830   1.529   5.047   3.718
 9644SOL    HW129831   1.602   5.084   3.661
 9644SOL    HW229832   1.568   4.990   3.790
 9645SOL     OW29833   1.571   4.683   6.689
 9645SOL    HW129834   1.658   4.639   6.670
 9645SOL    HW229835   1.584   4.758   6.753
 9646SOL     OW29836   3.230   5.697   0.343
 9646SOL    HW129837   3.279   5.697   0.256
 9646SOL    HW229838   3.291   5.730   0.415
 9647SOL     OW29839   5.926   6.670   3.094
 9647SOL    HW129840   5.957   6.590   3.146
 9647SOL    HW229841   6.005   6.724   3.066
 9648SOL     OW29842   2.617   1.894   1.174
 9648SOL    HW129843   2.664   1.904   1.086
 9648SOL    HW229844   2.679   1.919   1.248
 9649SOL     OW29845   0.234   5.495   0.947
 9649SOL    HW129846   0.325   5.493   0.906
 9649SOL    HW229847   0.193   5.585   0.931
 9650SOL     OW29848   0.976   4.625   4.633
 9650SOL    HW129849   1.016   4.546   4.585
 9650SOL    HW229850   0.876   4.619   4.628
 9651SOL     OW29851   3.503   1.808   6.634
 9651SOL    HW129852   3.477   1.835   6.541
 9651SOL    HW229853   3.581   1.864   6.664
 9652SOL     OW29854   0.449   4.251   0.224
 9652SOL    HW129855   0.413   4.231   0.315
 9652SOL    HW229856   0.541   4.214   0.216
 9653SOL     OW29857   5.088   4.377   5.524
 9653SOL    HW129858   5.023   4.304   5.542
 9653SOL    HW229859   5.153   4.347   5.454
 9654SOL     OW29860   3.809   3.491   3.012
 9654SOL    HW129861   3.795   3.522   2.918
 9654SOL    HW229862   3.876   3.550   3.057
 9655SOL     OW29863   4.638   1.685   1.133
 9655SOL    HW129864   4.622   1.686   1.231
 9655SOL    HW229865   4.640   1.590   1.100
 9656SOL     OW29866   4.845   4.239   6.468
 9656SOL    HW129867   4.920   4.211   6.407
 9656SOL    HW229868   4.766   4.265   6.414
 9657SOL     OW29869   5.046   4.756   3.787
 9657SOL    HW129870   5.016   4.813   3.710
 9657SOL    HW229871   5.056   4.662   3.757
 9658SOL     OW29872   5.644   1.589   2.778
 9658SOL    HW129873   5.680   1.638   2.699
 9658SOL    HW229874   5.584   1.515   2.747
 9659SOL     OW29875   3.306   2.944   6.569
 9659SOL    HW129876   3.215   2.907   6.554
 9659SOL    HW229877   3.364   2.925   6.489
 9660SOL     OW29878   1.818   6.314   1.289
 9660SOL    HW129879   1.735   6.324   1.234
 9660SOL    HW229880   1.804   6.242   1.356
 9661SOL     OW29881   4.034   3.041   1.963
 9661SOL    HW129882   4.050   3.140   1.963
 9661SOL    HW229883   4.097   2.996   2.026
 9662SOL     OW29884   4.694   6.494   5.871
 9662SOL    HW129885   4.771   6.535   5.920
 9662SOL    HW229886   4.651   6.425   5.930
 9663SOL     OW29887   1.174   5.506   2.698
 9663SOL    HW129888   1.203   5.577   2.762
 9663SOL    HW229889   1.254   5.472   2.648
 9664SOL     OW29890   3.339   5.172   2.588
 9664SOL    HW129891   3.365   5.217   2.674
 9664SOL    HW229892   3.265   5.223   2.545
 9665SOL     OW29893   6.008   4.356   5.745
 9665SOL    HW129894   6.099   4.319   5.724
 9665SOL    HW229895   5.938   4.296   5.707
 9666SOL     OW29896   5.423   3.685   0.614
 9666SOL    HW129897   5.473   3.617   0.560
 9666SOL    HW229898   5.336   3.705   0.569
 9667SOL     OW29899   5.252   6.443   6.927
 9667SOL    HW129900   5.349   6.419   6.925
 9667SOL    HW229901   5.240   6.532   6.972
 9668SOL     OW29902   1.585   1.217   6.142
 9668SOL    HW129903   1.489   1.215   6.170
 9668SOL    HW229904   1.618   1.123   6.132
 9669SOL     OW29905   2.999   0.216   0.236
 9669SOL    HW129906   2.913   0.241   0.193
 9669SOL    HW229907   3.068   0.195   0.166
 9670SOL     OW29908   0.834   0.597   0.861
 9670SOL    HW129909   0.872   0.554   0.943
 9670SOL    HW229910   0.909   0.634   0.806
 9671SOL     OW29911   1.284   5.508   6.805
 9671SOL    HW129912   1.342   5.434   6.840
 9671SOL    HW229913   1.199   5.512   6.859
 9672SOL     OW29914   0.966   3.512   4.184
 9672SOL    HW129915   0.979   3.514   4.283
 9672SOL    HW229916   1.044   3.554   4.138
 9673SOL     OW29917   2.315   3.008   6.794
 9673SOL    HW129918   2.347   3.103   6.795
 9673SOL    HW229919   2.251   2.995   6.719
 9674SOL     OW29920   1.963   6.845   4.044
 9674SOL    HW129921   1.959   6.751   4.078
 9674SOL    HW229922   2.056   6.881   4.056
 9675SOL     OW29923   6.191   4.212   5.629
 9675SOL    HW129924   6.248   4.145   5.676
 9675SOL    HW229925   6.180   4.184   5.533
 9676SOL     OW29926   0.859   3.528   5.230
 9676SOL    HW129927   0.874   3.433   5.258
 9676SOL    HW229928   0.810   3.576   5.303
 9677SOL     OW29929   6.626   4.657   2.574
 9677SOL    HW129930   6.619   4.642   2.475
 9677SOL    HW229931   6.581   4.743   2.598
 9678SOL     OW29932   3.803   3.697   5.311
 9678SOL    HW129933   3.806   3.701   5.411
 9678SOL    HW229934   3.804   3.601   5.282
 9679SOL     OW29935   1.584   0.956   4.160
 9679SOL    HW129936   1.654   1.016   4.121
 9679SOL    HW229937   1.542   1.001   4.239
 9680SOL     OW29938   4.640   0.546   2.161
 9680SOL    HW129939   4.618   0.643   2.157
 9680SOL    HW229940   4.728   0.533   2.206
 9681SOL     OW29941   1.383   2.955   1.317
 9681SOL    HW129942   1.351   3.041   1.278
 9681SOL    HW229943   1.438   2.973   1.398
 9682SOL     OW29944   4.857   7.015   6.002
 9682SOL    HW129945   4.837   6.946   6.072
 9682SOL    HW229946   4.919   6.976   5.934
 9683SOL     OW29947   4.488   6.575   3.919
 9683SOL    HW129948   4.480   6.669   3.887
 9683SOL    HW229949   4.445   6.567   4.009
 9684SOL     OW29950   0.217   3.406   5.691
 9684SOL    HW129951   0.163   3.489   5.678
 9684SOL    HW229952   0.308   3.419   5.652
 9685SOL     OW29953   3.295   4.744   1.746
 9685SOL    HW129954   3.378   4.688   1.759
 9685SOL    HW229955   3.226   4.690   1.697
 9686SOL     OW29956   0.622   1.472   5.507
 9686SOL    HW129957   0.538   1.523   5.527
 9686SOL    HW229958   0.671   1.517   5.432
 9687SOL     OW29959   5.690   1.092   3.717
 9687SOL    HW129960   5.686   1.189   3.739
 9687SOL    HW229961   5.780   1.070   3.679
 9688SOL     OW29962   0.306   4.975   1.328
 9688SOL    HW129963   0.320   5.071   1.349
 9688SOL    HW229964   0.351   4.952   1.242
 9689SOL     OW29965   1.602   5.490   1.610
 9689SOL    HW129966   1.581   5.394   1.589
 9689SOL    HW229967   1.531   5.549   1.573
 9690SOL     OW29968   0.660   4.600   5.163
 9690SOL    HW129969   0.609   4.514   5.169
 9690SOL    HW229970   0.596   4.676   5.152
 9691SOL     OW29971   3.851   3.270   2.023
 9691SOL    HW129972   3.795   3.208   1.968
 9691SOL    HW229973   3.869   3.353   1.971
 9692SOL     OW29974   5.189   4.598   0.324
 9692SOL    HW129975   5.149   4.626   0.237
 9692SOL    HW229976   5.135   4.635   0.399
 9693SOL     OW29977   4.929   3.215   5.878
 9693SOL    HW129978   4.881   3.201   5.965
 9693SOL    HW229979   4.953   3.312   5.868
 9694SOL     OW29980   2.805   6.182   1.101
 9694SOL    HW129981   2.830   6.094   1.061
 9694SOL    HW229982   2.888   6.232   1.126
 9695SOL     OW29983   1.104   3.088   4.183
 9695SOL    HW129984   1.131   3.089   4.087
 9695SOL    HW229985   1.164   3.026   4.234
 9696SOL     OW29986   5.076   2.993   3.518
 9696SOL    HW129987   5.110   2.946   3.436
 9696SOL    HW229988   5.087   2.933   3.598
 9697SOL     OW29989   0.624   7.016   1.445
 9697SOL    HW129990   0.676   7.005   1.530
 9697SOL    HW229991   0.578   0.082   1.446
 9698SOL     OW29992   0.043   3.816   1.734
 9698SOL    HW129993   0.088   3.884   1.792
 9698SOL    HW229994   0.103   3.737   1.721
 9699SOL     OW29995   0.948   5.832   1.729
 9699SOL    HW129996   0.973   5.928   1.728
 9699SOL    HW229997   0.939   5.801   1.824
 9700SOL     OW29998   5.200   1.121   6.307
 9700SOL    HW129999   5.198   1.155   6.213
 9700SOL    HW230000   5.289   1.143   6.348
 9701SOL     OW30001   5.212   3.909   0.084
 9701SOL    HW130002   5.227   3.923   0.182
 9701SOL    HW230003   5.196   3.998   0.040
 9702SOL     OW30004   3.985   3.845   1.574
 9702SOL    HW130005   4.012   3.940   1.558
 9702SOL    HW230006   4.051   3.784   1.530
 9703SOL     OW30007   5.809   5.036   3.386
 9703SOL    HW130008   5.809   5.001   3.480
 9703SOL    HW230009   5.860   5.123   3.383
 9704SOL     OW30010   1.386   4.025   2.453
 9704SOL    HW130011   1.396   3.926   2.465
 9704SOL    HW230012   1.301   4.055   2.496
 9705SOL     OW30013   0.433   3.106   5.703
 9705SOL    HW130014   0.410   3.176   5.635
 9705SOL    HW230015   0.529   3.081   5.695
 9706SOL     OW30016   0.798   0.807   2.533
 9706SOL    HW130017   0.821   0.764   2.446
 9706SOL    HW230018   0.699   0.819   2.539
 9707SOL     OW30019   0.798   5.340   2.505
 9707SOL    HW130020   0.705   5.303   2.514
 9707SOL    HW230021   0.854   5.275   2.452
 9708SOL     OW30022   2.621   0.789   1.671
 9708SOL    HW130023   2.578   0.728   1.604
 9708SOL    HW230024   2.579   0.880   1.666
 9709SOL     OW30025   5.447   1.544   1.561
 9709SOL    HW130026   5.438   1.588   1.471
 9709SOL    HW230027   5.361   1.552   1.611
 9710SOL     OW30028   4.859   5.211   4.766
 9710SOL    HW130029   4.891   5.295   4.811
 9710SOL    HW230030   4.761   5.218   4.747
 9711SOL     OW30031   2.917   0.813   6.933
 9711SOL    HW130032   2.920   0.713   6.939
 9711SOL    HW230033   3.009   0.849   6.948
 9712SOL     OW30034   5.148   0.566   6.159
 9712SOL    HW130035   5.073   0.529   6.103
 9712SOL    HW230036   5.124   0.658   6.189
 9713SOL     OW30037   2.166   6.914   3.105
 9713SOL    HW130038   2.173   6.981   3.179
 9713SOL    HW230039   2.150   6.961   3.019
 9714SOL     OW30040   2.137   3.527   4.113
 9714SOL    HW130041   2.119   3.489   4.022
 9714SOL    HW230042   2.169   3.454   4.174
 9715SOL     OW30043   6.918   2.820   6.483
 9715SOL    HW130044   6.904   2.730   6.525
 9715SOL    HW230045   6.986   2.813   6.411
 9716SOL     OW30046   2.652   6.557   0.567
 9716SOL    HW130047   2.651   6.657   0.575
 9716SOL    HW230048   2.739   6.522   0.603
 9717SOL     OW30049   3.774   2.452   5.776
 9717SOL    HW130050   3.759   2.358   5.806
 9717SOL    HW230051   3.773   2.455   5.676
 9718SOL     OW30052   4.138   2.304   6.396
 9718SOL    HW130053   4.109   2.226   6.451
 9718SOL    HW230054   4.201   2.361   6.449
 9719SOL     OW30055   4.454   0.026   5.946
 9719SOL    HW130056   4.473   0.000   6.041
 9719SOL    HW230057   4.538   0.023   5.893
 9720SOL     OW30058   2.082   2.357   2.394
 9720SOL    HW130059   2.027   2.441   2.395
 9720SOL    HW230060   2.165   2.372   2.340
 9721SOL     OW30061   0.489   1.582   1.283
 9721SOL    HW130062   0.583   1.588   1.251
 9721SOL    HW230063   0.437   1.522   1.222
 9722SOL     OW30064   4.011   2.476   5.448
 9722SOL    HW130065   3.997   2.383   5.482
 9722SOL    HW230066   3.928   2.530   5.460
 9723SOL     OW30067   6.165   0.402   4.991
 9723SOL    HW130068   6.246   0.461   4.991
 9723SOL    HW230069   6.112   0.419   5.074
 9724SOL     OW30070   1.288   4.596   1.016
 9724SOL    HW130071   1.270   4.694   1.031
 9724SOL    HW230072   1.227   4.562   0.945
 9725SOL     OW30073   4.936   5.521   3.856
 9725SOL    HW130074   4.867   5.515   3.928
 9725SOL    HW230075   4.945   5.615   3.825
 9726SOL     OW30076   6.603   0.064   2.910
 9726SOL    HW130077   6.686   0.008   2.911
 9726SOL    HW230078   6.560   0.061   3.001
 9727SOL     OW30079   6.100   2.646   1.761
 9727SOL    HW130080   6.191   2.643   1.803
 9727SOL    HW230081   6.108   2.628   1.663
 9728SOL     OW30082   5.572   2.145   4.397
 9728SOL    HW130083   5.596   2.134   4.493
 9728SOL    HW230084   5.588   2.059   4.348
 9729SOL     OW30085   0.313   3.613   3.319
 9729SOL    HW130086   0.286   3.677   3.391
 9729SOL    HW230087   0.241   3.609   3.249
 9730SOL     OW30088   1.038   5.353   2.907
 9730SOL    HW130089   1.087   5.327   2.990
 9730SOL    HW230090   1.100   5.404   2.847
 9731SOL     OW30091   6.000   2.901   1.805
 9731SOL    HW130092   6.021   2.808   1.775
 9731SOL    HW230093   5.906   2.923   1.780
 9732SOL     OW30094   1.340   3.650   2.841
 9732SOL    HW130095   1.298   3.648   2.750
 9732SOL    HW230096   1.434   3.615   2.836
 9733SOL     OW30097   6.508   4.682   2.116
 9733SOL    HW130098   6.441   4.619   2.078
 9733SOL    HW230099   6.471   4.775   2.115
 9734SOL     OW30100   4.409   5.174   6.345
 9734SOL    HW130101   4.393   5.161   6.247
 9734SOL    HW230102   4.499   5.215   6.359
 9735SOL     OW30103   0.054   2.146   0.623
 9735SOL    HW130104   0.033   2.236   0.585
 9735SOL    HW230105   0.148   2.121   0.600
 9736SOL     OW30106   5.045   2.682   5.095
 9736SOL    HW130107   4.955   2.698   5.138
 9736SOL    HW230108   5.113   2.741   5.138
 9737SOL     OW30109   5.851   2.685   3.864
 9737SOL    HW130110   5.866   2.691   3.963
 9737SOL    HW230111   5.756   2.661   3.846
 9738SOL     OW30112   2.496   6.436   1.211
 9738SOL    HW130113   2.424   6.466   1.274
 9738SOL    HW230114   2.579   6.414   1.263
 9739SOL     OW30115   6.212   6.048   0.566
 9739SOL    HW130116   6.118   6.034   0.599
 9739SOL    HW230117   6.254   6.123   0.616
 9740SOL     OW30118   6.045   0.508   1.942
 9740SOL    HW130119   6.081   0.584   1.997
 9740SOL    HW230120   5.985   0.544   1.871
 9741SOL     OW30121   2.397   2.143   3.796
 9741SOL    HW130122   2.484   2.098   3.814
 9741SOL    HW230123   2.369   2.123   3.702
 9742SOL     OW30124   3.466   1.933   6.381
 9742SOL    HW130125   3.378   1.952   6.337
 9742SOL    HW230126   3.512   1.858   6.333
 9743SOL     OW30127   6.579   3.724   4.044
 9743SOL    HW130128   6.577   3.745   3.947
 9743SOL    HW230129   6.625   3.636   4.059
 9744SOL     OW30130   1.705   1.852   2.417
 9744SOL    HW130131   1.704   1.865   2.516
 9744SOL    HW230132   1.724   1.939   2.372
 9745SOL     OW30133   0.285   0.155   5.919
 9745SOL    HW130134   0.191   0.175   5.948
 9745SOL    HW230135   0.344   0.233   5.941
 9746SOL     OW30136   3.408   6.304   5.725
 9746SOL    HW130137   3.399   6.332   5.630
 9746SOL    HW230138   3.356   6.367   5.784
 9747SOL     OW30139   3.616   1.912   3.903
 9747SOL    HW130140   3.639   1.824   3.946
 9747SOL    HW230141   3.700   1.959   3.878
 9748SOL     OW30142   0.791   1.118   2.393
 9748SOL    HW130143   0.830   1.063   2.466
 9748SOL    HW230144   0.761   1.059   2.318
 9749SOL     OW30145   6.745   0.564   1.851
 9749SOL    HW130146   6.819   0.504   1.881
 9749SOL    HW230147   6.657   0.526   1.880
 9750SOL     OW30148   5.721   2.599   5.806
 9750SOL    HW130149   5.677   2.660   5.741
 9750SOL    HW230150   5.715   2.505   5.773
 9751SOL     OW30151   3.257   6.968   1.587
 9751SOL    HW130152   3.301   6.953   1.499
 9751SOL    HW230153   3.196   6.892   1.608
 9752SOL     OW30154   3.198   2.857   0.636
 9752SOL    HW130155   3.116   2.885   0.686
 9752SOL    HW230156   3.273   2.918   0.658
 9753SOL     OW30157   6.960   5.675   3.919
 9753SOL    HW130158   6.991   5.743   3.853
 9753SOL    HW230159   6.995   5.585   3.893
 9754SOL     OW30160   3.486   1.307   2.311
 9754SOL    HW130161   3.412   1.351   2.362
 9754SOL    HW230162   3.551   1.377   2.282
 9755SOL     OW30163   3.648   3.594   6.966
 9755SOL    HW130164   3.702   3.677   6.973
 9755SOL    HW230165   3.695   3.528   6.908
 9756SOL     OW30166   5.422   0.516   6.146
 9756SOL    HW130167   5.473   0.438   6.184
 9756SOL    HW230168   5.324   0.501   6.160
 9757SOL     OW30169   5.274   3.595   4.257
 9757SOL    HW130170   5.197   3.653   4.285
 9757SOL    HW230171   5.334   3.579   4.336
 9758SOL     OW30172   2.653   0.998   2.443
 9758SOL    HW130173   2.697   0.981   2.531
 9758SOL    HW230174   2.693   1.079   2.401
 9759SOL     OW30175   6.476   1.957   1.905
 9759SOL    HW130176   6.442   1.974   1.997
 9759SOL    HW230177   6.418   2.007   1.840
 9760SOL     OW30178   4.321   0.644   6.576
 9760SOL    HW130179   4.417   0.635   6.600
 9760SOL    HW230180   4.311   0.718   6.508
 9761SOL     OW30181   0.692   2.468   1.501
 9761SOL    HW130182   0.768   2.432   1.556
 9761SOL    HW230183   0.640   2.534   1.554
 9762SOL     OW30184   2.912   1.103   5.564
 9762SOL    HW130185   2.963   1.022   5.534
 9762SOL    HW230186   2.941   1.182   5.511
 9763SOL     OW30187   6.293   2.508   1.300
 9763SOL    HW130188   6.297   2.421   1.252
 9763SOL    HW230189   6.350   2.503   1.383
 9764SOL     OW30190   0.678   2.110   2.483
 9764SOL    HW130191   0.686   2.183   2.415
 9764SOL    HW230192   0.584   2.106   2.517
 9765SOL     OW30193   6.886   0.976   1.431
 9765SOL    HW130194   6.819   1.050   1.428
 9765SOL    HW230195   6.891   0.940   1.524
 9766SOL     OW30196   0.469   2.689   2.967
 9766SOL    HW130197   0.444   2.612   3.025
 9766SOL    HW230198   0.439   2.774   3.011
 9767SOL     OW30199   2.465   1.525   5.377
 9767SOL    HW130200   2.425   1.433   5.381
 9767SOL    HW230201   2.455   1.570   5.466
 9768SOL     OW30202   5.365   3.059   0.315
 9768SOL    HW130203   5.330   2.991   0.379
 9768SOL    HW230204   5.305   3.139   0.316
 9769SOL     OW30205   3.144   1.802   5.386
 9769SOL    HW130206   3.225   1.754   5.419
 9769SOL    HW230207   3.129   1.778   5.290
 9770SOL     OW30208   2.001   3.099   5.490
 9770SOL    HW130209   1.976   3.008   5.456
 9770SOL    HW230210   1.953   3.169   5.438
 9771SOL     OW30211   3.261   0.687   1.644
 9771SOL    HW130212   3.252   0.730   1.733
 9771SOL    HW230213   3.190   0.617   1.634
 9772SOL     OW30214   0.890   0.517   1.121
 9772SOL    HW130215   0.949   0.597   1.110
 9772SOL    HW230216   0.882   0.495   1.218
 9773SOL     OW30217   5.830   6.068   2.297
 9773SOL    HW130218   5.870   6.065   2.206
 9773SOL    HW230219   5.730   6.075   2.290
 9774SOL     OW30220   2.098   4.926   4.274
 9774SOL    HW130221   2.064   4.857   4.211
 9774SOL    HW230222   2.161   4.988   4.226
 9775SOL     OW30223   2.298   1.423   2.787
 9775SOL    HW130224   2.233   1.464   2.723
 9775SOL    HW230225   2.257   1.343   2.829
 9776SOL     OW30226   2.455   5.398   1.347
 9776SOL    HW130227   2.374   5.455   1.331
 9776SOL    HW230228   2.445   5.312   1.298
 9777SOL     OW30229   4.372   1.563   5.288
 9777SOL    HW130230   4.366   1.565   5.388
 9777SOL    HW230231   4.281   1.552   5.249
 9778SOL     OW30232   0.702   3.859   3.165
 9778SOL    HW130233   0.793   3.893   3.141
 9778SOL    HW230234   0.695   3.852   3.264
 9779SOL     OW30235   2.838   0.577   3.708
 9779SOL    HW130236   2.754   0.585   3.655
 9779SOL    HW230237   2.848   0.483   3.741
 9780SOL     OW30238   0.480   1.676   0.861
 9780SOL    HW130239   0.533   1.592   0.872
 9780SOL    HW230240   0.385   1.659   0.889
 9781SOL     OW30241   0.929   0.769   2.036
 9781SOL    HW130242   0.999   0.717   1.986
 9781SOL    HW230243   0.956   0.866   2.039
 9782SOL     OW30244   0.024   2.375   0.470
 9782SOL    HW130245   0.069   2.378   0.380
 9782SOL    HW230246   6.991   2.458   0.481
 9783SOL     OW30247   4.349   1.753   3.040
 9783SOL    HW130248   4.352   1.683   2.968
 9783SOL    HW230249   4.345   1.844   2.999
 9784SOL     OW30250   1.596   1.456   6.316
 9784SOL    HW130251   1.617   1.367   6.274
 9784SOL    HW230252   1.678   1.494   6.357
 9785SOL     OW30253   0.798   3.975   4.545
 9785SOL    HW130254   0.715   3.932   4.509
 9785SOL    HW230255   0.876   3.950   4.489
 9786SOL     OW30256   2.729   4.102   6.702
 9786SOL    HW130257   2.637   4.063   6.693
 9786SOL    HW230258   2.724   4.202   6.694
 9787SOL     OW30259   3.017   3.780   2.167
 9787SOL    HW130260   3.031   3.738   2.257
 9787SOL    HW230261   3.004   3.708   2.099
 9788SOL     OW30262   3.688   0.270   2.389
 9788SOL    HW130263   3.692   0.221   2.476
 9788SOL    HW230264   3.608   0.328   2.387
 9789SOL     OW30265   3.074   0.971   0.261
 9789SOL    HW130266   3.132   0.898   0.228
 9789SOL    HW230267   3.115   1.060   0.238
 9790SOL     OW30268   4.627   5.732   4.893
 9790SOL    HW130269   4.608   5.738   4.795
 9790SOL    HW230270   4.631   5.825   4.931
 9791SOL     OW30271   0.924   6.987   1.289
 9791SOL    HW130272   1.007   6.944   1.255
 9791SOL    HW230273   0.844   6.937   1.257
 9792SOL     OW30274   3.510   4.448   1.177
 9792SOL    HW130275   3.601   4.429   1.142
 9792SOL    HW230276   3.460   4.362   1.190
 9793SOL     OW30277   6.061   1.093   3.049
 9793SOL    HW130278   6.039   1.187   3.072
 9793SOL    HW230279   6.151   1.088   3.007
 9794SOL     OW30280   4.191   4.897   4.333
 9794SOL    HW130281   4.283   4.932   4.353
 9794SOL    HW230282   4.140   4.966   4.282
 9795SOL     OW30283   0.726   3.332   3.417
 9795SOL    HW130284   0.690   3.388   3.342
 9795SOL    HW230285   0.780   3.257   3.380
 9796SOL     OW30286   2.927   3.511   3.920
 9796SOL    HW130287   2.842   3.495   3.971
 9796SOL    HW230288   2.927   3.455   3.838
 9797SOL     OW30289   2.856   5.522   6.686
 9797SOL    HW130290   2.923   5.596   6.696
 9797SOL    HW230291   2.904   5.435   6.674
 9798SOL     OW30292   0.199   4.395   6.656
 9798SOL    HW130293   0.153   4.484   6.651
 9798SOL    HW230294   0.134   4.325   6.686
 9799SOL     OW30295   3.411   0.534   0.327
 9799SOL    HW130296   3.349   0.555   0.403
 9799SOL    HW230297   3.478   0.466   0.358
 9800SOL     OW30298   6.580   3.707   4.331
 9800SOL    HW130299   6.669   3.749   4.312
 9800SOL    HW230300   6.519   3.721   4.253
 9801SOL     OW30301   5.101   5.721   0.537
 9801SOL    HW130302   5.036   5.672   0.595
 9801SOL    HW230303   5.194   5.689   0.556
 9802SOL     OW30304   4.142   3.619   6.952
 9802SOL    HW130305   4.196   3.547   6.996
 9802SOL    HW230306   4.198   3.665   6.883
 9803SOL     OW30307   1.286   3.602   6.243
 9803SOL    HW130308   1.228   3.549   6.304
 9803SOL    HW230309   1.236   3.683   6.212
 9804SOL     OW30310   0.929   4.453   2.990
 9804SOL    HW130311   0.923   4.482   3.085
 9804SOL    HW230312   0.929   4.534   2.930
 9805SOL     OW30313   0.924   5.597   4.179
 9805SOL    HW130314   0.999   5.660   4.200
 9805SOL    HW230315   0.877   5.626   4.096
 9806SOL     OW30316   3.714   1.590   0.423
 9806SOL    HW130317   3.712   1.631   0.514
 9806SOL    HW230318   3.638   1.525   0.414
 9807SOL     OW30319   4.083   3.257   3.278
 9807SOL    HW130320   4.028   3.292   3.354
 9807SOL    HW230321   4.145   3.186   3.313
 9808SOL     OW30322   3.699   5.457   2.171
 9808SOL    HW130323   3.668   5.365   2.146
 9808SOL    HW230324   3.715   5.461   2.270
 9809SOL     OW30325   6.436   2.642   0.600
 9809SOL    HW130326   6.446   2.619   0.697
 9809SOL    HW230327   6.488   2.725   0.580
 9810SOL     OW30328   2.115   2.105   1.089
 9810SOL    HW130329   2.029   2.124   1.042
 9810SOL    HW230330   2.101   2.107   1.188
 9811SOL     OW30331   5.659   3.749   4.388
 9811SOL    HW130332   5.612   3.781   4.471
 9811SOL    HW230333   5.756   3.736   4.408
 9812SOL     OW30334   3.135   5.752   5.656
 9812SOL    HW130335   3.149   5.838   5.606
 9812SOL    HW230336   3.152   5.675   5.594
 9813SOL     OW30337   4.886   0.851   2.571
 9813SOL    HW130338   4.954   0.791   2.529
 9813SOL    HW230339   4.929   0.906   2.643
 9814SOL     OW30340   0.361   1.353   5.999
 9814SOL    HW130341   0.443   1.298   6.011
 9814SOL    HW230342   0.320   1.371   6.089
 9815SOL     OW30343   4.471   2.367   4.046
 9815SOL    HW130344   4.503   2.452   4.005
 9815SOL    HW230345   4.493   2.366   4.143
 9816SOL     OW30346   2.831   1.272   0.949
 9816SOL    HW130347   2.786   1.319   0.873
 9816SOL    HW230348   2.924   1.248   0.924
 9817SOL     OW30349   6.526   0.044   2.202
 9817SOL    HW130350   6.540   0.021   2.106
 9817SOL    HW230351   6.593   7.017   2.258
 9818SOL     OW30352   5.095   2.783   5.484
 9818SOL    HW130353   5.099   2.789   5.384
 9818SOL    HW230354   5.004   2.813   5.516
 9819SOL     OW30355   4.217   0.877   1.884
 9819SOL    HW130356   4.156   0.797   1.887
 9819SOL    HW230357   4.180   0.945   1.821
 9820SOL     OW30358   4.134   2.781   6.868
 9820SOL    HW130359   4.059   2.730   6.911
 9820SOL    HW230360   4.213   2.720   6.856
 9821SOL     OW30361   6.775   5.501   0.143
 9821SOL    HW130362   6.861   5.530   0.102
 9821SOL    HW230363   6.787   5.489   0.242
 9822SOL     OW30364   1.263   0.091   2.850
 9822SOL    HW130365   1.244   0.040   2.933
 9822SOL    HW230366   1.183   0.146   2.824
 9823SOL     OW30367   3.680   6.871   1.631
 9823SOL    HW130368   3.764   6.830   1.596
 9823SOL    HW230369   3.702   6.932   1.708
 9824SOL     OW30370   0.937   4.068   5.666
 9824SOL    HW130371   0.937   4.132   5.742
 9824SOL    HW230372   1.025   4.021   5.661
 9825SOL     OW30373   4.205   5.144   5.213
 9825SOL    HW130374   4.146   5.123   5.290
 9825SOL    HW230375   4.150   5.176   5.136
 9826SOL     OW30376   4.943   0.275   6.215
 9826SOL    HW130377   4.947   0.177   6.235
 9826SOL    HW230378   5.011   0.298   6.146
 9827SOL     OW30379   0.841   3.639   4.563
 9827SOL    HW130380   0.908   3.568   4.543
 9827SOL    HW230381   0.776   3.646   4.488
 9828SOL     OW30382   2.925   2.565   6.376
 9828SOL    HW130383   3.010   2.574   6.428
 9828SOL    HW230384   2.847   2.577   6.438
 9829SOL     OW30385   3.161   4.439   1.385
 9829SOL    HW130386   3.140   4.503   1.459
 9829SOL    HW230387   3.227   4.371   1.418
 9830SOL     OW30388   6.327   1.077   0.438
 9830SOL    HW130389   6.350   1.012   0.511
 9830SOL    HW230390   6.361   1.042   0.351
 9831SOL     OW30391   5.717   6.788   0.559
 9831SOL    HW130392   5.654   6.851   0.515
 9831SOL    HW230393   5.666   6.722   0.614
 9832SOL     OW30394   4.348   5.015   1.008
 9832SOL    HW130395   4.304   5.067   0.935
 9832SOL    HW230396   4.346   4.917   0.986
 9833SOL     OW30397   4.128   3.761   5.383
 9833SOL    HW130398   4.032   3.735   5.380
 9833SOL    HW230399   4.166   3.739   5.472
 9834SOL     OW30400   1.460   2.843   4.592
 9834SOL    HW130401   1.442   2.870   4.498
 9834SOL    HW230402   1.547   2.882   4.623
 9835SOL     OW30403   4.789   1.482   4.431
 9835SOL    HW130404   4.718   1.533   4.480
 9835SOL    HW230405   4.808   1.528   4.344
 9836SOL     OW30406   4.774   4.843   2.106
 9836SOL    HW130407   4.696   4.859   2.166
 9836SOL    HW230408   4.840   4.784   2.152
 9837SOL     OW30409   1.496   6.754   4.748
 9837SOL    HW130410   1.507   6.672   4.804
 9837SOL    HW230411   1.410   6.748   4.697
 9838SOL     OW30412   6.669   5.347   5.218
 9838SOL    HW130413   6.737   5.408   5.175
 9838SOL    HW230414   6.629   5.393   5.297
 9839SOL     OW30415   6.873   2.307   2.611
 9839SOL    HW130416   6.862   2.404   2.589
 9839SOL    HW230417   6.925   2.262   2.537
 9840SOL     OW30418   6.543   0.574   0.905
 9840SOL    HW130419   6.564   0.533   0.994
 9840SOL    HW230420   6.472   0.643   0.916
 9841SOL     OW30421   1.833   3.804   4.407
 9841SOL    HW130422   1.799   3.786   4.499
 9841SOL    HW230423   1.915   3.748   4.390
 9842SOL     OW30424   3.372   2.873   2.836
 9842SOL    HW130425   3.417   2.914   2.915
 9842SOL    HW230426   3.277   2.851   2.860
 9843SOL     OW30427   5.639   3.121   2.411
 9843SOL    HW130428   5.608   3.040   2.361
 9843SOL    HW230429   5.732   3.144   2.382
 9844SOL     OW30430   4.983   0.671   2.355
 9844SOL    HW130431   5.079   0.667   2.382
 9844SOL    HW230432   4.974   0.648   2.259
 9845SOL     OW30433   1.097   1.948   3.527
 9845SOL    HW130434   1.021   2.011   3.545
 9845SOL    HW230435   1.183   1.989   3.557
 9846SOL     OW30436   2.956   3.498   3.231
 9846SOL    HW130437   2.951   3.415   3.286
 9846SOL    HW230438   2.902   3.487   3.148
 9847SOL     OW30439   2.292   4.400   4.982
 9847SOL    HW130440   2.266   4.310   4.947
 9847SOL    HW230441   2.345   4.388   5.067
 9848SOL     OW30442   4.658   3.351   0.422
 9848SOL    HW130443   4.573   3.404   0.426
 9848SOL    HW230444   4.709   3.377   0.340
 9849SOL     OW30445   0.474   6.654   5.069
 9849SOL    HW130446   0.412   6.580   5.093
 9849SOL    HW230447   0.433   6.742   5.092
 9850SOL     OW30448   4.458   7.013   2.773
 9850SOL    HW130449   4.502   6.936   2.725
 9850SOL    HW230450   4.443   6.988   2.868
 9851SOL     OW30451   5.880   2.723   4.708
 9851SOL    HW130452   5.862   2.812   4.751
 9851SOL    HW230453   5.879   2.652   4.779
 9852SOL     OW30454   4.944   2.157   3.837
 9852SOL    HW130455   4.907   2.077   3.885
 9852SOL    HW230456   4.885   2.236   3.852
 9853SOL     OW30457   6.545   3.847   1.722
 9853SOL    HW130458   6.562   3.805   1.633
 9853SOL    HW230459   6.627   3.895   1.752
 9854SOL     OW30460   4.630   6.041   3.274
 9854SOL    HW130461   4.707   6.018   3.334
 9854SOL    HW230462   4.576   5.959   3.257
 9855SOL     OW30463   1.416   3.245   1.130
 9855SOL    HW130464   1.389   3.247   1.034
 9855SOL    HW230465   1.508   3.283   1.140
 9856SOL     OW30466   4.307   2.705   0.880
 9856SOL    HW130467   4.234   2.674   0.940
 9856SOL    HW230468   4.322   2.637   0.807
 9857SOL     OW30469   5.626   4.055   3.471
 9857SOL    HW130470   5.642   3.976   3.411
 9857SOL    HW230471   5.531   4.085   3.462
 9858SOL     OW30472   4.297   1.374   0.913
 9858SOL    HW130473   4.282   1.277   0.892
 9858SOL    HW230474   4.294   1.387   1.012
 9859SOL     OW30475   6.409   0.448   1.580
 9859SOL    HW130476   6.469   0.513   1.628
 9859SOL    HW230477   6.439   0.355   1.600
 9860SOL     OW30478   0.511   0.670   2.551
 9860SOL    HW130479   0.505   0.661   2.452
 9860SOL    HW230480   0.427   0.710   2.586
 9861SOL     OW30481   3.876   6.792   4.785
 9861SOL    HW130482   3.883   6.693   4.770
 9861SOL    HW230483   3.959   6.837   4.751
 9862SOL     OW30484   0.603   2.465   0.629
 9862SOL    HW130485   0.654   2.517   0.697
 9862SOL    HW230486   0.598   2.518   0.544
 9863SOL     OW30487   3.073   6.890   0.881
 9863SOL    HW130488   3.038   6.973   0.926
 9863SOL    HW230489   3.136   6.843   0.943
 9864SOL     OW30490   4.581   5.987   2.233
 9864SOL    HW130491   4.653   5.954   2.294
 9864SOL    HW230492   4.503   6.018   2.288
 9865SOL     OW30493   0.487   2.495   5.099
 9865SOL    HW130494   0.406   2.452   5.139
 9865SOL    HW230495   0.465   2.527   5.007
 9866SOL     OW30496   4.068   4.826   3.252
 9866SOL    HW130497   4.101   4.818   3.158
 9866SOL    HW230498   4.145   4.849   3.312
 9867SOL     OW30499   3.899   0.349   6.160
 9867SOL    HW130500   3.831   0.305   6.100
 9867SOL    HW230501   3.873   0.445   6.174
 9868SOL     OW30502   0.044   5.304   6.980
 9868SOL    HW130503   0.141   5.290   6.961
 9868SOL    HW230504   0.025   5.402   6.987
 9869SOL     OW30505   1.723   3.888   3.572
 9869SOL    HW130506   1.805   3.925   3.528
 9869SOL    HW230507   1.747   3.812   3.631
 9870SOL     OW30508   4.991   4.479   2.457
 9870SOL    HW130509   5.067   4.428   2.416
 9870SOL    HW230510   4.904   4.445   2.422
 9871SOL     OW30511   1.521   1.327   5.190
 9871SOL    HW130512   1.600   1.266   5.202
 9871SOL    HW230513   1.545   1.401   5.127
 9872SOL     OW30514   1.702   5.190   3.567
 9872SOL    HW130515   1.712   5.205   3.468
 9872SOL    HW230516   1.793   5.183   3.609
 9873SOL     OW30517   0.851   2.973   0.733
 9873SOL    HW130518   0.824   3.069   0.732
 9873SOL    HW230519   0.848   2.936   0.640
 9874SOL     OW30520   0.765   2.644   3.584
 9874SOL    HW130521   0.709   2.687   3.655
 9874SOL    HW230522   0.861   2.670   3.597
 9875SOL     OW30523   1.167   0.687   3.510
 9875SOL    HW130524   1.176   0.754   3.436
 9875SOL    HW230525   1.185   0.732   3.597
 9876SOL     OW30526   6.995   6.266   2.658
 9876SOL    HW130527   7.008   6.360   2.628
 9876SOL    HW230528   0.057   6.231   2.698
 9877SOL     OW30529   3.377   0.269   2.581
 9877SOL    HW130530   3.295   0.310   2.621
 9877SOL    HW230531   3.376   0.170   2.597
 9878SOL     OW30532   0.632   0.032   4.988
 9878SOL    HW130533   0.540   0.006   4.959
 9878SOL    HW230534   0.636   0.130   5.004
 9879SOL     OW30535   5.326   6.071   5.935
 9879SOL    HW130536   5.293   6.097   6.026
 9879SOL    HW230537   5.358   6.153   5.887
 9880SOL     OW30538   1.654   1.962   4.886
 9880SOL    HW130539   1.712   1.881   4.874
 9880SOL    HW230540   1.707   2.034   4.931
 9881SOL     OW30541   6.993   2.569   6.344
 9881SOL    HW130542   7.015   2.545   6.438
 9881SOL    HW230543   6.923   2.507   6.308
 9882SOL     OW30544   1.084   1.499   3.134
 9882SOL    HW130545   1.183   1.511   3.120
 9882SOL    HW230546   1.062   1.402   3.128
 9883SOL     OW30547   2.303   0.319   1.630
 9883SOL    HW130548   2.280   0.290   1.722
 9883SOL    HW230549   2.297   0.419   1.624
 9884SOL     OW30550   3.760   0.750   4.126
 9884SOL    HW130551   3.710   0.728   4.042
 9884SOL    HW230552   3.826   0.677   4.146
 9885SOL     OW30553   5.943   5.224   3.899
 9885SOL    HW130554   5.977   5.224   3.993
 9885SOL    HW230555   6.001   5.163   3.843
 9886SOL     OW30556   1.235   3.561   2.562
 9886SOL    HW130557   1.148   3.599   2.530
 9886SOL    HW230558   1.226   3.462   2.572
 9887SOL     OW30559   4.182   0.699   6.225
 9887SOL    HW130560   4.193   0.612   6.273
 9887SOL    HW230561   4.180   0.773   6.291
 9888SOL     OW30562   0.213   4.346   0.143
 9888SOL    HW130563   0.208   4.397   0.229
 9888SOL    HW230564   0.302   4.301   0.136
 9889SOL     OW30565   0.287   5.098   0.447
 9889SOL    HW130566   0.259   5.052   0.363
 9889SOL    HW230567   0.296   5.030   0.520
 9890SOL     OW30568   0.771   2.894   1.349
 9890SOL    HW130569   0.716   2.968   1.311
 9890SOL    HW230570   0.762   2.894   1.449
 9891SOL     OW30571   5.189   1.635   1.656
 9891SOL    HW130572   5.223   1.696   1.728
 9891SOL    HW230573   5.113   1.679   1.609
 9892SOL     OW30574   6.687   5.593   6.392
 9892SOL    HW130575   6.614   5.580   6.460
 9892SOL    HW230576   6.695   5.512   6.336
 9893SOL     OW30577   1.819   0.960   1.158
 9893SOL    HW130578   1.875   0.879   1.178
 9893SOL    HW230579   1.859   1.040   1.202
 9894SOL     OW30580   1.525   2.004   0.873
 9894SOL    HW130581   1.476   1.919   0.853
 9894SOL    HW230582   1.473   2.082   0.839
 9895SOL     OW30583   5.207   3.373   5.794
 9895SOL    HW130584   5.200   3.322   5.879
 9895SOL    HW230585   5.135   3.344   5.731
 9896SOL     OW30586   5.815   6.989   0.079
 9896SOL    HW130587   5.781   6.912   0.132
 9896SOL    HW230588   5.906   6.967   0.043
 9897SOL     OW30589   4.776   5.307   3.456
 9897SOL    HW130590   4.838   5.348   3.524
 9897SOL    HW230591   4.786   5.208   3.458
 9898SOL     OW30592   2.973   6.408   5.489
 9898SOL    HW130593   2.928   6.319   5.498
 9898SOL    HW230594   2.904   6.478   5.471
 9899SOL     OW30595   6.978   5.582   6.998
 9899SOL    HW130596   7.013   5.665   0.020
 9899SOL    HW230597   6.933   5.607   6.912
 9900SOL     OW30598   2.075   3.695   3.386
 9900SOL    HW130599   2.049   3.791   3.376
 9900SOL    HW230600   1.997   3.643   3.419
 9901SOL     OW30601   1.911   2.422   5.370
 9901SOL    HW130602   1.964   2.476   5.435
 9901SOL    HW230603   1.940   2.326   5.375
 9902SOL     OW30604   2.545   4.192   0.072
 9902SOL    HW130605   2.600   4.158   0.149
 9902SOL    HW230606   2.598   4.183   7.010
 9903SOL     OW30607   5.732   0.720   3.395
 9903SOL    HW130608   5.744   0.682   3.303
 9903SOL    HW230609   5.712   0.817   3.389
 9904SOL     OW30610   0.063   2.949   6.222
 9904SOL    HW130611   0.040   2.871   6.165
 9904SOL    HW230612   0.109   2.918   6.305
 9905SOL     OW30613   4.271   1.354   0.242
 9905SOL    HW130614   4.309   1.308   0.162
 9905SOL    HW230615   4.191   1.304   0.275
 9906SOL     OW30616   4.014   3.731   4.418
 9906SOL    HW130617   4.065   3.815   4.399
 9906SOL    HW230618   3.919   3.753   4.438
 9907SOL     OW30619   0.694   6.992   0.947
 9907SOL    HW130620   0.702   6.937   1.030
 9907SOL    HW230621   0.781   0.018   0.930
 9908SOL     OW30622   5.065   3.382   3.216
 9908SOL    HW130623   5.158   3.346   3.229
 9908SOL    HW230624   5.024   3.399   3.306
 9909SOL     OW30625   2.093   6.987   5.071
 9909SOL    HW130626   2.179   6.996   5.121
 9909SOL    HW230627   2.043   0.051   5.073
 9910SOL     OW30628   0.819   4.300   3.290
 9910SOL    HW130629   0.870   4.216   3.307
 9910SOL    HW230630   0.721   4.282   3.298
 9911SOL     OW30631   2.996   6.310   2.096
 9911SOL    HW130632   2.982   6.281   2.191
 9911SOL    HW230633   3.086   6.353   2.088
 9912SOL     OW30634   4.647   1.065   7.009
 9912SOL    HW130635   4.608   0.974   6.996
 9912SOL    HW230636   4.646   1.087   0.085
 9913SOL     OW30637   5.543   3.057   6.921
 9913SOL    HW130638   5.463   3.082   6.976
 9913SOL    HW230639   5.618   3.032   6.982
 9914SOL     OW30640   0.478   2.951   4.952
 9914SOL    HW130641   0.443   2.955   4.858
 9914SOL    HW230642   0.523   2.863   4.968
 9915SOL     OW30643   5.660   0.637   3.636
 9915SOL    HW130644   5.629   0.723   3.677
 9915SOL    HW230645   5.672   0.651   3.537
 9916SOL     OW30646   2.222   2.296   1.751
 9916SOL    HW130647   2.283   2.326   1.677
 9916SOL    HW230648   2.259   2.214   1.794
 9917SOL     OW30649   6.937   4.102   4.838
 9917SOL    HW130650   6.949   4.077   4.742
 9917SOL    HW230651   6.909   4.022   4.890
 9918SOL     OW30652   4.282   2.201   2.837
 9918SOL    HW130653   4.259   2.218   2.741
 9918SOL    HW230654   4.292   2.288   2.885
 9919SOL     OW30655   6.828   5.857   0.544
 9919SOL    HW130656   6.771   5.837   0.464
 9919SOL    HW230657   6.823   5.955   0.565
 9920SOL     OW30658   4.893   1.476   2.185
 9920SOL    HW130659   4.829   1.399   2.179
 9920SOL    HW230660   4.857   1.544   2.249
 9921SOL     OW30661   3.923   5.621   5.669
 9921SOL    HW130662   3.864   5.670   5.604
 9921SOL    HW230663   3.903   5.653   5.762
 9922SOL     OW30664   0.486   5.318   0.412
 9922SOL    HW130665   0.389   5.295   0.405
 9922SOL    HW230666   0.523   5.282   0.498
 9923SOL     OW30667   5.306   4.844   0.210
 9923SOL    HW130668   5.234   4.782   0.177
 9923SOL    HW230669   5.379   4.790   0.252
 9924SOL     OW30670   1.009   4.041   4.744
 9924SOL    HW130671   1.026   3.954   4.790
 9924SOL    HW230672   0.951   4.026   4.664
 9925SOL     OW30673   5.442   2.227   4.012
 9925SOL    HW130674   5.345   2.205   4.017
 9925SOL    HW230675   5.456   2.322   4.041
 9926SOL     OW30676   2.243   4.843   0.277
 9926SOL    HW130677   2.197   4.912   0.222
 9926SOL    HW230678   2.267   4.882   0.367
 9927SOL     OW30679   6.139   6.891   3.032
 9927SOL    HW130680   6.115   6.979   3.075
 9927SOL    HW230681   6.101   6.888   2.940
 9928SOL     OW30682   4.810   4.410   1.341
 9928SOL    HW130683   4.763   4.323   1.355
 9928SOL    HW230684   4.745   4.485   1.353
 9929SOL     OW30685   2.272   4.222   3.667
 9929SOL    HW130686   2.304   4.234   3.573
 9929SOL    HW230687   2.341   4.256   3.731
 9930SOL     OW30688   6.751   0.239   3.837
 9930SOL    HW130689   6.783   0.334   3.835
 9930SOL    HW230690   6.802   0.185   3.771
 9931SOL     OW30691   1.015   4.867   5.566
 9931SOL    HW130692   1.018   4.886   5.468
 9931SOL    HW230693   0.938   4.915   5.607
 9932SOL     OW30694   1.001   6.139   4.947
 9932SOL    HW130695   0.908   6.151   4.911
 9932SOL    HW230696   1.012   6.195   5.029
 9933SOL     OW30697   0.222   5.721   2.211
 9933SOL    HW130698   0.197   5.708   2.306
 9933SOL    HW230699   0.220   5.819   2.188
 9934SOL     OW30700   6.650   2.102   6.107
 9934SOL    HW130701   6.724   2.035   6.097
 9934SOL    HW230702   6.563   2.058   6.085
 9935SOL     OW30703   3.052   1.192   6.312
 9935SOL    HW130704   3.127   1.240   6.357
 9935SOL    HW230705   2.992   1.151   6.381
 9936SOL     OW30706   0.749   4.368   4.368
 9936SOL    HW130707   0.666   4.413   4.336
 9936SOL    HW230708   0.823   4.385   4.304
 9937SOL     OW30709   6.563   2.253   6.335
 9937SOL    HW130710   6.567   2.168   6.283
 9937SOL    HW230711   6.620   2.322   6.291
 9938SOL     OW30712   6.440   6.374   3.218
 9938SOL    HW130713   6.440   6.462   3.267
 9938SOL    HW230714   6.534   6.344   3.203
 9939SOL     OW30715   2.927   3.226   2.411
 9939SOL    HW130716   2.984   3.190   2.337
 9939SOL    HW230717   2.846   3.270   2.372
 9940SOL     OW30718   0.018   1.476   0.804
 9940SOL    HW130719   0.029   1.377   0.817
 9940SOL    HW230720   0.105   1.515   0.773
 9941SOL     OW30721   3.619   4.978   5.470
 9941SOL    HW130722   3.591   5.047   5.536
 9941SOL    HW230723   3.542   4.918   5.448
 9942SOL     OW30724   2.675   5.504   3.249
 9942SOL    HW130725   2.647   5.421   3.298
 9942SOL    HW230726   2.679   5.485   3.151
 9943SOL     OW30727   1.239   6.530   5.414
 9943SOL    HW130728   1.189   6.582   5.482
 9943SOL    HW230729   1.233   6.432   5.435
 9944SOL     OW30730   0.768   3.667   0.067
 9944SOL    HW130731   0.712   3.700   0.143
 9944SOL    HW230732   0.863   3.696   0.080
 9945SOL     OW30733   6.549   5.407   7.020
 9945SOL    HW130734   6.584   5.323   6.980
 9945SOL    HW230735   6.607   5.435   0.074
 9946SOL     OW30736   4.988   0.595   5.114
 9946SOL    HW130737   5.047   0.633   5.185
 9946SOL    HW230738   5.029   0.511   5.077
 9947SOL     OW30739   6.041   4.603   3.751
 9947SOL    HW130740   5.996   4.602   3.840
 9947SOL    HW230741   6.042   4.697   3.716
 9948SOL     OW30742   5.114   4.897   4.329
 9948SOL    HW130743   5.084   4.975   4.273
 9948SOL    HW230744   5.037   4.864   4.382
 9949SOL     OW30745   5.719   5.213   2.661
 9949SOL    HW130746   5.731   5.260   2.749
 9949SOL    HW230747   5.762   5.267   2.588
 9950SOL     OW30748   4.203   6.057   5.330
 9950SOL    HW130749   4.174   6.106   5.248
 9950SOL    HW230750   4.142   5.979   5.347
 9951SOL     OW30751   5.967   1.916   3.122
 9951SOL    HW130752   6.012   1.827   3.129
 9951SOL    HW230753   6.000   1.976   3.195
 9952SOL     OW30754   0.050   5.261   0.241
 9952SOL    HW130755   0.038   5.288   0.145
 9952SOL    HW230756   0.147   5.242   0.258
 9953SOL     OW30757   0.092   1.523   4.409
 9953SOL    HW130758   0.130   1.432   4.388
 9953SOL    HW230759   0.061   1.525   4.504
 9954SOL     OW30760   4.670   0.185   5.541
 9954SOL    HW130761   4.767   0.201   5.526
 9954SOL    HW230762   4.622   0.185   5.453
 9955SOL     OW30763   0.911   4.629   5.030
 9955SOL    HW130764   0.922   4.543   4.981
 9955SOL    HW230765   0.817   4.638   5.062
 9956SOL     OW30766   1.749   5.949   1.207
 9956SOL    HW130767   1.687   6.025   1.188
 9956SOL    HW230768   1.699   5.863   1.203
 9957SOL     OW30769   6.154   4.201   3.002
 9957SOL    HW130770   6.084   4.131   3.008
 9957SOL    HW230771   6.112   4.288   2.976
 9958SOL     OW30772   2.253   4.580   1.426
 9958SOL    HW130773   2.231   4.522   1.504
 9958SOL    HW230774   2.198   4.551   1.347
 9959SOL     OW30775   3.768   3.765   0.701
 9959SOL    HW130776   3.739   3.713   0.621
 9959SOL    HW230777   3.804   3.702   0.770
 9960SOL     OW30778   0.638   1.334   2.387
 9960SOL    HW130779   0.574   1.288   2.325
 9960SOL    HW230780   0.718   1.276   2.401
 9961SOL     OW30781   2.216   4.547   4.732
 9961SOL    HW130782   2.261   4.538   4.821
 9961SOL    HW230783   2.276   4.511   4.660
 9962SOL     OW30784   5.519   6.101   5.301
 9962SOL    HW130785   5.597   6.140   5.252
 9962SOL    HW230786   5.468   6.175   5.345
 9963SOL     OW30787   2.942   0.777   0.683
 9963SOL    HW130788   2.867   0.712   0.693
 9963SOL    HW230789   2.953   0.828   0.769
 9964SOL     OW30790   4.932   5.702   5.380
 9964SOL    HW130791   4.968   5.636   5.447
 9964SOL    HW230792   4.838   5.725   5.405
 9965SOL     OW30793   3.938   0.256   6.989
 9965SOL    HW130794   4.009   0.256   6.918
 9965SOL    HW230795   3.968   0.196   0.042
 9966SOL     OW30796   0.538   0.003   2.773
 9966SOL    HW130797   0.630   6.996   2.797
 9966SOL    HW230798   0.533   0.103   2.778
 9967SOL     OW30799   1.125   5.176   0.736
 9967SOL    HW130800   1.127   5.229   0.820
 9967SOL    HW230801   1.218   5.170   0.698
 9968SOL     OW30802   3.484   3.021   2.637
 9968SOL    HW130803   3.466   2.945   2.699
 9968SOL    HW230804   3.486   2.987   2.543
 9969SOL     OW30805   0.848   3.613   1.565
 9969SOL    HW130806   0.892   3.565   1.641
 9969SOL    HW230807   0.808   3.698   1.599
 9970SOL     OW30808   5.450   4.509   1.387
 9970SOL    HW130809   5.540   4.553   1.391
 9970SOL    HW230810   5.460   4.415   1.353
 9971SOL     OW30811   2.415   5.767   0.121
 9971SOL    HW130812   2.467   5.839   0.168
 9971SOL    HW230813   2.432   5.680   0.167
 9972SOL     OW30814   6.742   4.607   1.597
 9972SOL    HW130815   6.713   4.512   1.608
 9972SOL    HW230816   6.709   4.661   1.674
 9973SOL     OW30817   5.617   6.917   4.635
 9973SOL    HW130818   5.603   6.865   4.719
 9973SOL    HW230819   5.682   6.868   4.576
 9974SOL     OW30820   1.777   0.746   4.179
 9974SOL    HW130821   1.743   0.839   4.188
 9974SOL    HW230822   1.872   0.742   4.209
 9975SOL     OW30823   6.985   2.989   0.578
 9975SOL    HW130824   6.902   3.007   0.632
 9975SOL    HW230825   0.037   2.963   0.640
 9976SOL     OW30826   1.897   0.402   5.269
 9976SOL    HW130827   1.914   0.495   5.235
 9976SOL    HW230828   1.985   0.360   5.294
 9977SOL     OW30829   6.678   4.495   4.269
 9977SOL    HW130830   6.583   4.468   4.285
 9977SOL    HW230831   6.740   4.425   4.304
 9978SOL     OW30832   0.101   2.197   4.264
 9978SOL    HW130833   0.052   2.198   4.178
 9978SOL    HW230834   0.098   2.106   4.304
 9979SOL     OW30835   0.663   4.051   5.304
 9979SOL    HW130836   0.574   4.081   5.338
 9979SOL    HW230837   0.696   4.115   5.235
 9980SOL     OW30838   3.627   6.942   4.925
 9980SOL    HW130839   3.627   6.935   4.825
 9980SOL    HW230840   3.537   6.914   4.960
 9981SOL     OW30841   3.443   2.034   4.208
 9981SOL    HW130842   3.370   1.978   4.169
 9981SOL    HW230843   3.498   2.074   4.135
 9982SOL     OW30844   6.387   5.946   3.326
 9982SOL    HW130845   6.319   5.878   3.299
 9982SOL    HW230846   6.429   5.985   3.244
 9983SOL     OW30847   0.236   1.135   1.435
 9983SOL    HW130848   0.255   1.039   1.460
 9983SOL    HW230849   0.231   1.143   1.335
 9984SOL     OW30850   2.593   0.761   0.340
 9984SOL    HW130851   2.628   0.789   0.251
 9984SOL    HW230852   2.637   0.815   0.412
 9985SOL     OW30853   1.212   0.888   1.784
 9985SOL    HW130854   1.307   0.913   1.805
 9985SOL    HW230855   1.178   0.947   1.711
 9986SOL     OW30856   5.357   4.598   4.959
 9986SOL    HW130857   5.390   4.521   5.014
 9986SOL    HW230858   5.286   4.646   5.010
 9987SOL     OW30859   0.071   3.974   5.961
 9987SOL    HW130860   0.090   4.072   5.954
 9987SOL    HW230861   0.004   3.958   6.034
 9988SOL     OW30862   6.597   6.811   4.460
 9988SOL    HW130863   6.684   6.767   4.481
 9988SOL    HW230864   6.597   6.905   4.494
 9989SOL     OW30865   0.720   3.430   4.803
 9989SOL    HW130866   0.645   3.456   4.863
 9989SOL    HW230867   0.687   3.424   4.709
 9990SOL     OW30868   0.961   5.151   2.362
 9990SOL    HW130869   1.046   5.197   2.339
 9990SOL    HW230870   0.921   5.110   2.280
 9991SOL     OW30871   3.875   1.951   3.258
 9991SOL    HW130872   3.959   1.897   3.255
 9991SOL    HW230873   3.810   1.908   3.320
 9992SOL     OW30874   6.440   5.298   6.138
 9992SOL    HW130875   6.453   5.252   6.050
 9992SOL    HW230876   6.375   5.373   6.127
 9993SOL     OW30877   0.664   0.725   1.651
 9993SOL    HW130878   0.731   0.746   1.722
 9993SOL    HW230879   0.600   0.801   1.643
 9994SOL     OW30880   5.844   4.747   2.853
 9994SOL    HW130881   5.869   4.725   2.947
 9994SOL    HW230882   5.901   4.695   2.790
 9995SOL     OW30883   4.921   1.147   4.640
 9995SOL    HW130884   4.896   1.203   4.562
 9995SOL    HW230885   4.970   1.065   4.608
 9996SOL     OW30886   2.374   3.462   0.076
 9996SOL    HW130887   2.433   3.381   0.071
 9996SOL    HW230888   2.429   3.544   0.059
 9997SOL     OW30889   2.983   6.791   4.660
 9997SOL    HW130890   2.920   6.868   4.657
 9997SOL    HW230891   3.009   6.772   4.754
 9998SOL     OW30892   5.857   6.192   5.633
 9998SOL    HW130893   5.763   6.223   5.627
 9998SOL    HW230894   5.917   6.269   5.656
 9999SOL     OW30895   0.127   2.861   4.481
 9999SOL    HW130896   0.069   2.901   4.411
 9999SOL    HW230897   0.082   2.869   4.570
10000SOL     OW30898   6.984   3.776   7.003
10000SOL    HW130899   0.011   3.838   0.041
10000SOL    HW230900   0.026   3.717   6.955
10001SOL     OW30901   4.020   0.149   3.014
10001SOL    HW130902   3.947   0.105   2.962
10001SOL    HW230903   4.067   0.081   3.071
10002SOL     OW30904   0.910   1.461   1.773
10002SOL    HW130905   0.842   1.474   1.701
10002SOL    HW230906   0.864   1.457   1.862
10003SOL     OW30907   4.880   2.014   3.590
10003SOL    HW130908   4.896   2.037   3.686
10003SOL    HW230909   4.842   2.093   3.543
10004SOL     OW30910   0.484   2.332   2.703
10004SOL    HW130911   0.527   2.334   2.793
10004SOL    HW230912   0.385   2.348   2.714
10005SOL     OW30913   5.410   6.749   4.570
10005SOL    HW130914   5.482   6.816   4.591
10005SOL    HW230915   5.373   6.712   4.656
10006SOL     OW30916   4.419   0.946   4.802
10006SOL    HW130917   4.399   1.038   4.836
10006SOL    HW230918   4.494   0.907   4.856
10007SOL     OW30919   6.429   3.477   4.291
10007SOL    HW130920   6.487   3.552   4.325
10007SOL    HW230921   6.417   3.409   4.363
10008SOL     OW30922   3.810   0.025   4.085
10008SOL    HW130923   3.791   6.977   4.154
10008SOL    HW230924   3.793   7.010   3.994
10009SOL     OW30925   0.735   4.294   2.011
10009SOL    HW130926   0.660   4.233   1.986
10009SOL    HW230927   0.811   4.240   2.046
10010SOL     OW30928   0.028   1.494   6.251
10010SOL    HW130929   6.986   1.455   6.185
10010SOL    HW230930   7.021   1.470   6.344
10011SOL     OW30931   0.079   6.597   4.894
10011SOL    HW130932   0.154   6.603   4.828
10011SOL    HW230933   0.001   6.549   4.852
10012SOL     OW30934   5.683   0.423   4.386
10012SOL    HW130935   5.657   0.500   4.444
10012SOL    HW230936   5.740   0.359   4.439
10013SOL     OW30937   1.243   0.861   2.417
10013SOL    HW130938   1.323   0.821   2.370
10013SOL    HW230939   1.243   0.831   2.512
10014SOL     OW30940   1.943   5.180   5.766
10014SOL    HW130941   1.954   5.177   5.666
10014SOL    HW230942   1.879   5.253   5.790
10015SOL     OW30943   2.504   4.758   0.104
10015SOL    HW130944   2.408   4.763   0.132
10015SOL    HW230945   2.561   4.797   0.176
10016SOL     OW30946   2.415   0.675   5.691
10016SOL    HW130947   2.509   0.705   5.708
10016SOL    HW230948   2.394   0.596   5.749
10017SOL     OW30949   0.856   1.937   4.158
10017SOL    HW130950   0.775   1.984   4.123
10017SOL    HW230951   0.911   2.001   4.212
10018SOL     OW30952   4.633   6.635   6.238
10018SOL    HW130953   4.576   6.688   6.175
10018SOL    HW230954   4.716   6.686   6.259
10019SOL     OW30955   1.728   1.350   2.326
10019SOL    HW130956   1.669   1.308   2.257
10019SOL    HW230957   1.729   1.295   2.409
10020SOL     OW30958   7.013   2.550   0.234
10020SOL    HW130959   6.913   2.545   0.240
10020SOL    HW230960   0.027   2.581   0.322
10021SOL     OW30961   5.571   3.137   1.247
10021SOL    HW130962   5.661   3.118   1.286
10021SOL    HW230963   5.571   3.111   1.150
10022SOL     OW30964   1.785   0.247   6.465
10022SOL    HW130965   1.857   0.304   6.506
10022SOL    HW230966   1.807   0.230   6.369
10023SOL     OW30967   0.196   3.340   1.086
10023SOL    HW130968   0.119   3.384   1.132
10023SOL    HW230969   0.163   3.261   1.034
10024SOL     OW30970   1.402   4.647   3.175
10024SOL    HW130971   1.481   4.586   3.172
10024SOL    HW230972   1.337   4.613   3.243
10025SOL     OW30973   1.324   1.596   0.334
10025SOL    HW130974   1.293   1.653   0.258
10025SOL    HW230975   1.246   1.569   0.390
10026SOL     OW30976   0.017   0.306   4.030
10026SOL    HW130977   0.038   0.395   3.990
10026SOL    HW230978   6.992   0.249   3.962
10027SOL     OW30979   5.313   2.226   6.007
10027SOL    HW130980   5.237   2.224   5.941
10027SOL    HW230981   5.299   2.155   6.076
10028SOL     OW30982   1.972   0.726   1.189
10028SOL    HW130983   2.054   0.756   1.139
10028SOL    HW230984   1.963   0.627   1.181
10029SOL     OW30985   5.216   2.191   3.817
10029SOL    HW130986   5.261   2.225   3.735
10029SOL    HW230987   5.119   2.176   3.798
10030SOL     OW30988   1.423   1.016   3.236
10030SOL    HW130989   1.332   0.979   3.216
10030SOL    HW230990   1.430   1.035   3.334
10031SOL     OW30991   6.674   4.218   4.128
10031SOL    HW130992   6.602   4.194   4.062
10031SOL    HW230993   6.633   4.228   4.219
10032SOL     OW30994   2.663   1.286   5.501
10032SOL    HW130995   2.725   1.208   5.496
10032SOL    HW230996   2.575   1.262   5.459
10033SOL     OW30997   5.591   2.731   4.588
10033SOL    HW130998   5.651   2.774   4.656
10033SOL    HW230999   5.617   2.636   4.575
10034SOL     OW31000   4.730   0.421   6.290
10034SOL    HW131001   4.814   0.369   6.275
10034SOL    HW231002   4.667   0.404   6.215
10035SOL     OW31003   0.042   6.746   3.379
10035SOL    HW131004   0.128   6.761   3.427
10035SOL    HW231005   0.046   6.658   3.331
10036SOL     OW31006   6.783   0.632   0.204
10036SOL    HW131007   6.872   0.598   0.173
10036SOL    HW231008   6.778   0.731   0.189
10037SOL     OW31009   0.269   6.573   0.988
10037SOL    HW131010   0.200   6.645   0.974
10037SOL    HW231011   0.285   6.561   1.085
10038SOL     OW31012   6.488   0.111   0.824
10038SOL    HW131013   6.450   0.051   0.894
10038SOL    HW231014   6.523   0.056   0.748
10039SOL     OW31015   3.162   0.591   3.551
10039SOL    HW131016   3.127   0.500   3.574
10039SOL    HW231017   3.091   0.659   3.566
10040SOL     OW31018   0.255   1.982   1.331
10040SOL    HW131019   0.316   2.044   1.282
10040SOL    HW231020   0.282   1.978   1.427
10041SOL     OW31021   1.625   5.898   0.841
10041SOL    HW131022   1.587   5.847   0.919
10041SOL    HW231023   1.600   5.852   0.756
10042SOL     OW31024   6.366   2.461   2.763
10042SOL    HW131025   6.390   2.525   2.690
10042SOL    HW231026   6.450   2.421   2.801
10043SOL     OW31027   0.696   2.966   5.158
10043SOL    HW131028   0.602   2.999   5.146
10043SOL    HW231029   0.696   2.868   5.173
10044SOL     OW31030   3.992   1.836   6.185
10044SOL    HW131031   4.051   1.756   6.194
10044SOL    HW231032   3.930   1.824   6.108
10045SOL     OW31033   2.154   0.667   0.318
10045SOL    HW131034   2.185   0.690   0.410
10045SOL    HW231035   2.094   0.739   0.283
10046SOL     OW31036   1.072   5.085   1.108
10046SOL    HW131037   1.048   5.157   1.042
10046SOL    HW231038   1.133   5.123   1.178
10047SOL     OW31039   1.190   3.999   0.715
10047SOL    HW131040   1.123   4.073   0.715
10047SOL    HW231041   1.195   3.958   0.806
10048SOL     OW31042   5.535   5.103   2.495
10048SOL    HW131043   5.620   5.137   2.535
10048SOL    HW231044   5.534   5.003   2.498
10049SOL     OW31045   5.761   1.156   5.347
10049SOL    HW131046   5.687   1.192   5.290
10049SOL    HW231047   5.759   1.056   5.346
10050SOL     OW31048   0.256   2.697   6.068
10050SOL    HW131049   0.294   2.779   6.027
10050SOL    HW231050   0.158   2.692   6.050
10051SOL     OW31051   2.103   1.841   4.084
10051SOL    HW131052   2.096   1.937   4.114
10051SOL    HW231053   2.185   1.800   4.125
10052SOL     OW31054   1.362   0.548   3.155
10052SOL    HW131055   1.428   0.622   3.137
10052SOL    HW231056   1.382   0.507   3.244
10053SOL     OW31057   5.716   5.328   2.969
10053SOL    HW131058   5.756   5.240   2.998
10053SOL    HW231059   5.650   5.358   3.037
10054SOL     OW31060   6.867   4.366   4.430
10054SOL    HW131061   6.835   4.279   4.394
10054SOL    HW231062   6.845   4.372   4.527
10055SOL     OW31063   1.578   2.490   6.766
10055SOL    HW131064   1.653   2.492   6.833
10055SOL    HW231065   1.592   2.564   6.700
10056SOL     OW31066   6.410   1.941   4.014
10056SOL    HW131067   6.318   1.953   4.052
10056SOL    HW231068   6.430   1.843   4.004
10057SOL     OW31069   5.521   5.007   5.572
10057SOL    HW131070   5.526   4.909   5.553
10057SOL    HW231071   5.611   5.048   5.560
10058SOL     OW31072   0.257   4.230   4.701
10058SOL    HW131073   0.326   4.200   4.634
10058SOL    HW231074   0.166   4.219   4.661
10059SOL     OW31075   5.484   6.874   6.460
10059SOL    HW131076   5.559   6.810   6.444
10059SOL    HW231077   5.418   6.832   6.524
10060SOL     OW31078   3.220   2.085   1.880
10060SOL    HW131079   3.252   2.148   1.808
10060SOL    HW231080   3.257   1.993   1.862
10061SOL     OW31081   3.139   0.236   2.280
10061SOL    HW131082   3.087   0.298   2.222
10061SOL    HW231083   3.140   0.271   2.374
10062SOL     OW31084   0.932   6.620   4.739
10062SOL    HW131085   0.926   6.521   4.753
10062SOL    HW231086   1.028   6.650   4.749
10063SOL     OW31087   2.689   2.354   4.674
10063SOL    HW131088   2.673   2.365   4.575
10063SOL    HW231089   2.604   2.375   4.723
10064SOL     OW31090   2.520   0.517   1.828
10064SOL    HW131091   2.569   0.514   1.741
10064SOL    HW231092   2.430   0.558   1.815
10065SOL     OW31093   0.057   1.630   1.759
10065SOL    HW131094   0.064   1.668   1.667
10065SOL    HW231095   0.115   1.549   1.766
10066SOL     OW31096   6.802   4.946   3.328
10066SOL    HW131097   6.766   4.882   3.396
10066SOL    HW231098   6.792   5.039   3.362
10067SOL     OW31099   6.780   3.474   5.462
10067SOL    HW131100   6.819   3.558   5.424
10067SOL    HW231101   6.726   3.496   5.544
10068SOL     OW31102   1.397   3.180   2.336
10068SOL    HW131103   1.470   3.197   2.270
10068SOL    HW231104   1.423   3.104   2.396
10069SOL     OW31105   3.461   4.690   1.024
10069SOL    HW131106   3.523   4.622   1.065
10069SOL    HW231107   3.374   4.690   1.073
10070SOL     OW31108   5.297   0.064   0.311
10070SOL    HW131109   5.267   0.013   0.392
10070SOL    HW231110   5.340   0.002   0.246
10071SOL     OW31111   5.132   1.083   5.811
10071SOL    HW131112   5.181   1.084   5.724
10071SOL    HW231113   5.035   1.101   5.794
10072SOL     OW31114   6.479   3.284   2.139
10072SOL    HW131115   6.466   3.382   2.153
10072SOL    HW231116   6.470   3.236   2.227
10073SOL     OW31117   5.435   5.081   5.116
10073SOL    HW131118   5.345   5.079   5.073
10073SOL    HW231119   5.460   4.989   5.147
10074SOL     OW31120   2.613   4.598   0.480
10074SOL    HW131121   2.587   4.689   0.449
10074SOL    HW231122   2.705   4.602   0.520
10075SOL     OW31123   1.253   3.504   1.586
10075SOL    HW131124   1.176   3.518   1.523
10075SOL    HW231125   1.275   3.590   1.631
10076SOL     OW31126   5.539   4.351   4.298
10076SOL    HW131127   5.504   4.315   4.211
10076SOL    HW231128   5.479   4.424   4.330
10077SOL     OW31129   4.835   3.419   6.251
10077SOL    HW131130   4.789   3.338   6.213
10077SOL    HW231131   4.780   3.456   6.325
10078SOL     OW31132   6.313   4.812   4.451
10078SOL    HW131133   6.385   4.877   4.426
10078SOL    HW231134   6.283   4.762   4.369
10079SOL     OW31135   4.904   4.394   3.593
10079SOL    HW131136   4.832   4.342   3.638
10079SOL    HW231137   4.867   4.483   3.564
10080SOL     OW31138   4.991   1.771   5.384
10080SOL    HW131139   4.992   1.671   5.390
10080SOL    HW231140   4.897   1.804   5.379
10081SOL     OW31141   0.949   4.948   0.340
10081SOL    HW131142   1.003   4.867   0.317
10081SOL    HW231143   0.868   4.921   0.392
10082SOL     OW31144   0.933   4.580   0.678
10082SOL    HW131145   1.029   4.607   0.675
10082SOL    HW231146   0.889   4.621   0.758
10083SOL     OW31147   2.563   6.043   2.251
10083SOL    HW131148   2.653   6.001   2.254
10083SOL    HW231149   2.494   5.975   2.277
10084SOL     OW31150   1.032   2.358   4.642
10084SOL    HW131151   0.997   2.416   4.569
10084SOL    HW231152   1.126   2.330   4.620
10085SOL     OW31153   4.994   6.945   1.441
10085SOL    HW131154   5.040   6.868   1.396
10085SOL    HW231155   4.945   7.000   1.374
10086SOL     OW31156   4.303   6.457   3.035
10086SOL    HW131157   4.390   6.496   3.066
10086SOL    HW231158   4.236   6.530   3.026
10087SOL     OW31159   1.867   6.163   5.228
10087SOL    HW131160   1.906   6.077   5.260
10087SOL    HW231161   1.927   6.203   5.158
10088SOL     OW31162   6.268   2.400   1.683
10088SOL    HW131163   6.347   2.427   1.628
10088SOL    HW231164   6.185   2.404   1.628
10089SOL     OW31165   4.147   0.464   1.822
10089SOL    HW131166   4.102   0.394   1.766
10089SOL    HW231167   4.087   0.543   1.832
10090SOL     OW31168   1.791   6.154   3.203
10090SOL    HW131169   1.845   6.233   3.173
10090SOL    HW231170   1.787   6.151   3.302
10091SOL     OW31171   5.610   5.135   4.725
10091SOL    HW131172   5.540   5.108   4.792
10091SOL    HW231173   5.572   5.131   4.633
10092SOL     OW31174   1.023   1.893   3.256
10092SOL    HW131175   1.120   1.877   3.238
10092SOL    HW231176   1.012   1.925   3.351
10093SOL     OW31177   4.588   3.569   6.231
10093SOL    HW131178   4.510   3.584   6.293
10093SOL    HW231179   4.657   3.639   6.247
10094SOL     OW31180   3.407   2.072   0.191
10094SOL    HW131181   3.313   2.094   0.218
10094SOL    HW231182   3.448   2.150   0.145
10095SOL     OW31183   4.046   3.116   5.578
10095SOL    HW131184   3.980   3.140   5.650
10095SOL    HW231185   4.001   3.120   5.489
10096SOL     OW31186   6.451   3.564   2.203
10096SOL    HW131187   6.360   3.589   2.235
10096SOL    HW231188   6.503   3.646   2.182
10097SOL     OW31189   0.837   1.406   0.848
10097SOL    HW131190   0.872   1.377   0.937
10097SOL    HW231191   0.914   1.423   0.786
10098SOL     OW31192   3.656   6.016   4.657
10098SOL    HW131193   3.558   6.025   4.641
10098SOL    HW231194   3.688   6.096   4.709
10099SOL     OW31195   6.989   4.738   3.279
10099SOL    HW131196   6.982   4.732   3.179
10099SOL    HW231197   6.913   4.793   3.314
10100SOL     OW31198   5.232   5.239   3.999
10100SOL    HW131199   5.237   5.339   3.999
10100SOL    HW231200   5.313   5.202   3.953
10101SOL     OW31201   6.519   2.768   0.244
10101SOL    HW131202   6.501   2.670   0.230
10101SOL    HW231203   6.554   2.781   0.337
10102SOL     OW31204   6.206   4.596   3.291
10102SOL    HW131205   6.186   4.535   3.214
10102SOL    HW231206   6.289   4.649   3.271
10103SOL     OW31207   0.422   6.426   6.779
10103SOL    HW131208   0.504   6.388   6.822
10103SOL    HW231209   0.342   6.401   6.833
10104SOL     OW31210   2.560   1.270   4.680
10104SOL    HW131211   2.492   1.228   4.621
10104SOL    HW231212   2.553   1.370   4.674
10105SOL     OW31213   3.204   1.376   3.576
10105SOL    HW131214   3.205   1.452   3.511
10105SOL    HW231215   3.290   1.375   3.628
10106SOL     OW31216   5.577   4.127   1.487
10106SOL    HW131217   5.499   4.069   1.510
10106SOL    HW231218   5.592   4.125   1.388
10107SOL     OW31219   5.361   5.556   6.381
10107SOL    HW131220   5.457   5.529   6.378
10107SOL    HW231221   5.339   5.609   6.299
10108SOL     OW31222   2.200   2.325   5.000
10108SOL    HW131223   2.254   2.374   4.932
10108SOL    HW231224   2.261   2.280   5.065
10109SOL     OW31225   1.001   2.937   1.183
10109SOL    HW131226   1.075   2.871   1.169
10109SOL    HW231227   0.963   2.927   1.275
10110SOL     OW31228   6.515   5.548   1.650
10110SOL    HW131229   6.569   5.586   1.576
10110SOL    HW231230   6.420   5.577   1.642
10111SOL     OW31231   6.391   2.388   1.932
10111SOL    HW131232   6.341   2.396   1.846
10111SOL    HW231233   6.353   2.313   1.986
10112SOL     OW31234   6.489   2.821   4.016
10112SOL    HW131235   6.555   2.786   3.950
10112SOL    HW231236   6.415   2.869   3.968
10113SOL     OW31237   6.611   6.322   5.896
10113SOL    HW131238   6.583   6.236   5.854
10113SOL    HW231239   6.707   6.316   5.923
10114SOL     OW31240   4.902   3.380   1.847
10114SOL    HW131241   4.896   3.334   1.936
10114SOL    HW231242   4.876   3.476   1.858
10115SOL     OW31243   3.485   2.973   5.907
10115SOL    HW131244   3.496   2.890   5.852
10115SOL    HW231245   3.394   3.011   5.892
10116SOL     OW31246   0.538   0.212   6.494
10116SOL    HW131247   0.524   0.289   6.432
10116SOL    HW231248   0.634   0.210   6.524
10117SOL     OW31249   6.708   4.120   1.543
10117SOL    HW131250   6.664   4.177   1.613
10117SOL    HW231251   6.795   4.162   1.517
10118SOL     OW31252   4.116   5.063   3.835
10118SOL    HW131253   4.206   5.104   3.816
10118SOL    HW231254   4.129   4.976   3.882
10119SOL     OW31255   5.961   6.231   6.522
10119SOL    HW131256   5.905   6.314   6.515
10119SOL    HW231257   6.016   6.222   6.439
10120SOL     OW31258   2.550   2.538   2.699
10120SOL    HW131259   2.454   2.567   2.699
10120SOL    HW231260   2.579   2.519   2.606
10121SOL     OW31261   6.771   5.648   1.234
10121SOL    HW131262   6.777   5.610   1.142
10121SOL    HW231263   6.694   5.606   1.283
10122SOL     OW31264   1.747   0.231   3.361
10122SOL    HW131265   1.674   0.162   3.366
10122SOL    HW231266   1.803   0.214   3.281
10123SOL     OW31267   6.290   5.678   6.172
10123SOL    HW131268   6.279   5.725   6.260
10123SOL    HW231269   6.387   5.661   6.154
10124SOL     OW31270   2.248   4.959   2.093
10124SOL    HW131271   2.282   4.923   2.180
10124SOL    HW231272   2.148   4.947   2.089
10125SOL     OW31273   1.196   0.716   4.982
10125SOL    HW131274   1.160   0.686   4.894
10125SOL    HW231275   1.126   0.703   5.053
10126SOL     OW31276   6.620   6.083   5.022
10126SOL    HW131277   6.557   6.141   4.971
10126SOL    HW231278   6.629   6.118   5.116
10127SOL     OW31279   2.305   0.037   5.745
10127SOL    HW131280   2.368   7.016   5.680
10127SOL    HW231281   2.351   0.050   5.833
10128SOL     OW31282   2.618   2.368   6.754
10128SOL    HW131283   2.717   2.364   6.762
10128SOL    HW231284   2.587   2.463   6.756
10129SOL     OW31285   6.182   1.875   4.403
10129SOL    HW131286   6.094   1.839   4.435
10129SOL    HW231287   6.249   1.802   4.402
10130SOL     OW31288   1.400   2.133   3.279
10130SOL    HW131289   1.445   2.219   3.255
10130SOL    HW231290   1.375   2.134   3.376
10131SOL     OW31291   1.682   0.375   5.420
10131SOL    HW131292   1.638   0.298   5.374
10131SOL    HW231293   1.765   0.401   5.369
10132SOL     OW31294   5.616   0.561   2.678
10132SOL    HW131295   5.588   0.483   2.621
10132SOL    HW231296   5.539   0.591   2.734
10133SOL     OW31297   5.033   5.927   1.432
10133SOL    HW131298   4.972   5.933   1.353
10133SOL    HW231299   5.098   5.852   1.418
10134SOL     OW31300   0.240   6.546   3.476
10134SOL    HW131301   0.235   6.549   3.576
10134SOL    HW231302   0.284   6.461   3.448
10135SOL     OW31303   6.596   6.441   3.494
10135SOL    HW131304   6.658   6.485   3.559
10135SOL    HW231305   6.560   6.509   3.431
10136SOL     OW31306   4.567   1.242   3.889
10136SOL    HW131307   4.554   1.205   3.982
10136SOL    HW231308   4.661   1.222   3.859
10137SOL     OW31309   0.230   5.687   4.158
10137SOL    HW131310   0.286   5.632   4.220
10137SOL    HW231311   0.197   5.768   4.207
10138SOL     OW31312   6.984   2.434   1.790
10138SOL    HW131313   6.898   2.389   1.767
10138SOL    HW231314   7.014   2.490   1.712
10139SOL     OW31315   3.982   2.486   6.746
10139SOL    HW131316   3.891   2.469   6.707
10139SOL    HW231317   4.043   2.521   6.674
10140SOL     OW31318   6.905   5.627   5.247
10140SOL    HW131319   6.960   5.548   5.221
10140SOL    HW231320   6.930   5.657   5.339
10141SOL     OW31321   1.780   2.420   4.618
10141SOL    HW131322   1.684   2.428   4.645
10141SOL    HW231323   1.787   2.409   4.519
10142SOL     OW31324   4.928   5.727   2.147
10142SOL    HW131325   4.851   5.693   2.201
10142SOL    HW231326   4.984   5.786   2.204
10143SOL     OW31327   5.759   3.198   5.970
10143SOL    HW131328   5.698   3.203   6.049
10143SOL    HW231329   5.830   3.129   5.986
10144SOL     OW31330   3.561   0.658   0.624
10144SOL    HW131331   3.584   0.714   0.703
10144SOL    HW231332   3.569   0.713   0.541
10145SOL     OW31333   6.671   6.731   5.408
10145SOL    HW131334   6.641   6.775   5.323
10145SOL    HW231335   6.742   6.787   5.452
10146SOL     OW31336   1.593   2.725   5.748
10146SOL    HW131337   1.550   2.634   5.745
10146SOL    HW231338   1.661   2.728   5.821
10147SOL     OW31339   3.927   5.554   6.724
10147SOL    HW131340   4.010   5.504   6.700
10147SOL    HW231341   3.848   5.510   6.681
10148SOL     OW31342   0.735   5.300   6.545
10148SOL    HW131343   0.694   5.223   6.497
10148SOL    HW231344   0.738   5.281   6.643
10149SOL     OW31345   3.848   3.290   2.304
10149SOL    HW131346   3.928   3.342   2.331
10149SOL    HW231347   3.851   3.272   2.206
10150SOL     OW31348   4.980   3.951   1.511
10150SOL    HW131349   4.910   3.948   1.583
10150SOL    HW231350   4.990   3.859   1.471
10151SOL     OW31351   6.859   0.971   6.246
10151SOL    HW131352   6.954   1.000   6.258
10151SOL    HW231353   6.803   1.011   6.318
10152SOL     OW31354   3.817   6.966   3.245
10152SOL    HW131355   3.762   7.008   3.172
10152SOL    HW231356   3.843   0.015   3.311
10153SOL     OW31357   4.884   3.654   1.837
10153SOL    HW131358   4.925   3.711   1.908
10153SOL    HW231359   4.833   3.712   1.773
10154SOL     OW31360   4.366   5.354   5.291
10154SOL    HW131361   4.466   5.354   5.287
10154SOL    HW231362   4.332   5.261   5.279
10155SOL     OW31363   4.699   2.140   4.429
10155SOL    HW131364   4.624   2.190   4.473
10155SOL    HW231365   4.671   2.110   4.338
10156SOL     OW31366   4.038   2.170   6.162
10156SOL    HW131367   3.971   2.107   6.200
10156SOL    HW231368   4.062   2.238   6.232
10157SOL     OW31369   0.603   4.783   0.800
10157SOL    HW131370   0.603   4.724   0.719
10157SOL    HW231371   0.595   4.728   0.882
10158SOL     OW31372   5.575   4.997   0.412
10158SOL    HW131373   5.637   5.024   0.339
10158SOL    HW231374   5.496   5.059   0.412
10159SOL     OW31375   3.195   2.932   2.358
10159SOL    HW131376   3.207   3.025   2.324
10159SOL    HW231377   3.146   2.878   2.289
10160SOL     OW31378   0.132   4.212   2.270
10160SOL    HW131379   0.156   4.118   2.294
10160SOL    HW231380   0.170   4.233   2.180
10161SOL     OW31381   6.209   3.288   5.971
10161SOL    HW131382   6.293   3.333   6.002
10161SOL    HW231383   6.130   3.344   5.996
10162SOL     OW31384   1.865   2.549   2.355
10162SOL    HW131385   1.817   2.591   2.278
10162SOL    HW231386   1.815   2.569   2.440
10163SOL     OW31387   3.361   5.153   4.732
10163SOL    HW131388   3.281   5.100   4.704
10163SOL    HW231389   3.395   5.119   4.820
10164SOL     OW31390   0.388   1.301   4.125
10164SOL    HW131391   0.330   1.354   4.063
10164SOL    HW231392   0.411   1.356   4.205
10165SOL     OW31393   1.557   3.171   4.061
10165SOL    HW131394   1.612   3.190   4.143
10165SOL    HW231395   1.579   3.079   4.027
10166SOL     OW31396   3.152   5.814   2.888
10166SOL    HW131397   3.074   5.837   2.946
10166SOL    HW231398   3.230   5.791   2.946
10167SOL     OW31399   2.941   2.110   6.384
10167SOL    HW131400   2.887   2.079   6.462
10167SOL    HW231401   2.943   2.038   6.314
10168SOL     OW31402   0.210   0.848   6.160
10168SOL    HW131403   0.229   0.942   6.133
10168SOL    HW231404   0.257   0.827   6.246
10169SOL     OW31405   4.397   5.853   2.765
10169SOL    HW131406   4.317   5.833   2.709
10169SOL    HW231407   4.378   5.932   2.823
10170SOL     OW31408   5.201   6.923   0.498
10170SOL    HW131409   5.225   6.940   0.594
10170SOL    HW231410   5.103   6.936   0.485
10171SOL     OW31411   2.277   4.205   4.228
10171SOL    HW131412   2.284   4.125   4.288
10171SOL    HW231413   2.256   4.175   4.135
10172SOL     OW31414   0.229   0.595   2.709
10172SOL    HW131415   0.263   0.501   2.711
10172SOL    HW231416   0.224   0.632   2.802
10173SOL     OW31417   3.781   3.773   5.020
10173SOL    HW131418   3.781   3.749   5.117
10173SOL    HW231419   3.854   3.724   4.973
10174SOL     OW31420   5.032   4.535   1.226
10174SOL    HW131421   4.967   4.487   1.286
10174SOL    HW231422   5.009   4.518   1.131
10175SOL     OW31423   6.437   0.021   4.250
10175SOL    HW131424   6.495   0.088   4.203
10175SOL    HW231425   6.390   6.987   4.183
10176SOL     OW31426   6.960   0.766   4.541
10176SOL    HW131427   6.894   0.800   4.608
10176SOL    HW231428   6.950   0.816   4.455
10177SOL     OW31429   2.871   1.605   4.074
10177SOL    HW131430   2.850   1.540   4.001
10177SOL    HW231431   2.941   1.669   4.044
10178SOL     OW31432   0.410   1.323   1.522
10178SOL    HW131433   0.368   1.246   1.474
10178SOL    HW231434   0.344   1.363   1.587
10179SOL     OW31435   7.016   6.214   1.249
10179SOL    HW131436   0.074   6.177   1.203
10179SOL    HW231437   6.934   6.172   1.209
10180SOL     OW31438   3.231   6.600   6.356
10180SOL    HW131439   3.261   6.579   6.449
10180SOL    HW231440   3.278   6.540   6.291
10181SOL     OW31441   0.571   3.463   3.206
10181SOL    HW131442   0.490   3.511   3.241
10181SOL    HW231443   0.585   3.487   3.110
10182SOL     OW31444   3.930   0.260   0.357
10182SOL    HW131445   3.948   0.354   0.386
10182SOL    HW231446   3.831   0.245   0.353
10183SOL     OW31447   4.261   6.279   5.740
10183SOL    HW131448   4.185   6.256   5.678
10183SOL    HW231449   4.317   6.350   5.698
10184SOL     OW31450   5.698   2.749   5.346
10184SOL    HW131451   5.611   2.758   5.297
10184SOL    HW231452   5.773   2.779   5.287
10185SOL     OW31453   2.795   4.829   2.413
10185SOL    HW131454   2.705   4.852   2.450
10185SOL    HW231455   2.866   4.853   2.480
10186SOL     OW31456   3.510   3.036   0.314
10186SOL    HW131457   3.583   3.058   0.379
10186SOL    HW231458   3.543   2.968   0.249
10187SOL     OW31459   2.273   3.806   5.472
10187SOL    HW131460   2.281   3.852   5.561
10187SOL    HW231461   2.243   3.872   5.403
10188SOL     OW31462   2.070   6.747   6.890
10188SOL    HW131463   2.124   6.805   6.829
10188SOL    HW231464   2.088   6.651   6.870
10189SOL     OW31465   2.077   1.724   4.889
10189SOL    HW131466   2.112   1.817   4.884
10189SOL    HW231467   2.149   1.662   4.917
10190SOL     OW31468   4.242   4.087   1.006
10190SOL    HW131469   4.174   4.026   0.965
10190SOL    HW231470   4.295   4.036   1.074
10191SOL     OW31471   5.287   0.772   0.185
10191SOL    HW131472   5.336   0.849   0.226
10191SOL    HW231473   5.301   0.691   0.240
10192SOL     OW31474   1.876   1.055   4.145
10192SOL    HW131475   1.903   1.145   4.110
10192SOL    HW231476   1.955   0.995   4.146
10193SOL     OW31477   3.634   3.819   4.219
10193SOL    HW131478   3.714   3.835   4.161
10193SOL    HW231479   3.658   3.758   4.295
10194SOL     OW31480   2.983   6.207   2.809
10194SOL    HW131481   2.994   6.285   2.871
10194SOL    HW231482   3.074   6.175   2.780
10195SOL     OW31483   5.180   0.663   3.210
10195SOL    HW131484   5.207   0.568   3.229
10195SOL    HW231485   5.246   0.704   3.147
10196SOL     OW31486   5.087   4.349   4.339
10196SOL    HW131487   5.011   4.388   4.391
10196SOL    HW231488   5.060   4.262   4.299
10197SOL     OW31489   5.308   1.469   3.248
10197SOL    HW131490   5.271   1.466   3.341
10197SOL    HW231491   5.323   1.564   3.221
10198SOL     OW31492   3.169   1.133   1.732
10198SOL    HW131493   3.226   1.153   1.653
10198SOL    HW231494   3.073   1.133   1.704
10199SOL     OW31495   1.029   2.037   0.292
10199SOL    HW131496   0.981   1.956   0.258
10199SOL    HW231497   1.052   2.097   0.214
10200SOL     OW31498   5.841   6.253   4.885
10200SOL    HW131499   5.823   6.351   4.894
10200SOL    HW231500   5.889   6.236   4.799
10201SOL     OW31501   1.624   4.773   3.085
10201SOL    HW131502   1.539   4.722   3.096
10201SOL    HW231503   1.632   4.805   2.991
10202SOL     OW31504   0.518   2.054   3.509
10202SOL    HW131505   0.475   2.134   3.468
10202SOL    HW231506   0.569   2.004   3.439
10203SOL     OW31507   0.275   2.569   1.308
10203SOL    HW131508   0.321   2.510   1.374
10203SOL    HW231509   0.269   2.523   1.220
10204SOL     OW31510   2.714   5.779   4.673
10204SOL    HW131511   2.784   5.708   4.683
10204SOL    HW231512   2.724   5.847   4.746
10205SOL     OW31513   3.994   0.605   1.065
10205SOL    HW131514   3.998   0.546   0.984
10205SOL    HW231515   3.905   0.595   1.109
10206SOL     OW31516   5.005   6.948   6.607
10206SOL    HW131517   5.087   6.996   6.639
10206SOL    HW231518   4.924   7.002   6.629
10207SOL     OW31519   4.135   1.312   2.569
10207SOL    HW131520   4.198   1.253   2.520
10207SOL    HW231521   4.079   1.258   2.632
10208SOL     OW31522   6.706   3.775   5.786
10208SOL    HW131523   6.755   3.856   5.752
10208SOL    HW231524   6.771   3.713   5.830
10209SOL     OW31525   4.220   6.282   6.781
10209SOL    HW131526   4.311   6.291   6.821
10209SOL    HW231527   4.166   6.218   6.835
10210SOL     OW31528   5.736   5.665   0.413
10210SOL    HW131529   5.750   5.657   0.314
10210SOL    HW231530   5.747   5.575   0.455
10211SOL     OW31531   3.821   5.322   5.402
10211SOL    HW131532   3.898   5.259   5.406
10211SOL    HW231533   3.780   5.319   5.310
10212SOL     OW31534   6.046   6.305   6.075
10212SOL    HW131535   6.109   6.275   6.004
10212SOL    HW231536   6.096   6.323   6.160
10213SOL     OW31537   4.561   1.063   4.526
10213SOL    HW131538   4.472   1.089   4.489
10213SOL    HW231539   4.573   1.105   4.616
10214SOL     OW31540   0.529   0.722   0.228
10214SOL    HW131541   0.493   0.682   0.144
10214SOL    HW231542   0.454   0.749   0.288
10215SOL     OW31543   4.336   2.560   6.940
10215SOL    HW131544   4.403   2.546   7.013
10215SOL    HW231545   4.247   2.528   6.971
10216SOL     OW31546   5.298   0.085   2.917
10216SOL    HW131547   5.270   0.151   2.848
10216SOL    HW231548   5.332   0.133   2.998
10217SOL     OW31549   3.283   2.452   5.719
10217SOL    HW131550   3.236   2.500   5.645
10217SOL    HW231551   3.350   2.388   5.680
10218SOL     OW31552   3.106   2.002   6.688
10218SOL    HW131553   3.080   2.090   6.728
10218SOL    HW231554   3.192   1.971   6.728
10219SOL     OW31555   0.873   5.324   6.776
10219SOL    HW131556   0.829   5.290   6.859
10219SOL    HW231557   0.883   5.424   6.782
10220SOL     OW31558   4.161   2.289   0.221
10220SOL    HW131559   4.113   2.271   0.135
10220SOL    HW231560   4.102   2.263   0.298
10221SOL     OW31561   2.624   1.041   4.417
10221SOL    HW131562   2.585   1.095   4.492
10221SOL    HW231563   2.655   0.953   4.452
10222SOL     OW31564   2.229   4.887   5.830
10222SOL    HW131565   2.208   4.972   5.877
10222SOL    HW231566   2.158   4.819   5.849
10223SOL     OW31567   0.491   4.670   6.963
10223SOL    HW131568   0.440   4.754   6.945
10223SOL    HW231569   0.442   4.592   6.924
10224SOL     OW31570   2.872   0.016   4.687
10224SOL    HW131571   2.777   0.034   4.659
10224SOL    HW231572   2.928   0.095   4.665
10225SOL     OW31573   4.902   5.894   4.590
10225SOL    HW131574   4.874   5.990   4.587
10225SOL    HW231575   4.963   5.875   4.513
10226SOL     OW31576   6.833   3.048   6.607
10226SOL    HW131577   6.920   3.087   6.638
10226SOL    HW231578   6.850   2.962   6.559
10227SOL     OW31579   4.901   4.819   5.378
10227SOL    HW131580   4.918   4.847   5.284
10227SOL    HW231581   4.927   4.893   5.440
10228SOL     OW31582   1.083   3.095   2.007
10228SOL    HW131583   1.035   3.077   2.093
10228SOL    HW231584   1.178   3.066   2.015
10229SOL     OW31585   2.114   0.549   1.370
10229SOL    HW131586   2.188   0.604   1.331
10229SOL    HW231587   2.138   0.523   1.464
10230SOL     OW31588   6.187   6.585   3.481
10230SOL    HW131589   6.207   6.508   3.542
10230SOL    HW231590   6.250   6.660   3.500
10231SOL     OW31591   4.901   6.586   4.621
10231SOL    HW131592   4.944   6.557   4.536
10231SOL    HW231593   4.897   6.686   4.624
10232SOL     OW31594   3.876   1.837   3.729
10232SOL    HW131595   3.935   1.770   3.684
10232SOL    HW231596   3.920   1.869   3.814
10233SOL     OW31597   4.764   0.544   5.721
10233SOL    HW131598   4.705   0.546   5.640
10233SOL    HW231599   4.718   0.495   5.795
10234SOL     OW31600   4.670   5.761   1.100
10234SOL    HW131601   4.655   5.780   1.003
10234SOL    HW231602   4.613   5.684   1.129
10235SOL     OW31603   4.913   0.973   0.271
10235SOL    HW131604   4.821   1.010   0.280
10235SOL    HW231605   4.911   0.873   0.282
10236SOL     OW31606   1.907   5.859   1.851
10236SOL    HW131607   1.939   5.837   1.759
10236SOL    HW231608   1.934   5.953   1.874
10237SOL     OW31609   5.797   2.476   3.544
10237SOL    HW131610   5.779   2.553   3.483
10237SOL    HW231611   5.717   2.460   3.601
10238SOL     OW31612   4.243   6.180   4.781
10238SOL    HW131613   4.308   6.128   4.837
10238SOL    HW231614   4.279   6.188   4.687
10239SOL     OW31615   6.203   3.646   4.643
10239SOL    HW131616   6.177   3.734   4.681
10239SOL    HW231617   6.299   3.648   4.616
10240SOL     OW31618   4.889   4.075   3.748
10240SOL    HW131619   4.807   4.099   3.697
10240SOL    HW231620   4.946   4.156   3.760
10241SOL     OW31621   1.964   2.013   3.032
10241SOL    HW131622   1.992   2.000   3.127
10241SOL    HW231623   1.980   2.108   3.005
10242SOL     OW31624   1.181   5.286   6.022
10242SOL    HW131625   1.120   5.272   6.100
10242SOL    HW231626   1.185   5.384   6.001
10243SOL     OW31627   1.032   6.518   3.085
10243SOL    HW131628   1.116   6.503   3.032
10243SOL    HW231629   0.980   6.433   3.090
10244SOL     OW31630   1.525   5.440   0.317
10244SOL    HW131631   1.517   5.539   0.300
10244SOL    HW231632   1.564   5.396   0.236
10245SOL     OW31633   2.490   2.559   0.081
10245SOL    HW131634   2.436   2.475   0.091
10245SOL    HW231635   2.474   2.598   7.013
10246SOL     OW31636   3.123   3.354   4.065
10246SOL    HW131637   3.155   3.428   4.006
10246SOL    HW231638   3.030   3.374   4.097
10247SOL     OW31639   0.635   5.820   5.297
10247SOL    HW131640   0.688   5.816   5.213
10247SOL    HW231641   0.565   5.749   5.297
10248SOL     OW31642   5.636   0.954   3.274
10248SOL    HW131643   5.680   0.993   3.193
10248SOL    HW231644   5.574   1.021   3.314
10249SOL     OW31645   4.867   1.532   6.482
10249SOL    HW131646   4.841   1.627   6.500
10249SOL    HW231647   4.938   1.504   6.546
10250SOL     OW31648   5.545   7.003   0.477
10250SOL    HW131649   5.584   0.038   0.405
10250SOL    HW231650   5.506   0.040   0.548
10251SOL     OW31651   3.861   4.641   0.954
10251SOL    HW131652   3.830   4.723   1.001
10251SOL    HW231653   3.788   4.608   0.893
10252SOL     OW31654   0.065   4.514   1.431
10252SOL    HW131655   6.993   4.488   1.410
10252SOL    HW231656   0.107   4.556   1.351
10253SOL     OW31657   3.876   4.983   0.437
10253SOL    HW131658   3.808   4.924   0.479
10253SOL    HW231659   3.841   5.019   0.351
10254SOL     OW31660   2.368   1.519   4.696
10254SOL    HW131661   2.311   1.438   4.711
10254SOL    HW231662   2.328   1.574   4.621
10255SOL     OW31663   3.087   5.409   2.856
10255SOL    HW131664   3.031   5.357   2.792
10255SOL    HW231665   3.156   5.460   2.806
10256SOL     OW31666   6.155   6.358   6.892
10256SOL    HW131667   6.151   6.440   6.950
10256SOL    HW231668   6.107   6.375   6.806
10257SOL     OW31669   1.748   5.606   5.684
10257SOL    HW131670   1.799   5.529   5.645
10257SOL    HW231671   1.688   5.645   5.614
10258SOL     OW31672   4.083   0.777   3.498
10258SOL    HW131673   4.143   0.758   3.576
10258SOL    HW231674   4.005   0.832   3.528
10259SOL     OW31675   0.815   3.623   3.862
10259SOL    HW131676   0.734   3.567   3.873
10259SOL    HW231677   0.889   3.586   3.918
10260SOL     OW31678   7.020   5.997   2.323
10260SOL    HW131679   0.092   6.014   2.295
10260SOL    HW231680   6.967   5.962   2.246
10261SOL     OW31681   1.770   0.443   1.958
10261SOL    HW131682   1.746   0.463   1.863
10261SOL    HW231683   1.853   0.388   1.960
10262SOL     OW31684   1.168   5.920   3.705
10262SOL    HW131685   1.205   5.986   3.639
10262SOL    HW231686   1.141   5.969   3.788
10263SOL     OW31687   6.745   2.883   5.531
10263SOL    HW131688   6.760   2.979   5.552
10263SOL    HW231689   6.812   2.853   5.462
10264SOL     OW31690   0.668   6.595   0.048
10264SOL    HW131691   0.659   6.661   6.997
10264SOL    HW231692   0.720   6.516   0.016
10265SOL     OW31693   4.152   1.940   2.600
10265SOL    HW131694   4.249   1.959   2.615
10265SOL    HW231695   4.136   1.927   2.502
10266SOL     OW31696   4.027   3.583   6.542
10266SOL    HW131697   4.080   3.557   6.461
10266SOL    HW231698   3.995   3.501   6.588
10267SOL     OW31699   6.758   1.473   6.374
10267SOL    HW131700   6.792   1.464   6.281
10267SOL    HW231701   6.822   1.528   6.427
10268SOL     OW31702   6.388   4.040   0.989
10268SOL    HW131703   6.441   3.997   0.916
10268SOL    HW231704   6.440   4.116   1.028
10269SOL     OW31705   3.501   1.940   6.083
10269SOL    HW131706   3.558   1.870   6.126
10269SOL    HW231707   3.421   1.957   6.140
10270SOL     OW31708   2.863   6.486   1.777
10270SOL    HW131709   2.948   6.480   1.725
10270SOL    HW231710   2.881   6.462   1.873
10271SOL     OW31711   2.830   5.253   0.757
10271SOL    HW131712   2.876   5.198   0.688
10271SOL    HW231713   2.767   5.195   0.809
10272SOL     OW31714   1.907   2.230   4.320
10272SOL    HW131715   1.850   2.239   4.402
10272SOL    HW231716   1.855   2.257   4.239
10273SOL     OW31717   4.198   7.010   4.436
10273SOL    HW131718   4.141   0.009   4.356
10273SOL    HW231719   4.142   6.968   4.507
10274SOL     OW31720   2.762   4.880   6.561
10274SOL    HW131721   2.831   4.952   6.563
10274SOL    HW231722   2.734   4.857   6.654
10275SOL     OW31723   0.892   6.752   1.555
10275SOL    HW131724   0.980   6.753   1.507
10275SOL    HW231725   0.897   6.688   1.632
10276SOL     OW31726   0.419   5.854   6.586
10276SOL    HW131727   0.459   5.874   6.497
10276SOL    HW231728   0.378   5.938   6.623
10277SOL     OW31729   0.535   5.945   2.037
10277SOL    HW131730   0.458   5.949   1.973
10277SOL    HW231731   0.529   5.862   2.092
10278SOL     OW31732   6.763   0.032   5.767
10278SOL    HW131733   6.829   0.107   5.760
10278SOL    HW231734   6.704   0.047   5.846
10279SOL     OW31735   3.729   6.250   4.864
10279SOL    HW131736   3.818   6.215   4.891
10279SOL    HW231737   3.740   6.319   4.792
10280SOL     OW31738   3.387   2.798   6.923
10280SOL    HW131739   3.353   2.784   6.830
10280SOL    HW231740   3.353   2.725   6.982
10281SOL     OW31741   4.515   0.298   4.510
10281SOL    HW131742   4.569   0.332   4.587
10281SOL    HW231743   4.555   0.330   4.424
10282SOL     OW31744   0.986   2.770   4.527
10282SOL    HW131745   1.055   2.704   4.496
10282SOL    HW231746   0.991   2.779   4.627
10283SOL     OW31747   1.726   4.136   6.100
10283SOL    HW131748   1.667   4.216   6.114
10283SOL    HW231749   1.700   4.090   6.016
10284SOL     OW31750   4.735   2.938   0.048
10284SOL    HW131751   4.731   3.033   0.079
10284SOL    HW231752   4.817   2.925   7.014
10285SOL     OW31753   5.448   1.028   0.782
10285SOL    HW131754   5.399   1.003   0.865
10285SOL    HW231755   5.529   0.969   0.772
10286SOL     OW31756   4.550   1.136   4.142
10286SOL    HW131757   4.510   1.198   4.209
10286SOL    HW231758   4.513   1.044   4.155
10287SOL     OW31759   1.303   4.298   2.154
10287SOL    HW131760   1.371   4.230   2.180
10287SOL    HW231761   1.291   4.364   2.228
10288SOL     OW31762   4.671   6.324   4.702
10288SOL    HW131763   4.726   6.257   4.653
10288SOL    HW231764   4.627   6.385   4.636
10289SOL     OW31765   2.601   1.405   1.501
10289SOL    HW131766   2.572   1.493   1.539
10289SOL    HW231767   2.654   1.422   1.417
10290SOL     OW31768   2.869   3.298   2.112
10290SOL    HW131769   2.836   3.389   2.085
10290SOL    HW231770   2.799   3.230   2.091
10291SOL     OW31771   3.856   0.394   5.366
10291SOL    HW131772   3.794   0.464   5.401
10291SOL    HW231773   3.895   0.342   5.443
10292SOL     OW31774   0.609   1.968   5.055
10292SOL    HW131775   0.545   1.925   5.119
10292SOL    HW231776   0.700   1.973   5.097
10293SOL     OW31777   2.964   5.498   3.415
10293SOL    HW131778   2.928   5.481   3.507
10293SOL    HW231779   2.893   5.480   3.347
10294SOL     OW31780   6.775   1.626   2.920
10294SOL    HW131781   6.874   1.625   2.928
10294SOL    HW231782   6.742   1.534   2.903
10295SOL     OW31783   1.984   4.022   4.326
10295SOL    HW131784   1.969   4.070   4.413
10295SOL    HW231785   1.932   3.937   4.325
10296SOL     OW31786   6.696   2.945   1.727
10296SOL    HW131787   6.734   2.862   1.767
10296SOL    HW231788   6.762   3.020   1.738
10297SOL     OW31789   3.107   5.470   4.390
10297SOL    HW131790   3.107   5.489   4.489
10297SOL    HW231791   3.045   5.394   4.371
10298SOL     OW31792   5.821   3.173   3.429
10298SOL    HW131793   5.859   3.082   3.411
10298SOL    HW231794   5.895   3.236   3.454
10299SOL     OW31795   4.912   3.805   2.114
10299SOL    HW131796   4.919   3.707   2.127
10299SOL    HW231797   5.003   3.844   2.100
10300SOL     OW31798   1.126   5.284   1.634
10300SOL    HW131799   1.144   5.368   1.584
10300SOL    HW231800   1.092   5.214   1.571
10301SOL     OW31801   4.443   1.244   1.510
10301SOL    HW131802   4.505   1.292   1.573
10301SOL    HW231803   4.359   1.296   1.500
10302SOL     OW31804   2.103   4.431   4.286
10302SOL    HW131805   2.172   4.359   4.294
10302SOL    HW231806   2.135   4.514   4.331
10303SOL     OW31807   4.202   2.607   1.288
10303SOL    HW131808   4.116   2.565   1.261
10303SOL    HW231809   4.274   2.580   1.225
10304SOL     OW31810   6.131   6.269   3.732
10304SOL    HW131811   6.197   6.332   3.692
10304SOL    HW231812   6.171   6.177   3.737
10305SOL     OW31813   1.609   5.490   0.937
10305SOL    HW131814   1.691   5.508   0.883
10305SOL    HW231815   1.531   5.476   0.875
10306SOL     OW31816   4.333   4.359   0.980
10306SOL    HW131817   4.287   4.270   0.988
10306SOL    HW231818   4.271   4.425   0.938
10307SOL     OW31819   2.191   1.576   5.504
10307SOL    HW131820   2.244   1.553   5.586
10307SOL    HW231821   2.121   1.643   5.529
10308SOL     OW31822   2.774   5.738   3.597
10308SOL    HW131823   2.770   5.639   3.609
10308SOL    HW231824   2.746   5.761   3.504
10309SOL     OW31825   0.385   5.964   3.523
10309SOL    HW131826   0.336   6.051   3.521
10309SOL    HW231827   0.333   5.895   3.473
10310SOL     OW31828   3.485   2.900   4.771
10310SOL    HW131829   3.518   2.866   4.682
10310SOL    HW231830   3.563   2.920   4.830
10311SOL     OW31831   0.290   6.878   0.777
10311SOL    HW131832   0.234   6.873   0.860
10311SOL    HW231833   0.354   6.954   0.785
10312SOL     OW31834   2.257   4.886   0.918
10312SOL    HW131835   2.174   4.938   0.899
10312SOL    HW231836   2.249   4.843   1.008
10313SOL     OW31837   6.537   5.380   3.870
10313SOL    HW131838   6.527   5.413   3.776
10313SOL    HW231839   6.634   5.367   3.891
10314SOL     OW31840   6.334   5.398   5.223
10314SOL    HW131841   6.246   5.355   5.203
10314SOL    HW231842   6.333   5.493   5.191
10315SOL     OW31843   4.484   6.860   5.450
10315SOL    HW131844   4.458   6.813   5.535
10315SOL    HW231845   4.407   6.912   5.415
10316SOL     OW31846   0.153   3.813   2.578
10316SOL    HW131847   0.198   3.725   2.591
10316SOL    HW231848   0.216   3.887   2.602
10317SOL     OW31849   4.794   4.550   0.073
10317SOL    HW131850   4.714   4.504   0.037
10317SOL    HW231851   4.778   4.575   0.169
10318SOL     OW31852   6.398   5.445   2.885
10318SOL    HW131853   6.412   5.349   2.861
10318SOL    HW231854   6.343   5.452   2.968
10319SOL     OW31855   5.543   6.518   4.776
10319SOL    HW131856   5.511   6.462   4.852
10319SOL    HW231857   5.616   6.470   4.727
10320SOL     OW31858   4.463   5.724   2.030
10320SOL    HW131859   4.449   5.793   1.960
10320SOL    HW231860   4.388   5.657   2.027
10321SOL     OW31861   4.239   0.381   4.301
10321SOL    HW131862   4.323   0.429   4.277
10321SOL    HW231863   4.244   0.351   4.396
10322SOL     OW31864   0.680   2.480   6.847
10322SOL    HW131865   0.757   2.470   6.910
10322SOL    HW231866   0.665   2.394   6.798
10323SOL     OW31867   0.753   2.366   5.891
10323SOL    HW131868   0.713   2.357   5.800
10323SOL    HW231869   0.843   2.321   5.892
10324SOL     OW31870   3.598   2.875   4.516
10324SOL    HW131871   3.690   2.914   4.507
10324SOL    HW231872   3.563   2.852   4.425
10325SOL     OW31873   0.059   3.987   2.950
10325SOL    HW131874   0.004   4.001   3.032
10325SOL    HW231875   0.051   4.067   2.890
10326SOL     OW31876   5.405   1.978   1.334
10326SOL    HW131877   5.393   2.046   1.406
10326SOL    HW231878   5.319   1.965   1.286
10327SOL     OW31879   6.438   1.063   3.369
10327SOL    HW131880   6.402   0.976   3.336
10327SOL    HW231881   6.399   1.138   3.315
10328SOL     OW31882   6.096   3.890   2.609
10328SOL    HW131883   6.036   3.903   2.688
10328SOL    HW231884   6.182   3.848   2.639
10329SOL     OW31885   3.507   6.140   2.649
10329SOL    HW131886   3.441   6.208   2.678
10329SOL    HW231887   3.594   6.155   2.696
10330SOL     OW31888   3.234   3.857   1.041
10330SOL    HW131889   3.247   3.840   0.943
10330SOL    HW231890   3.298   3.802   1.094
10331SOL     OW31891   5.574   0.929   4.405
10331SOL    HW131892   5.490   0.952   4.454
10331SOL    HW231893   5.552   0.865   4.330
10332SOL     OW31894   0.422   1.282   6.503
10332SOL    HW131895   0.489   1.354   6.483
10332SOL    HW231896   0.443   1.240   6.591
10333SOL     OW31897   6.168   4.748   5.520
10333SOL    HW131898   6.184   4.684   5.444
10333SOL    HW231899   6.148   4.839   5.483
10334SOL     OW31900   1.084   4.958   4.717
10334SOL    HW131901   1.159   5.024   4.718
10334SOL    HW231902   1.121   4.866   4.711
10335SOL     OW31903   3.056   5.388   2.123
10335SOL    HW131904   3.150   5.404   2.153
10335SOL    HW231905   3.049   5.410   2.025
10336SOL     OW31906   5.039   6.949   2.739
10336SOL    HW131907   5.086   6.862   2.721
10336SOL    HW231908   5.013   6.953   2.836
10337SOL     OW31909   0.512   4.552   5.640
10337SOL    HW131910   0.530   4.476   5.577
10337SOL    HW231911   0.554   4.635   5.604
10338SOL     OW31912   2.695   4.991   2.648
10338SOL    HW131913   2.602   4.996   2.610
10338SOL    HW231914   2.754   5.056   2.599
10339SOL     OW31915   2.744   5.531   0.655
10339SOL    HW131916   2.830   5.582   0.662
10339SOL    HW231917   2.763   5.433   0.659
10340SOL     OW31918   1.506   6.292   0.472
10340SOL    HW131919   1.586   6.302   0.412
10340SOL    HW231920   1.453   6.377   0.471
10341SOL     OW31921   0.641   2.551   2.086
10341SOL    HW131922   0.568   2.489   2.058
10341SOL    HW231923   0.604   2.622   2.145
10342SOL     OW31924   3.907   6.569   4.093
10342SOL    HW131925   3.891   6.481   4.048
10342SOL    HW231926   3.832   6.589   4.156
10343SOL     OW31927   2.502   2.629   4.115
10343SOL    HW131928   2.475   2.533   4.127
10343SOL    HW231929   2.553   2.660   4.195
10344SOL     OW31930   4.036   3.350   1.650
10344SOL    HW131931   4.110   3.376   1.712
10344SOL    HW231932   4.074   3.331   1.559
10345SOL     OW31933   2.900   2.253   5.732
10345SOL    HW131934   2.921   2.254   5.634
10345SOL    HW231935   2.945   2.331   5.776
10346SOL     OW31936   6.152   5.390   0.656
10346SOL    HW131937   6.140   5.454   0.731
10346SOL    HW231938   6.132   5.435   0.569
10347SOL     OW31939   4.520   0.208   1.468
10347SOL    HW131940   4.532   0.109   1.460
10347SOL    HW231941   4.595   0.247   1.520
10348SOL     OW31942   6.734   4.832   5.807
10348SOL    HW131943   6.703   4.815   5.713
10348SOL    HW231944   6.735   4.745   5.858
10349SOL     OW31945   6.916   2.115   0.343
10349SOL    HW131946   6.826   2.148   0.372
10349SOL    HW231947   6.982   2.190   0.346
10350SOL     OW31948   2.069   4.773   4.860
10350SOL    HW131949   2.114   4.685   4.848
10350SOL    HW231950   2.137   4.842   4.884
10351SOL     OW31951   3.707   4.949   4.745
10351SOL    HW131952   3.679   5.005   4.668
10351SOL    HW231953   3.642   4.961   4.820
10352SOL     OW31954   6.450   0.863   0.054
10352SOL    HW131955   6.412   0.784   0.006
10352SOL    HW231956   6.550   0.859   0.052
10353SOL     OW31957   6.488   2.353   3.928
10353SOL    HW131958   6.424   2.278   3.911
10353SOL    HW231959   6.571   2.318   3.971
10354SOL     OW31960   6.086   2.589   1.451
10354SOL    HW131961   6.145   2.573   1.372
10354SOL    HW231962   6.059   2.685   1.453
10355SOL     OW31963   0.545   1.411   0.861
10355SOL    HW131964   0.644   1.415   0.876
10355SOL    HW231965   0.527   1.386   0.766
10356SOL     OW31966   5.452   2.245   6.683
10356SOL    HW131967   5.390   2.170   6.707
10356SOL    HW231968   5.405   2.306   6.619
10357SOL     OW31969   1.168   6.966   6.090
10357SOL    HW131970   1.226   6.889   6.063
10357SOL    HW231971   1.226   0.023   6.111
10358SOL     OW31972   0.076   2.378   2.972
10358SOL    HW131973   0.076   2.439   3.052
10358SOL    HW231974   0.142   2.305   2.987
10359SOL     OW31975   0.581   1.921   2.248
10359SOL    HW131976   0.570   1.979   2.329
10359SOL    HW231977   0.512   1.849   2.250
10360SOL     OW31978   6.105   4.050   0.976
10360SOL    HW131979   6.204   4.043   0.984
10360SOL    HW231980   6.064   4.041   1.067
10361SOL     OW31981   6.201   1.928   2.201
10361SOL    HW131982   6.261   2.007   2.218
10361SOL    HW231983   6.120   1.934   2.259
10362SOL     OW31984   1.286   5.626   1.857
10362SOL    HW131985   1.224   5.632   1.936
10362SOL    HW231986   1.288   5.532   1.823
10363SOL     OW31987   5.604   5.093   6.853
10363SOL    HW131988   5.636   5.020   6.914
10363SOL    HW231989   5.523   5.061   6.804
10364SOL     OW31990   5.408   5.374   2.868
10364SOL    HW131991   5.352   5.313   2.923
10364SOL    HW231992   5.485   5.407   2.922
10365SOL     OW31993   6.177   5.423   0.248
10365SOL    HW131994   6.239   5.393   0.321
10365SOL    HW231995   6.195   5.519   0.227
10366SOL     OW31996   2.887   6.543   4.025
10366SOL    HW131997   2.913   6.582   3.936
10366SOL    HW231998   2.968   6.541   4.084
10367SOL     OW31999   5.482   6.392   2.107
10367SOL    HW132000   5.394   6.420   2.067
10367SOL    HW232001   5.526   6.472   2.148
10368SOL     OW32002   1.127   5.380   2.029
10368SOL    HW132003   1.055   5.359   1.964
10368SOL    HW232004   1.129   5.479   2.047
10369SOL     OW32005   2.543   0.218   5.890
10369SOL    HW132006   2.604   0.139   5.892
10369SOL    HW232007   2.530   0.252   5.983
10370SOL     OW32008   1.909   1.726   5.882
10370SOL    HW132009   1.822   1.732   5.833
10370SOL    HW232010   1.897   1.759   5.975
10371SOL     OW32011   4.142   5.785   2.627
10371SOL    HW132012   4.184   5.695   2.621
10371SOL    HW232013   4.051   5.777   2.667
10372SOL     OW32014   2.496   6.696   0.955
10372SOL    HW132015   2.541   6.693   1.044
10372SOL    HW232016   2.463   6.604   0.932
10373SOL     OW32017   5.893   1.118   6.517
10373SOL    HW132018   5.886   1.216   6.500
10373SOL    HW232019   5.988   1.093   6.535
10374SOL     OW32020   2.959   5.128   3.355
10374SOL    HW132021   2.949   5.031   3.329
10374SOL    HW232022   2.947   5.185   3.274
10375SOL     OW32023   2.347   5.587   0.574
10375SOL    HW132024   2.339   5.530   0.655
10375SOL    HW232025   2.442   5.616   0.563
10376SOL     OW32026   2.403   4.920   3.523
10376SOL    HW132027   2.388   4.985   3.597
10376SOL    HW232028   2.488   4.942   3.475
10377SOL     OW32029   1.957   1.236   2.207
10377SOL    HW132030   1.882   1.292   2.240
10377SOL    HW232031   1.945   1.219   2.109
10378SOL     OW32032   0.510   6.052   5.017
10378SOL    HW132033   0.448   6.125   4.986
10378SOL    HW232034   0.477   5.964   4.984
10379SOL     OW32035   2.239   0.320   3.709
10379SOL    HW132036   2.257   0.263   3.629
10379SOL    HW232037   2.306   0.298   3.781
10380SOL     OW32038   3.427   1.692   4.174
10380SOL    HW132039   3.514   1.664   4.133
10380SOL    HW232040   3.421   1.658   4.267
10381SOL     OW32041   4.151   6.808   2.737
10381SOL    HW132042   4.094   6.805   2.655
10381SOL    HW232043   4.166   6.903   2.764
10382SOL     OW32044   4.180   5.532   1.845
10382SOL    HW132045   4.210   5.449   1.797
10382SOL    HW232046   4.176   5.513   1.943
10383SOL     OW32047   0.700   4.991   6.981
10383SOL    HW132048   0.786   5.037   7.000
10383SOL    HW232049   0.716   4.894   6.965
10384SOL     OW32050   5.282   5.380   1.399
10384SOL    HW132051   5.311   5.355   1.306
10384SOL    HW232052   5.200   5.436   1.395
10385SOL     OW32053   4.474   4.328   0.621
10385SOL    HW132054   4.382   4.346   0.588
10385SOL    HW232055   4.472   4.253   0.688
10386SOL     OW32056   0.508   0.538   1.335
10386SOL    HW132057   0.524   0.450   1.291
10386SOL    HW232058   0.596   0.582   1.354
10387SOL     OW32059   4.919   3.337   2.314
10387SOL    HW132060   4.869   3.280   2.379
10387SOL    HW232061   4.972   3.406   2.364
10388SOL     OW32062   1.780   0.023   4.922
10388SOL    HW132063   1.782   0.010   4.823
10388SOL    HW232064   1.685   0.024   4.953
10389SOL     OW32065   0.990   3.770   6.819
10389SOL    HW132066   1.048   3.786   6.739
10389SOL    HW232067   0.911   3.831   6.816
10390SOL     OW32068   2.329   2.720   1.736
10390SOL    HW132069   2.321   2.716   1.836
10390SOL    HW232070   2.328   2.816   1.707
10391SOL     OW32071   5.788   6.491   4.080
10391SOL    HW132072   5.703   6.500   4.132
10391SOL    HW232073   5.785   6.407   4.026
10392SOL     OW32074   6.611   3.985   4.359
10392SOL    HW132075   6.547   3.957   4.287
10392SOL    HW232076   6.700   3.944   4.342
10393SOL     OW32077   1.818   2.825   3.018
10393SOL    HW132078   1.773   2.884   2.951
10393SOL    HW232079   1.753   2.801   3.091
10394SOL     OW32080   3.117   0.321   4.283
10394SOL    HW132081   3.216   0.339   4.280
10394SOL    HW232082   3.068   0.404   4.257
10395SOL     OW32083   0.815   0.029   0.567
10395SOL    HW132084   0.858   6.970   0.527
10395SOL    HW232085   0.740   0.058   0.509
10396SOL     OW32086   3.376   2.115   4.986
10396SOL    HW132087   3.321   2.175   5.044
10396SOL    HW232088   3.321   2.083   4.909
10397SOL     OW32089   5.247   2.009   4.016
10397SOL    HW132090   5.195   2.056   4.087
10397SOL    HW232091   5.243   2.062   3.931
10398SOL     OW32092   5.769   2.521   2.446
10398SOL    HW132093   5.782   2.487   2.352
10398SOL    HW232094   5.802   2.615   2.451
10399SOL     OW32095   0.990   3.924   2.163
10399SOL    HW132096   0.986   3.903   2.066
10399SOL    HW232097   0.916   3.877   2.211
10400SOL     OW32098   2.296   6.277   0.755
10400SOL    HW132099   2.341   6.348   0.810
10400SOL    HW232100   2.362   6.238   0.690
10401SOL     OW32101   0.597   0.772   5.636
10401SOL    HW132102   0.511   0.793   5.589
10401SOL    HW232103   0.590   0.681   5.678
10402SOL     OW32104   0.050   3.257   5.112
10402SOL    HW132105   0.010   3.282   5.200
10402SOL    HW232106   7.020   3.302   5.038
10403SOL     OW32107   3.291   0.063   0.799
10403SOL    HW132108   3.319   0.013   0.881
10403SOL    HW232109   3.192   0.079   0.802
10404SOL     OW32110   6.630   6.547   6.296
10404SOL    HW132111   6.571   6.508   6.226
10404SOL    HW232112   6.577   6.611   6.352
10405SOL     OW32113   0.637   2.423   6.571
10405SOL    HW132114   0.710   2.454   6.631
10405SOL    HW232115   0.612   2.329   6.594
10406SOL     OW32116   1.763   5.020   1.587
10406SOL    HW132117   1.821   5.092   1.548
10406SOL    HW232118   1.786   4.932   1.546
10407SOL     OW32119   2.298   6.109   5.831
10407SOL    HW132120   2.328   6.081   5.740
10407SOL    HW232121   2.271   6.029   5.884
10408SOL     OW32122   3.908   1.277   0.368
10408SOL    HW132123   3.895   1.202   0.303
10408SOL    HW232124   3.881   1.363   0.324
10409SOL     OW32125   5.813   4.856   1.333
10409SOL    HW132126   5.734   4.896   1.286
10409SOL    HW232127   5.893   4.914   1.318
10410SOL     OW32128   4.874   0.279   0.739
10410SOL    HW132129   4.819   0.197   0.729
10410SOL    HW232130   4.961   0.256   0.782
10411SOL     OW32131   2.545   5.168   3.889
10411SOL    HW132132   2.510   5.210   3.973
10411SOL    HW232133   2.631   5.121   3.909
10412SOL     OW32134   5.958   0.284   0.543
10412SOL    HW132135   5.860   0.301   0.556
10412SOL    HW232136   6.008   0.318   0.623
10413SOL     OW32137   0.030   2.888   2.205
10413SOL    HW132138   0.097   2.816   2.223
10413SOL    HW232139   6.973   2.849   2.159
10414SOL     OW32140   5.072   2.619   4.221
10414SOL    HW132141   5.064   2.556   4.298
10414SOL    HW232142   4.982   2.637   4.182
10415SOL     OW32143   0.143   0.425   6.297
10415SOL    HW132144   0.118   0.399   6.204
10415SOL    HW232145   0.085   0.500   6.328
10416SOL     OW32146   5.375   3.444   4.733
10416SOL    HW132147   5.417   3.356   4.709
10416SOL    HW232148   5.294   3.428   4.790
10417SOL     OW32149   2.750   4.744   3.153
10417SOL    HW132150   2.714   4.691   3.076
10417SOL    HW232151   2.704   4.717   3.237
10418SOL     OW32152   1.700   5.219   6.015
10418SOL    HW132153   1.771   5.282   6.047
10418SOL    HW232154   1.615   5.237   6.065
10419SOL     OW32155   1.182   1.363   1.064
10419SOL    HW132156   1.113   1.375   1.135
10419SOL    HW232157   1.180   1.440   1.001
10420SOL     OW32158   0.295   3.493   3.611
10420SOL    HW132159   0.206   3.449   3.624
10420SOL    HW232160   0.282   3.587   3.581
10421SOL     OW32161   0.295   1.491   3.416
10421SOL    HW132162   0.328   1.535   3.499
10421SOL    HW232163   0.311   1.392   3.422
10422SOL     OW32164   5.839   3.591   5.903
10422SOL    HW132165   5.876   3.676   5.942
10422SOL    HW232166   5.880   3.513   5.950
10423SOL     OW32167   5.237   4.415   2.652
10423SOL    HW132168   5.195   4.474   2.583
10423SOL    HW232169   5.167   4.361   2.698
10424SOL     OW32170   4.534   2.091   6.229
10424SOL    HW132171   4.479   2.099   6.313
10424SOL    HW232172   4.535   1.996   6.199
10425SOL     OW32173   2.009   6.391   1.651
10425SOL    HW132174   2.099   6.429   1.628
10425SOL    HW232175   1.987   6.414   1.746
10426SOL     OW32176   6.331   3.620   0.093
10426SOL    HW132177   6.367   3.532   0.123
10426SOL    HW232178   6.290   3.611   0.003
10427SOL     OW32179   4.620   1.427   1.017
10427SOL    HW132180   4.611   1.462   0.924
10427SOL    HW232181   4.555   1.353   1.032
10428SOL     OW32182   4.452   1.389   4.527
10428SOL    HW132183   4.514   1.462   4.557
10428SOL    HW232184   4.443   1.321   4.599
10429SOL     OW32185   5.997   6.414   2.358
10429SOL    HW132186   5.998   6.354   2.279
10429SOL    HW232187   5.985   6.509   2.328
10430SOL     OW32188   3.940   6.640   3.071
10430SOL    HW132189   3.961   6.543   3.056
10430SOL    HW232190   3.882   6.648   3.152
10431SOL     OW32191   2.136   1.390   5.302
10431SOL    HW132192   2.169   1.462   5.364
10431SOL    HW232193   2.061   1.341   5.345
10432SOL     OW32194   5.338   1.079   5.152
10432SOL    HW132195   5.298   1.024   5.078
10432SOL    HW232196   5.379   1.019   5.220
10433SOL     OW32197   2.914   6.527   0.930
10433SOL    HW132198   2.850   6.466   0.883
10433SOL    HW232199   2.937   6.604   0.870
10434SOL     OW32200   2.783   2.117   4.187
10434SOL    HW132201   2.796   2.183   4.113
10434SOL    HW232202   2.854   2.047   4.183
10435SOL     OW32203   5.080   6.295   0.042
10435SOL    HW132204   4.992   6.342   0.049
10435SOL    HW232205   5.135   6.336   6.991
10436SOL     OW32206   1.260   6.994   2.269
10436SOL    HW132207   1.167   6.956   2.270
10436SOL    HW232208   1.303   6.978   2.358
10437SOL     OW32209   6.440   4.912   5.916
10437SOL    HW132210   6.471   4.994   5.868
10437SOL    HW232211   6.380   4.939   5.991
10438SOL     OW32212   3.489   6.203   6.335
10438SOL    HW132213   3.490   6.108   6.306
10438SOL    HW232214   3.430   6.257   6.274
10439SOL     OW32215   3.967   0.315   5.596
10439SOL    HW132216   4.058   0.355   5.610
10439SOL    HW232217   3.903   0.354   5.662
10440SOL     OW32218   2.581   5.929   0.296
10440SOL    HW132219   2.673   5.921   0.337
10440SOL    HW232220   2.572   6.018   0.252
10441SOL     OW32221   3.650   0.640   6.631
10441SOL    HW132222   3.605   0.592   6.556
10441SOL    HW232223   3.595   0.632   6.714
10442SOL     OW32224   4.272   5.783   5.559
10442SOL    HW132225   4.263   5.685   5.541
10442SOL    HW232226   4.224   5.834   5.488
10443SOL     OW32227   6.140   2.958   5.033
10443SOL    HW132228   6.207   2.950   4.959
10443SOL    HW232229   6.141   3.052   5.068
10444SOL     OW32230   3.631   4.960   3.923
10444SOL    HW132231   3.640   5.056   3.949
10444SOL    HW232232   3.605   4.906   4.003
10445SOL     OW32233   6.069   5.900   3.906
10445SOL    HW132234   6.051   5.831   3.836
10445SOL    HW232235   6.114   5.857   3.985
10446SOL     OW32236   1.029   6.047   6.477
10446SOL    HW132237   1.086   6.072   6.555
10446SOL    HW232238   1.019   5.948   6.474
10447SOL     OW32239   5.950   2.160   1.268
10447SOL    HW132240   6.033   2.133   1.318
10447SOL    HW232241   5.870   2.128   1.318
10448SOL     OW32242   3.468   3.977   2.128
10448SOL    HW132243   3.381   3.982   2.177
10448SOL    HW232244   3.451   3.948   2.033
10449SOL     OW32245   1.422   5.070   4.498
10449SOL    HW132246   1.484   5.006   4.543
10449SOL    HW232247   1.352   5.099   4.563
10450SOL     OW32248   0.100   3.132   0.927
10450SOL    HW132249   0.131   3.093   0.839
10450SOL    HW232250   0.071   3.057   0.987
10451SOL     OW32251   2.373   4.378   2.736
10451SOL    HW132252   2.339   4.460   2.781
10451SOL    HW232253   2.386   4.395   2.638
10452SOL     OW32254   1.198   4.016   5.118
10452SOL    HW132255   1.235   3.941   5.063
10452SOL    HW232256   1.265   4.043   5.187
10453SOL     OW32257   5.556   0.213   1.728
10453SOL    HW132258   5.510   0.242   1.812
10453SOL    HW232259   5.651   0.246   1.729
10454SOL     OW32260   4.937   3.414   2.686
10454SOL    HW132261   4.928   3.414   2.786
10454SOL    HW232262   4.952   3.321   2.654
10455SOL     OW32263   6.437   4.449   2.995
10455SOL    HW132264   6.398   4.407   3.077
10455SOL    HW232265   6.506   4.387   2.956
10456SOL     OW32266   3.912   6.429   0.903
10456SOL    HW132267   3.956   6.408   0.815
10456SOL    HW232268   3.882   6.345   0.946
10457SOL     OW32269   3.794   3.491   4.558
10457SOL    HW132270   3.859   3.476   4.484
10457SOL    HW232271   3.704   3.458   4.530
10458SOL     OW32272   6.783   6.611   1.780
10458SOL    HW132273   6.747   6.660   1.700
10458SOL    HW232274   6.872   6.650   1.805
10459SOL     OW32275   6.488   4.948   2.528
10459SOL    HW132276   6.561   5.007   2.494
10459SOL    HW232277   6.399   4.989   2.506
10460SOL     OW32278   2.142   5.394   1.891
10460SOL    HW132279   2.155   5.314   1.832
10460SOL    HW232280   2.078   5.373   1.964
10461SOL     OW32281   2.229   1.589   6.431
10461SOL    HW132282   2.160   1.635   6.488
10461SOL    HW232283   2.305   1.652   6.415
10462SOL     OW32284   5.612   6.826   1.216
10462SOL    HW132285   5.669   6.898   1.257
10462SOL    HW232286   5.550   6.789   1.286
10463SOL     OW32287   2.943   4.096   1.730
10463SOL    HW132288   2.965   4.056   1.818
10463SOL    HW232289   2.999   4.054   1.659
10464SOL     OW32290   5.370   0.345   1.566
10464SOL    HW132291   5.448   0.291   1.598
10464SOL    HW232292   5.399   0.439   1.550
10465SOL     OW32293   6.578   5.096   4.752
10465SOL    HW132294   6.676   5.093   4.733
10465SOL    HW232295   6.561   5.162   4.826
10466SOL     OW32296   5.175   6.097   6.187
10466SOL    HW132297   5.197   6.076   6.282
10466SOL    HW232298   5.115   6.027   6.149
10467SOL     OW32299   4.324   0.938   4.166
10467SOL    HW132300   4.249   0.907   4.107
10467SOL    HW232301   4.374   0.859   4.200
10468SOL     OW32302   3.400   5.845   3.063
10468SOL    HW132303   3.390   5.855   3.162
10468SOL    HW232304   3.484   5.796   3.042
10469SOL     OW32305   1.951   4.821   0.130
10469SOL    HW132306   1.988   4.803   0.221
10469SOL    HW232307   1.978   4.748   0.068
10470SOL     OW32308   2.589   1.732   4.024
10470SOL    HW132309   2.682   1.696   4.016
10470SOL    HW232310   2.563   1.777   3.938
10471SOL     OW32311   4.597   3.701   0.397
10471SOL    HW132312   4.672   3.674   0.458
10471SOL    HW232313   4.516   3.647   0.418
10472SOL     OW32314   4.757   1.417   3.197
10472SOL    HW132315   4.785   1.511   3.216
10472SOL    HW232316   4.803   1.355   3.261
10473SOL     OW32317   4.726   5.457   0.492
10473SOL    HW132318   4.675   5.384   0.447
10473SOL    HW232319   4.798   5.489   0.431
10474SOL     OW32320   4.882   0.533   4.218
10474SOL    HW132321   4.954   0.499   4.158
10474SOL    HW232322   4.838   0.612   4.174
10475SOL     OW32323   4.665   6.297   1.958
10475SOL    HW132324   4.704   6.205   1.963
10475SOL    HW232325   4.580   6.299   2.011
10476SOL     OW32326   6.891   4.421   0.172
10476SOL    HW132327   6.821   4.382   0.113
10476SOL    HW232328   6.888   4.520   0.165
10477SOL     OW32329   4.751   4.735   5.110
10477SOL    HW132330   4.765   4.833   5.117
10477SOL    HW232331   4.682   4.716   5.041
10478SOL     OW32332   0.473   6.151   2.199
10478SOL    HW132333   0.487   6.224   2.132
10478SOL    HW232334   0.516   6.067   2.166
10479SOL     OW32335   1.471   4.958   2.889
10479SOL    HW132336   1.404   4.952   2.815
10479SOL    HW232337   1.439   4.904   2.967
10480SOL     OW32338   6.083   0.154   2.424
10480SOL    HW132339   6.176   0.130   2.396
10480SOL    HW232340   6.046   0.222   2.361
10481SOL     OW32341   2.547   0.757   4.799
10481SOL    HW132342   2.481   0.816   4.754
10481SOL    HW232343   2.503   0.671   4.825
10482SOL     OW32344   1.160   5.237   5.516
10482SOL    HW132345   1.228   5.307   5.540
10482SOL    HW232346   1.200   5.146   5.530
10483SOL     OW32347   6.853   5.252   1.027
10483SOL    HW132348   6.783   5.321   1.011
10483SOL    HW232349   6.822   5.164   0.993
10484SOL     OW32350   6.082   1.779   1.409
10484SOL    HW132351   6.105   1.864   1.362
10484SOL    HW232352   6.139   1.705   1.374
10485SOL     OW32353   3.107   4.028   3.949
10485SOL    HW132354   3.067   3.967   4.017
10485SOL    HW232355   3.174   4.088   3.993
10486SOL     OW32356   5.733   5.481   5.035
10486SOL    HW132357   5.762   5.394   5.074
10486SOL    HW232358   5.789   5.555   5.073
10487SOL     OW32359   5.182   2.856   3.310
10487SOL    HW132360   5.120   2.778   3.307
10487SOL    HW232361   5.180   2.904   3.222
10488SOL     OW32362   6.969   2.304   5.647
10488SOL    HW132363   7.002   2.395   5.623
10488SOL    HW232364   6.996   2.238   5.577
10489SOL     OW32365   5.985   3.940   4.592
10489SOL    HW132366   5.889   3.967   4.596
10489SOL    HW232367   6.034   3.999   4.527
10490SOL     OW32368   5.531   6.798   6.858
10490SOL    HW132369   5.567   6.891   6.848
10490SOL    HW232370   5.594   6.743   6.913
10491SOL     OW32371   1.992   3.202   5.749
10491SOL    HW132372   2.034   3.175   5.662
10491SOL    HW232373   2.050   3.269   5.795
10492SOL     OW32374   3.683   5.951   0.277
10492SOL    HW132375   3.656   6.036   0.322
10492SOL    HW232376   3.637   5.874   0.321
10493SOL     OW32377   3.824   5.543   1.726
10493SOL    HW132378   3.849   5.517   1.820
10493SOL    HW232379   3.907   5.550   1.670
10494SOL     OW32380   0.633   4.328   3.966
10494SOL    HW132381   0.564   4.315   4.037
10494SOL    HW232382   0.674   4.239   3.943
10495SOL     OW32383   0.036   6.490   0.731
10495SOL    HW132384   0.016   6.586   0.710
10495SOL    HW232385   0.135   6.474   0.721
10496SOL     OW32386   0.388   4.708   6.552
10496SOL    HW132387   0.472   4.658   6.572
10496SOL    HW232388   0.310   4.648   6.563
10497SOL     OW32389   2.992   0.603   1.816
10497SOL    HW132390   2.974   0.693   1.776
10497SOL    HW232391   2.909   0.570   1.861
10498SOL     OW32392   4.502   3.962   6.351
10498SOL    HW132393   4.539   3.956   6.259
10498SOL    HW232394   4.402   3.962   6.347
10499SOL     OW32395   5.392   3.682   2.652
10499SOL    HW132396   5.471   3.712   2.705
10499SOL    HW232397   5.310   3.728   2.686
10500SOL     OW32398   0.917   3.558   4.961
10500SOL    HW132399   0.898   3.563   5.059
10500SOL    HW232400   0.838   3.519   4.914
10501SOL     OW32401   3.479   4.933   2.985
10501SOL    HW132402   3.434   5.017   3.017
10501SOL    HW232403   3.445   4.910   2.894
10502SOL     OW32404   3.325   3.475   2.649
10502SOL    HW132405   3.392   3.533   2.600
10502SOL    HW232406   3.331   3.382   2.614
10503SOL     OW32407   6.827   1.345   6.098
10503SOL    HW132408   6.774   1.260   6.105
10503SOL    HW232409   6.773   1.415   6.051
10504SOL     OW32410   0.502   3.870   5.889
10504SOL    HW132411   0.535   3.961   5.915
10504SOL    HW232412   0.409   3.858   5.924
10505SOL     OW32413   6.067   6.820   0.731
10505SOL    HW132414   5.999   6.870   0.785
10505SOL    HW232415   6.136   6.780   0.791
10506SOL     OW32416   1.277   4.546   6.038
10506SOL    HW132417   1.206   4.492   5.994
10506SOL    HW232418   1.354   4.558   5.975
10507SOL     OW32419   1.183   5.766   5.705
10507SOL    HW132420   1.091   5.728   5.699
10507SOL    HW232421   1.182   5.850   5.759
10508SOL     OW32422   2.010   5.611   6.388
10508SOL    HW132423   1.936   5.663   6.345
10508SOL    HW232424   2.007   5.516   6.357
10509SOL     OW32425   4.820   2.393   3.195
10509SOL    HW132426   4.786   2.486   3.202
10509SOL    HW232427   4.749   2.333   3.160
10510SOL     OW32428   5.211   5.631   3.835
10510SOL    HW132429   5.190   5.608   3.930
10510SOL    HW232430   5.176   5.559   3.775
10511SOL     OW32431   4.054   1.744   0.907
10511SOL    HW132432   3.958   1.725   0.930
10511SOL    HW232433   4.082   1.686   0.831
10512SOL     OW32434   4.071   1.692   5.513
10512SOL    HW132435   3.984   1.741   5.520
10512SOL    HW232436   4.132   1.722   5.586
10513SOL     OW32437   3.842   3.061   0.259
10513SOL    HW132438   3.804   3.029   0.172
10513SOL    HW232439   3.938   3.034   0.265
10514SOL     OW32440   1.462   4.608   1.845
10514SOL    HW132441   1.419   4.680   1.790
10514SOL    HW232442   1.391   4.550   1.884
10515SOL     OW32443   2.186   3.072   4.846
10515SOL    HW132444   2.189   2.995   4.782
10515SOL    HW232445   2.223   3.043   4.934
10516SOL     OW32446   4.916   2.049   1.904
10516SOL    HW132447   4.919   2.145   1.933
10516SOL    HW232448   5.009   2.017   1.886
10517SOL     OW32449   0.771   2.892   2.460
10517SOL    HW132450   0.864   2.855   2.460
10517SOL    HW232451   0.739   2.901   2.366
10518SOL     OW32452   1.116   5.604   2.351
10518SOL    HW132453   1.180   5.660   2.404
10518SOL    HW232454   1.050   5.562   2.413
10519SOL     OW32455   3.730   6.924   1.373
10519SOL    HW132456   3.700   6.933   1.468
10519SOL    HW232457   3.828   6.945   1.366
10520SOL     OW32458   1.582   2.830   6.430
10520SOL    HW132459   1.487   2.862   6.433
10520SOL    HW232460   1.642   2.908   6.410
10521SOL     OW32461   6.569   2.713   3.303
10521SOL    HW132462   6.615   2.641   3.356
10521SOL    HW232463   6.510   2.767   3.363
10522SOL     OW32464   5.766   1.267   3.952
10522SOL    HW132465   5.723   1.334   3.892
10522SOL    HW232466   5.750   1.292   4.047
10523SOL     OW32467   1.098   4.459   2.580
10523SOL    HW132468   1.032   4.533   2.563
10523SOL    HW232469   1.169   4.491   2.642
10524SOL     OW32470   6.986   5.798   4.549
10524SOL    HW132471   0.014   5.865   4.494
10524SOL    HW232472   0.019   5.715   4.558
10525SOL     OW32473   5.112   1.531   3.980
10525SOL    HW132474   5.201   1.487   3.968
10525SOL    HW232475   5.120   1.607   4.044
10526SOL     OW32476   1.485   5.331   6.644
10526SOL    HW132477   1.434   5.246   6.627
10526SOL    HW232478   1.426   5.409   6.625
10527SOL     OW32479   0.354   6.556   5.513
10527SOL    HW132480   0.341   6.470   5.562
10527SOL    HW232481   0.390   6.626   5.576
10528SOL     OW32482   2.052   4.865   5.259
10528SOL    HW132483   1.986   4.890   5.188
10528SOL    HW232484   2.012   4.881   5.350
10529SOL     OW32485   0.083   5.284   0.837
10529SOL    HW132486   0.138   5.357   0.878
10529SOL    HW232487   0.002   5.267   0.894
10530SOL     OW32488   0.053   6.396   1.690
10530SOL    HW132489   0.090   6.314   1.648
10530SOL    HW232490   6.984   6.375   1.728
10531SOL     OW32491   3.510   2.448   5.464
10531SOL    HW132492   3.502   2.369   5.525
10531SOL    HW232493   3.448   2.436   5.386
10532SOL     OW32494   4.699   6.028   5.951
10532SOL    HW132495   4.624   6.003   6.012
10532SOL    HW232496   4.746   5.945   5.920
10533SOL     OW32497   3.710   0.519   3.157
10533SOL    HW132498   3.729   0.613   3.129
10533SOL    HW232499   3.611   0.506   3.164
10534SOL     OW32500   1.397   5.862   3.562
10534SOL    HW132501   1.365   5.871   3.468
10534SOL    HW232502   1.324   5.824   3.618
10535SOL     OW32503   3.567   2.099   2.402
10535SOL    HW132504   3.471   2.119   2.380
10535SOL    HW232505   3.583   2.001   2.391
10536SOL     OW32506   5.589   3.203   5.368
10536SOL    HW132507   5.598   3.240   5.276
10536SOL    HW232508   5.509   3.243   5.412
10537SOL     OW32509   4.255   1.170   4.064
10537SOL    HW132510   4.297   1.091   4.110
10537SOL    HW232511   4.160   1.179   4.093
10538SOL     OW32512   0.175   2.860   3.491
10538SOL    HW132513   0.193   2.773   3.536
10538SOL    HW232514   0.076   2.877   3.488
10539SOL     OW32515   6.777   6.590   3.119
10539SOL    HW132516   6.720   6.510   3.139
10539SOL    HW232517   6.740   6.670   3.166
10540SOL     OW32518   1.793   4.217   0.116
10540SOL    HW132519   1.889   4.219   0.141
10540SOL    HW232520   1.749   4.303   0.143
10541SOL     OW32521   2.942   2.982   5.321
10541SOL    HW132522   2.851   3.022   5.335
10541SOL    HW232523   2.996   3.042   5.263
10542SOL     OW32524   5.009   6.381   2.884
10542SOL    HW132525   4.972   6.461   2.835
10542SOL    HW232526   4.933   6.331   2.927
10543SOL     OW32527   2.132   2.751   4.154
10543SOL    HW132528   2.127   2.655   4.126
10543SOL    HW232529   2.189   2.802   4.089
10544SOL     OW32530   3.419   1.323   2.779
10544SOL    HW132531   3.410   1.350   2.683
10544SOL    HW232532   3.481   1.387   2.826
10545SOL     OW32533   2.198   2.953   2.023
10545SOL    HW132534   2.231   2.960   2.117
10545SOL    HW232535   2.212   3.039   1.975
10546SOL     OW32536   2.226   0.036   0.087
10546SOL    HW132537   2.160   6.987   0.112
10546SOL    HW232538   2.198   0.079   0.001
10547SOL     OW32539   4.090   6.200   5.539
10547SOL    HW132540   4.003   6.228   5.499
10547SOL    HW232541   4.129   6.126   5.485
10548SOL     OW32542   0.668   6.113   3.110
10548SOL    HW132543   0.753   6.067   3.085
10548SOL    HW232544   0.591   6.051   3.095
10549SOL     OW32545   6.555   0.552   2.549
10549SOL    HW132546   6.519   0.464   2.519
10549SOL    HW232547   6.611   0.592   2.476
10550SOL     OW32548   4.952   5.539   2.885
10550SOL    HW132549   4.991   5.562   2.974
10550SOL    HW232550   4.868   5.591   2.871
10551SOL     OW32551   3.637   1.018   5.597
10551SOL    HW132552   3.542   1.031   5.568
10551SOL    HW232553   3.696   1.076   5.542
10552SOL     OW32554   3.048   0.015   3.544
10552SOL    HW132555   3.137   0.008   3.590
10552SOL    HW232556   2.982   0.057   3.606
10553SOL     OW32557   6.092   5.892   1.026
10553SOL    HW132558   6.121   5.949   1.102
10553SOL    HW232559   5.992   5.893   1.020
10554SOL     OW32560   6.314   6.505   2.577
10554SOL    HW132561   6.238   6.459   2.623
10554SOL    HW232562   6.298   6.505   2.478
10555SOL     OW32563   3.289   3.441   0.939
10555SOL    HW132564   3.299   3.343   0.957
10555SOL    HW232565   3.291   3.457   0.841
10556SOL     OW32566   2.755   1.965   1.998
10556SOL    HW132567   2.801   1.877   1.994
10556SOL    HW232568   2.666   1.959   1.952
10557SOL     OW32569   1.957   4.592   2.888
10557SOL    HW132570   1.936   4.562   2.981
10557SOL    HW232571   1.874   4.593   2.833
10558SOL     OW32572   3.916   5.188   4.615
10558SOL    HW132573   3.992   5.236   4.572
10558SOL    HW232574   3.835   5.247   4.613
10559SOL     OW32575   4.027   6.508   1.700
10559SOL    HW132576   3.944   6.478   1.747
10559SOL    HW232577   4.043   6.450   1.620
10560SOL     OW32578   5.250   6.702   3.204
10560SOL    HW132579   5.311   6.691   3.282
10560SOL    HW232580   5.212   6.613   3.178
10561SOL     OW32581   0.032   4.779   6.373
10561SOL    HW132582   0.033   4.830   6.287
10561SOL    HW232583   7.014   4.834   6.445
10562SOL     OW32584   4.168   6.008   2.269
10562SOL    HW132585   4.109   5.999   2.349
10562SOL    HW232586   4.187   6.105   2.252
10563SOL     OW32587   0.777   6.866   2.725
10563SOL    HW132588   0.773   6.894   2.629
10563SOL    HW232589   0.836   6.786   2.734
10564SOL     OW32590   5.049   4.779   3.290
10564SOL    HW132591   5.102   4.703   3.253
10564SOL    HW232592   4.963   4.787   3.240
10565SOL     OW32593   0.354   1.072   5.615
10565SOL    HW132594   0.426   1.061   5.684
10565SOL    HW232595   0.299   0.989   5.611
10566SOL     OW32596   3.411   1.754   0.439
10566SOL    HW132597   3.324   1.745   0.391
10566SOL    HW232598   3.424   1.675   0.500
10567SOL     OW32599   1.975   2.551   6.468
10567SOL    HW132600   1.932   2.464   6.448
10567SOL    HW232601   2.062   2.558   6.419
10568SOL     OW32602   5.095   2.206   5.842
10568SOL    HW132603   5.063   2.119   5.805
10568SOL    HW232604   5.073   2.279   5.778
10569SOL     OW32605   5.666   0.764   0.339
10569SOL    HW132606   5.758   0.736   0.310
10569SOL    HW232607   5.667   0.861   0.361
10570SOL     OW32608   1.860   3.502   3.134
10570SOL    HW132609   1.925   3.453   3.191
10570SOL    HW232610   1.835   3.588   3.178
10571SOL     OW32611   6.829   4.170   5.127
10571SOL    HW132612   6.803   4.257   5.169
10571SOL    HW232613   6.875   4.187   5.041
10572SOL     OW32614   6.128   4.357   1.032
10572SOL    HW132615   6.096   4.266   1.008
10572SOL    HW232616   6.064   4.425   0.995
10573SOL     OW32617   6.903   2.646   3.314
10573SOL    HW132618   6.887   2.706   3.235
10573SOL    HW232619   6.819   2.596   3.336
10574SOL     OW32620   5.917   2.193   2.615
10574SOL    HW132621   5.860   2.268   2.648
10574SOL    HW232622   6.012   2.209   2.641
10575SOL     OW32623   5.731   6.856   3.110
10575SOL    HW132624   5.642   6.834   3.069
10575SOL    HW232625   5.799   6.791   3.077
10576SOL     OW32626   1.383   3.980   4.386
10576SOL    HW132627   1.335   3.904   4.430
10576SOL    HW232628   1.477   3.952   4.365
10577SOL     OW32629   4.437   4.104   0.818
10577SOL    HW132630   4.374   4.108   0.895
10577SOL    HW232631   4.385   4.102   0.733
10578SOL     OW32632   0.703   3.476   2.902
10578SOL    HW132633   0.766   3.409   2.941
10578SOL    HW232634   0.728   3.568   2.931
10579SOL     OW32635   0.612   3.316   0.384
10579SOL    HW132636   0.645   3.257   0.310
10579SOL    HW232637   0.512   3.309   0.390
10580SOL     OW32638   5.225   6.953   6.786
10580SOL    HW132639   5.311   6.911   6.815
10580SOL    HW232640   5.160   6.952   6.863
10581SOL     OW32641   4.552   0.742   3.564
10581SOL    HW132642   4.603   0.726   3.480
10581SOL    HW232643   4.612   0.784   3.632
10582SOL     OW32644   6.630   3.399   6.282
10582SOL    HW132645   6.713   3.449   6.256
10582SOL    HW232646   6.653   3.334   6.355
10583SOL     OW32647   3.436   1.955   5.563
10583SOL    HW132648   3.393   1.920   5.480
10583SOL    HW232649   3.478   1.880   5.614
10584SOL     OW32650   0.856   6.926   3.374
10584SOL    HW132651   0.905   6.968   3.297
10584SOL    HW232652   0.917   6.863   3.422
10585SOL     OW32653   1.689   1.023   5.621
10585SOL    HW132654   1.712   0.995   5.528
10585SOL    HW232655   1.592   1.049   5.625
10586SOL     OW32656   4.409   4.222   5.255
10586SOL    HW132657   4.360   4.143   5.291
10586SOL    HW232658   4.344   4.294   5.231
10587SOL     OW32659   2.424   4.857   5.327
10587SOL    HW132660   2.426   4.762   5.359
10587SOL    HW232661   2.469   4.862   5.238
10588SOL     OW32662   1.548   3.425   3.483
10588SOL    HW132663   1.638   3.391   3.458
10588SOL    HW232664   1.508   3.474   3.405
10589SOL     OW32665   5.902   6.299   3.574
10589SOL    HW132666   5.959   6.290   3.656
10589SOL    HW232667   5.936   6.237   3.503
10590SOL     OW32668   1.012   5.139   2.665
10590SOL    HW132669   1.008   5.216   2.729
10590SOL    HW232670   0.953   5.158   2.586
10591SOL     OW32671   6.951   3.941   2.211
10591SOL    HW132672   6.933   3.843   2.222
10591SOL    HW232673   0.016   3.963   2.255
10592SOL     OW32674   0.470   2.180   4.977
10592SOL    HW132675   0.540   2.113   5.002
10592SOL    HW232676   0.495   2.224   4.891
10593SOL     OW32677   3.162   5.190   3.535
10593SOL    HW132678   3.085   5.183   3.472
10593SOL    HW232679   3.198   5.099   3.555
10594SOL     OW32680   3.100   5.554   3.720
10594SOL    HW132681   3.137   5.553   3.627
10594SOL    HW232682   3.165   5.600   3.781
10595SOL     OW32683   4.825   6.893   0.692
10595SOL    HW132684   4.877   6.958   0.636
10595SOL    HW232685   4.730   6.893   0.662
10596SOL     OW32686   4.967   3.152   0.014
10596SOL    HW132687   4.912   3.173   0.095
10596SOL    HW232688   5.056   3.117   0.042
10597SOL     OW32689   2.042   6.317   4.801
10597SOL    HW132690   2.130   6.361   4.781
10597SOL    HW232691   2.046   6.276   4.892
10598SOL     OW32692   3.251   0.770   0.205
10598SOL    HW132693   3.228   0.747   0.300
10598SOL    HW232694   3.348   0.748   0.189
10599SOL     OW32695   0.865   2.242   0.778
10599SOL    HW132696   0.774   2.229   0.818
10599SOL    HW232697   0.934   2.220   0.846
10600SOL     OW32698   4.081   1.102   1.783
10600SOL    HW132699   4.056   1.034   1.715
10600SOL    HW232700   4.019   1.095   1.862
10601SOL     OW32701   2.075   0.918   4.561
10601SOL    HW132702   2.048   0.982   4.633
10601SOL    HW232703   2.003   0.849   4.549
10602SOL     OW32704   6.471   0.159   1.663
10602SOL    HW132705   6.565   0.189   1.650
10602SOL    HW232706   6.467   0.059   1.662
10603SOL     OW32707   5.844   0.359   3.331
10603SOL    HW132708   5.799   0.388   3.246
10603SOL    HW232709   5.789   0.288   3.374
10604SOL     OW32710   5.110   1.304   4.807
10604SOL    HW132711   5.068   1.395   4.813
10604SOL    HW232712   5.096   1.267   4.716
10605SOL     OW32713   3.241   2.278   0.528
10605SOL    HW132714   3.270   2.359   0.581
10605SOL    HW232715   3.320   2.219   0.512
10606SOL     OW32716   6.352   0.865   6.636
10606SOL    HW132717   6.443   0.863   6.676
10606SOL    HW232718   6.283   0.854   6.708
10607SOL     OW32719   3.431   4.033   0.410
10607SOL    HW132720   3.439   4.024   0.311
10607SOL    HW232721   3.444   3.944   0.453
10608SOL     OW32722   5.356   4.425   3.635
10608SOL    HW132723   5.282   4.449   3.573
10608SOL    HW232724   5.343   4.332   3.670
10609SOL     OW32725   5.803   0.483   6.929
10609SOL    HW132726   5.760   0.421   6.862
10609SOL    HW232727   5.736   0.551   6.959
10610SOL     OW32728   0.720   1.792   3.118
10610SOL    HW132729   0.724   1.706   3.066
10610SOL    HW232730   0.659   1.856   3.070
10611SOL     OW32731   3.978   5.141   4.893
10611SOL    HW132732   4.059   5.179   4.938
10611SOL    HW232733   3.989   5.145   4.794
10612SOL     OW32734   6.448   2.491   3.683
10612SOL    HW132735   6.477   2.464   3.775
10612SOL    HW232736   6.423   2.409   3.631
10613SOL     OW32737   4.411   6.181   4.132
10613SOL    HW132738   4.315   6.153   4.133
10613SOL    HW232739   4.469   6.100   4.126
10614SOL     OW32740   3.828   2.040   5.795
10614SOL    HW132741   3.873   2.114   5.845
10614SOL    HW232742   3.757   2.078   5.736
10615SOL     OW32743   2.493   2.676   5.513
10615SOL    HW132744   2.467   2.764   5.551
10615SOL    HW232745   2.555   2.689   5.436
10616SOL     OW32746   1.692   5.987   0.293
10616SOL    HW132747   1.690   5.985   0.193
10616SOL    HW232748   1.779   6.026   0.324
10617SOL     OW32749   1.608   3.137   1.566
10617SOL    HW132750   1.670   3.154   1.490
10617SOL    HW232751   1.625   3.046   1.604
10618SOL     OW32752   0.910   4.447   4.117
10618SOL    HW132753   0.905   4.430   4.018
10618SOL    HW232754   0.899   4.545   4.134
10619SOL     OW32755   1.159   2.681   1.986
10619SOL    HW132756   1.079   2.667   1.928
10619SOL    HW232757   1.173   2.600   2.044
10620SOL     OW32758   3.148   0.581   5.791
10620SOL    HW132759   3.158   0.655   5.857
10620SOL    HW232760   3.069   0.599   5.733
10621SOL     OW32761   0.329   3.881   3.024
10621SOL    HW132762   0.248   3.919   2.980
10621SOL    HW232763   0.341   3.786   2.995
10622SOL     OW32764   4.416   2.455   0.309
10622SOL    HW132765   4.328   2.421   0.275
10622SOL    HW232766   4.447   2.531   0.253
10623SOL     OW32767   5.079   5.853   5.579
10623SOL    HW132768   5.019   5.824   5.653
10623SOL    HW232769   5.026   5.862   5.495
10624SOL     OW32770   0.282   1.930   0.139
10624SOL    HW132771   0.245   2.011   0.093
10624SOL    HW232772   0.381   1.941   0.150
10625SOL     OW32773   6.386   5.533   0.464
10625SOL    HW132774   6.409   5.565   0.372
10625SOL    HW232775   6.425   5.442   0.478
10626SOL     OW32776   5.645   2.772   1.133
10626SOL    HW132777   5.677   2.811   1.046
10626SOL    HW232778   5.724   2.742   1.186
10627SOL     OW32779   5.809   5.204   5.113
10627SOL    HW132780   5.738   5.156   5.063
10627SOL    HW232781   5.782   5.213   5.209
10628SOL     OW32782   3.045   6.428   0.350
10628SOL    HW132783   3.056   6.407   0.447
10628SOL    HW232784   3.011   6.348   0.302
10629SOL     OW32785   4.556   5.636   4.225
10629SOL    HW132786   4.468   5.591   4.246
10629SOL    HW232787   4.554   5.730   4.258
10630SOL     OW32788   3.633   1.208   1.616
10630SOL    HW132789   3.706   1.270   1.647
10630SOL    HW232790   3.635   1.125   1.672
10631SOL     OW32791   3.613   5.943   1.877
10631SOL    HW132792   3.630   5.875   1.947
10631SOL    HW232793   3.637   5.906   1.787
10632SOL     OW32794   5.673   6.344   4.528
10632SOL    HW132795   5.654   6.292   4.445
10632SOL    HW232796   5.734   6.421   4.505
10633SOL     OW32797   2.096   3.440   0.683
10633SOL    HW132798   2.126   3.403   0.771
10633SOL    HW232799   2.175   3.453   0.623
10634SOL     OW32800   6.981   4.923   6.873
10634SOL    HW132801   6.922   4.844   6.862
10634SOL    HW232802   6.933   5.005   6.842
10635SOL     OW32803   2.919   5.955   6.454
10635SOL    HW132804   2.997   5.983   6.511
10635SOL    HW232805   2.839   6.010   6.479
10636SOL     OW32806   6.341   2.854   6.937
10636SOL    HW132807   6.292   2.914   7.000
10636SOL    HW232808   6.286   2.839   6.855
10637SOL     OW32809   2.499   0.517   0.113
10637SOL    HW132810   2.433   0.483   0.181
10637SOL    HW232811   2.563   0.579   0.158
10638SOL     OW32812   5.172   5.336   0.819
10638SOL    HW132813   5.105   5.310   0.889
10638SOL    HW232814   5.125   5.349   0.731
10639SOL     OW32815   6.938   4.902   1.634
10639SOL    HW132816   7.001   4.825   1.636
10639SOL    HW232817   6.981   4.979   1.585
10640SOL     OW32818   4.238   6.115   3.553
10640SOL    HW132819   4.282   6.153   3.472
10640SOL    HW232820   4.139   6.125   3.544
10641SOL     OW32821   1.233   2.164   2.859
10641SOL    HW132822   1.257   2.147   2.764
10641SOL    HW232823   1.314   2.158   2.916
10642SOL     OW32824   7.007   3.163   6.079
10642SOL    HW132825   0.035   3.088   6.122
10642SOL    HW232826   0.004   3.248   6.128
10643SOL     OW32827   2.683   5.076   5.914
10643SOL    HW132828   2.625   4.997   5.893
10643SOL    HW232829   2.627   5.158   5.923
10644SOL     OW32830   6.678   3.094   2.860
10644SOL    HW132831   6.602   3.081   2.796
10644SOL    HW232832   6.679   3.020   2.927
10645SOL     OW32833   2.160   2.209   3.004
10645SOL    HW132834   2.122   2.302   3.005
10645SOL    HW232835   2.231   2.201   3.075
10646SOL     OW32836   5.516   6.997   3.891
10646SOL    HW132837   5.603   0.012   3.859
10646SOL    HW232838   5.474   6.944   3.817
10647SOL     OW32839   3.399   5.603   5.052
10647SOL    HW132840   3.447   5.571   5.134
10647SOL    HW232841   3.395   5.528   4.986
10648SOL     OW32842   4.719   4.322   5.378
10648SOL    HW132843   4.814   4.291   5.365
10648SOL    HW232844   4.669   4.312   5.292
10649SOL     OW32845   6.200   3.477   3.281
10649SOL    HW132846   6.105   3.508   3.282
10649SOL    HW232847   6.220   3.433   3.193
10650SOL     OW32848   0.684   0.467   2.904
10650SOL    HW132849   0.783   0.482   2.902
10650SOL    HW232850   0.644   0.523   2.976
10651SOL     OW32851   2.905   5.186   5.783
10651SOL    HW132852   2.871   5.231   5.701
10651SOL    HW232853   2.827   5.152   5.836
10652SOL     OW32854   1.532   0.131   6.909
10652SOL    HW132855   1.567   0.038   6.904
10652SOL    HW232856   1.560   0.173   6.995
10653SOL     OW32857   5.314   5.918   4.601
10653SOL    HW132858   5.284   6.011   4.625
10653SOL    HW232859   5.271   5.853   4.663
10654SOL     OW32860   6.677   2.152   4.032
10654SOL    HW132861   6.732   2.095   3.971
10654SOL    HW232862   6.614   2.094   4.084
10655SOL     OW32863   0.000   4.368   1.064
10655SOL    HW132864   6.980   4.387   1.153
10655SOL    HW232865   6.974   4.419   0.993
10656SOL     OW32866   5.670   2.094   4.662
10656SOL    HW132867   5.737   2.140   4.721
10656SOL    HW232868   5.622   2.024   4.715
10657SOL     OW32869   5.029   7.006   5.139
10657SOL    HW132870   4.994   7.017   5.232
10657SOL    HW232871   5.000   0.061   5.083
10658SOL     OW32872   1.272   1.604   5.265
10658SOL    HW132873   1.274   1.543   5.185
10658SOL    HW232874   1.189   1.585   5.318
10659SOL     OW32875   0.782   5.775   0.568
10659SOL    HW132876   0.746   5.786   0.661
10659SOL    HW232877   0.877   5.742   0.574
10660SOL     OW32878   5.412   2.838   5.711
10660SOL    HW132879   5.438   2.855   5.806
10660SOL    HW232880   5.362   2.918   5.675
10661SOL     OW32881   3.354   5.335   5.319
10661SOL    HW132882   3.350   5.252   5.264
10661SOL    HW232883   3.334   5.312   5.415
10662SOL     OW32884   2.361   1.282   1.398
10662SOL    HW132885   2.408   1.319   1.478
10662SOL    HW232886   2.401   1.322   1.315
10663SOL     OW32887   0.822   2.215   3.806
10663SOL    HW132888   0.786   2.308   3.811
10663SOL    HW232889   0.746   2.150   3.804
10664SOL     OW32890   1.253   5.173   4.695
10664SOL    HW132891   1.217   5.184   4.787
10664SOL    HW232892   1.250   5.261   4.647
10665SOL     OW32893   3.224   3.172   0.016
10665SOL    HW132894   3.192   3.098   0.074
10665SOL    HW232895   3.213   3.147   6.942
10666SOL     OW32896   3.696   3.810   1.389
10666SOL    HW132897   3.791   3.811   1.356
10666SOL    HW232898   3.680   3.889   1.447
10667SOL     OW32899   5.301   2.740   3.878
10667SOL    HW132900   5.308   2.753   3.977
10667SOL    HW232901   5.391   2.718   3.841
10668SOL     OW32902   3.286   2.671   5.930
10668SOL    HW132903   3.304   2.614   5.850
10668SOL    HW232904   3.278   2.767   5.901
10669SOL     OW32905   6.276   1.604   1.275
10669SOL    HW132906   6.281   1.516   1.226
10669SOL    HW232907   6.330   1.672   1.226
10670SOL     OW32908   4.975   3.751   4.304
10670SOL    HW132909   4.956   3.824   4.237
10670SOL    HW232910   4.956   3.785   4.396
10671SOL     OW32911   1.156   3.661   5.158
10671SOL    HW132912   1.087   3.616   5.215
10671SOL    HW232913   1.124   3.668   5.064
10672SOL     OW32914   5.925   3.578   2.492
10672SOL    HW132915   5.967   3.663   2.460
10672SOL    HW232916   5.992   3.525   2.545
10673SOL     OW32917   1.895   1.567   1.186
10673SOL    HW132918   1.923   1.524   1.100
10673SOL    HW232919   1.796   1.560   1.196
10674SOL     OW32920   3.291   3.514   3.900
10674SOL    HW132921   3.250   3.603   3.881
10674SOL    HW232922   3.381   3.509   3.858
10675SOL     OW32923   3.894   6.803   5.556
10675SOL    HW132924   3.810   6.785   5.608
10675SOL    HW232925   3.884   6.766   5.463
10676SOL     OW32926   1.445   0.079   5.696
10676SOL    HW132927   1.545   0.077   5.705
10676SOL    HW232928   1.406   0.136   5.769
10677SOL     OW32929   0.175   1.420   0.381
10677SOL    HW132930   0.087   1.444   0.339
10677SOL    HW232931   0.240   1.495   0.367
10678SOL     OW32932   3.997   5.718   2.063
10678SOL    HW132933   4.068   5.694   2.129
10678SOL    HW232934   3.986   5.643   1.997
10679SOL     OW32935   4.154   3.781   6.662
10679SOL    HW132936   4.249   3.751   6.677
10679SOL    HW232937   4.109   3.718   6.600
10680SOL     OW32938   3.921   1.388   5.274
10680SOL    HW132939   3.871   1.465   5.234
10680SOL    HW232940   3.938   1.319   5.204
10681SOL     OW32941   2.193   3.512   5.367
10681SOL    HW132942   2.188   3.578   5.443
10681SOL    HW232943   2.187   3.562   5.280
10682SOL     OW32944   5.285   3.176   6.518
10682SOL    HW132945   5.314   3.217   6.605
10682SOL    HW232946   5.362   3.129   6.475
10683SOL     OW32947   2.615   0.580   3.499
10683SOL    HW132948   2.526   0.605   3.535
10683SOL    HW232949   2.653   0.658   3.448
10684SOL     OW32950   4.743   4.556   1.994
10684SOL    HW132951   4.827   4.566   2.047
10684SOL    HW232952   4.745   4.619   1.917
10685SOL     OW32953   1.175   6.458   1.580
10685SOL    HW132954   1.254   6.427   1.634
10685SOL    HW232955   1.095   6.463   1.639
10686SOL     OW32956   2.669   0.767   0.060
10686SOL    HW132957   2.764   0.795   0.046
10686SOL    HW232958   2.621   0.768   6.994
10687SOL     OW32959   0.965   3.979   4.073
10687SOL    HW132960   1.036   4.033   4.118
10687SOL    HW232961   1.000   3.944   3.986
10688SOL     OW32962   5.066   1.459   2.737
10688SOL    HW132963   5.082   1.557   2.729
10688SOL    HW232964   4.990   1.433   2.678
10689SOL     OW32965   0.662   6.837   2.219
10689SOL    HW132966   0.578   6.794   2.186
10689SOL    HW232967   0.639   6.917   2.274
10690SOL     OW32968   0.409   6.466   4.159
10690SOL    HW132969   0.484   6.532   4.159
10690SOL    HW232970   0.354   6.477   4.242
10691SOL     OW32971   3.528   0.275   2.114
10691SOL    HW132972   3.442   0.225   2.110
10691SOL    HW232973   3.531   0.330   2.197
10692SOL     OW32974   2.372   1.273   4.157
10692SOL    HW132975   2.469   1.250   4.149
10692SOL    HW232976   2.332   1.284   4.066
10693SOL     OW32977   1.816   5.078   6.999
10693SOL    HW132978   1.787   4.988   0.008
10693SOL    HW232979   1.825   5.139   0.055
10694SOL     OW32980   4.322   0.782   5.427
10694SOL    HW132981   4.410   0.762   5.383
10694SOL    HW232982   4.331   0.865   5.483
10695SOL     OW32983   5.449   4.354   2.122
10695SOL    HW132984   5.447   4.255   2.109
10695SOL    HW232985   5.414   4.400   2.040
10696SOL     OW32986   6.463   4.589   3.721
10696SOL    HW132987   6.480   4.611   3.625
10696SOL    HW232988   6.501   4.661   3.779
10697SOL     OW32989   2.608   5.200   5.289
10697SOL    HW132990   2.551   5.235   5.215
10697SOL    HW232991   2.663   5.123   5.255
10698SOL     OW32992   3.840   3.124   6.944
10698SOL    HW132993   3.917   3.084   6.993
10698SOL    HW232994   3.778   3.052   6.914
10699SOL     OW32995   3.410   2.943   0.785
10699SOL    HW132996   3.371   2.896   0.864
10699SOL    HW232997   3.510   2.940   0.790
10700SOL     OW32998   4.859   0.595   1.247
10700SOL    HW132999   4.792   0.668   1.254
10700SOL    HW233000   4.942   0.621   1.298
10701SOL     OW33001   3.200   6.731   6.732
10701SOL    HW133002   3.268   6.755   6.801
10701SOL    HW233003   3.236   6.659   6.672
10702SOL     OW33004   5.506   2.195   1.529
10702SOL    HW133005   5.469   2.285   1.509
10702SOL    HW233006   5.437   2.140   1.575
10703SOL     OW33007   0.823   2.709   6.159
10703SOL    HW133008   0.866   2.799   6.168
10703SOL    HW233009   0.757   2.697   6.234
10704SOL     OW33010   5.251   6.874   1.643
10704SOL    HW133011   5.188   6.951   1.648
10704SOL    HW233012   5.314   6.888   1.566
10705SOL     OW33013   5.770   3.885   1.013
10705SOL    HW133014   5.679   3.900   1.051
10705SOL    HW233015   5.837   3.941   1.063
10706SOL     OW33016   4.110   0.245   0.595
10706SOL    HW133017   4.201   0.284   0.611
10706SOL    HW233018   4.050   0.315   0.557
10707SOL     OW33019   5.661   0.266   3.948
10707SOL    HW133020   5.700   0.323   3.876
10707SOL    HW233021   5.562   0.264   3.938
10708SOL     OW33022   4.096   1.780   2.095
10708SOL    HW133023   4.065   1.839   2.020
10708SOL    HW233024   4.105   1.686   2.062
10709SOL     OW33025   6.141   5.004   3.776
10709SOL    HW133026   6.081   4.942   3.726
10709SOL    HW233027   6.196   4.952   3.841
10710SOL     OW33028   5.520   1.599   3.797
10710SOL    HW133029   5.450   1.603   3.726
10710SOL    HW233030   5.524   1.686   3.846
10711SOL     OW33031   4.043   0.162   1.949
10711SOL    HW133032   4.092   0.191   2.031
10711SOL    HW233033   3.947   0.148   1.970
10712SOL     OW33034   5.361   6.874   2.801
10712SOL    HW133035   5.324   6.962   2.829
10712SOL    HW233036   5.435   6.847   2.864
10713SOL     OW33037   1.167   4.179   1.153
10713SOL    HW133038   1.241   4.146   1.095
10713SOL    HW233039   1.184   4.151   1.248
10714SOL     OW33040   3.015   3.882   4.524
10714SOL    HW133041   3.030   3.836   4.436
10714SOL    HW233042   2.948   3.829   4.577
10715SOL     OW33043   6.371   0.704   1.814
10715SOL    HW133044   6.429   0.737   1.740
10715SOL    HW233045   6.309   0.777   1.843
10716SOL     OW33046   5.691   1.375   3.700
10716SOL    HW133047   5.661   1.346   3.609
10716SOL    HW233048   5.650   1.463   3.723
10717SOL     OW33049   1.648   2.642   0.211
10717SOL    HW133050   1.578   2.628   0.281
10717SOL    HW233051   1.618   2.713   0.148
10718SOL     OW33052   1.974   5.193   5.489
10718SOL    HW133053   1.900   5.126   5.479
10718SOL    HW233054   2.059   5.153   5.454
10719SOL     OW33055   6.202   5.734   4.332
10719SOL    HW133056   6.213   5.775   4.422
10719SOL    HW233057   6.245   5.643   4.332
10720SOL     OW33058   0.092   4.984   3.398
10720SOL    HW133059   0.091   4.889   3.366
10720SOL    HW233060   0.035   5.040   3.338
10721SOL     OW33061   5.506   3.870   5.484
10721SOL    HW133062   5.407   3.886   5.486
10721SOL    HW233063   5.550   3.921   5.557
10722SOL     OW33064   6.802   4.383   5.335
10722SOL    HW133065   6.853   4.442   5.397
10722SOL    HW233066   6.752   4.314   5.387
10723SOL     OW33067   5.925   6.881   0.345
10723SOL    HW133068   5.853   6.892   0.414
10723SOL    HW233069   5.990   6.956   0.352
10724SOL     OW33070   6.693   6.389   0.468
10724SOL    HW133071   6.780   6.383   0.419
10724SOL    HW233072   6.636   6.310   0.445
10725SOL     OW33073   2.585   5.806   5.530
10725SOL    HW133074   2.558   5.715   5.497
10725SOL    HW233075   2.671   5.832   5.488
10726SOL     OW33076   5.473   1.262   4.411
10726SOL    HW133077   5.519   1.254   4.499
10726SOL    HW233078   5.403   1.190   4.404
10727SOL     OW33079   1.909   5.910   5.498
10727SOL    HW133080   1.951   5.823   5.526
10727SOL    HW233081   1.815   5.915   5.534
10728SOL     OW33082   5.759   5.878   1.065
10728SOL    HW133083   5.759   5.962   1.011
10728SOL    HW233084   5.751   5.900   1.162
10729SOL     OW33085   6.534   2.979   1.414
10729SOL    HW133086   6.477   3.003   1.494
10729SOL    HW233087   6.585   2.895   1.433
10730SOL     OW33088   4.744   0.152   2.063
10730SOL    HW133089   4.681   0.204   2.121
10730SOL    HW233090   4.740   0.186   1.969
10731SOL     OW33091   4.246   1.052   1.204
10731SOL    HW133092   4.208   1.045   1.296
10731SOL    HW233093   4.260   0.960   1.167
10732SOL     OW33094   1.031   4.949   5.296
10732SOL    HW133095   1.047   4.856   5.263
10732SOL    HW233096   1.051   5.014   5.223
10733SOL     OW33097   6.127   2.731   6.768
10733SOL    HW133098   6.129   2.764   6.673
10733SOL    HW233099   6.193   2.657   6.778
10734SOL     OW33100   6.778   2.305   1.680
10734SOL    HW133101   6.827   2.219   1.664
10734SOL    HW233102   6.759   2.349   1.592
10735SOL     OW33103   0.158   3.930   2.328
10735SOL    HW133104   0.211   3.865   2.274
10735SOL    HW233105   0.164   3.904   2.425
10736SOL     OW33106   3.097   0.315   3.595
10736SOL    HW133107   3.005   0.310   3.634
10736SOL    HW233108   3.164   0.289   3.666
10737SOL     OW33109   6.764   1.967   1.532
10737SOL    HW133110   6.842   2.016   1.571
10737SOL    HW233111   6.724   1.908   1.602
10738SOL     OW33112   4.274   0.799   3.051
10738SOL    HW133113   4.251   0.703   3.064
10738SOL    HW233114   4.268   0.847   3.138
10739SOL     OW33115   2.053   2.630   1.788
10739SOL    HW133116   2.132   2.629   1.727
10739SOL    HW233117   1.971   2.652   1.734
10740SOL     OW33118   5.164   4.896   3.564
10740SOL    HW133119   5.127   4.846   3.486
10740SOL    HW233120   5.263   4.906   3.554
10741SOL     OW33121   3.628   0.523   2.692
10741SOL    HW133122   3.661   0.617   2.703
10741SOL    HW233123   3.650   0.471   2.774
10742SOL     OW33124   6.451   5.648   0.778
10742SOL    HW133125   6.430   5.682   0.870
10742SOL    HW233126   6.440   5.722   0.712
10743SOL     OW33127   2.151   2.120   4.221
10743SOL    HW133128   2.054   2.130   4.245
10743SOL    HW233129   2.203   2.099   4.304
10744SOL     OW33130   3.971   2.052   1.058
10744SOL    HW133131   3.893   2.005   1.100
10744SOL    HW233132   4.043   2.064   1.126
10745SOL     OW33133   0.102   5.581   5.997
10745SOL    HW133134   0.189   5.532   6.004
10745SOL    HW233135   0.037   5.542   6.062
10746SOL     OW33136   0.244   4.095   5.688
10746SOL    HW133137   0.297   4.179   5.701
10746SOL    HW233138   0.150   4.109   5.719
10747SOL     OW33139   3.085   1.234   4.793
10747SOL    HW133140   3.058   1.267   4.702
10747SOL    HW233141   3.016   1.263   4.860
10748SOL     OW33142   5.368   1.419   2.460
10748SOL    HW133143   5.350   1.357   2.537
10748SOL    HW233144   5.310   1.394   2.383
10749SOL     OW33145   2.018   0.050   5.910
10749SOL    HW133146   1.941   0.107   5.882
10749SOL    HW233147   2.086   0.048   5.836
10750SOL     OW33148   3.413   0.668   6.249
10750SOL    HW133149   3.394   0.570   6.244
10750SOL    HW233150   3.389   0.712   6.163
10751SOL     OW33151   2.437   5.070   4.224
10751SOL    HW133152   2.460   4.983   4.179
10751SOL    HW233153   2.339   5.088   4.214
10752SOL     OW33154   4.747   5.265   4.313
10752SOL    HW133155   4.809   5.213   4.255
10752SOL    HW233156   4.799   5.332   4.366
10753SOL     OW33157   0.167   3.436   4.400
10753SOL    HW133158   0.259   3.400   4.418
10753SOL    HW233159   0.142   3.419   4.305
10754SOL     OW33160   1.843   0.398   2.576
10754SOL    HW133161   1.751   0.428   2.603
10754SOL    HW233162   1.835   0.315   2.521
10755SOL     OW33163   6.154   5.847   1.912
10755SOL    HW133164   6.186   5.778   1.978
10755SOL    HW233165   6.158   5.937   1.954
10756SOL     OW33166   6.962   6.468   5.175
10756SOL    HW133167   0.034   6.501   5.179
10756SOL    HW233168   6.957   6.391   5.111
10757SOL     OW33169   2.695   3.041   0.999
10757SOL    HW133170   2.640   3.093   1.064
10757SOL    HW233171   2.716   3.099   0.920
10758SOL     OW33172   0.717   5.400   4.033
10758SOL    HW133173   0.789   5.391   3.964
10758SOL    HW233174   0.695   5.497   4.045
10759SOL     OW33175   0.053   2.825   0.001
10759SOL    HW133176   7.009   2.814   0.075
10759SOL    HW233177   0.007   2.859   6.941
10760SOL     OW33178   6.393   0.798   3.275
10760SOL    HW133179   6.415   0.719   3.218
10760SOL    HW233180   6.299   0.791   3.308
10761SOL     OW33181   2.910   4.967   5.440
10761SOL    HW133182   2.913   4.912   5.523
10761SOL    HW233183   2.901   4.907   5.361
10762SOL     OW33184   3.492   0.683   4.509
10762SOL    HW133185   3.414   0.623   4.489
10762SOL    HW233186   3.561   0.631   4.560
10763SOL     OW33187   4.108   6.793   3.613
10763SOL    HW133188   4.178   6.821   3.547
10763SOL    HW233189   4.103   6.860   3.686
10764SOL     OW33190   5.933   0.180   3.932
10764SOL    HW133191   5.833   0.168   3.925
10764SOL    HW233192   5.967   0.220   3.847
10765SOL     OW33193   5.914   3.420   0.978
10765SOL    HW133194   5.885   3.515   0.972
10765SOL    HW233195   5.836   3.362   1.000
10766SOL     OW33196   3.821   2.710   1.588
10766SOL    HW133197   3.797   2.738   1.681
10766SOL    HW233198   3.920   2.697   1.581
10767SOL     OW33199   2.985   1.412   1.666
10767SOL    HW133200   3.041   1.425   1.747
10767SOL    HW233201   2.952   1.501   1.633
10768SOL     OW33202   6.863   5.502   0.412
10768SOL    HW133203   6.884   5.408   0.439
10768SOL    HW233204   6.784   5.534   0.464
10769SOL     OW33205   1.753   3.933   5.880
10769SOL    HW133206   1.830   3.963   5.823
10769SOL    HW233207   1.767   3.838   5.907
10770SOL     OW33208   4.564   6.228   2.841
10770SOL    HW133209   4.557   6.324   2.817
10770SOL    HW233210   4.565   6.173   2.758
10771SOL     OW33211   2.847   1.044   3.598
10771SOL    HW133212   2.881   1.130   3.561
10771SOL    HW233213   2.766   1.061   3.654
10772SOL     OW33214   5.334   5.374   3.688
10772SOL    HW133215   5.297   5.282   3.703
10772SOL    HW233216   5.414   5.388   3.746
10773SOL     OW33217   4.932   5.380   3.640
10773SOL    HW133218   4.927   5.439   3.720
10773SOL    HW233219   4.982   5.296   3.664
10774SOL     OW33220   1.288   1.033   3.845
10774SOL    HW133221   1.243   1.018   3.933
10774SOL    HW233222   1.244   1.109   3.797
10775SOL     OW33223   0.550   4.096   2.000
10775SOL    HW133224   0.563   4.010   1.950
10775SOL    HW233225   0.580   4.083   2.095
10776SOL     OW33226   1.642   0.044   6.580
10776SOL    HW133227   1.682   6.975   6.569
10776SOL    HW233228   1.708   0.113   6.552
10777SOL     OW33229   2.956   6.154   1.455
10777SOL    HW133230   2.995   6.211   1.527
10777SOL    HW233231   2.898   6.083   1.497
10778SOL     OW33232   6.026   5.806   3.345
10778SOL    HW133233   5.951   5.768   3.292
10778SOL    HW233234   6.033   5.904   3.328
10779SOL     OW33235   5.505   2.293   3.279
10779SOL    HW133236   5.534   2.373   3.333
10779SOL    HW233237   5.585   2.254   3.233
10780SOL     OW33238   0.631   1.273   3.278
10780SOL    HW133239   0.645   1.345   3.345
10780SOL    HW233240   0.540   1.282   3.238
10781SOL     OW33241   3.892   0.275   4.038
10781SOL    HW133242   3.852   0.186   4.059
10781SOL    HW233243   3.991   0.266   4.030
10782SOL     OW33244   6.805   5.289   3.967
10782SOL    HW133245   6.883   5.283   3.905
10782SOL    HW233246   6.746   5.209   3.954
10783SOL     OW33247   6.834   2.102   2.817
10783SOL    HW133248   6.874   2.173   2.759
10783SOL    HW233249   6.865   2.012   2.787
10784SOL     OW33250   2.414   1.410   4.402
10784SOL    HW133251   2.384   1.366   4.318
10784SOL    HW233252   2.496   1.464   4.384
10785SOL     OW33253   0.830   4.017   6.825
10785SOL    HW133254   0.802   4.039   6.732
10785SOL    HW233255   0.836   4.101   6.879
10786SOL     OW33256   0.773   5.447   2.950
10786SOL    HW133257   0.857   5.397   2.932
10786SOL    HW233258   0.697   5.406   2.899
10787SOL     OW33259   1.930   2.771   5.706
10787SOL    HW133260   2.024   2.786   5.674
10787SOL    HW233261   1.929   2.770   5.806
10788SOL     OW33262   5.923   3.870   6.524
10788SOL    HW133263   5.918   3.960   6.481
10788SOL    HW233264   5.988   3.813   6.474
10789SOL     OW33265   6.506   1.623   6.914
10789SOL    HW133266   6.574   1.652   6.982
10789SOL    HW233267   6.436   1.567   6.958
10790SOL     OW33268   6.879   6.652   2.844
10790SOL    HW133269   6.823   6.639   2.762
10790SOL    HW233270   6.828   6.620   2.925
10791SOL     OW33271   0.253   6.111   2.451
10791SOL    HW133272   0.237   6.015   2.427
10791SOL    HW233273   0.351   6.130   2.449
10792SOL     OW33274   3.622   4.059   5.147
10792SOL    HW133275   3.533   4.032   5.108
10792SOL    HW233276   3.607   4.109   5.232
10793SOL     OW33277   5.508   3.207   4.646
10793SOL    HW133278   5.504   3.118   4.691
10793SOL    HW233279   5.469   3.199   4.554
10794SOL     OW33280   3.679   3.281   3.713
10794SOL    HW133281   3.661   3.243   3.622
10794SOL    HW233282   3.606   3.255   3.776
10795SOL     OW33283   0.921   4.943   3.479
10795SOL    HW133284   0.957   4.909   3.566
10795SOL    HW233285   0.821   4.934   3.478
10796SOL     OW33286   1.772   5.994   4.850
10796SOL    HW133287   1.718   5.914   4.875
10796SOL    HW233288   1.716   6.076   4.859
10797SOL     OW33289   4.014   2.490   0.486
10797SOL    HW133290   4.032   2.546   0.405
10797SOL    HW233291   4.013   2.393   0.460
10798SOL     OW33292   0.197   1.797   0.416
10798SOL    HW133293   0.223   1.867   0.349
10798SOL    HW233294   0.097   1.789   0.418
10799SOL     OW33295   4.285   1.300   2.222
10799SOL    HW133296   4.245   1.388   2.248
10799SOL    HW233297   4.384   1.302   2.239
10800SOL     OW33298   1.637   6.830   1.208
10800SOL    HW133299   1.728   6.809   1.244
10800SOL    HW233300   1.630   6.799   1.114
10801SOL     OW33301   1.361   0.655   0.600
10801SOL    HW133302   1.366   0.697   0.691
10801SOL    HW233303   1.446   0.674   0.551
10802SOL     OW33304   6.556   6.948   3.853
10802SOL    HW133305   6.464   6.917   3.829
10802SOL    HW233306   6.557   0.025   3.859
10803SOL     OW33307   2.296   5.315   6.564
10803SOL    HW133308   2.337   5.269   6.642
10803SOL    HW233309   2.316   5.264   6.481
10804SOL     OW33310   6.854   3.621   4.608
10804SOL    HW133311   6.895   3.623   4.517
10804SOL    HW233312   6.788   3.546   4.614
10805SOL     OW33313   6.092   0.866   5.294
10805SOL    HW133314   6.092   0.960   5.329
10805SOL    HW233315   6.185   0.840   5.268
10806SOL     OW33316   1.884   4.265   6.606
10806SOL    HW133317   1.798   4.251   6.557
10806SOL    HW233318   1.916   4.178   6.643
10807SOL     OW33319   3.297   6.771   4.267
10807SOL    HW133320   3.370   6.773   4.335
10807SOL    HW233321   3.275   6.865   4.239
10808SOL     OW33322   0.663   2.640   6.387
10808SOL    HW133323   0.661   2.695   6.471
10808SOL    HW233324   0.649   2.544   6.411
10809SOL     OW33325   2.420   6.051   4.519
10809SOL    HW133326   2.372   6.139   4.514
10809SOL    HW233327   2.353   5.978   4.534
10810SOL     OW33328   0.347   0.197   4.336
10810SOL    HW133329   0.299   0.265   4.391
10810SOL    HW233330   0.283   0.158   4.269
10811SOL     OW33331   4.859   4.961   4.922
10811SOL    HW133332   4.871   5.059   4.905
10811SOL    HW233333   4.770   4.932   4.887
10812SOL     OW33334   6.317   2.551   6.851
10812SOL    HW133335   6.371   2.491   6.791
10812SOL    HW233336   6.378   2.615   6.897
10813SOL     OW33337   0.994   4.366   6.176
10813SOL    HW133338   1.006   4.449   6.230
10813SOL    HW233339   1.025   4.382   6.082
10814SOL     OW33340   2.832   0.743   1.167
10814SOL    HW133341   2.802   0.670   1.106
10814SOL    HW233342   2.830   0.711   1.261
10815SOL     OW33343   5.203   0.959   4.950
10815SOL    HW133344   5.140   0.881   4.945
10815SOL    HW233345   5.202   1.008   4.863
10816SOL     OW33346   4.072   3.214   3.864
10816SOL    HW133347   3.975   3.193   3.879
10816SOL    HW233348   4.098   3.189   3.771
10817SOL     OW33349   2.417   6.509   3.537
10817SOL    HW133350   2.499   6.491   3.591
10817SOL    HW233351   2.401   6.433   3.473
10818SOL     OW33352   4.201   4.681   6.163
10818SOL    HW133353   4.185   4.744   6.239
10818SOL    HW233354   4.244   4.730   6.087
10819SOL     OW33355   7.004   5.837   6.037
10819SOL    HW133356   0.053   5.768   6.024
10819SOL    HW233357   6.955   5.818   6.122
10820SOL     OW33358   2.566   4.074   6.122
10820SOL    HW133359   2.471   4.044   6.132
10820SOL    HW233360   2.624   4.022   6.184
10821SOL     OW33361   4.657   5.783   2.820
10821SOL    HW133362   4.568   5.817   2.789
10821SOL    HW233363   4.670   5.809   2.916
10822SOL     OW33364   5.201   2.253   2.328
10822SOL    HW133365   5.202   2.237   2.427
10822SOL    HW233366   5.253   2.182   2.282
10823SOL     OW33367   6.046   6.744   2.604
10823SOL    HW133368   6.071   6.681   2.530
10823SOL    HW233369   5.948   6.739   2.621
10824SOL     OW33370   0.759   2.635   3.983
10824SOL    HW133371   0.766   2.734   3.983
10824SOL    HW233372   0.847   2.595   3.956
10825SOL     OW33373   0.570   2.017   0.441
10825SOL    HW133374   0.555   1.925   0.478
10825SOL    HW233375   0.551   2.017   0.343
10826SOL     OW33376   0.492   2.562   3.222
10826SOL    HW133377   0.532   2.639   3.270
10826SOL    HW233378   0.394   2.557   3.243
10827SOL     OW33379   0.090   3.722   4.709
10827SOL    HW133380   0.007   3.675   4.679
10827SOL    HW233381   0.113   3.794   4.644
10828SOL     OW33382   6.279   5.044   5.330
10828SOL    HW133383   6.298   5.040   5.232
10828SOL    HW233384   6.341   5.108   5.374
10829SOL     OW33385   4.308   3.184   5.276
10829SOL    HW133386   4.291   3.207   5.181
10829SOL    HW233387   4.221   3.182   5.326
10830SOL     OW33388   4.380   1.911   3.775
10830SOL    HW133389   4.423   1.851   3.708
10830SOL    HW233390   4.443   1.985   3.798
10831SOL     OW33391   3.958   1.144   3.408
10831SOL    HW133392   4.045   1.158   3.456
10831SOL    HW233393   3.972   1.153   3.309
10832SOL     OW33394   6.672   3.364   0.430
10832SOL    HW133395   6.647   3.453   0.467
10832SOL    HW233396   6.755   3.373   0.375
10833SOL     OW33397   0.257   1.091   0.026
10833SOL    HW133398   0.347   1.053   0.004
10833SOL    HW233399   0.255   1.120   0.122
10834SOL     OW33400   7.000   6.752   1.245
10834SOL    HW133401   7.002   6.654   1.230
10834SOL    HW233402   6.905   6.784   1.248
10835SOL     OW33403   0.231   2.087   5.959
10835SOL    HW133404   0.292   2.041   5.894
10835SOL    HW233405   0.255   2.060   6.052
10836SOL     OW33406   6.874   1.109   4.121
10836SOL    HW133407   6.780   1.141   4.109
10836SOL    HW233408   6.909   1.143   4.209
10837SOL     OW33409   0.392   3.649   2.894
10837SOL    HW133410   0.465   3.590   2.859
10837SOL    HW233411   0.314   3.594   2.923
10838SOL     OW33412   0.057   5.478   2.539
10838SOL    HW133413   0.076   5.405   2.474
10838SOL    HW233414   6.996   5.526   2.510
10839SOL     OW33415   5.182   2.572   1.481
10839SOL    HW133416   5.136   2.570   1.570
10839SOL    HW233417   5.280   2.589   1.495
10840SOL     OW33418   3.404   0.460   1.438
10840SOL    HW133419   3.340   0.495   1.370
10840SOL    HW233420   3.361   0.463   1.529
10841SOL     OW33421   1.696   5.311   5.216
10841SOL    HW133422   1.641   5.337   5.295
10841SOL    HW233423   1.793   5.320   5.239
10842SOL     OW33424   5.234   4.941   0.680
10842SOL    HW133425   5.271   4.855   0.716
10842SOL    HW233426   5.140   4.925   0.649
10843SOL     OW33427   2.341   2.166   1.385
10843SOL    HW133428   2.249   2.127   1.385
10843SOL    HW233429   2.339   2.257   1.427
10844SOL     OW33430   1.571   5.383   4.730
10844SOL    HW133431   1.487   5.414   4.773
10844SOL    HW233432   1.624   5.329   4.795
10845SOL     OW33433   4.493   6.823   4.769
10845SOL    HW133434   4.435   6.756   4.815
10845SOL    HW233435   4.584   6.823   4.811
10846SOL     OW33436   5.081   0.531   0.003
10846SOL    HW133437   5.040   0.446   6.992
10846SOL    HW233438   5.156   0.509   0.066
10847SOL     OW33439   1.964   0.936   6.565
10847SOL    HW133440   2.030   0.919   6.492
10847SOL    HW233441   1.946   1.034   6.570
10848SOL     OW33442   1.482   4.794   2.089
10848SOL    HW133443   1.531   4.737   2.155
10848SOL    HW233444   1.480   4.747   2.001
10849SOL     OW33445   2.261   6.612   4.379
10849SOL    HW133446   2.281   6.543   4.448
10849SOL    HW233447   2.185   6.582   4.322
10850SOL     OW33448   3.529   4.832   0.274
10850SOL    HW133449   3.588   4.840   0.194
10850SOL    HW233450   3.582   4.856   0.356
10851SOL     OW33451   2.099   5.311   0.635
10851SOL    HW133452   2.184   5.347   0.674
10851SOL    HW233453   2.099   5.325   0.536
10852SOL     OW33454   2.133   1.512   1.904
10852SOL    HW133455   2.041   1.518   1.865
10852SOL    HW233456   2.127   1.491   2.001
10853SOL     OW33457   2.720   2.044   6.173
10853SOL    HW133458   2.772   1.959   6.161
10853SOL    HW233459   2.738   2.106   6.097
10854SOL     OW33460   3.132   6.363   5.210
10854SOL    HW133461   3.064   6.295   5.183
10854SOL    HW233462   3.105   6.406   5.296
10855SOL     OW33463   3.380   1.246   6.712
10855SOL    HW133464   3.476   1.250   6.736
10855SOL    HW233465   3.339   1.163   6.751
10856SOL     OW33466   0.409   1.107   0.486
10856SOL    HW133467   0.335   1.133   0.424
10856SOL    HW233468   0.463   1.033   0.445
10857SOL     OW33469   6.639   2.138   2.449
10857SOL    HW133470   6.560   2.124   2.508
10857SOL    HW233471   6.718   2.164   2.504
10858SOL     OW33472   2.475   6.233   1.768
10858SOL    HW133473   2.401   6.213   1.703
10858SOL    HW233474   2.507   6.147   1.808
10859SOL     OW33475   1.883   5.624   3.345
10859SOL    HW133476   1.818   5.571   3.399
10859SOL    HW233477   1.837   5.666   3.267
10860SOL     OW33478   0.252   3.089   3.598
10860SOL    HW133479   0.351   3.099   3.610
10860SOL    HW233480   0.233   3.013   3.537
10861SOL     OW33481   4.152   3.325   5.081
10861SOL    HW133482   4.168   3.424   5.074
10861SOL    HW233483   4.059   3.308   5.112
10862SOL     OW33484   1.305   0.619   4.445
10862SOL    HW133485   1.321   0.701   4.501
10862SOL    HW233486   1.345   0.633   4.354
10863SOL     OW33487   3.398   6.083   4.667
10863SOL    HW133488   3.331   6.103   4.738
10863SOL    HW233489   3.357   6.097   4.577
10864SOL     OW33490   3.767   5.955   3.003
10864SOL    HW133491   3.866   5.959   3.016
10864SOL    HW233492   3.734   5.863   3.023
10865SOL     OW33493   6.415   1.988   6.063
10865SOL    HW133494   6.334   2.044   6.081
10865SOL    HW233495   6.405   1.944   5.974
10866SOL     OW33496   5.672   5.121   0.936
10866SOL    HW133497   5.576   5.145   0.948
10866SOL    HW233498   5.714   5.181   0.868
10867SOL     OW33499   3.410   1.834   0.081
10867SOL    HW133500   3.497   1.784   0.077
10867SOL    HW233501   3.425   1.922   0.127
10868SOL     OW33502   2.580   2.480   2.432
10868SOL    HW133503   2.498   2.495   2.377
10868SOL    HW233504   2.659   2.466   2.372
10869NA      NA33505   6.410   2.263   5.668
10870NA      NA33506   4.342   4.609   5.294
10871NA      NA33507   2.519   3.634   1.511
10872NA      NA33508   4.983   3.615   5.174
10873NA      NA33509   4.228   2.457   5.355
10874NA      NA33510   3.684   4.769   1.672
10875NA      NA33511   6.701   5.854   4.995
10876NA      NA33512   3.728   3.979   4.931
10877NA      NA33513   4.514   6.849   6.992
10878NA      NA33514   3.763   0.041   5.079
10879NA      NA33515   0.006   5.172   2.931
10880NA      NA33516   2.643   0.429   2.893
10881NA      NA33517   3.682   4.078   1.036
10882NA      NA33518   3.396   3.381   2.998
   7.02231   7.02231   7.02231
