Generated by trjconv : CNT in water t= 264.00000
33518
    1C        C    1   2.833   2.762   4.742
    1C        C    2   2.889   2.713   4.862
    1C        C    3   2.837   2.769   4.980
    1C        C    4   2.844   2.773   4.256
    1C        C    5   2.899   2.727   4.378
    1C        C    6   2.845   2.772   4.500
    1C        C    7   3.013   2.643   4.621
    1C        C    8   2.896   2.722   4.623
    1C        C    9   3.076   2.606   4.742
    1C        C   10   3.003   2.630   4.860
    1C        C   11   3.175   2.491   4.970
    1C        C   12   3.052   2.557   4.969
    1C        C   13   2.844   2.771   3.766
    1C        C   14   2.897   2.719   3.886
    1C        C   15   2.847   2.772   4.008
    1C        C   16   3.019   2.657   4.134
    1C        C   17   2.898   2.730   4.132
    1C        C   18   3.081   2.619   4.255
    1C        C   19   3.014   2.646   4.377
    1C        C   20   3.207   2.559   4.498
    1C        C   21   3.074   2.606   4.499
    1C        C   22   3.275   2.533   4.619
    1C        C   23   3.206   2.547   4.741
    1C        C   24   3.408   2.476   4.862
    1C        C   25   3.268   2.504   4.862
    1C        C   26   3.488   2.472   4.977
    1C        C   27   2.845   2.764   3.279
    1C        C   28   2.903   2.723   3.401
    1C        C   29   2.850   2.772   3.522
    1C        C   30   3.017   2.644   3.643
    1C        C   31   2.899   2.721   3.645
    1C        C   32   3.074   2.607   3.767
    1C        C   33   3.013   2.640   3.891
    1C        C   34   3.205   2.552   4.012
    1C        C   35   3.076   2.611   4.014
    1C        C   36   3.276   2.532   4.132
    1C        C   37   3.209   2.559   4.254
    1C        C   38   3.413   2.505   4.380
    1C        C   39   3.276   2.537   4.376
    1C        C   40   3.485   2.493   4.501
    1C        C   41   3.413   2.505   4.622
    1C        C   42   3.627   2.484   4.742
    1C        C   43   3.485   2.486   4.742
    1C        C   44   3.704   2.477   4.860
    1C        C   45   3.627   2.474   4.977
    1C        C   46   2.831   2.749   2.790
    1C        C   47   2.889   2.708   2.912
    1C        C   48   2.839   2.760   3.033
    1C        C   49   3.013   2.640   3.156
    1C        C   50   2.893   2.715   3.156
    1C        C   51   3.076   2.607   3.278
    1C        C   52   3.015   2.637   3.402
    1C        C   53   3.207   2.543   3.521
    1C        C   54   3.079   2.603   3.523
    1C        C   55   3.273   2.529   3.645
    1C        C   56   3.204   2.554   3.766
    1C        C   57   3.411   2.514   3.890
    1C        C   58   3.271   2.533   3.889
    1C        C   59   3.483   2.510   4.012
    1C        C   60   3.415   2.510   4.136
    1C        C   61   3.626   2.496   4.253
    1C        C   62   3.485   2.497   4.258
    1C        C   63   3.695   2.501   4.376
    1C        C   64   3.626   2.491   4.499
    1C        C   65   3.833   2.540   4.620
    1C        C   66   3.698   2.499   4.620
    1C        C   67   3.905   2.554   4.740
    1C        C   68   3.841   2.512   4.859
    1C        C   69   4.048   2.580   4.977
    1C        C   70   3.919   2.525   4.974
    1C        C   71   2.821   2.730   2.304
    1C        C   72   2.879   2.690   2.427
    1C        C   73   2.829   2.743   2.548
    1C        C   74   3.004   2.622   2.671
    1C        C   75   2.886   2.700   2.669
    1C        C   76   3.068   2.588   2.792
    1C        C   77   3.008   2.630   2.913
    1C        C   78   3.200   2.538   3.034
    1C        C   79   3.073   2.601   3.034
    1C        C   80   3.269   2.522   3.156
    1C        C   81   3.205   2.549   3.279
    1C        C   82   3.414   2.499   3.399
    1C        C   83   3.275   2.522   3.399
    1C        C   84   3.482   2.491   3.523
    1C        C   85   3.411   2.501   3.645
    1C        C   86   3.622   2.501   3.765
    1C        C   87   3.481   2.503   3.768
    1C        C   88   3.693   2.507   3.887
    1C        C   89   3.624   2.510   4.011
    1C        C   90   3.835   2.534   4.134
    1C        C   91   3.697   2.505   4.131
    1C        C   92   3.904   2.558   4.255
    1C        C   93   3.830   2.541   4.375
    1C        C   94   4.023   2.630   4.499
    1C        C   95   3.897   2.566   4.497
    1C        C   96   4.089   2.665   4.619
    1C        C   97   4.032   2.620   4.740
    1C        C   98   4.194   2.755   4.861
    1C        C   99   4.098   2.649   4.862
    1C        C  100   4.212   2.840   4.971
    1C        C  101   2.825   2.732   2.067
    1C        C  102   2.991   2.590   2.186
    1C        C  103   2.877   2.676   2.185
    1C        C  104   3.059   2.569   2.308
    1C        C  105   2.999   2.616   2.427
    1C        C  106   3.195   2.532   2.549
    1C        C  107   3.064   2.586   2.549
    1C        C  108   3.266   2.513   2.670
    1C        C  109   3.197   2.533   2.791
    1C        C  110   3.408   2.495   2.913
    1C        C  111   3.268   2.516   2.913
    1C        C  112   3.481   2.486   3.033
    1C        C  113   3.408   2.495   3.153
    1C        C  114   3.622   2.496   3.275
    1C        C  115   3.481   2.492   3.275
    1C        C  116   3.691   2.510   3.397
    1C        C  117   3.623   2.502   3.521
    1C        C  118   3.832   2.539   3.644
    1C        C  119   3.693   2.513   3.643
    1C        C  120   3.895   2.564   3.768
    1C        C  121   3.831   2.536   3.890
    1C        C  122   4.024   2.626   4.010
    1C        C  123   3.900   2.559   4.011
    1C        C  124   4.087   2.663   4.132
    1C        C  125   4.026   2.629   4.255
    1C        C  126   4.190   2.762   4.372
    1C        C  127   4.080   2.673   4.377
    1C        C  128   4.234   2.819   4.493
    1C        C  129   4.184   2.769   4.615
    1C        C  130   4.320   2.929   4.738
    1C        C  131   4.233   2.817   4.739
    1C        C  132   4.352   3.000   4.856
    1C        C  133   4.278   2.962   4.969
    1C        C  134   3.170   2.465   2.078
    1C        C  135   3.037   2.509   2.076
    1C        C  136   3.256   2.474   2.188
    1C        C  137   3.192   2.518   2.306
    1C        C  138   3.400   2.480   2.427
    1C        C  139   3.261   2.502   2.428
    1C        C  140   3.475   2.479   2.546
    1C        C  141   3.405   2.485   2.669
    1C        C  142   3.618   2.499   2.788
    1C        C  143   3.477   2.486   2.790
    1C        C  144   3.691   2.503   2.909
    1C        C  145   3.622   2.487   3.031
    1C        C  146   3.830   2.532   3.153
    1C        C  147   3.693   2.498   3.153
    1C        C  148   3.897   2.560   3.274
    1C        C  149   3.830   2.538   3.397
    1C        C  150   4.022   2.622   3.520
    1C        C  151   3.896   2.558   3.520
    1C        C  152   4.081   2.662   3.642
    1C        C  153   4.021   2.629   3.766
    1C        C  154   4.190   2.757   3.883
    1C        C  155   4.081   2.668   3.888
    1C        C  156   4.244   2.805   4.005
    1C        C  157   4.193   2.755   4.127
    1C        C  158   4.327   2.921   4.250
    1C        C  159   4.243   2.807   4.249
    1C        C  160   4.366   2.983   4.371
    1C        C  161   4.324   2.928   4.495
    1C        C  162   4.428   3.112   4.612
    1C        C  163   4.365   2.986   4.617
    1C        C  164   4.459   3.180   4.732
    1C        C  165   4.431   3.116   4.855
    1C        C  166   4.506   3.321   4.971
    1C        C  167   4.469   3.187   4.970
    1C        C  168   3.472   2.439   2.068
    1C        C  169   3.396   2.458   2.185
    1C        C  170   3.612   2.461   2.305
    1C        C  171   3.470   2.461   2.305
    1C        C  172   3.688   2.483   2.422
    1C        C  173   3.616   2.488   2.544
    1C        C  174   3.825   2.535   2.662
    1C        C  175   3.687   2.507   2.665
    1C        C  176   3.893   2.553   2.785
    1C        C  177   3.830   2.529   2.909
    1C        C  178   4.023   2.620   3.028
    1C        C  179   3.897   2.555   3.030
    1C        C  180   4.082   2.658   3.150
    1C        C  181   4.023   2.623   3.274
    1C        C  182   4.193   2.745   3.395
    1C        C  183   4.082   2.657   3.397
    1C        C  184   4.238   2.801   3.517
    1C        C  185   4.188   2.754   3.640
    1C        C  186   4.332   2.912   3.759
    1C        C  187   4.244   2.801   3.761
    1C        C  188   4.374   2.971   3.880
    1C        C  189   4.334   2.914   4.003
    1C        C  190   4.433   3.100   4.124
    1C        C  191   4.366   2.976   4.126
    1C        C  192   4.461   3.168   4.245
    1C        C  193   4.429   3.109   4.369
    1C        C  194   4.497   3.313   4.488
    1C        C  195   4.456   3.178   4.490
    1C        C  196   4.512   3.384   4.609
    1C        C  197   4.505   3.315   4.732
    1C        C  198   4.552   3.531   4.849
    1C        C  199   4.525   3.391   4.851
    1C        C  200   4.586   3.617   4.958
    1C        C  201   3.610   2.415   2.072
    1C        C  202   3.822   2.506   2.179
    1C        C  203   3.687   2.457   2.185
    1C        C  204   3.895   2.538   2.297
    1C        C  205   3.824   2.521   2.418
    1C        C  206   4.018   2.614   2.540
    1C        C  207   3.891   2.552   2.538
    1C        C  208   4.080   2.653   2.661
    1C        C  209   4.018   2.618   2.783
    1C        C  210   4.195   2.738   2.903
    1C        C  211   4.082   2.654   2.904
    1C        C  212   4.249   2.784   3.025
    1C        C  213   4.196   2.742   3.149
    1C        C  214   4.331   2.903   3.267
    1C        C  215   4.245   2.791   3.272
    1C        C  216   4.368   2.965   3.389
    1C        C  217   4.325   2.912   3.513
    1C        C  218   4.425   3.098   3.637
    1C        C  219   4.368   2.969   3.635
    1C        C  220   4.451   3.168   3.757
    1C        C  221   4.433   3.100   3.880
    1C        C  222   4.492   3.302   4.000
    1C        C  223   4.462   3.164   4.002
    1C        C  224   4.506   3.374   4.121
    1C        C  225   4.496   3.305   4.244
    1C        C  226   4.513   3.520   4.361
    1C        C  227   4.508   3.379   4.364
    1C        C  228   4.513   3.592   4.483
    1C        C  229   4.523   3.525   4.607
    1C        C  230   4.499   3.738   4.723
    1C        C  231   4.536   3.600   4.725
    1C        C  232   4.496   3.819   4.838
    1C        C  233   4.542   3.750   4.951
    1C        C  234   4.012   2.613   2.060
    1C        C  235   3.893   2.540   2.063
    1C        C  236   4.079   2.650   2.177
    1C        C  237   4.020   2.605   2.297
    1C        C  238   4.197   2.729   2.418
    1C        C  239   4.081   2.647   2.418
    1C        C  240   4.253   2.775   2.540
    1C        C  241   4.193   2.738   2.662
    1C        C  242   4.334   2.900   2.781
    1C        C  243   4.249   2.787   2.782
    1C        C  244   4.377   2.954   2.904
    1C        C  245   4.339   2.893   3.026
    1C        C  246   4.429   3.090   3.144
    1C        C  247   4.373   2.961   3.145
    1C        C  248   4.448   3.157   3.267
    1C        C  249   4.426   3.094   3.392
    1C        C  250   4.490   3.297   3.509
    1C        C  251   4.451   3.161   3.513
    1C        C  252   4.499   3.369   3.630
    1C        C  253   4.491   3.304   3.755
    1C        C  254   4.518   3.513   3.877
    1C        C  255   4.506   3.372   3.878
    1C        C  256   4.507   3.585   3.998
    1C        C  257   4.506   3.515   4.121
    1C        C  258   4.488   3.732   4.238
    1C        C  259   4.509   3.592   4.240
    1C        C  260   4.470   3.801   4.360
    1C        C  261   4.483   3.730   4.481
    1C        C  262   4.415   3.934   4.601
    1C        C  263   4.467   3.802   4.601
    1C        C  264   4.390   4.007   4.719
    1C        C  265   4.432   3.946   4.839
    1C        C  266   4.315   4.129   4.957
    1C        C  267   4.390   4.012   4.955
    1C        C  268   4.257   2.775   2.060
    1C        C  269   4.194   2.731   2.177
    1C        C  270   4.347   2.884   2.297
    1C        C  271   4.248   2.782   2.298
    1C        C  272   4.379   2.951   2.417
    1C        C  273   4.336   2.889   2.537
    1C        C  274   4.437   3.080   2.659
    1C        C  275   4.372   2.955   2.657
    1C        C  276   4.462   3.150   2.780
    1C        C  277   4.440   3.081   2.901
    1C        C  278   4.496   3.289   3.020
    1C        C  279   4.457   3.153   3.021
    1C        C  280   4.502   3.361   3.142
    1C        C  281   4.489   3.292   3.265
    1C        C  282   4.508   3.505   3.387
    1C        C  283   4.505   3.364   3.386
    1C        C  284   4.509   3.578   3.508
    1C        C  285   4.512   3.510   3.632
    1C        C  286   4.486   3.720   3.750
    1C        C  287   4.518   3.582   3.753
    1C        C  288   4.467   3.790   3.871
    1C        C  289   4.482   3.724   3.994
    1C        C  290   4.416   3.928   4.110
    1C        C  291   4.471   3.798   4.114
    1C        C  292   4.394   3.993   4.233
    1C        C  293   4.423   3.934   4.358
    1C        C  294   4.322   4.123   4.474
    1C        C  295   4.387   3.998   4.479
    1C        C  296   4.280   4.186   4.593
    1C        C  297   4.318   4.130   4.717
    1C        C  298   4.192   4.308   4.834
    1C        C  299   4.274   4.191   4.838
    1C        C  300   4.166   4.399   4.941
    1C        C  301   4.347   2.881   2.058
    1C        C  302   4.468   3.063   2.174
    1C        C  303   4.394   2.941   2.176
    1C        C  304   4.476   3.140   2.294
    1C        C  305   4.442   3.077   2.415
    1C        C  306   4.499   3.282   2.531
    1C        C  307   4.466   3.144   2.537
    1C        C  308   4.507   3.352   2.653
    1C        C  309   4.498   3.287   2.777
    1C        C  310   4.520   3.499   2.897
    1C        C  311   4.515   3.358   2.898
    1C        C  312   4.515   3.572   3.018
    1C        C  313   4.507   3.502   3.141
    1C        C  314   4.477   3.712   3.259
    1C        C  315   4.496   3.572   3.263
    1C        C  316   4.464   3.781   3.381
    1C        C  317   4.481   3.716   3.506
    1C        C  318   4.413   3.918   3.623
    1C        C  319   4.463   3.786   3.627
    1C        C  320   4.384   3.984   3.744
    1C        C  321   4.416   3.922   3.867
    1C        C  322   4.315   4.112   3.988
    1C        C  323   4.386   3.990   3.987
    1C        C  324   4.274   4.169   4.111
    1C        C  325   4.322   4.115   4.232
    1C        C  326   4.186   4.284   4.350
    1C        C  327   4.284   4.182   4.351
    1C        C  328   4.132   4.336   4.470
    1C        C  329   4.183   4.289   4.592
    1C        C  330   4.014   4.425   4.712
    1C        C  331   4.130   4.344   4.711
    1C        C  332   3.970   4.491   4.829
    1C        C  333   4.050   4.478   4.943
    1C        C  334   4.542   3.264   2.057
    1C        C  335   4.530   3.124   2.061
    1C        C  336   4.534   3.347   2.170
    1C        C  337   4.512   3.278   2.290
    1C        C  338   4.520   3.494   2.408
    1C        C  339   4.518   3.353   2.410
    1C        C  340   4.519   3.564   2.530
    1C        C  341   4.512   3.494   2.653
    1C        C  342   4.494   3.707   2.769
    1C        C  343   4.510   3.567   2.774
    1C        C  344   4.478   3.780   2.889
    1C        C  345   4.491   3.711   3.011
    1C        C  346   4.422   3.910   3.135
    1C        C  347   4.466   3.776   3.134
    1C        C  348   4.386   3.976   3.255
    1C        C  349   4.417   3.915   3.378
    1C        C  350   4.314   4.102   3.497
    1C        C  351   4.388   3.982   3.499
    1C        C  352   4.274   4.165   3.618
    1C        C  353   4.317   4.108   3.740
    1C        C  354   4.176   4.265   3.862
    1C        C  355   4.272   4.161   3.863
    1C        C  356   4.120   4.313   3.983
    1C        C  357   4.174   4.268   4.106
    1C        C  358   4.011   4.404   4.222
    1C        C  359   4.127   4.323   4.227
    1C        C  360   3.951   4.440   4.345
    1C        C  361   4.016   4.417   4.468
    1C        C  362   3.825   4.514   4.588
    1C        C  363   3.953   4.455   4.588
    1C        C  364   3.759   4.546   4.709
    1C        C  365   3.838   4.540   4.826
    1C        C  366   3.626   4.583   4.944
    1C        C  367   3.765   4.569   4.942
    1C        C  368   4.503   3.559   2.048
    1C        C  369   4.527   3.488   2.167
    1C        C  370   4.501   3.704   2.284
    1C        C  371   4.523   3.564   2.285
    1C        C  372   4.482   3.774   2.405
    1C        C  373   4.498   3.703   2.526
    1C        C  374   4.423   3.906   2.645
    1C        C  375   4.477   3.775   2.646
    1C        C  376   4.391   3.972   2.765
    1C        C  377   4.426   3.912   2.889
    1C        C  378   4.321   4.093   3.008
    1C        C  379   4.400   3.976   3.012
    1C        C  380   4.270   4.150   3.127
    1C        C  381   4.306   4.092   3.251
    1C        C  382   4.173   4.256   3.372
    1C        C  383   4.272   4.155   3.373
    1C        C  384   4.118   4.304   3.492
    1C        C  385   4.170   4.261   3.616
    1C        C  386   4.003   4.387   3.738
    1C        C  387   4.120   4.308   3.740
    1C        C  388   3.941   4.428   3.859
    1C        C  389   4.004   4.394   3.981
    1C        C  390   3.810   4.481   4.104
    1C        C  391   3.942   4.431   4.103
    1C        C  392   3.746   4.505   4.227
    1C        C  393   3.821   4.495   4.347
    1C        C  394   3.613   4.548   4.469
    1C        C  395   3.752   4.524   4.467
    1C        C  396   3.543   4.560   4.591
    1C        C  397   3.619   4.558   4.711
    1C        C  398   3.406   4.546   4.836
    1C        C  399   3.545   4.566   4.831
    1C        C  400   3.336   4.513   4.953
    1C        C  401   4.501   3.698   2.050
    1C        C  402   4.451   3.914   2.162
    1C        C  403   4.488   3.778   2.165
    1C        C  404   4.411   3.976   2.282
    1C        C  405   4.434   3.907   2.403
    1C        C  406   4.322   4.091   2.522
    1C        C  407   4.402   3.975   2.523
    1C        C  408   4.272   4.146   2.642
    1C        C  409   4.316   4.091   2.764
    1C        C  410   4.170   4.243   2.885
    1C        C  411   4.272   4.146   2.887
    1C        C  412   4.116   4.293   3.006
    1C        C  413   4.171   4.251   3.129
    1C        C  414   4.000   4.380   3.247
    1C        C  415   4.116   4.299   3.250
    1C        C  416   3.937   4.411   3.370
    1C        C  417   4.000   4.381   3.493
    1C        C  418   3.807   4.466   3.615
    1C        C  419   3.939   4.416   3.616
    1C        C  420   3.741   4.498   3.736
    1C        C  421   3.809   4.476   3.858
    1C        C  422   3.605   4.529   3.983
    1C        C  423   3.743   4.499   3.981
    1C        C  424   3.534   4.535   4.106
    1C        C  425   3.607   4.530   4.227
    1C        C  426   3.398   4.540   4.353
    1C        C  427   3.539   4.546   4.349
    1C        C  428   3.328   4.538   4.476
    1C        C  429   3.403   4.548   4.595
    1C        C  430   3.191   4.513   4.721
    1C        C  431   3.331   4.540   4.716
    1C        C  432   3.120   4.491   4.842
    1C        C  433   3.198   4.500   4.958
    1C        C  434   4.377   4.116   2.046
    1C        C  435   4.441   3.992   2.046
    1C        C  436   4.297   4.156   2.158
    1C        C  437   4.338   4.098   2.282
    1C        C  438   4.173   4.242   2.397
    1C        C  439   4.280   4.150   2.400
    1C        C  440   4.116   4.287   2.518
    1C        C  441   4.172   4.246   2.641
    1C        C  442   4.000   4.370   2.762
    1C        C  443   4.117   4.291   2.763
    1C        C  444   3.940   4.413   2.882
    1C        C  445   4.000   4.374   3.004
    1C        C  446   3.805   4.462   3.127
    1C        C  447   3.936   4.410   3.125
    1C        C  448   3.740   4.490   3.249
    1C        C  449   3.808   4.470   3.372
    1C        C  450   3.601   4.519   3.493
    1C        C  451   3.739   4.491   3.493
    1C        C  452   3.532   4.525   3.617
    1C        C  453   3.603   4.526   3.739
    1C        C  454   3.392   4.538   3.863
    1C        C  455   3.534   4.538   3.861
    1C        C  456   3.324   4.528   3.987
    1C        C  457   3.393   4.532   4.110
    1C        C  458   3.186   4.499   4.232
    1C        C  459   3.324   4.529   4.233
    1C        C  460   3.122   4.483   4.357
    1C        C  461   3.189   4.510   4.479
    1C        C  462   2.993   4.430   4.601
    1C        C  463   3.122   4.488   4.600
    1C        C  464   2.928   4.395   4.722
    1C        C  465   2.986   4.440   4.843
    1C        C  466   2.797   4.334   4.958
    1C        C  467   2.898   4.431   4.955
    1C        C  468   4.115   4.276   2.038
    1C        C  469   4.183   4.242   2.156
    1C        C  470   4.004   4.370   2.275
    1C        C  471   4.121   4.289   2.275
    1C        C  472   3.939   4.400   2.396
    1C        C  473   4.002   4.371   2.519
    1C        C  474   3.809   4.463   2.641
    1C        C  475   3.937   4.404   2.640
    1C        C  476   3.741   4.489   2.762
    1C        C  477   3.810   4.467   2.884
    1C        C  478   3.601   4.519   3.005
    1C        C  479   3.738   4.486   3.004
    1C        C  480   3.530   4.528   3.127
    1C        C  481   3.602   4.520   3.249
    1C        C  482   3.390   4.530   3.375
    1C        C  483   3.531   4.530   3.371
    1C        C  484   3.320   4.527   3.497
    1C        C  485   3.391   4.537   3.618
    1C        C  486   3.185   4.497   3.742
    1C        C  487   3.321   4.535   3.741
    1C        C  488   3.119   4.476   3.865
    1C        C  489   3.187   4.496   3.987
    1C        C  490   2.992   4.417   4.112
    1C        C  491   3.118   4.481   4.109
    1C        C  492   2.934   4.385   4.237
    1C        C  493   2.992   4.428   4.359
    1C        C  494   2.824   4.300   4.479
    1C        C  495   2.930   4.393   4.480
    1C        C  496   2.771   4.251   4.600
    1C        C  497   2.814   4.309   4.722
    1C        C  498   2.665   4.158   4.840
    1C        C  499   2.753   4.269   4.842
    1C        C  500   2.593   4.115   4.952
    1C        C  501   3.999   4.353   2.039
    1C        C  502   3.807   4.457   2.153
    1C        C  503   3.936   4.400   2.155
    1C        C  504   3.735   4.465   2.274
    1C        C  505   3.805   4.446   2.395
    1C        C  506   3.602   4.503   2.519
    1C        C  507   3.740   4.473   2.518
    1C        C  508   3.530   4.511   2.640
    1C        C  509   3.602   4.515   2.761
    1C        C  510   3.389   4.523   2.884
    1C        C  511   3.530   4.520   2.883
    1C        C  512   3.316   4.517   3.005
    1C        C  513   3.389   4.526   3.126
    1C        C  514   3.187   4.488   3.254
    1C        C  515   3.323   4.525   3.250
    1C        C  516   3.116   4.466   3.374
    1C        C  517   3.183   4.491   3.496
    1C        C  518   2.992   4.409   3.621
    1C        C  519   3.117   4.475   3.620
    1C        C  520   2.937   4.369   3.745
    1C        C  521   2.994   4.410   3.868
    1C        C  522   2.832   4.276   3.991
    1C        C  523   2.937   4.371   3.991
    1C        C  524   2.784   4.234   4.117
    1C        C  525   2.828   4.292   4.237
    1C        C  526   2.690   4.131   4.362
    1C        C  527   2.773   4.245   4.359
    1C        C  528   2.655   4.069   4.485
    1C        C  529   2.696   4.132   4.604
    1C        C  530   2.581   3.952   4.728
    1C        C  531   2.645   4.079   4.725
    1C        C  532   2.534   3.898   4.851
    1C        C  533   2.520   3.995   4.956
    1C        C  534   3.615   4.558   2.040
    1C        C  535   3.747   4.510   2.038
    1C        C  536   3.532   4.537   2.154
    1C        C  537   3.598   4.503   2.276
    1C        C  538   3.388   4.511   2.399
    1C        C  539   3.529   4.511   2.399
    1C        C  540   3.316   4.506   2.520
    1C        C  541   3.389   4.513   2.641
    1C        C  542   3.179   4.481   2.762
    1C        C  543   3.317   4.513   2.763
    1C        C  544   3.114   4.460   2.885
    1C        C  545   3.180   4.481   3.009
    1C        C  546   2.992   4.394   3.131
    1C        C  547   3.118   4.458   3.134
    1C        C  548   2.932   4.363   3.255
    1C        C  549   2.987   4.408   3.377
    1C        C  550   2.824   4.277   3.502
    1C        C  551   2.929   4.372   3.501
    1C        C  552   2.777   4.230   3.626
    1C        C  553   2.829   4.278   3.748
    1C        C  554   2.693   4.115   3.873
    1C        C  555   2.778   4.227   3.870
    1C        C  556   2.658   4.058   3.997
    1C        C  557   2.701   4.119   4.117
    1C        C  558   2.597   3.939   4.242
    1C        C  559   2.662   4.064   4.241
    1C        C  560   2.564   3.875   4.364
    1C        C  561   2.591   3.943   4.485
    1C        C  562   2.526   3.744   4.612
    1C        C  563   2.563   3.880   4.608
    1C        C  564   2.514   3.678   4.736
    1C        C  565   2.514   3.757   4.855
    1C        C  566   2.520   3.542   4.974
    1C        C  567   2.521   3.681   4.972
    1C        C  568   3.325   4.474   2.039
    1C        C  569   3.391   4.515   2.155
    1C        C  570   3.181   4.465   2.274
    1C        C  571   3.318   4.506   2.276
    1C        C  572   3.112   4.456   2.397
    1C        C  573   3.177   4.480   2.520
    1C        C  574   2.980   4.401   2.641
    1C        C  575   3.108   4.461   2.641
    1C        C  576   2.922   4.363   2.764
    1C        C  577   2.987   4.398   2.884
    1C        C  578   2.825   4.267   3.010
    1C        C  579   2.934   4.357   3.008
    1C        C  580   2.776   4.220   3.134
    1C        C  581   2.826   4.269   3.256
    1C        C  582   2.692   4.109   3.382
    1C        C  583   2.777   4.222   3.380
    1C        C  584   2.655   4.056   3.507
    1C        C  585   2.688   4.119   3.629
    1C        C  586   2.591   3.930   3.753
    1C        C  587   2.649   4.059   3.751
    1C        C  588   2.567   3.866   3.876
    1C        C  589   2.594   3.932   3.998
    1C        C  590   2.532   3.733   4.127
    1C        C  591   2.570   3.869   4.122
    1C        C  592   2.518   3.666   4.250
    1C        C  593   2.531   3.738   4.371
    1C        C  594   2.508   3.528   4.497
    1C        C  595   2.518   3.668   4.493
    1C        C  596   2.509   3.457   4.620
    1C        C  597   2.512   3.536   4.737
    1C        C  598   2.524   3.322   4.859
    1C        C  599   2.522   3.463   4.858
    1C        C  600   2.526   3.244   4.976
    1C        C  601   3.193   4.431   2.037
    1C        C  602   2.979   4.388   2.155
    1C        C  603   3.115   4.432   2.153
    1C        C  604   2.920   4.354   2.280
    1C        C  605   2.987   4.391   2.399
    1C        C  606   2.817   4.263   2.524
    1C        C  607   2.923   4.356   2.520
    1C        C  608   2.767   4.217   2.647
    1C        C  609   2.815   4.270   2.769
    1C        C  610   2.682   4.104   2.895
    1C        C  611   2.768   4.217   2.891
    1C        C  612   2.644   4.048   3.019
    1C        C  613   2.690   4.108   3.138
    1C        C  614   2.587   3.923   3.264
    1C        C  615   2.650   4.050   3.260
    1C        C  616   2.564   3.861   3.389
    1C        C  617   2.591   3.930   3.509
    1C        C  618   2.530   3.726   3.634
    1C        C  619   2.566   3.862   3.631
    1C        C  620   2.513   3.659   3.758
    1C        C  621   2.528   3.730   3.879
    1C        C  622   2.508   3.524   4.008
    1C        C  623   2.515   3.665   4.004
    1C        C  624   2.508   3.453   4.130
    1C        C  625   2.508   3.525   4.252
    1C        C  626   2.535   3.317   4.376
    1C        C  627   2.512   3.456   4.375
    1C        C  628   2.556   3.249   4.499
    1C        C  629   2.535   3.318   4.620
    1C        C  630   2.586   3.112   4.743
    1C        C  631   2.539   3.247   4.741
    1C        C  632   2.607   3.043   4.865
    1C        C  633   2.559   3.108   4.983
    1C        C  634   2.774   4.301   2.049
    1C        C  635   2.888   4.382   2.045
    1C        C  636   2.741   4.227   2.163
    1C        C  637   2.805   4.270   2.282
    1C        C  638   2.677   4.100   2.409
    1C        C  639   2.762   4.213   2.403
    1C        C  640   2.640   4.042   2.532
    1C        C  641   2.685   4.101   2.652
    1C        C  642   2.582   3.916   2.773
    1C        C  643   2.642   4.044   2.774
    1C        C  644   2.560   3.851   2.897
    1C        C  645   2.585   3.919   3.018
    1C        C  646   2.529   3.719   3.145
    1C        C  647   2.566   3.855   3.143
    1C        C  648   2.516   3.653   3.270
    1C        C  649   2.525   3.725   3.391
    1C        C  650   2.502   3.514   3.518
    1C        C  651   2.516   3.655   3.513
    1C        C  652   2.503   3.445   3.641
    1C        C  653   2.500   3.519   3.762
    1C        C  654   2.526   3.312   3.886
    1C        C  655   2.505   3.452   3.886
    1C        C  656   2.547   3.245   4.009
    1C        C  657   2.530   3.314   4.131
    1C        C  658   2.597   3.115   4.256
    1C        C  659   2.546   3.247   4.254
    1C        C  660   2.629   3.051   4.378
    1C        C  661   2.595   3.113   4.500
    1C        C  662   2.700   2.931   4.622
    1C        C  663   2.620   3.047   4.622
    1C        C  664   2.746   2.875   4.743
    1C        C  665   2.693   2.928   4.864
    1C        C  666   2.738   2.867   4.981
    1C        C  667   2.675   4.021   2.052
    1C        C  668   2.678   4.101   2.167
    1C        C  669   2.590   3.905   2.288
    1C        C  670   2.640   4.038   2.288
    1C        C  671   2.560   3.843   2.412
    1C        C  672   2.581   3.914   2.532
    1C        C  673   2.516   3.710   2.655
    1C        C  674   2.557   3.845   2.654
    1C        C  675   2.506   3.643   2.779
    1C        C  676   2.523   3.715   2.899
    1C        C  677   2.503   3.507   3.027
    1C        C  678   2.517   3.648   3.024
    1C        C  679   2.507   3.439   3.150
    1C        C  680   2.501   3.512   3.271
    1C        C  681   2.524   3.305   3.396
    1C        C  682   2.502   3.445   3.395
    1C        C  683   2.543   3.237   3.518
    1C        C  684   2.526   3.305   3.640
    1C        C  685   2.599   3.112   3.769
    1C        C  686   2.543   3.241   3.765
    1C        C  687   2.631   3.050   3.892
    1C        C  688   2.597   3.113   4.014
    1C        C  689   2.703   2.929   4.134
    1C        C  690   2.626   3.047   4.135
    1C        C  691   2.744   2.873   4.257
    1C        C  692   2.706   2.933   4.379
    1C        C  693   2.751   2.877   4.501
    1C        C  694   2.633   3.887   2.057
    1C        C  695   2.519   3.699   2.171
    1C        C  696   2.575   3.828   2.171
    1C        C  697   2.506   3.632   2.295
    1C        C  698   2.518   3.708   2.413
    1C        C  699   2.479   3.499   2.538
    1C        C  700   2.495   3.639   2.534
    1C        C  701   2.491   3.431   2.661
    1C        C  702   2.492   3.503   2.783
    1C        C  703   2.515   3.293   2.908
    1C        C  704   2.499   3.433   2.906
    1C        C  705   2.535   3.225   3.031
    1C        C  706   2.529   3.299   3.151
    1C        C  707   2.594   3.102   3.275
    1C        C  708   2.546   3.235   3.275
    1C        C  709   2.631   3.044   3.399
    1C        C  710   2.602   3.108   3.521
    1C        C  711   2.704   2.929   3.644
    1C        C  712   2.629   3.049   3.646
    1C        C  713   2.749   2.875   3.767
    1C        C  714   2.709   2.932   3.890
    1C        C  715   2.749   2.874   4.012
    1C        C  716   2.443   3.496   2.057
    1C        C  717   2.492   3.627   2.054
    1C        C  718   2.465   3.419   2.176
    1C        C  719   2.482   3.491   2.297
    1C        C  720   2.506   3.284   2.421
    1C        C  721   2.476   3.422   2.419
    1C        C  722   2.530   3.219   2.545
    1C        C  723   2.515   3.292   2.665
    1C        C  724   2.580   3.090   2.788
    1C        C  725   2.528   3.222   2.787
    1C        C  726   2.606   3.025   2.911
    1C        C  727   2.574   3.089   3.033
    1C        C  728   2.700   2.917   3.154
    1C        C  729   2.620   3.033   3.154
    1C        C  730   2.744   2.863   3.277
    1C        C  731   2.708   2.925   3.399
    1C        C  732   2.751   2.873   3.523
    1C        C  733   2.482   3.193   2.067
    1C        C  734   2.489   3.278   2.179
    1C        C  735   2.580   3.083   2.302
    1C        C  736   2.518   3.211   2.301
    1C        C  737   2.614   3.019   2.423
    1C        C  738   2.584   3.089   2.542
    1C        C  739   2.698   2.913   2.665
    1C        C  740   2.619   3.030   2.666
    1C        C  741   2.737   2.855   2.788
    1C        C  742   2.691   2.913   2.909
    1C        C  743   2.742   2.862   3.031
    1C        C  744   2.539   3.067   2.069
    1C        C  745   2.679   2.893   2.181
    1C        C  746   2.605   3.014   2.181
    1C        C  747   2.726   2.835   2.301
    1C        C  748   2.688   2.899   2.421
    1C        C  749   2.736   2.850   2.545
    1C        C  750   2.726   2.829   2.066
    1C        C  751   3.652   2.307   1.979
    1C        O  752   3.606   2.190   1.985
    1C        O  753   3.673   2.341   1.844
    1C        C  754   4.602   3.047   1.957
    1C        O  755   4.559   3.039   1.839
    1C        O  756   4.741   3.041   1.972
    1C        C  757   4.458   4.212   1.967
    1C        O  758   4.542   4.292   2.018
    1C        O  759   4.451   4.204   1.828
    1C        C  760   3.567   4.640   1.927
    1C        O  761   3.575   4.761   1.959
    1C        O  762   3.609   4.624   1.794
    1C        C  763   2.881   4.485   1.938
    1C        O  764   2.946   4.481   1.831
    1C        O  765   2.816   4.608   1.956
    1C        C  766   2.328   3.472   1.967
    1C        O  767   2.338   3.431   1.848
    1C        O  768   2.200   3.524   1.991
    1C        C  769   4.700   3.590   5.048
    1C        O  770   4.687   3.594   5.173
    1C        O  771   4.822   3.650   5.012
    1C        C  772   4.274   4.448   5.031
    1C        O  773   4.256   4.432   5.155
    1C        O  774   4.403   4.487   4.993
    1C        C  775   4.144   2.515   5.069
    1C        O  776   4.225   2.430   5.023
    1C        O  777   4.115   2.488   5.203
    1C        C  778   2.870   4.548   5.042
    1C        O  779   2.821   4.652   4.991
    1C        O  780   2.850   4.523   5.178
    1C        C  781   2.460   3.039   5.069
    1C        O  782   2.341   3.029   5.030
    1C        O  783   2.472   3.049   5.207
    1C        C  784   2.402   3.998   5.045
    1C        O  785   2.280   4.013   5.015
    1C        O  786   2.421   3.975   5.181
    1C        C  787   2.957   2.469   1.958
    1C        O  788   2.989   2.502   1.841
    1C        O  789   2.891   2.347   1.964
    1C        C  790   3.171   2.360   5.038
    1C        O  791   3.153   2.248   4.982
    1C        O  792   3.209   2.346   5.172
    1C        H  793   4.207   3.039   4.993
    1C        H  794   4.160   2.812   5.061
    1C        H  795   4.518   3.132   5.048
    1C        H  796   4.527   3.373   5.062
    1C        H  797   4.536   3.798   5.046
    1C        H  798   4.422   3.974   5.050
    1C        H  799   4.260   4.144   5.048
    1C        H  800   4.051   4.565   5.005
    1C        H  801   3.821   4.604   5.026
    1C        H  802   3.580   4.622   5.033
    1C        H  803   3.385   4.481   5.042
    1C        H  804   3.161   4.461   5.051
    1C        H  805   3.877   2.503   5.070
    1C        H  806   3.670   2.431   5.065
    1C        H  807   2.984   2.537   5.050
    1C        H  808   3.449   2.410   5.054
    1C        H  809   2.907   2.781   5.060
    1C        H  810   2.740   2.932   5.066
    1C        H  811   2.463   3.286   5.052
    1C        H  812   2.506   3.494   5.069
    1C        H  813   2.580   3.730   5.047
    1C        H  814   2.569   4.185   5.029
    1C        H  815   2.741   4.319   5.048
    1C        H  816   2.709   2.870   1.968
    1C        H  817   2.853   2.698   1.969
    1C        H  818   3.192   2.384   2.012
    1C        H  819   3.418   2.421   1.978
    1C        H  820   3.861   2.487   1.976
    1C        H  821   4.069   2.602   1.970
    1C        H  822   4.257   2.720   1.968
    1C        H  823   4.371   2.925   1.963
    1C        H  824   4.573   3.305   1.963
    1C        H  825   4.444   3.517   1.969
    1C        H  826   4.553   3.744   1.969
    1C        H  827   3.785   4.477   1.944
    1C        H  828   3.959   4.368   1.941
    1C        H  829   4.127   4.199   1.965
    1C        H  830   4.465   3.955   1.949
    1C        H  831   2.679   3.822   1.986
    1C        H  832   2.667   4.070   1.957
    1C        H  833   2.705   4.295   1.967
    1C        H  834   3.375   4.487   1.946
    1C        H  835   3.157   4.385   1.947
    1C        H  836   2.558   3.016   1.977
    1C        H  837   2.462   3.236   1.971
    1C        H  838   2.521   3.664   1.958
    2V3OU   H29  839   2.806   3.538   2.491
    2V3OU   C27  840   2.786   3.496   2.593
    2V3OU   H27  841   2.734   3.569   2.660
    2V3OU   H28  842   2.733   3.400   2.573
    2V3OU   O11  843   2.908   3.470   2.662
    2V3OU   C15  844   2.922   3.397   2.778
    2V3OU   C13  845   3.048   3.371   2.835
    2V3OU   C14  846   3.076   3.264   2.921
    2V3OU   C16  847   2.971   3.181   2.959
    2V3OU    H6  848   2.990   3.097   3.027
    2V3OU   C12  849   3.205   3.228   2.983
    2V3OU    O2  850   3.228   3.121   3.044
    2V3OU   C10  851   3.322   3.303   2.935
    2V3OU    C8  852   3.451   3.267   2.972
    2V3OU   O10  853   3.484   3.149   3.031
    2V3OU   H26  854   3.403   3.115   3.071
    2V3OU    C6  855   3.563   3.343   2.927
    2V3OU    C5  856   3.539   3.465   2.864
    2V3OU    C4  857   3.701   3.288   2.929
    2V3OU    H4  858   3.724   3.226   3.021
    2V3OU    H5  859   3.711   3.218   2.841
    2V3OU    C2  860   3.811   3.395   2.926
    2V3OU    O6  861   3.807   3.470   3.047
    2V3OU   H21  862   3.769   3.554   3.016
    2V3OU    C3  863   3.779   3.492   2.813
    2V3OU    H2  864   3.863   3.565   2.813
    2V3OU    H3  865   3.770   3.432   2.718
    2V3OU   C25  866   3.944   3.320   2.917
    2V3OU    O7  867   3.994   3.287   2.809
    2V3OU   C26  868   4.024   3.282   3.041
    2V3OU   H22  869   4.062   3.372   3.095
    2V3OU   H23  870   4.114   3.222   3.011
    2V3OU    O8  871   3.956   3.203   3.136
    2V3OU   H24  872   3.922   3.267   3.200
    2V3OU    C1  873   3.646   3.564   2.833
    2V3OU    H1  874   3.614   3.609   2.734
    2V3OU    O3  875   3.657   3.655   2.943
    2V3OU   C19  876   3.613   3.790   2.932
    2V3OU    H9  877   3.517   3.801   2.873
    2V3OU    O4  878   3.711   3.844   2.847
    2V3OU   C20  879   3.842   3.872   2.897
    2V3OU   H10  880   3.897   3.774   2.905
    2V3OU   C24  881   3.605   3.850   3.073
    2V3OU   H16  882   3.540   3.782   3.132
    2V3OU   H17  883   3.563   3.953   3.060
    2V3OU   C23  884   3.746   3.874   3.128
    2V3OU   H15  885   3.785   3.771   3.156
    2V3OU    N1  886   3.733   3.950   3.252
    2V3OU   H19  887   3.804   3.917   3.314
    2V3OU   H20  888   3.645   3.920   3.288
    2V3OU   C21  889   3.846   3.945   3.032
    2V3OU   H11  890   3.943   3.924   3.087
    2V3OU    O5  891   3.829   4.086   3.037
    2V3OU   H18  892   3.780   4.102   3.119
    2V3OU   C22  893   3.914   3.948   2.787
    2V3OU   H12  894   3.863   4.044   2.761
    2V3OU   H13  895   3.903   3.891   2.691
    2V3OU   H14  896   4.022   3.961   2.816
    2V3OU   C11  897   3.158   3.467   2.819
    2V3OU    O1  898   3.133   3.581   2.773
    2V3OU    C9  899   3.291   3.424   2.867
    2V3OU    C7  900   3.403   3.501   2.836
    2V3OU    O9  901   3.385   3.616   2.763
    2V3OU   H25  902   3.290   3.630   2.756
    2V3OU   C17  903   2.820   3.311   2.822
    2V3OU    H7  904   2.721   3.349   2.797
    2V3OU   C18  905   2.842   3.209   2.913
    2V3OU    H8  906   2.775   3.162   2.987
    3SOL     OW  907   2.036   5.439   0.054
    3SOL    HW1  908   2.003   5.375   7.001
    3SOL    HW2  909   2.039   5.531   0.015
    4SOL     OW  910   6.746   0.658   2.186
    4SOL    HW1  911   6.770   0.565   2.159
    4SOL    HW2  912   6.668   0.654   2.250
    5SOL     OW  913   4.350   1.793   2.208
    5SOL    HW1  914   4.250   1.789   2.210
    5SOL    HW2  915   4.380   1.887   2.226
    6SOL     OW  916   3.983   0.726   1.631
    6SOL    HW1  917   3.931   0.771   1.558
    6SOL    HW2  918   4.059   0.674   1.592
    7SOL     OW  919   0.522   4.082   3.217
    7SOL    HW1  920   0.502   3.984   3.223
    7SOL    HW2  921   0.442   4.134   3.245
    8SOL     OW  922   3.129   0.838   5.810
    8SOL    HW1  923   3.061   0.778   5.852
    8SOL    HW2  924   3.220   0.816   5.847
    9SOL     OW  925   4.672   1.057   5.894
    9SOL    HW1  926   4.653   0.998   5.973
    9SOL    HW2  927   4.624   1.022   5.814
   10SOL     OW  928   1.783   4.798   5.021
   10SOL    HW1  929   1.855   4.730   5.024
   10SOL    HW2  930   1.769   4.830   4.927
   11SOL     OW  931   3.001   0.804   5.523
   11SOL    HW1  932   3.037   0.808   5.616
   11SOL    HW2  933   3.068   0.842   5.459
   12SOL     OW  934   3.088   5.803   3.720
   12SOL    HW1  935   3.057   5.844   3.634
   12SOL    HW2  936   3.185   5.780   3.713
   13SOL     OW  937   4.017   6.508   4.070
   13SOL    HW1  938   3.941   6.525   4.008
   13SOL    HW2  939   4.045   6.412   4.063
   14SOL     OW  940   3.724   5.177   6.208
   14SOL    HW1  941   3.683   5.257   6.252
   14SOL    HW2  942   3.815   5.200   6.174
   15SOL     OW  943   0.979   6.534   1.796
   15SOL    HW1  944   1.010   6.584   1.715
   15SOL    HW2  945   0.879   6.530   1.796
   16SOL     OW  946   5.446   2.492   6.327
   16SOL    HW1  947   5.354   2.465   6.355
   16SOL    HW2  948   5.509   2.415   6.342
   17SOL     OW  949   5.727   6.335   6.445
   17SOL    HW1  950   5.778   6.420   6.441
   17SOL    HW2  951   5.654   6.343   6.514
   18SOL     OW  952   3.515   1.374   5.345
   18SOL    HW1  953   3.426   1.383   5.301
   18SOL    HW2  954   3.550   1.281   5.329
   19SOL     OW  955   0.066   0.862   2.843
   19SOL    HW1  956   0.115   0.776   2.830
   19SOL    HW2  957   0.131   0.938   2.841
   20SOL     OW  958   4.925   1.775   4.157
   20SOL    HW1  959   4.923   1.676   4.148
   20SOL    HW2  960   4.896   1.818   4.072
   21SOL     OW  961   2.937   0.682   1.995
   21SOL    HW1  962   2.844   0.699   2.026
   21SOL    HW2  963   2.998   0.753   2.032
   22SOL     OW  964   1.010   6.420   6.857
   22SOL    HW1  965   1.057   6.500   6.819
   22SOL    HW2  966   1.051   6.336   6.821
   23SOL     OW  967   5.862   5.294   2.356
   23SOL    HW1  968   5.804   5.376   2.362
   23SOL    HW2  969   5.917   5.300   2.272
   24SOL     OW  970   3.723   0.213   3.076
   24SOL    HW1  971   3.631   0.246   3.056
   24SOL    HW2  972   3.761   0.265   3.153
   25SOL     OW  973   3.952   0.515   4.364
   25SOL    HW1  974   3.948   0.614   4.377
   25SOL    HW2  975   4.043   0.490   4.330
   26SOL     OW  976   6.998   1.144   0.432
   26SOL    HW1  977   7.008   1.141   0.531
   26SOL    HW2  978   6.984   1.239   0.403
   27SOL     OW  979   1.675   1.491   2.417
   27SOL    HW1  980   1.745   1.495   2.488
   27SOL    HW2  981   1.667   1.581   2.374
   28SOL     OW  982   2.664   1.153   5.863
   28SOL    HW1  983   2.670   1.196   5.773
   28SOL    HW2  984   2.611   1.211   5.925
   29SOL     OW  985   6.289   1.624   2.069
   29SOL    HW1  986   6.192   1.619   2.047
   29SOL    HW2  987   6.305   1.580   2.157
   30SOL     OW  988   3.778   1.128   3.540
   30SOL    HW1  989   3.837   1.050   3.561
   30SOL    HW2  990   3.683   1.099   3.541
   31SOL     OW  991   0.522   2.433   6.339
   31SOL    HW1  992   0.429   2.398   6.334
   31SOL    HW2  993   0.545   2.452   6.435
   32SOL     OW  994   0.212   1.990   2.934
   32SOL    HW1  995   0.129   1.943   2.904
   32SOL    HW2  996   0.267   1.927   2.989
   33SOL     OW  997   0.847   4.438   5.443
   33SOL    HW1  998   0.841   4.516   5.382
   33SOL    HW2  999   0.936   4.439   5.490
   34SOL     OW 1000   2.559   6.578   4.887
   34SOL    HW1 1001   2.482   6.604   4.828
   34SOL    HW2 1002   2.639   6.634   4.865
   35SOL     OW 1003   4.829   3.037   6.192
   35SOL    HW1 1004   4.792   3.035   6.099
   35SOL    HW2 1005   4.928   3.049   6.188
   36SOL     OW 1006   5.046   1.207   4.672
   36SOL    HW1 1007   5.041   1.305   4.689
   36SOL    HW2 1008   4.955   1.172   4.650
   37SOL     OW 1009   1.264   2.138   6.276
   37SOL    HW1 1010   1.294   2.104   6.365
   37SOL    HW2 1011   1.200   2.072   6.236
   38SOL     OW 1012   0.864   5.164   2.733
   38SOL    HW1 1013   0.926   5.165   2.654
   38SOL    HW2 1014   0.834   5.258   2.752
   39SOL     OW 1015   6.476   4.663   6.315
   39SOL    HW1 1016   6.509   4.572   6.290
   39SOL    HW2 1017   6.404   4.692   6.252
   40SOL     OW 1018   4.573   1.726   0.633
   40SOL    HW1 1019   4.501   1.730   0.703
   40SOL    HW2 1020   4.637   1.802   0.647
   41SOL     OW 1021   6.945   4.647   3.627
   41SOL    HW1 1022   6.945   4.735   3.674
   41SOL    HW2 1023   0.012   4.596   3.652
   42SOL     OW 1024   3.093   4.888   4.247
   42SOL    HW1 1025   3.188   4.899   4.277
   42SOL    HW2 1026   3.042   4.972   4.263
   43SOL     OW 1027   4.762   6.955   5.593
   43SOL    HW1 1028   4.663   6.966   5.597
   43SOL    HW2 1029   4.806   0.012   5.646
   44SOL     OW 1030   4.745   2.016   5.767
   44SOL    HW1 1031   4.703   2.083   5.705
   44SOL    HW2 1032   4.711   2.029   5.860
   45SOL     OW 1033   4.938   5.843   1.446
   45SOL    HW1 1034   4.853   5.838   1.392
   45SOL    HW2 1035   4.928   5.912   1.517
   46SOL     OW 1036   0.986   2.887   3.206
   46SOL    HW1 1037   1.046   2.947   3.259
   46SOL    HW2 1038   0.892   2.901   3.234
   47SOL     OW 1039   4.352   4.073   0.924
   47SOL    HW1 1040   4.321   4.157   0.879
   47SOL    HW2 1041   4.360   3.999   0.857
   48SOL     OW 1042   6.363   2.852   6.224
   48SOL    HW1 1043   6.319   2.935   6.188
   48SOL    HW2 1044   6.293   2.783   6.240
   49SOL     OW 1045   5.891   3.681   2.012
   49SOL    HW1 1046   5.906   3.773   2.049
   49SOL    HW2 1047   5.965   3.659   1.948
   50SOL     OW 1048   5.855   1.168   4.801
   50SOL    HW1 1049   5.910   1.246   4.831
   50SOL    HW2 1050   5.900   1.121   4.726
   51SOL     OW 1051   2.364   6.524   3.247
   51SOL    HW1 1052   2.451   6.514   3.199
   51SOL    HW2 1053   2.296   6.465   3.205
   52SOL     OW 1054   5.954   3.435   2.374
   52SOL    HW1 1055   5.979   3.418   2.278
   52SOL    HW2 1056   5.946   3.348   2.422
   53SOL     OW 1057   4.627   0.033   3.826
   53SOL    HW1 1058   4.638   0.025   3.926
   53SOL    HW2 1059   4.683   6.978   3.781
   54SOL     OW 1060   4.563   5.236   0.920
   54SOL    HW1 1061   4.613   5.309   0.873
   54SOL    HW2 1062   4.587   5.236   1.017
   55SOL     OW 1063   1.815   2.779   6.178
   55SOL    HW1 1064   1.716   2.767   6.172
   55SOL    HW2 1065   1.848   2.750   6.268
   56SOL     OW 1066   0.480   0.630   1.289
   56SOL    HW1 1067   0.444   0.554   1.236
   56SOL    HW2 1068   0.479   0.713   1.233
   57SOL     OW 1069   4.436   0.971   1.350
   57SOL    HW1 1070   4.502   1.046   1.339
   57SOL    HW2 1071   4.387   0.957   1.263
   58SOL     OW 1072   0.934   0.176   5.238
   58SOL    HW1 1073   0.908   0.253   5.180
   58SOL    HW2 1074   0.950   0.095   5.181
   59SOL     OW 1075   0.720   2.762   6.053
   59SOL    HW1 1076   0.647   2.826   6.029
   59SOL    HW2 1077   0.794   2.769   5.986
   60SOL     OW 1078   5.131   2.563   4.383
   60SOL    HW1 1079   5.190   2.633   4.343
   60SOL    HW2 1080   5.052   2.606   4.426
   61SOL     OW 1081   6.521   2.086   3.815
   61SOL    HW1 1082   6.566   2.065   3.728
   61SOL    HW2 1083   6.564   2.165   3.857
   62SOL     OW 1084   1.313   0.780   1.753
   62SOL    HW1 1085   1.259   0.705   1.791
   62SOL    HW2 1086   1.404   0.780   1.794
   63SOL     OW 1087   5.287   1.133   3.946
   63SOL    HW1 1088   5.355   1.149   4.017
   63SOL    HW2 1089   5.212   1.198   3.956
   64SOL     OW 1090   0.363   2.958   6.179
   64SOL    HW1 1091   0.418   2.876   6.195
   64SOL    HW2 1092   0.403   3.035   6.229
   65SOL     OW 1093   0.823   4.399   6.049
   65SOL    HW1 1094   0.731   4.373   6.020
   65SOL    HW2 1095   0.820   4.491   6.088
   66SOL     OW 1096   3.965   0.821   4.694
   66SOL    HW1 1097   4.043   0.877   4.724
   66SOL    HW2 1098   3.922   0.864   4.615
   67SOL     OW 1099   6.956   2.818   6.038
   67SOL    HW1 1100   6.968   2.800   5.940
   67SOL    HW2 1101   0.005   2.889   6.067
   68SOL     OW 1102   6.615   1.372   0.016
   68SOL    HW1 1103   6.656   1.286   7.001
   68SOL    HW2 1104   6.645   1.447   6.972
   69SOL     OW 1105   0.915   3.139   6.543
   69SOL    HW1 1106   0.875   3.231   6.548
   69SOL    HW2 1107   0.870   3.088   6.469
   70SOL     OW 1108   5.355   4.637   4.758
   70SOL    HW1 1109   5.428   4.597   4.702
   70SOL    HW2 1110   5.282   4.569   4.770
   71SOL     OW 1111   4.217   1.619   3.457
   71SOL    HW1 1112   4.234   1.565   3.539
   71SOL    HW2 1113   4.153   1.693   3.478
   72SOL     OW 1114   1.745   1.170   3.553
   72SOL    HW1 1115   1.687   1.249   3.532
   72SOL    HW2 1116   1.835   1.201   3.581
   73SOL     OW 1117   3.825   0.513   1.158
   73SOL    HW1 1118   3.799   0.417   1.169
   73SOL    HW2 1119   3.794   0.565   1.237
   74SOL     OW 1120   3.974   0.801   0.202
   74SOL    HW1 1121   3.979   0.753   0.114
   74SOL    HW2 1122   4.034   0.754   0.268
   75SOL     OW 1123   4.641   0.884   0.959
   75SOL    HW1 1124   4.591   0.806   0.920
   75SOL    HW2 1125   4.704   0.850   1.030
   76SOL     OW 1126   2.780   3.302   1.008
   76SOL    HW1 1127   2.689   3.277   1.043
   76SOL    HW2 1128   2.777   3.305   0.908
   77SOL     OW 1129   0.804   0.348   3.885
   77SOL    HW1 1130   0.902   0.359   3.869
   77SOL    HW2 1131   0.781   0.251   3.880
   78SOL     OW 1132   5.439   1.736   0.474
   78SOL    HW1 1133   5.465   1.699   0.384
   78SOL    HW2 1134   5.521   1.746   0.530
   79SOL     OW 1135   3.198   5.983   1.549
   79SOL    HW1 1136   3.270   5.929   1.504
   79SOL    HW2 1137   3.130   5.921   1.588
   80SOL     OW 1138   4.118   1.312   3.812
   80SOL    HW1 1139   4.153   1.254   3.738
   80SOL    HW2 1140   4.161   1.402   3.808
   81SOL     OW 1141   2.331   0.123   2.506
   81SOL    HW1 1142   2.258   0.174   2.460
   81SOL    HW2 1143   2.296   0.080   2.588
   82SOL     OW 1144   6.088   4.939   0.568
   82SOL    HW1 1145   6.030   5.020   0.568
   82SOL    HW2 1146   6.085   4.896   0.477
   83SOL     OW 1147   6.908   0.400   0.444
   83SOL    HW1 1148   6.992   0.389   0.390
   83SOL    HW2 1149   6.881   0.496   0.443
   84SOL     OW 1150   5.910   3.215   2.524
   84SOL    HW1 1151   5.810   3.215   2.525
   84SOL    HW2 1152   5.943   3.121   2.522
   85SOL     OW 1153   1.696   1.630   4.196
   85SOL    HW1 1154   1.705   1.566   4.272
   85SOL    HW2 1155   1.605   1.620   4.154
   86SOL     OW 1156   0.804   1.459   6.380
   86SOL    HW1 1157   0.723   1.509   6.350
   86SOL    HW2 1158   0.835   1.399   6.307
   87SOL     OW 1159   4.930   4.305   0.924
   87SOL    HW1 1160   4.853   4.266   0.872
   87SOL    HW2 1161   4.985   4.230   0.961
   88SOL     OW 1162   3.063   1.752   6.451
   88SOL    HW1 1163   3.118   1.813   6.394
   88SOL    HW2 1164   3.036   1.800   6.535
   89SOL     OW 1165   2.461   2.272   6.868
   89SOL    HW1 1166   2.488   2.268   6.772
   89SOL    HW2 1167   2.376   2.324   6.876
   90SOL     OW 1168   4.242   5.484   1.583
   90SOL    HW1 1169   4.265   5.415   1.652
   90SOL    HW2 1170   4.308   5.559   1.588
   91SOL     OW 1171   6.029   3.916   6.274
   91SOL    HW1 1172   6.121   3.877   6.278
   91SOL    HW2 1173   6.032   4.013   6.297
   92SOL     OW 1174   4.551   4.429   1.182
   92SOL    HW1 1175   4.459   4.459   1.207
   92SOL    HW2 1176   4.558   4.330   1.193
   93SOL     OW 1177   3.383   3.794   0.848
   93SOL    HW1 1178   3.444   3.842   0.786
   93SOL    HW2 1179   3.353   3.708   0.806
   94SOL     OW 1180   2.571   5.696   6.370
   94SOL    HW1 1181   2.553   5.599   6.385
   94SOL    HW2 1182   2.644   5.726   6.431
   95SOL     OW 1183   1.281   0.437   2.915
   95SOL    HW1 1184   1.327   0.514   2.871
   95SOL    HW2 1185   1.276   0.360   2.852
   96SOL     OW 1186   3.877   0.100   5.231
   96SOL    HW1 1187   3.869   0.198   5.213
   96SOL    HW2 1188   3.890   0.085   5.329
   97SOL     OW 1189   2.150   2.871   5.895
   97SOL    HW1 1190   2.190   2.943   5.952
   97SOL    HW2 1191   2.181   2.881   5.801
   98SOL     OW 1192   1.271   2.606   0.647
   98SOL    HW1 1193   1.240   2.528   0.700
   98SOL    HW2 1194   1.357   2.640   0.684
   99SOL     OW 1195   4.002   2.810   1.516
   99SOL    HW1 1196   3.926   2.868   1.486
   99SOL    HW2 1197   4.033   2.754   1.439
  100SOL     OW 1198   0.867   6.531   3.891
  100SOL    HW1 1199   0.959   6.500   3.865
  100SOL    HW2 1200   0.831   6.471   3.962
  101SOL     OW 1201   1.907   4.548   2.140
  101SOL    HW1 1202   1.984   4.595   2.184
  101SOL    HW2 1203   1.934   4.455   2.115
  102SOL     OW 1204   3.187   5.389   1.715
  102SOL    HW1 1205   3.268   5.341   1.751
  102SOL    HW2 1206   3.121   5.402   1.789
  103SOL     OW 1207   2.512   1.731   2.066
  103SOL    HW1 1208   2.516   1.741   2.166
  103SOL    HW2 1209   2.605   1.717   2.031
  104SOL     OW 1210   1.227   5.468   3.011
  104SOL    HW1 1211   1.127   5.470   3.013
  104SOL    HW2 1212   1.263   5.528   3.083
  105SOL     OW 1213   5.976   1.005   6.484
  105SOL    HW1 1214   5.889   0.957   6.477
  105SOL    HW2 1215   5.986   1.067   6.406
  106SOL     OW 1216   3.711   5.980   4.011
  106SOL    HW1 1217   3.749   5.894   3.978
  106SOL    HW2 1218   3.762   6.056   3.972
  107SOL     OW 1219   1.134   1.278   0.031
  107SOL    HW1 1220   1.070   1.314   6.978
  107SOL    HW2 1221   1.115   1.320   0.119
  108SOL     OW 1222   3.653   0.079   5.784
  108SOL    HW1 1223   3.671   0.045   5.876
  108SOL    HW2 1224   3.554   0.084   5.769
  109SOL     OW 1225   1.816   0.999   2.560
  109SOL    HW1 1226   1.817   0.943   2.643
  109SOL    HW2 1227   1.822   0.939   2.480
  110SOL     OW 1228   3.008   5.410   4.071
  110SOL    HW1 1229   3.083   5.454   4.021
  110SOL    HW2 1230   3.010   5.439   4.166
  111SOL     OW 1231   1.929   1.306   4.035
  111SOL    HW1 1232   1.982   1.226   4.064
  111SOL    HW2 1233   1.968   1.388   4.077
  112SOL     OW 1234   3.177   5.918   6.988
  112SOL    HW1 1235   3.147   5.823   6.976
  112SOL    HW2 1236   3.175   5.965   6.899
  113SOL     OW 1237   1.324   5.839   2.550
  113SOL    HW1 1238   1.248   5.831   2.615
  113SOL    HW2 1239   1.309   5.776   2.474
  114SOL     OW 1240   0.655   6.460   1.769
  114SOL    HW1 1241   0.611   6.549   1.776
  114SOL    HW2 1242   0.602   6.393   1.822
  115SOL     OW 1243   4.565   1.455   3.030
  115SOL    HW1 1244   4.662   1.477   3.017
  115SOL    HW2 1245   4.540   1.380   2.970
  116SOL     OW 1246   6.534   6.002   1.258
  116SOL    HW1 1247   6.611   5.972   1.201
  116SOL    HW2 1248   6.569   6.050   1.339
  117SOL     OW 1249   1.031   1.703   1.364
  117SOL    HW1 1250   1.084   1.707   1.279
  117SOL    HW2 1251   1.045   1.614   1.408
  118SOL     OW 1252   1.694   0.760   2.132
  118SOL    HW1 1253   1.619   0.730   2.073
  118SOL    HW2 1254   1.692   0.707   2.217
  119SOL     OW 1255   0.297   0.649   0.020
  119SOL    HW1 1256   0.205   0.629   7.003
  119SOL    HW2 1257   0.360   0.657   6.958
  120SOL     OW 1258   5.131   1.613   5.802
  120SOL    HW1 1259   5.115   1.558   5.884
  120SOL    HW2 1260   5.060   1.594   5.734
  121SOL     OW 1261   2.116   2.470   0.345
  121SOL    HW1 1262   2.104   2.569   0.336
  121SOL    HW2 1263   2.114   2.445   0.442
  122SOL     OW 1264   1.268   3.891   7.015
  122SOL    HW1 1265   1.233   3.829   0.069
  122SOL    HW2 1266   1.367   3.902   0.011
  123SOL     OW 1267   0.902   1.518   2.739
  123SOL    HW1 1268   0.929   1.430   2.779
  123SOL    HW2 1269   0.951   1.591   2.787
  124SOL     OW 1270   3.741   2.462   0.687
  124SOL    HW1 1271   3.748   2.393   0.615
  124SOL    HW2 1272   3.648   2.499   0.689
  125SOL     OW 1273   4.282   2.230   0.256
  125SOL    HW1 1274   4.192   2.250   0.295
  125SOL    HW2 1275   4.306   2.299   0.188
  126SOL     OW 1276   3.462   3.823   1.757
  126SOL    HW1 1277   3.515   3.855   1.835
  126SOL    HW2 1278   3.392   3.891   1.734
  127SOL     OW 1279   0.927   5.320   6.505
  127SOL    HW1 1280   0.956   5.226   6.524
  127SOL    HW2 1281   0.887   5.360   6.587
  128SOL     OW 1282   4.572   3.076   1.065
  128SOL    HW1 1283   4.499   3.143   1.076
  128SOL    HW2 1284   4.534   2.993   1.021
  129SOL     OW 1285   3.395   3.720   6.674
  129SOL    HW1 1286   3.337   3.708   6.755
  129SOL    HW2 1287   3.434   3.632   6.647
  130SOL     OW 1288   1.438   1.610   4.088
  130SOL    HW1 1289   1.402   1.527   4.131
  130SOL    HW2 1290   1.364   1.657   4.040
  131SOL     OW 1291   4.485   0.396   3.182
  131SOL    HW1 1292   4.504   0.304   3.215
  131SOL    HW2 1293   4.387   0.407   3.168
  132SOL     OW 1294   3.019   2.798   1.792
  132SOL    HW1 1295   3.116   2.788   1.815
  132SOL    HW2 1296   2.975   2.708   1.790
  133SOL     OW 1297   5.265   0.886   4.398
  133SOL    HW1 1298   5.262   0.986   4.402
  133SOL    HW2 1299   5.188   0.848   4.449
  134SOL     OW 1300   6.975   1.157   2.578
  134SOL    HW1 1301   0.018   1.078   2.557
  134SOL    HW2 1302   6.936   1.192   2.493
  135SOL     OW 1303   5.322   3.689   3.839
  135SOL    HW1 1304   5.246   3.629   3.812
  135SOL    HW2 1305   5.352   3.742   3.760
  136SOL     OW 1306   1.805   5.262   5.349
  136SOL    HW1 1307   1.769   5.211   5.427
  136SOL    HW2 1308   1.780   5.358   5.358
  137SOL     OW 1309   4.818   1.839   3.174
  137SOL    HW1 1310   4.860   1.927   3.152
  137SOL    HW2 1311   4.724   1.838   3.139
  138SOL     OW 1312   1.491   3.605   2.884
  138SOL    HW1 1313   1.464   3.560   2.799
  138SOL    HW2 1314   1.590   3.595   2.897
  139SOL     OW 1315   1.516   6.887   5.294
  139SOL    HW1 1316   1.418   6.884   5.278
  139SOL    HW2 1317   1.540   6.827   5.370
  140SOL     OW 1318   1.859   0.211   3.925
  140SOL    HW1 1319   1.904   0.283   3.977
  140SOL    HW2 1320   1.801   0.251   3.855
  141SOL     OW 1321   0.557   2.839   4.896
  141SOL    HW1 1322   0.573   2.747   4.933
  141SOL    HW2 1323   0.489   2.834   4.823
  142SOL     OW 1324   1.690   4.243   1.903
  142SOL    HW1 1325   1.703   4.151   1.865
  142SOL    HW2 1326   1.751   4.255   1.981
  143SOL     OW 1327   5.872   4.665   0.235
  143SOL    HW1 1328   5.783   4.711   0.232
  143SOL    HW2 1329   5.870   4.586   0.173
  144SOL     OW 1330   1.824   4.663   5.671
  144SOL    HW1 1331   1.792   4.739   5.613
  144SOL    HW2 1332   1.745   4.615   5.709
  145SOL     OW 1333   1.823   4.583   1.737
  145SOL    HW1 1334   1.801   4.614   1.644
  145SOL    HW2 1335   1.738   4.574   1.789
  146SOL     OW 1336   5.301   0.032   5.805
  146SOL    HW1 1337   5.358   0.076   5.875
  146SOL    HW2 1338   5.360   6.998   5.741
  147SOL     OW 1339   5.261   2.453   6.071
  147SOL    HW1 1340   5.358   2.450   6.092
  147SOL    HW2 1341   5.240   2.534   6.016
  148SOL     OW 1342   6.915   5.040   0.889
  148SOL    HW1 1343   6.837   4.986   0.919
  148SOL    HW2 1344   6.984   5.041   0.962
  149SOL     OW 1345   3.659   2.067   4.496
  149SOL    HW1 1346   3.607   2.097   4.416
  149SOL    HW2 1347   3.638   1.971   4.515
  150SOL     OW 1348   5.557   6.727   0.126
  150SOL    HW1 1349   5.549   6.819   0.164
  150SOL    HW2 1350   5.632   6.679   0.172
  151SOL     OW 1351   3.199   0.971   1.540
  151SOL    HW1 1352   3.168   0.936   1.451
  151SOL    HW2 1353   3.168   0.910   1.613
  152SOL     OW 1354   0.025   1.010   0.993
  152SOL    HW1 1355   0.058   1.104   1.000
  152SOL    HW2 1356   6.964   0.997   1.056
  153SOL     OW 1357   2.547   0.200   3.552
  153SOL    HW1 1358   2.573   0.263   3.479
  153SOL    HW2 1359   2.628   0.177   3.606
  154SOL     OW 1360   1.180   3.361   0.969
  154SOL    HW1 1361   1.091   3.405   0.963
  154SOL    HW2 1362   1.205   3.323   0.880
  155SOL     OW 1363   1.027   1.249   5.098
  155SOL    HW1 1364   0.996   1.340   5.125
  155SOL    HW2 1365   0.950   1.198   5.061
  156SOL     OW 1366   7.006   0.380   0.730
  156SOL    HW1 1367   0.012   0.351   0.637
  156SOL    HW2 1368   6.907   0.390   0.739
  157SOL     OW 1369   5.914   3.711   0.972
  157SOL    HW1 1370   5.884   3.751   0.885
  157SOL    HW2 1371   5.847   3.732   1.043
  158SOL     OW 1372   0.981   3.270   1.840
  158SOL    HW1 1373   0.967   3.336   1.915
  158SOL    HW2 1374   0.988   3.178   1.878
  159SOL     OW 1375   4.700   5.536   1.729
  159SOL    HW1 1376   4.624   5.596   1.751
  159SOL    HW2 1377   4.766   5.584   1.672
  160SOL     OW 1378   5.822   6.315   0.915
  160SOL    HW1 1379   5.747   6.260   0.879
  160SOL    HW2 1380   5.790   6.408   0.931
  161SOL     OW 1381   1.217   6.674   3.575
  161SOL    HW1 1382   1.247   6.750   3.518
  161SOL    HW2 1383   1.172   6.605   3.518
  162SOL     OW 1384   4.017   6.311   0.200
  162SOL    HW1 1385   3.997   6.334   0.295
  162SOL    HW2 1386   4.116   6.304   0.187
  163SOL     OW 1387   6.971   5.871   2.382
  163SOL    HW1 1388   6.988   5.830   2.471
  163SOL    HW2 1389   6.889   5.929   2.387
  164SOL     OW 1390   0.752   4.239   3.265
  164SOL    HW1 1391   0.685   4.165   3.259
  164SOL    HW2 1392   0.837   4.202   3.304
  165SOL     OW 1393   4.519   4.308   0.748
  165SOL    HW1 1394   4.580   4.233   0.776
  165SOL    HW2 1395   4.575   4.384   0.714
  166SOL     OW 1396   1.015   3.027   1.926
  166SOL    HW1 1397   1.009   3.009   2.024
  166SOL    HW2 1398   1.073   2.957   1.883
  167SOL     OW 1399   5.665   2.654   0.092
  167SOL    HW1 1400   5.636   2.612   0.177
  167SOL    HW2 1401   5.687   2.583   0.025
  168SOL     OW 1402   3.753   2.224   0.538
  168SOL    HW1 1403   3.682   2.229   0.467
  168SOL    HW2 1404   3.722   2.164   0.612
  169SOL     OW 1405   6.278   2.002   1.601
  169SOL    HW1 1406   6.203   1.936   1.587
  169SOL    HW2 1407   6.341   1.997   1.524
  170SOL     OW 1408   6.883   6.816   2.296
  170SOL    HW1 1409   6.879   6.908   2.336
  170SOL    HW2 1410   6.888   6.749   2.369
  171SOL     OW 1411   2.839   4.419   6.796
  171SOL    HW1 1412   2.804   4.450   6.708
  171SOL    HW2 1413   2.936   4.443   6.805
  172SOL     OW 1414   5.941   1.450   2.828
  172SOL    HW1 1415   5.982   1.363   2.799
  172SOL    HW2 1416   5.950   1.459   2.927
  173SOL     OW 1417   6.243   1.223   3.393
  173SOL    HW1 1418   6.274   1.164   3.468
  173SOL    HW2 1419   6.151   1.196   3.366
  174SOL     OW 1420   4.329   5.636   3.924
  174SOL    HW1 1421   4.326   5.581   3.840
  174SOL    HW2 1422   4.236   5.662   3.949
  175SOL     OW 1423   3.165   0.244   1.810
  175SOL    HW1 1424   3.136   0.340   1.808
  175SOL    HW2 1425   3.224   0.226   1.731
  176SOL     OW 1426   6.915   4.373   1.782
  176SOL    HW1 1427   6.973   4.389   1.862
  176SOL    HW2 1428   6.846   4.446   1.775
  177SOL     OW 1429   5.731   3.597   4.010
  177SOL    HW1 1430   5.696   3.686   3.979
  177SOL    HW2 1431   5.699   3.580   4.104
  178SOL     OW 1432   3.425   4.307   5.636
  178SOL    HW1 1433   3.431   4.331   5.540
  178SOL    HW2 1434   3.401   4.388   5.690
  179SOL     OW 1435   4.120   1.177   5.742
  179SOL    HW1 1436   4.025   1.203   5.761
  179SOL    HW2 1437   4.126   1.137   5.651
  180SOL     OW 1438   1.839   6.760   0.884
  180SOL    HW1 1439   1.912   6.827   0.872
  180SOL    HW2 1440   1.874   6.680   0.932
  181SOL     OW 1441   3.542   3.463   6.411
  181SOL    HW1 1442   3.570   3.519   6.489
  181SOL    HW2 1443   3.461   3.410   6.436
  182SOL     OW 1444   4.004   1.826   6.054
  182SOL    HW1 1445   4.030   1.904   5.998
  182SOL    HW2 1446   4.073   1.810   6.124
  183SOL     OW 1447   3.173   1.735   3.532
  183SOL    HW1 1448   3.271   1.754   3.527
  183SOL    HW2 1449   3.133   1.788   3.607
  184SOL     OW 1450   0.713   6.271   3.819
  184SOL    HW1 1451   0.659   6.188   3.804
  184SOL    HW2 1452   0.725   6.319   3.732
  185SOL     OW 1453   1.319   1.101   4.913
  185SOL    HW1 1454   1.335   1.188   4.959
  185SOL    HW2 1455   1.394   1.083   4.849
  186SOL     OW 1456   6.145   1.547   4.251
  186SOL    HW1 1457   6.241   1.535   4.275
  186SOL    HW2 1458   6.112   1.466   4.202
  187SOL     OW 1459   4.794   6.418   2.637
  187SOL    HW1 1460   4.786   6.451   2.543
  187SOL    HW2 1461   4.750   6.329   2.645
  188SOL     OW 1462   1.618   3.029   3.212
  188SOL    HW1 1463   1.522   3.047   3.191
  188SOL    HW2 1464   1.632   2.930   3.221
  189SOL     OW 1465   2.015   5.692   0.405
  189SOL    HW1 1466   2.075   5.705   0.326
  189SOL    HW2 1467   2.015   5.596   0.431
  190SOL     OW 1468   5.973   3.592   5.437
  190SOL    HW1 1469   6.000   3.617   5.344
  190SOL    HW2 1470   5.957   3.494   5.442
  191SOL     OW 1471   5.832   0.445   6.990
  191SOL    HW1 1472   5.764   0.385   0.017
  191SOL    HW2 1473   5.856   0.518   0.039
  192SOL     OW 1474   0.731   5.314   2.168
  192SOL    HW1 1475   0.712   5.381   2.239
  192SOL    HW2 1476   0.721   5.222   2.205
  193SOL     OW 1477   4.625   3.759   5.363
  193SOL    HW1 1478   4.567   3.697   5.417
  193SOL    HW2 1479   4.638   3.721   5.272
  194SOL     OW 1480   4.342   6.707   2.966
  194SOL    HW1 1481   4.243   6.697   2.973
  194SOL    HW2 1482   4.385   6.617   2.978
  195SOL     OW 1483   1.355   0.587   4.237
  195SOL    HW1 1484   1.314   0.543   4.157
  195SOL    HW2 1485   1.392   0.516   4.298
  196SOL     OW 1486   2.491   0.066   0.091
  196SOL    HW1 1487   2.579   0.100   0.125
  196SOL    HW2 1488   2.501   6.984   0.068
  197SOL     OW 1489   2.598   0.032   1.377
  197SOL    HW1 1490   2.631   0.126   1.383
  197SOL    HW2 1491   2.508   0.032   1.332
  198SOL     OW 1492   4.989   0.025   1.839
  198SOL    HW1 1493   4.960   0.021   1.744
  198SOL    HW2 1494   4.980   0.119   1.872
  199SOL     OW 1495   6.196   1.347   3.679
  199SOL    HW1 1496   6.147   1.435   3.684
  199SOL    HW2 1497   6.199   1.316   3.585
  200SOL     OW 1498   1.162   4.187   1.686
  200SOL    HW1 1499   1.209   4.275   1.696
  200SOL    HW2 1500   1.228   4.116   1.663
  201SOL     OW 1501   6.671   0.161   6.279
  201SOL    HW1 1502   6.678   0.070   6.319
  201SOL    HW2 1503   6.575   0.189   6.276
  202SOL     OW 1504   5.230   0.693   5.497
  202SOL    HW1 1505   5.317   0.712   5.544
  202SOL    HW2 1506   5.247   0.681   5.399
  203SOL     OW 1507   4.294   2.345   4.043
  203SOL    HW1 1508   4.356   2.423   4.038
  203SOL    HW2 1509   4.281   2.319   4.139
  204SOL     OW 1510   6.972   0.899   6.016
  204SOL    HW1 1511   0.027   0.834   5.986
  204SOL    HW2 1512   6.929   0.866   6.100
  205SOL     OW 1513   0.582   0.755   3.539
  205SOL    HW1 1514   0.675   0.727   3.560
  205SOL    HW2 1515   0.583   0.842   3.491
  206SOL     OW 1516   0.433   5.095   2.141
  206SOL    HW1 1517   0.381   5.151   2.206
  206SOL    HW2 1518   0.375   5.074   2.062
  207SOL     OW 1519   4.851   0.830   4.025
  207SOL    HW1 1520   4.769   0.870   4.066
  207SOL    HW2 1521   4.923   0.899   4.020
  208SOL     OW 1522   5.648   3.210   5.389
  208SOL    HW1 1523   5.629   3.167   5.301
  208SOL    HW2 1524   5.610   3.154   5.463
  209SOL     OW 1525   0.664   4.945   4.821
  209SOL    HW1 1526   0.639   4.893   4.740
  209SOL    HW2 1527   0.616   5.033   4.820
  210SOL     OW 1528   4.326   2.385   1.084
  210SOL    HW1 1529   4.357   2.300   1.042
  210SOL    HW2 1530   4.395   2.456   1.070
  211SOL     OW 1531   2.537   6.296   3.447
  211SOL    HW1 1532   2.472   6.324   3.517
  211SOL    HW2 1533   2.603   6.369   3.432
  212SOL     OW 1534   2.008   4.836   1.500
  212SOL    HW1 1535   2.059   4.844   1.414
  212SOL    HW2 1536   1.961   4.748   1.503
  213SOL     OW 1537   3.471   0.584   6.055
  213SOL    HW1 1538   3.532   0.506   6.038
  213SOL    HW2 1539   3.483   0.617   6.148
  214SOL     OW 1540   4.542   5.683   1.875
  214SOL    HW1 1541   4.553   5.772   1.920
  214SOL    HW2 1542   4.456   5.682   1.824
  215SOL     OW 1543   2.133   3.588   0.861
  215SOL    HW1 1544   2.223   3.575   0.819
  215SOL    HW2 1545   2.107   3.685   0.854
  216SOL     OW 1546   2.145   6.011   4.361
  216SOL    HW1 1547   2.219   6.066   4.321
  216SOL    HW2 1548   2.174   5.915   4.366
  217SOL     OW 1549   2.077   2.579   3.752
  217SOL    HW1 1550   2.074   2.565   3.653
  217SOL    HW2 1551   2.098   2.492   3.797
  218SOL     OW 1552   1.200   2.952   4.745
  218SOL    HW1 1553   1.196   2.852   4.742
  218SOL    HW2 1554   1.196   2.983   4.840
  219SOL     OW 1555   3.985   6.672   6.212
  219SOL    HW1 1556   3.921   6.640   6.282
  219SOL    HW2 1557   4.032   6.754   6.244
  220SOL     OW 1558   3.711   6.622   0.835
  220SOL    HW1 1559   3.616   6.597   0.852
  220SOL    HW2 1560   3.730   6.617   0.737
  221SOL     OW 1561   6.376   3.411   2.576
  221SOL    HW1 1562   6.387   3.314   2.597
  221SOL    HW2 1563   6.464   3.458   2.590
  222SOL     OW 1564   2.725   5.062   5.815
  222SOL    HW1 1565   2.691   4.969   5.801
  222SOL    HW2 1566   2.786   5.086   5.739
  223SOL     OW 1567   5.868   3.442   1.021
  223SOL    HW1 1568   5.827   3.413   0.935
  223SOL    HW2 1569   5.895   3.539   1.014
  224SOL     OW 1570   2.398   1.987   4.383
  224SOL    HW1 1571   2.349   1.952   4.303
  224SOL    HW2 1572   2.497   1.985   4.365
  225SOL     OW 1573   5.202   2.187   6.058
  225SOL    HW1 1574   5.103   2.180   6.045
  225SOL    HW2 1575   5.225   2.274   6.101
  226SOL     OW 1576   1.597   0.466   6.354
  226SOL    HW1 1577   1.543   0.383   6.363
  226SOL    HW2 1578   1.653   0.479   6.436
  227SOL     OW 1579   1.680   3.741   3.178
  227SOL    HW1 1580   1.598   3.722   3.232
  227SOL    HW2 1581   1.676   3.689   3.092
  228SOL     OW 1582   3.476   6.319   3.179
  228SOL    HW1 1583   3.521   6.269   3.253
  228SOL    HW2 1584   3.438   6.255   3.113
  229SOL     OW 1585   4.862   6.115   6.423
  229SOL    HW1 1586   4.792   6.059   6.468
  229SOL    HW2 1587   4.953   6.088   6.456
  230SOL     OW 1588   3.108   4.895   2.691
  230SOL    HW1 1589   3.057   4.844   2.760
  230SOL    HW2 1590   3.056   4.977   2.665
  231SOL     OW 1591   6.272   2.017   6.599
  231SOL    HW1 1592   6.317   1.952   6.660
  231SOL    HW2 1593   6.183   1.980   6.572
  232SOL     OW 1594   1.422   4.028   6.037
  232SOL    HW1 1595   1.456   4.117   6.006
  232SOL    HW2 1596   1.499   3.968   6.057
  233SOL     OW 1597   1.997   2.276   4.107
  233SOL    HW1 1598   2.066   2.348   4.119
  233SOL    HW2 1599   1.977   2.265   4.009
  234SOL     OW 1600   4.747   6.442   5.048
  234SOL    HW1 1601   4.777   6.533   5.076
  234SOL    HW2 1602   4.714   6.446   4.954
  235SOL     OW 1603   3.562   3.043   1.674
  235SOL    HW1 1604   3.541   3.133   1.711
  235SOL    HW2 1605   3.632   3.000   1.730
  236SOL     OW 1606   5.310   2.855   6.562
  236SOL    HW1 1607   5.319   2.940   6.613
  236SOL    HW2 1608   5.312   2.778   6.626
  237SOL     OW 1609   6.288   5.622   1.905
  237SOL    HW1 1610   6.364   5.563   1.933
  237SOL    HW2 1611   6.292   5.636   1.806
  238SOL     OW 1612   5.653   1.952   0.165
  238SOL    HW1 1613   5.697   1.871   0.204
  238SOL    HW2 1614   5.568   1.971   0.213
  239SOL     OW 1615   0.189   5.364   6.082
  239SOL    HW1 1616   0.198   5.368   5.983
  239SOL    HW2 1617   0.095   5.389   6.108
  240SOL     OW 1618   0.516   2.557   4.939
  240SOL    HW1 1619   0.558   2.522   4.856
  240SOL    HW2 1620   0.416   2.550   4.931
  241SOL     OW 1621   1.764   6.784   4.874
  241SOL    HW1 1622   1.838   6.829   4.824
  241SOL    HW2 1623   1.694   6.754   4.810
  242SOL     OW 1624   2.577   3.291   5.643
  242SOL    HW1 1625   2.571   3.277   5.742
  242SOL    HW2 1626   2.496   3.251   5.599
  243SOL     OW 1627   5.106   0.817   5.835
  243SOL    HW1 1628   5.202   0.846   5.841
  243SOL    HW2 1629   5.102   0.723   5.801
  244SOL     OW 1630   5.290   2.576   5.045
  244SOL    HW1 1631   5.284   2.639   4.968
  244SOL    HW2 1632   5.357   2.611   5.111
  245SOL     OW 1633   6.852   3.238   5.508
  245SOL    HW1 1634   6.874   3.206   5.415
  245SOL    HW2 1635   6.926   3.296   5.541
  246SOL     OW 1636   5.009   2.638   3.373
  246SOL    HW1 1637   4.911   2.656   3.360
  246SOL    HW2 1638   5.032   2.646   3.470
  247SOL     OW 1639   2.722   0.974   2.016
  247SOL    HW1 1640   2.765   1.027   1.944
  247SOL    HW2 1641   2.784   0.968   2.095
  248SOL     OW 1642   3.735   2.124   2.997
  248SOL    HW1 1643   3.638   2.145   3.010
  248SOL    HW2 1644   3.745   2.027   2.972
  249SOL     OW 1645   4.745   0.219   5.880
  249SOL    HW1 1646   4.700   0.289   5.824
  249SOL    HW2 1647   4.676   0.152   5.910
  250SOL     OW 1648   5.715   2.640   1.138
  250SOL    HW1 1649   5.773   2.697   1.196
  250SOL    HW2 1650   5.685   2.560   1.191
  251SOL     OW 1651   4.706   4.092   5.766
  251SOL    HW1 1652   4.615   4.092   5.725
  251SOL    HW2 1653   4.700   4.126   5.860
  252SOL     OW 1654   6.365   0.223   6.307
  252SOL    HW1 1655   6.373   0.318   6.337
  252SOL    HW2 1656   6.309   0.172   6.373
  253SOL     OW 1657   1.969   4.324   6.808
  253SOL    HW1 1658   2.060   4.305   6.772
  253SOL    HW2 1659   1.901   4.275   6.753
  254SOL     OW 1660   5.442   3.335   2.689
  254SOL    HW1 1661   5.491   3.404   2.743
  254SOL    HW2 1662   5.437   3.250   2.741
  255SOL     OW 1663   1.771   2.975   4.227
  255SOL    HW1 1664   1.815   3.065   4.224
  255SOL    HW2 1665   1.786   2.934   4.317
  256SOL     OW 1666   5.961   4.814   6.274
  256SOL    HW1 1667   5.989   4.864   6.192
  256SOL    HW2 1668   6.042   4.796   6.330
  257SOL     OW 1669   4.557   6.941   4.121
  257SOL    HW1 1670   4.463   6.908   4.115
  257SOL    HW2 1671   4.557   0.026   4.115
  258SOL     OW 1672   0.147   4.714   4.888
  258SOL    HW1 1673   0.182   4.629   4.928
  258SOL    HW2 1674   0.094   4.764   4.957
  259SOL     OW 1675   1.545   1.975   2.158
  259SOL    HW1 1676   1.515   2.018   2.073
  259SOL    HW2 1677   1.585   2.045   2.218
  260SOL     OW 1678   4.256   0.795   0.893
  260SOL    HW1 1679   4.260   0.695   0.895
  260SOL    HW2 1680   4.163   0.825   0.913
  261SOL     OW 1681   6.901   3.633   0.857
  261SOL    HW1 1682   6.955   3.699   0.804
  261SOL    HW2 1683   6.814   3.675   0.884
  262SOL     OW 1684   0.276   4.159   0.771
  262SOL    HW1 1685   0.301   4.146   0.867
  262SOL    HW2 1686   0.284   4.256   0.747
  263SOL     OW 1687   0.717   1.281   3.944
  263SOL    HW1 1688   0.621   1.300   3.923
  263SOL    HW2 1689   0.731   1.182   3.949
  264SOL     OW 1690   4.710   3.532   5.815
  264SOL    HW1 1691   4.763   3.466   5.762
  264SOL    HW2 1692   4.671   3.486   5.895
  265SOL     OW 1693   4.857   4.567   3.223
  265SOL    HW1 1694   4.810   4.655   3.210
  265SOL    HW2 1695   4.835   4.507   3.146
  266SOL     OW 1696   3.972   3.629   5.814
  266SOL    HW1 1697   4.059   3.679   5.803
  266SOL    HW2 1698   3.967   3.557   5.745
  267SOL     OW 1699   6.033   2.221   5.937
  267SOL    HW1 1700   6.111   2.265   5.982
  267SOL    HW2 1701   6.064   2.175   5.854
  268SOL     OW 1702   4.354   0.181   4.892
  268SOL    HW1 1703   4.262   0.159   4.861
  268SOL    HW2 1704   4.351   0.259   4.954
  269SOL     OW 1705   1.750   3.480   1.422
  269SOL    HW1 1706   1.705   3.482   1.333
  269SOL    HW2 1707   1.732   3.566   1.470
  270SOL     OW 1708   6.621   0.230   1.276
  270SOL    HW1 1709   6.600   0.165   1.203
  270SOL    HW2 1710   6.645   0.318   1.236
  271SOL     OW 1711   3.130   1.328   0.765
  271SOL    HW1 1712   3.081   1.405   0.807
  271SOL    HW2 1713   3.126   1.336   0.665
  272SOL     OW 1714   3.199   5.197   4.235
  272SOL    HW1 1715   3.166   5.224   4.144
  272SOL    HW2 1716   3.251   5.271   4.276
  273SOL     OW 1717   2.340   5.106   4.919
  273SOL    HW1 1718   2.379   5.053   4.995
  273SOL    HW2 1719   2.361   5.060   4.833
  274SOL     OW 1720   4.694   2.687   4.155
  274SOL    HW1 1721   4.633   2.654   4.084
  274SOL    HW2 1722   4.772   2.625   4.164
  275SOL     OW 1723   6.040   5.484   5.667
  275SOL    HW1 1724   6.140   5.480   5.671
  275SOL    HW2 1725   6.013   5.569   5.622
  276SOL     OW 1726   0.303   5.539   3.127
  276SOL    HW1 1727   0.283   5.478   3.204
  276SOL    HW2 1728   0.395   5.522   3.094
  277SOL     OW 1729   2.358   3.241   0.864
  277SOL    HW1 1730   2.376   3.255   0.766
  277SOL    HW2 1731   2.347   3.144   0.882
  278SOL     OW 1732   0.268   5.421   1.857
  278SOL    HW1 1733   0.330   5.406   1.934
  278SOL    HW2 1734   0.207   5.342   1.848
  279SOL     OW 1735   0.165   3.279   4.199
  279SOL    HW1 1736   0.240   3.268   4.133
  279SOL    HW2 1737   0.099   3.345   4.164
  280SOL     OW 1738   1.951   6.760   2.914
  280SOL    HW1 1739   1.971   6.687   2.848
  280SOL    HW2 1740   2.031   6.818   2.925
  281SOL     OW 1741   3.556   4.945   2.141
  281SOL    HW1 1742   3.482   4.933   2.207
  281SOL    HW2 1743   3.555   4.869   2.076
  282SOL     OW 1744   4.265   2.075   5.416
  282SOL    HW1 1745   4.222   2.002   5.363
  282SOL    HW2 1746   4.196   2.122   5.470
  283SOL     OW 1747   6.562   1.522   6.012
  283SOL    HW1 1748   6.600   1.528   6.104
  283SOL    HW2 1749   6.626   1.473   5.953
  284SOL     OW 1750   0.303   4.244   4.961
  284SOL    HW1 1751   0.371   4.297   4.910
  284SOL    HW2 1752   0.243   4.196   4.896
  285SOL     OW 1753   5.529   5.384   6.160
  285SOL    HW1 1754   5.518   5.410   6.064
  285SOL    HW2 1755   5.440   5.372   6.202
  286SOL     OW 1756   3.272   4.886   5.765
  286SOL    HW1 1757   3.226   4.798   5.751
  286SOL    HW2 1758   3.250   4.948   5.689
  287SOL     OW 1759   0.414   4.727   6.751
  287SOL    HW1 1760   0.486   4.693   6.812
  287SOL    HW2 1761   0.417   4.675   6.665
  288SOL     OW 1762   4.318   2.474   0.160
  288SOL    HW1 1763   4.379   2.526   0.221
  288SOL    HW2 1764   4.365   2.454   0.075
  289SOL     OW 1765   0.138   5.416   5.414
  289SOL    HW1 1766   0.145   5.332   5.468
  289SOL    HW2 1767   0.159   5.495   5.471
  290SOL     OW 1768   4.508   1.461   3.696
  290SOL    HW1 1769   4.564   1.382   3.671
  290SOL    HW2 1770   4.556   1.516   3.765
  291SOL     OW 1771   2.985   1.131   5.273
  291SOL    HW1 1772   3.084   1.128   5.279
  291SOL    HW2 1773   2.954   1.078   5.194
  292SOL     OW 1774   2.971   1.859   2.613
  292SOL    HW1 1775   3.058   1.906   2.597
  292SOL    HW2 1776   2.966   1.777   2.556
  293SOL     OW 1777   5.031   5.105   1.838
  293SOL    HW1 1778   5.037   5.180   1.773
  293SOL    HW2 1779   5.044   5.018   1.789
  294SOL     OW 1780   6.757   5.496   6.300
  294SOL    HW1 1781   6.818   5.521   6.375
  294SOL    HW2 1782   6.670   5.464   6.337
  295SOL     OW 1783   3.436   1.402   4.946
  295SOL    HW1 1784   3.475   1.483   4.903
  295SOL    HW2 1785   3.363   1.429   5.009
  296SOL     OW 1786   5.856   1.740   2.299
  296SOL    HW1 1787   5.910   1.662   2.329
  296SOL    HW2 1788   5.913   1.822   2.298
  297SOL     OW 1789   2.805   4.717   2.586
  297SOL    HW1 1790   2.880   4.714   2.520
  297SOL    HW2 1791   2.840   4.689   2.676
  298SOL     OW 1792   3.341   6.267   0.798
  298SOL    HW1 1793   3.279   6.266   0.877
  298SOL    HW2 1794   3.415   6.201   0.814
  299SOL     OW 1795   4.336   2.957   6.606
  299SOL    HW1 1796   4.347   2.962   6.507
  299SOL    HW2 1797   4.342   3.049   6.644
  300SOL     OW 1798   4.922   0.642   1.541
  300SOL    HW1 1799   4.887   0.571   1.602
  300SOL    HW2 1800   4.849   0.707   1.520
  301SOL     OW 1801   5.671   2.828   0.929
  301SOL    HW1 1802   5.681   2.752   0.993
  301SOL    HW2 1803   5.703   2.913   0.972
  302SOL     OW 1804   0.074   0.818   3.714
  302SOL    HW1 1805   0.049   0.897   3.770
  302SOL    HW2 1806   0.157   0.776   3.752
  303SOL     OW 1807   6.771   6.599   2.151
  303SOL    HW1 1808   6.830   6.634   2.224
  303SOL    HW2 1809   6.780   6.500   2.145
  304SOL     OW 1810   1.651   6.749   5.532
  304SOL    HW1 1811   1.745   6.779   5.519
  304SOL    HW2 1812   1.637   6.661   5.486
  305SOL     OW 1813   1.355   3.064   0.683
  305SOL    HW1 1814   1.401   3.146   0.650
  305SOL    HW2 1815   1.380   3.047   0.779
  306SOL     OW 1816   1.655   0.895   3.527
  306SOL    HW1 1817   1.742   0.867   3.487
  306SOL    HW2 1818   1.655   0.995   3.538
  307SOL     OW 1819   4.916   5.640   0.482
  307SOL    HW1 1820   4.998   5.661   0.428
  307SOL    HW2 1821   4.835   5.676   0.435
  308SOL     OW 1822   5.510   3.344   4.449
  308SOL    HW1 1823   5.532   3.250   4.426
  308SOL    HW2 1824   5.480   3.349   4.544
  309SOL     OW 1825   2.178   5.716   0.149
  309SOL    HW1 1826   2.266   5.756   0.175
  309SOL    HW2 1827   2.165   5.726   0.050
  310SOL     OW 1828   5.213   6.738   5.627
  310SOL    HW1 1829   5.210   6.771   5.532
  310SOL    HW2 1830   5.121   6.733   5.663
  311SOL     OW 1831   4.152   4.750   2.351
  311SOL    HW1 1832   4.060   4.757   2.312
  311SOL    HW2 1833   4.210   4.696   2.290
  312SOL     OW 1834   4.056   1.113   4.502
  312SOL    HW1 1835   3.989   1.046   4.472
  312SOL    HW2 1836   4.095   1.083   4.590
  313SOL     OW 1837   2.992   3.770   2.554
  313SOL    HW1 1838   3.091   3.766   2.540
  313SOL    HW2 1839   2.965   3.707   2.626
  314SOL     OW 1840   2.585   4.608   6.360
  314SOL    HW1 1841   2.615   4.703   6.375
  314SOL    HW2 1842   2.512   4.586   6.424
  315SOL     OW 1843   1.037   3.009   3.963
  315SOL    HW1 1844   0.982   2.952   4.025
  315SOL    HW2 1845   1.123   2.961   3.942
  316SOL     OW 1846   2.919   1.082   4.392
  316SOL    HW1 1847   2.826   1.073   4.358
  316SOL    HW2 1848   2.977   1.118   4.318
  317SOL     OW 1849   6.925   1.407   0.846
  317SOL    HW1 1850   6.960   1.497   0.872
  317SOL    HW2 1851   6.863   1.416   0.769
  318SOL     OW 1852   0.521   5.614   6.486
  318SOL    HW1 1853   0.475   5.565   6.560
  318SOL    HW2 1854   0.505   5.567   6.399
  319SOL     OW 1855   6.205   1.279   3.122
  319SOL    HW1 1856   6.231   1.240   3.210
  319SOL    HW2 1857   6.149   1.360   3.137
  320SOL     OW 1858   6.626   2.224   1.520
  320SOL    HW1 1859   6.603   2.150   1.457
  320SOL    HW2 1860   6.675   2.186   1.599
  321SOL     OW 1861   3.563   1.541   6.996
  321SOL    HW1 1862   3.506   1.461   7.012
  321SOL    HW2 1863   3.508   1.614   6.956
  322SOL     OW 1864   3.341   2.924   4.088
  322SOL    HW1 1865   3.256   2.972   4.113
  322SOL    HW2 1866   3.349   2.921   3.989
  323SOL     OW 1867   1.132   2.741   6.511
  323SOL    HW1 1868   1.037   2.729   6.540
  323SOL    HW2 1869   1.143   2.705   6.418
  324SOL     OW 1870   2.711   0.788   4.457
  324SOL    HW1 1871   2.711   0.841   4.372
  324SOL    HW2 1872   2.706   0.851   4.535
  325SOL     OW 1873   0.259   2.694   1.779
  325SOL    HW1 1874   0.272   2.607   1.732
  325SOL    HW2 1875   0.162   2.706   1.799
  326SOL     OW 1876   1.090   5.097   6.478
  326SOL    HW1 1877   1.055   5.090   6.384
  326SOL    HW2 1878   1.189   5.104   6.476
  327SOL     OW 1879   1.344   4.380   3.258
  327SOL    HW1 1880   1.264   4.434   3.233
  327SOL    HW2 1881   1.329   4.284   3.234
  328SOL     OW 1882   1.484   5.829   1.550
  328SOL    HW1 1883   1.518   5.845   1.643
  328SOL    HW2 1884   1.459   5.732   1.540
  329SOL     OW 1885   4.113   3.346   4.408
  329SOL    HW1 1886   4.109   3.446   4.413
  329SOL    HW2 1887   4.092   3.307   4.497
  330SOL     OW 1888   3.763   6.587   1.500
  330SOL    HW1 1889   3.737   6.646   1.576
  330SOL    HW2 1890   3.681   6.557   1.451
  331SOL     OW 1891   3.476   5.659   0.506
  331SOL    HW1 1892   3.470   5.600   0.587
  331SOL    HW2 1893   3.392   5.712   0.497
  332SOL     OW 1894   4.612   1.871   5.003
  332SOL    HW1 1895   4.692   1.879   5.062
  332SOL    HW2 1896   4.615   1.943   4.933
  333SOL     OW 1897   3.353   0.280   6.179
  333SOL    HW1 1898   3.293   0.357   6.202
  333SOL    HW2 1899   3.343   0.208   6.248
  334SOL     OW 1900   3.656   0.667   1.353
  334SOL    HW1 1901   3.581   0.732   1.342
  334SOL    HW2 1902   3.622   0.582   1.393
  335SOL     OW 1903   4.294   0.256   5.468
  335SOL    HW1 1904   4.229   0.181   5.454
  335SOL    HW2 1905   4.325   0.290   5.379
  336SOL     OW 1906   1.968   1.343   3.580
  336SOL    HW1 1907   1.945   1.371   3.673
  336SOL    HW2 1908   2.065   1.320   3.575
  337SOL     OW 1909   0.726   2.791   0.127
  337SOL    HW1 1910   0.794   2.726   0.094
  337SOL    HW2 1911   0.676   2.751   0.203
  338SOL     OW 1912   3.125   2.706   1.390
  338SOL    HW1 1913   3.172   2.617   1.385
  338SOL    HW2 1914   3.132   2.741   1.484
  339SOL     OW 1915   4.102   5.737   4.015
  339SOL    HW1 1916   4.013   5.718   3.974
  339SOL    HW2 1917   4.092   5.803   4.090
  340SOL     OW 1918   4.862   4.219   5.153
  340SOL    HW1 1919   4.828   4.149   5.091
  340SOL    HW2 1920   4.873   4.181   5.244
  341SOL     OW 1921   6.819   0.400   4.713
  341SOL    HW1 1922   6.813   0.433   4.619
  341SOL    HW2 1923   6.738   0.428   4.764
  342SOL     OW 1924   6.204   3.899   6.856
  342SOL    HW1 1925   6.156   3.831   6.911
  342SOL    HW2 1926   6.278   3.854   6.806
  343SOL     OW 1927   1.485   5.534   0.581
  343SOL    HW1 1928   1.573   5.489   0.591
  343SOL    HW2 1929   1.425   5.479   0.522
  344SOL     OW 1930   1.331   3.584   2.043
  344SOL    HW1 1931   1.362   3.596   1.949
  344SOL    HW2 1932   1.382   3.510   2.085
  345SOL     OW 1933   4.082   1.678   3.209
  345SOL    HW1 1934   4.138   1.749   3.253
  345SOL    HW2 1935   4.106   1.589   3.247
  346SOL     OW 1936   2.025   0.607   2.608
  346SOL    HW1 1937   2.109   0.581   2.656
  346SOL    HW2 1938   1.948   0.602   2.671
  347SOL     OW 1939   2.941   5.854   6.466
  347SOL    HW1 1940   3.011   5.783   6.474
  347SOL    HW2 1941   2.904   5.875   6.556
  348SOL     OW 1942   5.377   4.332   2.607
  348SOL    HW1 1943   5.380   4.412   2.666
  348SOL    HW2 1944   5.464   4.282   2.612
  349SOL     OW 1945   6.704   5.255   0.849
  349SOL    HW1 1946   6.767   5.182   0.875
  349SOL    HW2 1947   6.724   5.337   0.903
  350SOL     OW 1948   3.307   3.564   0.727
  350SOL    HW1 1949   3.323   3.501   0.651
  350SOL    HW2 1950   3.277   3.513   0.807
  351SOL     OW 1951   2.046   2.960   1.589
  351SOL    HW1 1952   2.009   2.903   1.515
  351SOL    HW2 1953   2.069   3.050   1.553
  352SOL     OW 1954   2.880   0.634   4.971
  352SOL    HW1 1955   2.802   0.662   4.915
  352SOL    HW2 1956   2.849   0.612   5.063
  353SOL     OW 1957   2.000   0.196   0.815
  353SOL    HW1 1958   1.928   0.131   0.841
  353SOL    HW2 1959   1.995   0.212   0.716
  354SOL     OW 1960   3.750   2.747   0.618
  354SOL    HW1 1961   3.766   2.648   0.624
  354SOL    HW2 1962   3.806   2.785   0.544
  355SOL     OW 1963   0.915   3.324   2.431
  355SOL    HW1 1964   0.937   3.406   2.378
  355SOL    HW2 1965   0.822   3.295   2.410
  356SOL     OW 1966   3.070   0.151   5.947
  356SOL    HW1 1967   3.122   0.229   5.982
  356SOL    HW2 1968   3.101   0.067   5.992
  357SOL     OW 1969   6.470   6.301   6.198
  357SOL    HW1 1970   6.460   6.288   6.099
  357SOL    HW2 1971   6.380   6.301   6.241
  358SOL     OW 1972   3.976   6.880   0.602
  358SOL    HW1 1973   3.934   6.801   0.559
  358SOL    HW2 1974   3.906   6.941   0.638
  359SOL     OW 1975   1.767   2.860   2.185
  359SOL    HW1 1976   1.792   2.814   2.270
  359SOL    HW2 1977   1.845   2.857   2.121
  360SOL     OW 1978   0.709   5.023   6.223
  360SOL    HW1 1979   0.665   4.954   6.281
  360SOL    HW2 1980   0.712   5.110   6.271
  361SOL     OW 1981   5.778   5.961   2.948
  361SOL    HW1 1982   5.853   5.976   3.012
  361SOL    HW2 1983   5.812   5.920   2.864
  362SOL     OW 1984   3.668   3.690   1.197
  362SOL    HW1 1985   3.705   3.767   1.250
  362SOL    HW2 1986   3.716   3.606   1.222
  363SOL     OW 1987   5.245   4.388   3.414
  363SOL    HW1 1988   5.235   4.471   3.359
  363SOL    HW2 1989   5.218   4.309   3.359
  364SOL     OW 1990   0.013   5.091   6.740
  364SOL    HW1 1991   0.078   5.148   6.791
  364SOL    HW2 1992   0.060   5.047   6.663
  365SOL     OW 1993   6.276   6.055   2.275
  365SOL    HW1 1994   6.325   6.086   2.356
  365SOL    HW2 1995   6.191   6.107   2.265
  366SOL     OW 1996   6.035   0.727   6.164
  366SOL    HW1 1997   6.025   0.726   6.064
  366SOL    HW2 1998   6.104   0.660   6.191
  367SOL     OW 1999   5.689   3.141   1.003
  367SOL    HW1 2000   5.736   3.207   0.945
  367SOL    HW2 2001   5.590   3.149   0.990
  368SOL     OW 2002   0.294   3.908   5.013
  368SOL    HW1 2003   0.369   3.947   5.066
  368SOL    HW2 2004   0.330   3.849   4.941
  369SOL     OW 2005   6.492   5.092   2.038
  369SOL    HW1 2006   6.575   5.138   2.007
  369SOL    HW2 2007   6.517   5.006   2.084
  370SOL     OW 2008   2.518   1.326   6.062
  370SOL    HW1 2009   2.448   1.357   5.998
  370SOL    HW2 2010   2.589   1.396   6.071
  371SOL     OW 2011   2.189   3.555   6.180
  371SOL    HW1 2012   2.176   3.456   6.172
  371SOL    HW2 2013   2.244   3.588   6.103
  372SOL     OW 2014   0.991   6.492   6.040
  372SOL    HW1 2015   0.906   6.493   6.094
  372SOL    HW2 2016   1.019   6.586   6.020
  373SOL     OW 2017   6.330   6.574   4.712
  373SOL    HW1 2018   6.243   6.616   4.738
  373SOL    HW2 2019   6.406   6.626   4.753
  374SOL     OW 2020   2.612   1.841   3.893
  374SOL    HW1 2021   2.609   1.911   3.965
  374SOL    HW2 2022   2.706   1.832   3.859
  375SOL     OW 2023   1.043   4.061   4.076
  375SOL    HW1 2024   1.018   4.013   3.993
  375SOL    HW2 2025   0.978   4.136   4.093
  376SOL     OW 2026   2.811   1.511   5.280
  376SOL    HW1 2027   2.867   1.452   5.338
  376SOL    HW2 2028   2.730   1.462   5.250
  377SOL     OW 2029   1.150   1.807   1.578
  377SOL    HW1 2030   1.238   1.849   1.555
  377SOL    HW2 2031   1.101   1.784   1.494
  378SOL     OW 2032   3.855   2.562   6.088
  378SOL    HW1 2033   3.844   2.562   6.188
  378SOL    HW2 2034   3.774   2.603   6.046
  379SOL     OW 2035   5.956   4.359   0.848
  379SOL    HW1 2036   6.003   4.316   0.925
  379SOL    HW2 2037   5.971   4.458   0.850
  380SOL     OW 2038   2.690   1.309   1.259
  380SOL    HW1 2039   2.651   1.217   1.267
  380SOL    HW2 2040   2.724   1.323   1.167
  381SOL     OW 2041   1.598   3.475   2.446
  381SOL    HW1 2042   1.640   3.565   2.437
  381SOL    HW2 2043   1.534   3.476   2.523
  382SOL     OW 2044   6.112   0.255   6.512
  382SOL    HW1 2045   6.150   0.199   6.586
  382SOL    HW2 2046   6.082   0.195   6.437
  383SOL     OW 2047   4.477   3.980   5.994
  383SOL    HW1 2048   4.512   3.961   5.902
  383SOL    HW2 2049   4.400   4.043   5.988
  384SOL     OW 2050   6.780   5.996   4.531
  384SOL    HW1 2051   6.819   5.915   4.489
  384SOL    HW2 2052   6.715   5.969   4.602
  385SOL     OW 2053   3.997   5.631   5.421
  385SOL    HW1 2054   3.903   5.664   5.424
  385SOL    HW2 2055   4.005   5.546   5.474
  386SOL     OW 2056   2.348   6.762   5.310
  386SOL    HW1 2057   2.327   6.859   5.324
  386SOL    HW2 2058   2.270   6.706   5.338
  387SOL     OW 2059   1.098   6.994   3.765
  387SOL    HW1 2060   1.030   0.013   3.700
  387SOL    HW2 2061   1.071   0.004   3.858
  388SOL     OW 2062   1.576   1.874   4.220
  388SOL    HW1 2063   1.650   1.940   4.233
  388SOL    HW2 2064   1.614   1.782   4.214
  389SOL     OW 2065   3.829   4.692   1.081
  389SOL    HW1 2066   3.869   4.649   1.000
  389SOL    HW2 2067   3.902   4.717   1.145
  390SOL     OW 2068   3.615   1.154   0.026
  390SOL    HW1 2069   3.653   1.071   0.066
  390SOL    HW2 2070   3.579   1.213   0.098
  391SOL     OW 2071   2.675   3.861   5.741
  391SOL    HW1 2072   2.655   3.777   5.691
  391SOL    HW2 2073   2.679   3.938   5.677
  392SOL     OW 2074   1.968   4.321   0.605
  392SOL    HW1 2075   1.934   4.414   0.621
  392SOL    HW2 2076   2.040   4.324   0.535
  393SOL     OW 2077   1.392   4.551   6.345
  393SOL    HW1 2078   1.373   4.455   6.322
  393SOL    HW2 2079   1.475   4.556   6.401
  394SOL     OW 2080   6.720   2.677   1.201
  394SOL    HW1 2081   6.749   2.587   1.235
  394SOL    HW2 2082   6.786   2.710   1.134
  395SOL     OW 2083   4.793   4.778   2.792
  395SOL    HW1 2084   4.814   4.872   2.820
  395SOL    HW2 2085   4.872   4.741   2.742
  396SOL     OW 2086   3.013   3.660   2.068
  396SOL    HW1 2087   3.015   3.656   1.968
  396SOL    HW2 2088   2.988   3.570   2.104
  397SOL     OW 2089   5.672   1.746   6.047
  397SOL    HW1 2090   5.719   1.809   5.984
  397SOL    HW2 2091   5.573   1.758   6.038
  398SOL     OW 2092   1.359   6.984   3.670
  398SOL    HW1 2093   1.272   6.975   3.719
  398SOL    HW2 2094   1.421   0.026   3.722
  399SOL     OW 2095   5.565   6.344   3.664
  399SOL    HW1 2096   5.499   6.273   3.640
  399SOL    HW2 2097   5.655   6.302   3.678
  400SOL     OW 2098   6.131   6.796   5.189
  400SOL    HW1 2099   6.103   6.836   5.102
  400SOL    HW2 2100   6.189   6.716   5.171
  401SOL     OW 2101   5.293   6.867   6.439
  401SOL    HW1 2102   5.201   6.899   6.419
  401SOL    HW2 2103   5.342   6.936   6.492
  402SOL     OW 2104   6.575   0.481   3.736
  402SOL    HW1 2105   6.490   0.524   3.766
  402SOL    HW2 2106   6.579   0.387   3.769
  403SOL     OW 2107   3.871   1.229   5.005
  403SOL    HW1 2108   3.898   1.179   4.923
  403SOL    HW2 2109   3.898   1.325   4.996
  404SOL     OW 2110   1.786   4.506   3.729
  404SOL    HW1 2111   1.741   4.573   3.788
  404SOL    HW2 2112   1.764   4.414   3.762
  405SOL     OW 2113   2.027   3.027   2.684
  405SOL    HW1 2114   1.955   3.051   2.618
  405SOL    HW2 2115   2.108   2.994   2.634
  406SOL     OW 2116   0.438   4.355   4.548
  406SOL    HW1 2117   0.445   4.354   4.648
  406SOL    HW2 2118   0.409   4.264   4.516
  407SOL     OW 2119   0.897   1.511   5.192
  407SOL    HW1 2120   0.807   1.552   5.177
  407SOL    HW2 2121   0.968   1.580   5.181
  408SOL     OW 2122   2.896   1.997   2.964
  408SOL    HW1 2123   2.978   2.041   2.927
  408SOL    HW2 2124   2.887   1.905   2.925
  409SOL     OW 2125   5.877   3.923   2.321
  409SOL    HW1 2126   5.967   3.953   2.351
  409SOL    HW2 2127   5.835   3.865   2.392
  410SOL     OW 2128   1.126   1.676   0.917
  410SOL    HW1 2129   1.140   1.708   1.011
  410SOL    HW2 2130   1.137   1.752   0.854
  411SOL     OW 2131   6.800   0.920   1.180
  411SOL    HW1 2132   6.711   0.932   1.225
  411SOL    HW2 2133   6.860   0.867   1.240
  412SOL     OW 2134   3.619   5.729   3.205
  412SOL    HW1 2135   3.597   5.635   3.233
  412SOL    HW2 2136   3.717   5.736   3.189
  413SOL     OW 2137   5.992   4.197   1.999
  413SOL    HW1 2138   6.087   4.170   1.980
  413SOL    HW2 2139   5.949   4.228   1.914
  414SOL     OW 2140   3.830   5.761   3.566
  414SOL    HW1 2141   3.924   5.791   3.554
  414SOL    HW2 2142   3.812   5.680   3.510
  415SOL     OW 2143   0.059   0.250   6.512
  415SOL    HW1 2144   0.127   0.323   6.503
  415SOL    HW2 2145   6.984   0.285   6.490
  416SOL     OW 2146   4.854   6.151   4.783
  416SOL    HW1 2147   4.777   6.196   4.829
  416SOL    HW2 2148   4.923   6.219   4.759
  417SOL     OW 2149   2.243   6.694   5.663
  417SOL    HW1 2150   2.200   6.666   5.578
  417SOL    HW2 2151   2.337   6.722   5.646
  418SOL     OW 2152   3.577   6.396   6.673
  418SOL    HW1 2153   3.479   6.399   6.696
  418SOL    HW2 2154   3.595   6.319   6.613
  419SOL     OW 2155   1.584   6.393   2.802
  419SOL    HW1 2156   1.591   6.387   2.901
  419SOL    HW2 2157   1.580   6.301   2.763
  420SOL     OW 2158   6.081   1.547   0.064
  420SOL    HW1 2159   6.165   1.594   0.091
  420SOL    HW2 2160   6.090   1.512   6.986
  421SOL     OW 2161   6.451   4.178   5.250
  421SOL    HW1 2162   6.395   4.186   5.167
  421SOL    HW2 2163   6.548   4.184   5.225
  422SOL     OW 2164   5.242   3.627   1.567
  422SOL    HW1 2165   5.172   3.641   1.497
  422SOL    HW2 2166   5.296   3.546   1.544
  423SOL     OW 2167   1.210   2.311   6.712
  423SOL    HW1 2168   1.258   2.385   6.759
  423SOL    HW2 2169   1.160   2.347   6.633
  424SOL     OW 2170   1.860   5.072   1.838
  424SOL    HW1 2171   1.840   4.979   1.869
  424SOL    HW2 2172   1.775   5.126   1.835
  425SOL     OW 2173   5.061   1.755   3.723
  425SOL    HW1 2174   5.140   1.787   3.776
  425SOL    HW2 2175   5.037   1.662   3.753
  426SOL     OW 2176   2.890   2.076   4.369
  426SOL    HW1 2177   2.863   1.979   4.366
  426SOL    HW2 2178   2.967   2.087   4.431
  427SOL     OW 2179   6.302   6.629   3.899
  427SOL    HW1 2180   6.341   6.689   3.969
  427SOL    HW2 2181   6.301   6.535   3.933
  428SOL     OW 2182   3.871   0.026   3.260
  428SOL    HW1 2183   3.840   0.121   3.267
  428SOL    HW2 2184   3.819   6.984   3.323
  429SOL     OW 2185   0.400   4.568   2.791
  429SOL    HW1 2186   0.410   4.506   2.714
  429SOL    HW2 2187   0.395   4.662   2.758
  430SOL     OW 2188   1.490   6.080   4.281
  430SOL    HW1 2189   1.392   6.088   4.264
  430SOL    HW2 2190   1.508   6.095   4.379
  431SOL     OW 2191   3.058   0.590   1.404
  431SOL    HW1 2192   3.085   0.494   1.413
  431SOL    HW2 2193   3.004   0.617   1.484
  432SOL     OW 2194   6.622   1.871   1.131
  432SOL    HW1 2195   6.619   1.960   1.085
  432SOL    HW2 2196   6.534   1.824   1.118
  433SOL     OW 2197   2.599   6.622   5.444
  433SOL    HW1 2198   2.556   6.673   5.518
  433SOL    HW2 2199   2.529   6.592   5.379
  434SOL     OW 2200   4.099   5.590   3.417
  434SOL    HW1 2201   4.097   5.690   3.414
  434SOL    HW2 2202   4.008   5.554   3.398
  435SOL     OW 2203   4.247   1.896   6.191
  435SOL    HW1 2204   4.301   1.937   6.264
  435SOL    HW2 2205   4.308   1.865   6.118
  436SOL     OW 2206   2.910   5.202   2.007
  436SOL    HW1 2207   2.859   5.165   2.085
  436SOL    HW2 2208   3.001   5.160   2.004
  437SOL     OW 2209   0.429   1.200   6.030
  437SOL    HW1 2210   0.471   1.251   6.106
  437SOL    HW2 2211   0.476   1.223   5.945
  438SOL     OW 2212   1.889   3.689   4.092
  438SOL    HW1 2213   1.866   3.669   3.997
  438SOL    HW2 2214   1.987   3.675   4.106
  439SOL     OW 2215   5.931   6.096   2.556
  439SOL    HW1 2216   5.957   6.142   2.641
  439SOL    HW2 2217   5.992   6.019   2.539
  440SOL     OW 2218   2.972   1.948   5.834
  440SOL    HW1 2219   2.901   1.997   5.884
  440SOL    HW2 2220   2.944   1.937   5.738
  441SOL     OW 2221   0.149   3.595   3.121
  441SOL    HW1 2222   0.168   3.508   3.077
  441SOL    HW2 2223   0.234   3.633   3.157
  442SOL     OW 2224   4.240   5.965   5.729
  442SOL    HW1 2225   4.196   5.887   5.684
  442SOL    HW2 2226   4.296   6.014   5.662
  443SOL     OW 2227   5.833   3.994   4.768
  443SOL    HW1 2228   5.802   4.045   4.847
  443SOL    HW2 2229   5.765   4.000   4.695
  444SOL     OW 2230   5.308   0.324   6.470
  444SOL    HW1 2231   5.388   0.278   6.431
  444SOL    HW2 2232   5.314   0.321   6.570
  445SOL     OW 2233   2.006   5.833   3.194
  445SOL    HW1 2234   2.002   5.842   3.095
  445SOL    HW2 2235   1.970   5.743   3.221
  446SOL     OW 2236   4.140   5.201   2.594
  446SOL    HW1 2237   4.166   5.117   2.547
  446SOL    HW2 2238   4.159   5.280   2.536
  447SOL     OW 2239   6.828   3.609   5.716
  447SOL    HW1 2240   6.767   3.677   5.674
  447SOL    HW2 2241   6.785   3.573   5.799
  448SOL     OW 2242   2.471   0.503   2.723
  448SOL    HW1 2243   2.400   0.513   2.793
  448SOL    HW2 2244   2.431   0.513   2.633
  449SOL     OW 2245   3.046   1.174   4.139
  449SOL    HW1 2246   3.045   1.240   4.064
  449SOL    HW2 2247   3.033   1.082   4.102
  450SOL     OW 2248   1.693   4.586   3.485
  450SOL    HW1 2249   1.721   4.557   3.576
  450SOL    HW2 2250   1.631   4.664   3.492
  451SOL     OW 2251   1.690   2.176   4.521
  451SOL    HW1 2252   1.750   2.189   4.599
  451SOL    HW2 2253   1.735   2.121   4.452
  452SOL     OW 2254   4.400   6.604   0.990
  452SOL    HW1 2255   4.451   6.640   0.912
  452SOL    HW2 2256   4.408   6.504   0.992
  453SOL     OW 2257   3.707   0.224   0.040
  453SOL    HW1 2258   3.642   0.151   0.016
  453SOL    HW2 2259   3.799   0.196   0.014
  454SOL     OW 2260   6.966   3.640   6.352
  454SOL    HW1 2261   6.885   3.597   6.392
  454SOL    HW2 2262   0.032   3.615   6.404
  455SOL     OW 2263   5.018   2.810   4.823
  455SOL    HW1 2264   4.970   2.872   4.761
  455SOL    HW2 2265   4.976   2.719   4.820
  456SOL     OW 2266   1.371   0.280   4.644
  456SOL    HW1 2267   1.412   0.285   4.735
  456SOL    HW2 2268   1.344   0.186   4.625
  457SOL     OW 2269   1.974   4.288   4.406
  457SOL    HW1 2270   1.918   4.354   4.356
  457SOL    HW2 2271   2.018   4.226   4.340
  458SOL     OW 2272   2.827   6.242   3.011
  458SOL    HW1 2273   2.850   6.163   3.067
  458SOL    HW2 2274   2.797   6.318   3.069
  459SOL     OW 2275   1.872   6.984   5.987
  459SOL    HW1 2276   1.905   6.970   5.893
  459SOL    HW2 2277   1.883   0.065   6.011
  460SOL     OW 2278   1.549   6.963   4.521
  460SOL    HW1 2279   1.564   6.962   4.422
  460SOL    HW2 2280   1.637   6.972   4.568
  461SOL     OW 2281   6.840   5.165   5.734
  461SOL    HW1 2282   6.894   5.209   5.806
  461SOL    HW2 2283   6.743   5.183   5.748
  462SOL     OW 2284   4.047   3.277   6.123
  462SOL    HW1 2285   3.963   3.311   6.165
  462SOL    HW2 2286   4.113   3.253   6.195
  463SOL     OW 2287   6.903   0.161   4.233
  463SOL    HW1 2288   6.880   0.064   4.236
  463SOL    HW2 2289   6.984   0.179   4.289
  464SOL     OW 2290   2.831   0.754   5.873
  464SOL    HW1 2291   2.874   0.682   5.818
  464SOL    HW2 2292   2.845   0.735   5.970
  465SOL     OW 2293   0.310   2.368   0.066
  465SOL    HW1 2294   0.257   2.286   0.047
  465SOL    HW2 2295   0.257   2.430   0.124
  466SOL     OW 2296   2.873   6.705   4.149
  466SOL    HW1 2297   2.824   6.792   4.162
  466SOL    HW2 2298   2.850   6.667   4.060
  467SOL     OW 2299   1.502   1.394   2.110
  467SOL    HW1 2300   1.407   1.378   2.135
  467SOL    HW2 2301   1.562   1.345   2.173
  468SOL     OW 2302   3.308   5.534   5.286
  468SOL    HW1 2303   3.332   5.499   5.376
  468SOL    HW2 2304   3.278   5.458   5.228
  469SOL     OW 2305   2.807   3.636   6.129
  469SOL    HW1 2306   2.881   3.568   6.124
  469SOL    HW2 2307   2.824   3.708   6.062
  470SOL     OW 2308   4.061   6.016   1.431
  470SOL    HW1 2309   4.107   6.058   1.352
  470SOL    HW2 2310   4.125   6.014   1.509
  471SOL     OW 2311   2.435   2.653   3.606
  471SOL    HW1 2312   2.531   2.674   3.624
  471SOL    HW2 2313   2.377   2.709   3.665
  472SOL     OW 2314   5.607   4.553   6.683
  472SOL    HW1 2315   5.691   4.524   6.637
  472SOL    HW2 2316   5.529   4.542   6.621
  473SOL     OW 2317   1.407   1.758   2.251
  473SOL    HW1 2318   1.467   1.825   2.208
  473SOL    HW2 2319   1.359   1.706   2.181
  474SOL     OW 2320   5.291   5.545   4.792
  474SOL    HW1 2321   5.213   5.598   4.825
  474SOL    HW2 2322   5.365   5.550   4.859
  475SOL     OW 2323   6.160   2.776   0.733
  475SOL    HW1 2324   6.240   2.768   0.793
  475SOL    HW2 2325   6.117   2.686   0.723
  476SOL     OW 2326   6.962   3.827   2.016
  476SOL    HW1 2327   7.014   3.906   1.984
  476SOL    HW2 2328   6.887   3.858   2.074
  477SOL     OW 2329   2.777   5.855   3.293
  477SOL    HW1 2330   2.719   5.864   3.374
  477SOL    HW2 2331   2.833   5.937   3.283
  478SOL     OW 2332   3.964   5.599   2.911
  478SOL    HW1 2333   3.975   5.680   2.853
  478SOL    HW2 2334   4.039   5.535   2.893
  479SOL     OW 2335   3.973   3.229   4.885
  479SOL    HW1 2336   3.966   3.302   4.953
  479SOL    HW2 2337   4.007   3.267   4.798
  480SOL     OW 2338   2.836   0.450   1.086
  480SOL    HW1 2339   2.933   0.433   1.100
  480SOL    HW2 2340   2.819   0.468   0.989
  481SOL     OW 2341   1.088   6.644   2.041
  481SOL    HW1 2342   1.123   6.566   2.094
  481SOL    HW2 2343   1.022   6.612   1.973
  482SOL     OW 2344   4.689   4.938   2.032
  482SOL    HW1 2345   4.653   5.004   2.099
  482SOL    HW2 2346   4.613   4.895   1.984
  483SOL     OW 2347   6.686   2.504   2.803
  483SOL    HW1 2348   6.743   2.573   2.849
  483SOL    HW2 2349   6.642   2.447   2.872
  484SOL     OW 2350   1.555   3.873   4.400
  484SOL    HW1 2351   1.647   3.867   4.439
  484SOL    HW2 2352   1.547   3.957   4.346
  485SOL     OW 2353   4.923   4.712   2.443
  485SOL    HW1 2354   4.984   4.747   2.514
  485SOL    HW2 2355   4.945   4.755   2.356
  486SOL     OW 2356   6.046   1.838   0.198
  486SOL    HW1 2357   6.063   1.825   0.100
  486SOL    HW2 2358   6.055   1.936   0.220
  487SOL     OW 2359   0.468   0.515   3.471
  487SOL    HW1 2360   0.504   0.606   3.492
  487SOL    HW2 2361   0.478   0.455   3.551
  488SOL     OW 2362   0.788   0.019   2.154
  488SOL    HW1 2363   0.699   7.009   2.192
  488SOL    HW2 2364   0.858   6.970   2.184
  489SOL     OW 2365   5.103   6.441   5.825
  489SOL    HW1 2366   5.135   6.364   5.770
  489SOL    HW2 2367   5.103   6.524   5.769
  490SOL     OW 2368   2.156   6.142   3.745
  490SOL    HW1 2369   2.205   6.071   3.694
  490SOL    HW2 2370   2.206   6.164   3.828
  491SOL     OW 2371   1.551   3.273   1.348
  491SOL    HW1 2372   1.495   3.233   1.421
  491SOL    HW2 2373   1.608   3.346   1.385
  492SOL     OW 2374   1.471   0.990   5.796
  492SOL    HW1 2375   1.566   0.960   5.790
  492SOL    HW2 2376   1.464   1.067   5.859
  493SOL     OW 2377   2.985   6.720   5.655
  493SOL    HW1 2378   2.930   6.680   5.581
  493SOL    HW2 2379   3.023   6.807   5.624
  494SOL     OW 2380   1.292   6.794   6.586
  494SOL    HW1 2381   1.253   6.883   6.564
  494SOL    HW2 2382   1.289   6.735   6.505
  495SOL     OW 2383   3.849   5.741   3.858
  495SOL    HW1 2384   3.840   5.642   3.864
  495SOL    HW2 2385   3.838   5.770   3.763
  496SOL     OW 2386   5.735   2.905   1.910
  496SOL    HW1 2387   5.705   2.898   2.005
  496SOL    HW2 2388   5.803   2.833   1.892
  497SOL     OW 2389   3.118   1.160   4.782
  497SOL    HW1 2390   3.194   1.117   4.732
  497SOL    HW2 2391   3.056   1.203   4.716
  498SOL     OW 2392   0.923   4.704   2.605
  498SOL    HW1 2393   0.992   4.707   2.532
  498SOL    HW2 2394   0.963   4.738   2.690
  499SOL     OW 2395   1.809   5.354   4.597
  499SOL    HW1 2396   1.812   5.454   4.590
  499SOL    HW2 2397   1.720   5.321   4.568
  500SOL     OW 2398   6.042   2.568   0.108
  500SOL    HW1 2399   5.995   2.643   0.154
  500SOL    HW2 2400   6.090   2.604   0.027
  501SOL     OW 2401   3.988   6.505   0.906
  501SOL    HW1 2402   3.909   6.562   0.881
  501SOL    HW2 2403   3.970   6.461   0.995
  502SOL     OW 2404   0.826   4.692   6.076
  502SOL    HW1 2405   0.797   4.695   5.980
  502SOL    HW2 2406   0.924   4.710   6.081
  503SOL     OW 2407   1.357   4.732   6.163
  503SOL    HW1 2408   1.367   4.659   6.230
  503SOL    HW2 2409   1.413   4.711   6.083
  504SOL     OW 2410   1.221   5.653   2.322
  504SOL    HW1 2411   1.169   5.593   2.383
  504SOL    HW2 2412   1.162   5.686   2.249
  505SOL     OW 2413   4.032   6.301   4.905
  505SOL    HW1 2414   4.023   6.251   4.819
  505SOL    HW2 2415   4.119   6.278   4.949
  506SOL     OW 2416   3.372   5.905   2.502
  506SOL    HW1 2417   3.302   5.971   2.526
  506SOL    HW2 2418   3.432   5.889   2.581
  507SOL     OW 2419   3.083   6.408   3.198
  507SOL    HW1 2420   3.154   6.456   3.249
  507SOL    HW2 2421   3.062   6.322   3.243
  508SOL     OW 2422   6.867   3.490   2.271
  508SOL    HW1 2423   6.807   3.466   2.195
  508SOL    HW2 2424   6.950   3.435   2.266
  509SOL     OW 2425   3.438   1.301   0.979
  509SOL    HW1 2426   3.346   1.340   0.977
  509SOL    HW2 2427   3.441   1.229   1.049
  510SOL     OW 2428   6.536   4.380   6.296
  510SOL    HW1 2429   6.533   4.288   6.257
  510SOL    HW2 2430   6.626   4.395   6.338
  511SOL     OW 2431   0.563   2.447   6.618
  511SOL    HW1 2432   0.549   2.377   6.688
  511SOL    HW2 2433   0.549   2.538   6.658
  512SOL     OW 2434   6.804   2.504   6.860
  512SOL    HW1 2435   6.883   2.483   6.919
  512SOL    HW2 2436   6.816   2.459   6.772
  513SOL     OW 2437   5.329   6.638   3.431
  513SOL    HW1 2438   5.267   6.615   3.506
  513SOL    HW2 2439   5.276   6.645   3.346
  514SOL     OW 2440   6.521   0.644   4.556
  514SOL    HW1 2441   6.596   0.579   4.540
  514SOL    HW2 2442   6.559   0.735   4.574
  515SOL     OW 2443   1.747   1.008   0.203
  515SOL    HW1 2444   1.664   0.957   0.180
  515SOL    HW2 2445   1.729   1.106   0.197
  516SOL     OW 2446   2.845   4.827   1.787
  516SOL    HW1 2447   2.850   4.747   1.848
  516SOL    HW2 2448   2.756   4.871   1.798
  517SOL     OW 2449   3.183   4.817   1.932
  517SOL    HW1 2450   3.282   4.828   1.939
  517SOL    HW2 2451   3.161   4.759   1.854
  518SOL     OW 2452   2.260   2.355   3.562
  518SOL    HW1 2453   2.349   2.381   3.525
  518SOL    HW2 2454   2.192   2.424   3.536
  519SOL     OW 2455   0.523   6.469   3.280
  519SOL    HW1 2456   0.546   6.562   3.309
  519SOL    HW2 2457   0.605   6.412   3.285
  520SOL     OW 2458   6.392   3.783   6.654
  520SOL    HW1 2459   6.404   3.847   6.578
  520SOL    HW2 2460   6.473   3.725   6.661
  521SOL     OW 2461   6.324   6.228   5.303
  521SOL    HW1 2462   6.305   6.200   5.209
  521SOL    HW2 2463   6.409   6.280   5.306
  522SOL     OW 2464   4.017   3.429   3.405
  522SOL    HW1 2465   4.076   3.440   3.484
  522SOL    HW2 2466   4.048   3.490   3.332
  523SOL     OW 2467   0.068   5.904   1.222
  523SOL    HW1 2468   0.116   5.937   1.140
  523SOL    HW2 2469   7.009   5.967   1.245
  524SOL     OW 2470   1.210   2.352   2.804
  524SOL    HW1 2471   1.149   2.275   2.823
  524SOL    HW2 2472   1.192   2.426   2.869
  525SOL     OW 2473   1.821   4.304   5.788
  525SOL    HW1 2474   1.819   4.279   5.884
  525SOL    HW2 2475   1.914   4.290   5.752
  526SOL     OW 2476   3.653   6.828   3.919
  526SOL    HW1 2477   3.576   6.863   3.971
  526SOL    HW2 2478   3.623   6.802   3.828
  527SOL     OW 2479   6.765   2.882   0.679
  527SOL    HW1 2480   6.853   2.882   0.726
  527SOL    HW2 2481   6.709   2.957   0.712
  528SOL     OW 2482   1.710   2.541   3.708
  528SOL    HW1 2483   1.662   2.554   3.622
  528SOL    HW2 2484   1.789   2.480   3.693
  529SOL     OW 2485   1.661   6.384   5.077
  529SOL    HW1 2486   1.745   6.345   5.115
  529SOL    HW2 2487   1.582   6.337   5.116
  530SOL     OW 2488   4.047   3.660   3.262
  530SOL    HW1 2489   3.998   3.702   3.338
  530SOL    HW2 2490   4.127   3.716   3.239
  531SOL     OW 2491   0.753   1.230   2.981
  531SOL    HW1 2492   0.730   1.254   3.075
  531SOL    HW2 2493   0.669   1.208   2.931
  532SOL     OW 2494   1.133   2.441   0.417
  532SOL    HW1 2495   1.109   2.472   0.509
  532SOL    HW2 2496   1.073   2.486   0.351
  533SOL     OW 2497   4.185   0.024   3.218
  533SOL    HW1 2498   4.087   0.009   3.231
  533SOL    HW2 2499   4.200   0.087   3.143
  534SOL     OW 2500   5.689   5.786   2.586
  534SOL    HW1 2501   5.753   5.749   2.654
  534SOL    HW2 2502   5.731   5.865   2.541
  535SOL     OW 2503   6.571   4.068   3.464
  535SOL    HW1 2504   6.557   4.041   3.369
  535SOL    HW2 2505   6.666   4.098   3.477
  536SOL     OW 2506   6.587   4.778   2.762
  536SOL    HW1 2507   6.643   4.858   2.783
  536SOL    HW2 2508   6.530   4.756   2.841
  537SOL     OW 2509   3.060   6.821   4.785
  537SOL    HW1 2510   3.102   6.871   4.860
  537SOL    HW2 2511   2.981   6.769   4.818
  538SOL     OW 2512   0.508   4.514   4.152
  538SOL    HW1 2513   0.449   4.557   4.083
  538SOL    HW2 2514   0.603   4.541   4.137
  539SOL     OW 2515   1.986   4.391   1.837
  539SOL    HW1 2516   1.908   4.447   1.812
  539SOL    HW2 2517   2.069   4.431   1.798
  540SOL     OW 2518   1.434   1.618   2.839
  540SOL    HW1 2519   1.399   1.559   2.912
  540SOL    HW2 2520   1.470   1.561   2.765
  541SOL     OW 2521   5.774   5.198   4.407
  541SOL    HW1 2522   5.783   5.286   4.453
  541SOL    HW2 2523   5.702   5.145   4.451
  542SOL     OW 2524   4.783   6.498   6.767
  542SOL    HW1 2525   4.808   6.466   6.675
  542SOL    HW2 2526   4.684   6.507   6.773
  543SOL     OW 2527   6.344   3.524   4.236
  543SOL    HW1 2528   6.360   3.579   4.318
  543SOL    HW2 2529   6.383   3.433   4.248
  544SOL     OW 2530   1.118   4.603   6.778
  544SOL    HW1 2531   1.059   4.668   6.826
  544SOL    HW2 2532   1.153   4.646   6.695
  545SOL     OW 2533   3.430   0.959   0.921
  545SOL    HW1 2534   3.500   0.913   0.976
  545SOL    HW2 2535   3.376   0.891   0.872
  546SOL     OW 2536   1.419   3.694   0.844
  546SOL    HW1 2537   1.450   3.607   0.882
  546SOL    HW2 2538   1.456   3.706   0.752
  547SOL     OW 2539   3.886   1.828   0.051
  547SOL    HW1 2540   3.848   1.920   0.041
  547SOL    HW2 2541   3.957   1.829   0.121
  548SOL     OW 2542   3.202   3.122   1.865
  548SOL    HW1 2543   3.293   3.118   1.824
  548SOL    HW2 2544   3.203   3.186   1.942
  549SOL     OW 2545   5.223   2.344   2.041
  549SOL    HW1 2546   5.245   2.441   2.031
  549SOL    HW2 2547   5.247   2.295   1.957
  550SOL     OW 2548   1.440   5.519   3.727
  550SOL    HW1 2549   1.469   5.614   3.741
  550SOL    HW2 2550   1.347   5.507   3.762
  551SOL     OW 2551   0.588   0.231   1.729
  551SOL    HW1 2552   0.625   0.274   1.647
  551SOL    HW2 2553   0.662   0.191   1.782
  552SOL     OW 2554   5.932   4.615   6.802
  552SOL    HW1 2555   5.899   4.653   6.715
  552SOL    HW2 2556   6.021   4.572   6.788
  553SOL     OW 2557   2.506   6.844   4.355
  553SOL    HW1 2558   2.472   6.796   4.435
  553SOL    HW2 2559   2.497   6.785   4.274
  554SOL     OW 2560   5.825   0.069   0.173
  554SOL    HW1 2561   5.865   0.045   0.085
  554SOL    HW2 2562   5.771   0.153   0.164
  555SOL     OW 2563   3.452   5.047   4.862
  555SOL    HW1 2564   3.420   5.091   4.778
  555SOL    HW2 2565   3.536   4.996   4.844
  556SOL     OW 2566   5.082   1.490   3.842
  556SOL    HW1 2567   5.092   1.470   3.745
  556SOL    HW2 2568   5.009   1.434   3.881
  557SOL     OW 2569   6.682   5.454   0.429
  557SOL    HW1 2570   6.720   5.546   0.434
  557SOL    HW2 2571   6.584   5.459   0.407
  558SOL     OW 2572   2.938   3.309   3.395
  558SOL    HW1 2573   2.943   3.292   3.494
  558SOL    HW2 2574   2.953   3.224   3.346
  559SOL     OW 2575   0.391   5.753   6.206
  559SOL    HW1 2576   0.401   5.755   6.106
  559SOL    HW2 2577   0.387   5.658   6.237
  560SOL     OW 2578   6.303   3.744   3.577
  560SOL    HW1 2579   6.249   3.822   3.544
  560SOL    HW2 2580   6.251   3.694   3.645
  561SOL     OW 2581   0.552   2.192   1.326
  561SOL    HW1 2582   0.579   2.097   1.317
  561SOL    HW2 2583   0.528   2.229   1.237
  562SOL     OW 2584   4.552   0.164   6.428
  562SOL    HW1 2585   4.624   0.148   6.361
  562SOL    HW2 2586   4.593   0.177   6.519
  563SOL     OW 2587   2.747   0.310   3.723
  563SOL    HW1 2588   2.752   0.258   3.809
  563SOL    HW2 2589   2.836   0.354   3.706
  564SOL     OW 2590   1.361   2.710   0.129
  564SOL    HW1 2591   1.268   2.715   0.093
  564SOL    HW2 2592   1.425   2.690   0.054
  565SOL     OW 2593   3.333   3.834   4.584
  565SOL    HW1 2594   3.278   3.916   4.596
  565SOL    HW2 2595   3.427   3.860   4.563
  566SOL     OW 2596   0.370   4.633   3.882
  566SOL    HW1 2597   0.385   4.703   3.813
  566SOL    HW2 2598   0.396   4.543   3.845
  567SOL     OW 2599   2.640   2.786   1.735
  567SOL    HW1 2600   2.669   2.816   1.644
  567SOL    HW2 2601   2.688   2.702   1.759
  568SOL     OW 2602   4.769   0.222   6.984
  568SOL    HW1 2603   4.780   0.140   0.026
  568SOL    HW2 2604   4.672   0.246   6.980
  569SOL     OW 2605   1.727   2.761   0.110
  569SOL    HW1 2606   1.784   2.813   0.047
  569SOL    HW2 2607   1.634   2.754   0.073
  570SOL     OW 2608   3.877   6.626   6.454
  570SOL    HW1 2609   3.888   6.582   6.543
  570SOL    HW2 2610   3.786   6.669   6.450
  571SOL     OW 2611   3.335   5.385   2.512
  571SOL    HW1 2612   3.298   5.461   2.565
  571SOL    HW2 2613   3.265   5.349   2.451
  572SOL     OW 2614   2.781   4.682   5.594
  572SOL    HW1 2615   2.756   4.746   5.521
  572SOL    HW2 2616   2.787   4.589   5.557
  573SOL     OW 2617   5.245   1.371   5.666
  573SOL    HW1 2618   5.234   1.442   5.735
  573SOL    HW2 2619   5.341   1.340   5.665
  574SOL     OW 2620   3.817   1.505   4.782
  574SOL    HW1 2621   3.723   1.540   4.779
  574SOL    HW2 2622   3.822   1.419   4.731
  575SOL     OW 2623   5.168   3.939   1.245
  575SOL    HW1 2624   5.136   4.034   1.249
  575SOL    HW2 2625   5.200   3.911   1.336
  576SOL     OW 2626   1.501   2.318   3.067
  576SOL    HW1 2627   1.521   2.221   3.084
  576SOL    HW2 2628   1.420   2.326   3.010
  577SOL     OW 2629   1.359   1.406   3.020
  577SOL    HW1 2630   1.434   1.360   3.068
  577SOL    HW2 2631   1.292   1.338   2.991
  578SOL     OW 2632   6.786   5.202   4.642
  578SOL    HW1 2633   6.708   5.143   4.623
  578SOL    HW2 2634   6.795   5.269   4.569
  579SOL     OW 2635   1.908   3.376   3.967
  579SOL    HW1 2636   1.955   3.292   3.941
  579SOL    HW2 2637   1.926   3.446   3.898
  580SOL     OW 2638   4.721   5.411   5.497
  580SOL    HW1 2639   4.683   5.319   5.494
  580SOL    HW2 2640   4.649   5.478   5.479
  581SOL     OW 2641   1.759   2.648   1.594
  581SOL    HW1 2642   1.672   2.690   1.567
  581SOL    HW2 2643   1.774   2.661   1.692
  582SOL     OW 2644   4.752   6.013   2.281
  582SOL    HW1 2645   4.777   6.107   2.302
  582SOL    HW2 2646   4.791   5.986   2.193
  583SOL     OW 2647   2.788   6.224   5.188
  583SOL    HW1 2648   2.704   6.274   5.169
  583SOL    HW2 2649   2.853   6.284   5.235
  584SOL     OW 2650   2.483   5.404   6.584
  584SOL    HW1 2651   2.544   5.481   6.604
  584SOL    HW2 2652   2.439   5.418   6.496
  585SOL     OW 2653   4.703   1.787   6.581
  585SOL    HW1 2654   4.749   1.862   6.629
  585SOL    HW2 2655   4.754   1.703   6.594
  586SOL     OW 2656   3.629   0.369   6.524
  586SOL    HW1 2657   3.658   0.426   6.601
  586SOL    HW2 2658   3.530   0.377   6.513
  587SOL     OW 2659   4.606   2.031   4.160
  587SOL    HW1 2660   4.544   1.962   4.124
  587SOL    HW2 2661   4.630   2.008   4.254
  588SOL     OW 2662   2.446   5.161   1.461
  588SOL    HW1 2663   2.432   5.258   1.442
  588SOL    HW2 2664   2.360   5.121   1.491
  589SOL     OW 2665   3.401   4.515   1.654
  589SOL    HW1 2666   3.313   4.533   1.698
  589SOL    HW2 2667   3.473   4.565   1.703
  590SOL     OW 2668   5.280   2.611   2.021
  590SOL    HW1 2669   5.265   2.669   2.101
  590SOL    HW2 2670   5.348   2.653   1.961
  591SOL     OW 2671   3.321   5.739   3.635
  591SOL    HW1 2672   3.401   5.697   3.679
  591SOL    HW2 2673   3.350   5.783   3.550
  592SOL     OW 2674   3.731   1.306   1.075
  592SOL    HW1 2675   3.632   1.294   1.075
  592SOL    HW2 2676   3.753   1.399   1.043
  593SOL     OW 2677   3.927   2.071   4.428
  593SOL    HW1 2678   3.985   2.009   4.480
  593SOL    HW2 2679   3.838   2.079   4.473
  594SOL     OW 2680   6.554   1.223   0.308
  594SOL    HW1 2681   6.617   1.296   0.337
  594SOL    HW2 2682   6.472   1.265   0.269
  595SOL     OW 2683   5.489   0.805   3.747
  595SOL    HW1 2684   5.408   0.862   3.732
  595SOL    HW2 2685   5.488   0.770   3.841
  596SOL     OW 2686   0.999   5.432   3.679
  596SOL    HW1 2687   0.946   5.361   3.725
  596SOL    HW2 2688   1.020   5.403   3.586
  597SOL     OW 2689   2.248   0.042   0.266
  597SOL    HW1 2690   2.253   6.958   0.267
  597SOL    HW2 2691   2.317   0.079   0.204
  598SOL     OW 2692   4.032   4.053   5.233
  598SOL    HW1 2693   4.017   3.958   5.205
  598SOL    HW2 2694   4.036   4.059   5.332
  599SOL     OW 2695   2.689   6.463   2.030
  599SOL    HW1 2696   2.668   6.381   2.083
  599SOL    HW2 2697   2.620   6.475   1.958
  600SOL     OW 2698   6.408   1.426   0.172
  600SOL    HW1 2699   6.375   1.502   0.116
  600SOL    HW2 2700   6.484   1.380   0.124
  601SOL     OW 2701   1.524   0.413   4.850
  601SOL    HW1 2702   1.443   0.465   4.878
  601SOL    HW2 2703   1.577   0.466   4.784
  602SOL     OW 2704   1.288   1.427   6.242
  602SOL    HW1 2705   1.292   1.330   6.264
  602SOL    HW2 2706   1.193   1.455   6.229
  603SOL     OW 2707   2.855   2.447   5.248
  603SOL    HW1 2708   2.903   2.376   5.300
  603SOL    HW2 2709   2.904   2.533   5.256
  604SOL     OW 2710   1.102   1.993   1.801
  604SOL    HW1 2711   1.173   1.934   1.761
  604SOL    HW2 2712   1.110   1.992   1.901
  605SOL     OW 2713   6.841   5.704   0.167
  605SOL    HW1 2714   6.758   5.760   0.173
  605SOL    HW2 2715   6.856   5.677   0.072
  606SOL     OW 2716   5.073   6.562   6.608
  606SOL    HW1 2717   5.040   6.653   6.581
  606SOL    HW2 2718   5.036   6.493   6.546
  607SOL     OW 2719   6.088   5.433   5.207
  607SOL    HW1 2720   6.180   5.407   5.235
  607SOL    HW2 2721   6.088   5.456   5.110
  608SOL     OW 2722   4.085   6.388   6.932
  608SOL    HW1 2723   4.034   6.346   7.007
  608SOL    HW2 2724   4.144   6.460   6.969
  609SOL     OW 2725   3.795   3.034   2.237
  609SOL    HW1 2726   3.869   3.088   2.275
  609SOL    HW2 2727   3.746   2.987   2.310
  610SOL     OW 2728   5.814   4.303   2.416
  610SOL    HW1 2729   5.774   4.211   2.412
  610SOL    HW2 2730   5.890   4.310   2.352
  611SOL     OW 2731   4.223   6.818   1.933
  611SOL    HW1 2732   4.132   6.776   1.941
  611SOL    HW2 2733   4.255   6.847   2.023
  612SOL     OW 2734   3.695   6.448   4.798
  612SOL    HW1 2735   3.737   6.411   4.881
  612SOL    HW2 2736   3.626   6.385   4.764
  613SOL     OW 2737   4.532   6.254   5.252
  613SOL    HW1 2738   4.606   6.320   5.263
  613SOL    HW2 2739   4.457   6.277   5.315
  614SOL     OW 2740   5.109   5.717   0.294
  614SOL    HW1 2741   5.143   5.631   0.254
  614SOL    HW2 2742   5.048   5.762   0.228
  615SOL     OW 2743   6.498   2.263   2.067
  615SOL    HW1 2744   6.569   2.222   2.010
  615SOL    HW2 2745   6.507   2.229   2.161
  616SOL     OW 2746   0.753   2.863   3.340
  616SOL    HW1 2747   0.672   2.805   3.324
  616SOL    HW2 2748   0.768   2.872   3.438
  617SOL     OW 2749   0.397   4.568   6.096
  617SOL    HW1 2750   0.416   4.640   6.029
  617SOL    HW2 2751   0.369   4.609   6.182
  618SOL     OW 2752   6.621   2.608   0.897
  618SOL    HW1 2753   6.688   2.682   0.894
  618SOL    HW2 2754   6.626   2.556   0.811
  619SOL     OW 2755   4.166   1.042   0.330
  619SOL    HW1 2756   4.131   0.959   0.287
  619SOL    HW2 2757   4.094   1.082   0.387
  620SOL     OW 2758   4.095   2.700   1.268
  620SOL    HW1 2759   4.163   2.770   1.245
  620SOL    HW2 2760   4.042   2.678   1.186
  621SOL     OW 2761   2.274   6.658   0.060
  621SOL    HW1 2762   2.298   6.589   0.128
  621SOL    HW2 2763   2.174   6.669   0.057
  622SOL     OW 2764   0.932   0.168   6.362
  622SOL    HW1 2765   0.971   0.254   6.395
  622SOL    HW2 2766   0.863   0.136   6.427
  623SOL     OW 2767   0.840   5.877   5.215
  623SOL    HW1 2768   0.859   5.841   5.124
  623SOL    HW2 2769   0.847   5.976   5.214
  624SOL     OW 2770   6.892   2.976   1.151
  624SOL    HW1 2771   6.967   2.936   1.204
  624SOL    HW2 2772   6.903   3.076   1.149
  625SOL     OW 2773   1.964   1.723   1.654
  625SOL    HW1 2774   2.046   1.739   1.709
  625SOL    HW2 2775   1.907   1.653   1.697
  626SOL     OW 2776   2.110   5.746   3.523
  626SOL    HW1 2777   2.160   5.684   3.462
  626SOL    HW2 2778   2.174   5.813   3.561
  627SOL     OW 2779   5.341   6.460   0.076
  627SOL    HW1 2780   5.403   6.493   0.005
  627SOL    HW2 2781   5.293   6.379   0.042
  628SOL     OW 2782   5.899   5.846   6.227
  628SOL    HW1 2783   5.990   5.805   6.222
  628SOL    HW2 2784   5.907   5.938   6.267
  629SOL     OW 2785   6.894   6.418   6.854
  629SOL    HW1 2786   6.913   6.404   6.756
  629SOL    HW2 2787   6.966   6.475   6.893
  630SOL     OW 2788   6.796   2.012   2.138
  630SOL    HW1 2789   6.871   1.952   2.109
  630SOL    HW2 2790   6.827   2.071   2.213
  631SOL     OW 2791   3.436   6.888   5.468
  631SOL    HW1 2792   3.424   6.822   5.394
  631SOL    HW2 2793   3.496   6.849   5.537
  632SOL     OW 2794   2.596   1.074   0.893
  632SOL    HW1 2795   2.616   1.140   0.820
  632SOL    HW2 2796   2.682   1.038   0.929
  633SOL     OW 2797   4.408   4.335   0.508
  633SOL    HW1 2798   4.414   4.249   0.457
  633SOL    HW2 2799   4.439   4.320   0.602
  634SOL     OW 2800   4.280   4.499   1.087
  634SOL    HW1 2801   4.280   4.445   1.003
  634SOL    HW2 2802   4.185   4.523   1.111
  635SOL     OW 2803   4.894   5.033   0.793
  635SOL    HW1 2804   4.815   4.984   0.756
  635SOL    HW2 2805   4.978   4.986   0.767
  636SOL     OW 2806   4.272   5.328   6.491
  636SOL    HW1 2807   4.243   5.233   6.484
  636SOL    HW2 2808   4.359   5.333   6.541
  637SOL     OW 2809   6.483   4.037   2.962
  637SOL    HW1 2810   6.403   4.011   2.907
  637SOL    HW2 2811   6.496   4.136   2.956
  638SOL     OW 2812   5.105   2.240   3.254
  638SOL    HW1 2813   5.144   2.305   3.320
  638SOL    HW2 2814   5.006   2.237   3.264
  639SOL     OW 2815   5.054   3.774   2.653
  639SOL    HW1 2816   5.011   3.684   2.648
  639SOL    HW2 2817   5.001   3.833   2.714
  640SOL     OW 2818   0.181   5.223   4.256
  640SOL    HW1 2819   0.190   5.308   4.308
  640SOL    HW2 2820   0.098   5.175   4.284
  641SOL     OW 2821   6.440   5.886   4.606
  641SOL    HW1 2822   6.369   5.885   4.536
  641SOL    HW2 2823   6.416   5.823   4.680
  642SOL     OW 2824   0.020   3.097   4.780
  642SOL    HW1 2825   0.030   3.173   4.716
  642SOL    HW2 2826   0.109   3.051   4.791
  643SOL     OW 2827   5.111   5.741   4.880
  643SOL    HW1 2828   5.107   5.838   4.856
  643SOL    HW2 2829   5.114   5.731   4.979
  644SOL     OW 2830   1.414   5.572   4.530
  644SOL    HW1 2831   1.425   5.477   4.557
  644SOL    HW2 2832   1.460   5.587   4.442
  645SOL     OW 2833   4.299   1.625   4.049
  645SOL    HW1 2834   4.346   1.713   4.055
  645SOL    HW2 2835   4.326   1.579   3.964
  646SOL     OW 2836   2.935   1.290   4.582
  646SOL    HW1 2837   2.957   1.373   4.531
  646SOL    HW2 2838   2.907   1.218   4.519
  647SOL     OW 2839   5.616   2.187   4.809
  647SOL    HW1 2840   5.647   2.282   4.813
  647SOL    HW2 2841   5.535   2.176   4.866
  648SOL     OW 2842   0.009   3.568   4.086
  648SOL    HW1 2843   6.952   3.501   4.101
  648SOL    HW2 2844   6.984   3.653   4.052
  649SOL     OW 2845   2.988   3.523   1.041
  649SOL    HW1 2846   3.040   3.548   1.123
  649SOL    HW2 2847   2.908   3.469   1.068
  650SOL     OW 2848   6.164   4.815   0.832
  650SOL    HW1 2849   6.200   4.872   0.907
  650SOL    HW2 2850   6.104   4.871   0.774
  651SOL     OW 2851   6.417   6.424   5.903
  651SOL    HW1 2852   6.372   6.513   5.894
  651SOL    HW2 2853   6.381   6.362   5.833
  652SOL     OW 2854   4.986   6.139   3.419
  652SOL    HW1 2855   5.020   6.074   3.487
  652SOL    HW2 2856   4.898   6.176   3.448
  653SOL     OW 2857   2.621   5.741   4.860
  653SOL    HW1 2858   2.587   5.777   4.947
  653SOL    HW2 2859   2.683   5.664   4.878
  654SOL     OW 2860   0.118   4.249   6.113
  654SOL    HW1 2861   0.073   4.186   6.177
  654SOL    HW2 2862   0.186   4.199   6.060
  655SOL     OW 2863   0.623   5.936   2.253
  655SOL    HW1 2864   0.607   5.892   2.165
  655SOL    HW2 2865   0.569   6.020   2.258
  656SOL     OW 2866   1.990   5.440   1.847
  656SOL    HW1 2867   2.021   5.486   1.764
  656SOL    HW2 2868   1.908   5.386   1.827
  657SOL     OW 2869   1.297   2.187   1.511
  657SOL    HW1 2870   1.269   2.125   1.439
  657SOL    HW2 2871   1.383   2.155   1.551
  658SOL     OW 2872   3.031   3.797   6.513
  658SOL    HW1 2873   3.097   3.743   6.460
  658SOL    HW2 2874   3.071   3.886   6.536
  659SOL     OW 2875   2.356   6.229   6.026
  659SOL    HW1 2876   2.380   6.132   6.033
  659SOL    HW2 2877   2.327   6.248   5.932
  660SOL     OW 2878   5.087   4.796   2.669
  660SOL    HW1 2879   5.104   4.804   2.767
  660SOL    HW2 2880   5.120   4.877   2.622
  661SOL     OW 2881   4.233   5.212   3.117
  661SOL    HW1 2882   4.318   5.172   3.153
  661SOL    HW2 2883   4.157   5.190   3.178
  662SOL     OW 2884   4.178   0.229   5.726
  662SOL    HW1 2885   4.198   0.246   5.629
  662SOL    HW2 2886   4.149   0.134   5.738
  663SOL     OW 2887   2.356   3.721   6.320
  663SOL    HW1 2888   2.310   3.766   6.396
  663SOL    HW2 2889   2.291   3.661   6.272
  664SOL     OW 2890   0.244   5.200   6.323
  664SOL    HW1 2891   0.300   5.129   6.281
  664SOL    HW2 2892   0.208   5.261   6.252
  665SOL     OW 2893   5.034   4.847   1.275
  665SOL    HW1 2894   5.019   4.750   1.257
  665SOL    HW2 2895   5.031   4.864   1.374
  666SOL     OW 2896   5.032   2.016   2.656
  666SOL    HW1 2897   4.949   1.998   2.603
  666SOL    HW2 2898   5.101   2.056   2.596
  667SOL     OW 2899   1.067   4.685   3.416
  667SOL    HW1 2900   1.057   4.588   3.394
  667SOL    HW2 2901   1.127   4.696   3.495
  668SOL     OW 2902   5.294   6.689   6.124
  668SOL    HW1 2903   5.359   6.739   6.182
  668SOL    HW2 2904   5.338   6.666   6.037
  669SOL     OW 2905   4.193   0.760   2.790
  669SOL    HW1 2906   4.216   0.734   2.884
  669SOL    HW2 2907   4.128   0.693   2.752
  670SOL     OW 2908   3.510   2.418   0.948
  670SOL    HW1 2909   3.465   2.493   0.996
  670SOL    HW2 2910   3.525   2.444   0.852
  671SOL     OW 2911   1.543   6.505   0.396
  671SOL    HW1 2912   1.480   6.501   0.473
  671SOL    HW2 2913   1.507   6.568   0.327
  672SOL     OW 2914   1.059   5.222   2.268
  672SOL    HW1 2915   0.996   5.300   2.261
  672SOL    HW2 2916   1.067   5.179   2.178
  673SOL     OW 2917   7.007   6.743   1.679
  673SOL    HW1 2918   6.974   6.833   1.651
  673SOL    HW2 2919   6.960   6.714   1.762
  674SOL     OW 2920   1.145   1.650   5.152
  674SOL    HW1 2921   1.118   1.746   5.145
  674SOL    HW2 2922   1.236   1.643   5.191
  675SOL     OW 2923   0.891   0.884   3.295
  675SOL    HW1 2924   0.902   0.927   3.385
  675SOL    HW2 2925   0.798   0.851   3.285
  676SOL     OW 2926   3.098   6.020   2.587
  676SOL    HW1 2927   3.050   5.973   2.513
  676SOL    HW2 2928   3.073   6.117   2.587
  677SOL     OW 2929   5.477   2.304   0.550
  677SOL    HW1 2930   5.429   2.265   0.629
  677SOL    HW2 2931   5.543   2.238   0.515
  678SOL     OW 2932   1.858   0.632   5.482
  678SOL    HW1 2933   1.948   0.670   5.504
  678SOL    HW2 2934   1.831   0.568   5.554
  679SOL     OW 2935   4.310   1.799   3.712
  679SOL    HW1 2936   4.376   1.775   3.640
  679SOL    HW2 2937   4.232   1.846   3.671
  680SOL     OW 2938   5.728   5.840   5.760
  680SOL    HW1 2939   5.773   5.798   5.839
  680SOL    HW2 2940   5.790   5.906   5.717
  681SOL     OW 2941   5.443   4.861   1.655
  681SOL    HW1 2942   5.454   4.763   1.636
  681SOL    HW2 2943   5.511   4.890   1.721
  682SOL     OW 2944   0.079   1.278   1.052
  682SOL    HW1 2945   0.034   1.354   1.006
  682SOL    HW2 2946   0.176   1.298   1.065
  683SOL     OW 2947   4.707   3.154   0.245
  683SOL    HW1 2948   4.765   3.086   0.201
  683SOL    HW2 2949   4.613   3.146   0.210
  684SOL     OW 2950   0.184   1.156   0.216
  684SOL    HW1 2951   0.275   1.134   0.250
  684SOL    HW2 2952   0.124   1.177   0.293
  685SOL     OW 2953   3.654   0.924   3.146
  685SOL    HW1 2954   3.674   0.853   3.079
  685SOL    HW2 2955   3.581   0.893   3.207
  686SOL     OW 2956   4.832   3.051   3.701
  686SOL    HW1 2957   4.819   3.015   3.609
  686SOL    HW2 2958   4.881   2.984   3.757
  687SOL     OW 2959   0.342   2.234   4.320
  687SOL    HW1 2960   0.378   2.188   4.401
  687SOL    HW2 2961   0.391   2.201   4.239
  688SOL     OW 2962   0.686   1.720   0.234
  688SOL    HW1 2963   0.649   1.695   0.145
  688SOL    HW2 2964   0.773   1.673   0.249
  689SOL     OW 2965   6.723   4.784   6.379
  689SOL    HW1 2966   6.637   4.746   6.345
  689SOL    HW2 2967   6.798   4.751   6.322
  690SOL     OW 2968   0.396   4.046   2.641
  690SOL    HW1 2969   0.440   4.024   2.728
  690SOL    HW2 2970   0.348   4.133   2.649
  691SOL     OW 2971   2.506   6.874   0.450
  691SOL    HW1 2972   2.506   6.974   0.453
  691SOL    HW2 2973   2.600   6.842   0.435
  692SOL     OW 2974   3.517   0.203   4.060
  692SOL    HW1 2975   3.418   0.191   4.052
  692SOL    HW2 2976   3.544   0.193   4.156
  693SOL     OW 2977   5.765   0.733   3.736
  693SOL    HW1 2978   5.683   0.789   3.725
  693SOL    HW2 2979   5.802   0.711   3.645
  694SOL     OW 2980   4.505   6.194   3.531
  694SOL    HW1 2981   4.550   6.170   3.617
  694SOL    HW2 2982   4.574   6.214   3.462
  695SOL     OW 2983   4.286   0.035   3.847
  695SOL    HW1 2984   4.376   0.040   3.803
  695SOL    HW2 2985   4.296   0.043   3.946
  696SOL     OW 2986   4.178   4.650   2.602
  696SOL    HW1 2987   4.117   4.697   2.666
  696SOL    HW2 2988   4.148   4.668   2.508
  697SOL     OW 2989   1.901   3.777   3.525
  697SOL    HW1 2990   1.886   3.843   3.452
  697SOL    HW2 2991   1.896   3.684   3.487
  698SOL     OW 2992   5.039   6.800   0.672
  698SOL    HW1 2993   5.090   6.786   0.586
  698SOL    HW2 2994   5.032   6.713   0.720
  699SOL     OW 2995   1.866   3.380   6.227
  699SOL    HW1 2996   1.790   3.317   6.239
  699SOL    HW2 2997   1.884   3.428   6.314
  700SOL     OW 2998   2.628   0.141   2.417
  700SOL    HW1 2999   2.554   0.082   2.449
  700SOL    HW2 3000   2.698   0.086   2.371
  701SOL     OW 3001   6.419   3.871   5.803
  701SOL    HW1 3002   6.444   3.890   5.898
  701SOL    HW2 3003   6.502   3.869   5.747
  702SOL     OW 3004   1.669   6.285   4.758
  702SOL    HW1 3005   1.642   6.362   4.816
  702SOL    HW2 3006   1.724   6.221   4.810
  703SOL     OW 3007   3.524   3.958   6.741
  703SOL    HW1 3008   3.489   3.876   6.695
  703SOL    HW2 3009   3.513   3.948   6.840
  704SOL     OW 3010   1.705   2.730   0.397
  704SOL    HW1 3011   1.621   2.691   0.434
  704SOL    HW2 3012   1.691   2.754   0.301
  705SOL     OW 3013   5.814   5.358   2.741
  705SOL    HW1 3014   5.895   5.371   2.684
  705SOL    HW2 3015   5.734   5.395   2.694
  706SOL     OW 3016   4.618   2.087   4.829
  706SOL    HW1 3017   4.585   2.115   4.739
  706SOL    HW2 3018   4.658   2.166   4.876
  707SOL     OW 3019   4.596   5.564   2.397
  707SOL    HW1 3020   4.689   5.585   2.365
  707SOL    HW2 3021   4.539   5.537   2.320
  708SOL     OW 3022   3.918   0.046   2.195
  708SOL    HW1 3023   3.965   0.081   2.114
  708SOL    HW2 3024   3.905   0.120   2.261
  709SOL     OW 3025   0.185   6.058   1.046
  709SOL    HW1 3026   0.246   6.068   0.967
  709SOL    HW2 3027   0.234   6.082   1.129
  710SOL     OW 3028   3.695   2.647   1.165
  710SOL    HW1 3029   3.706   2.682   1.258
  710SOL    HW2 3030   3.617   2.584   1.162
  711SOL     OW 3031   0.129   3.162   5.780
  711SOL    HW1 3032   0.192   3.097   5.822
  711SOL    HW2 3033   0.170   3.198   5.696
  712SOL     OW 3034   4.521   2.567   1.034
  712SOL    HW1 3035   4.493   2.657   1.067
  712SOL    HW2 3036   4.616   2.550   1.058
  713SOL     OW 3037   4.204   2.496   5.610
  713SOL    HW1 3038   4.242   2.538   5.527
  713SOL    HW2 3039   4.278   2.457   5.665
  714SOL     OW 3040   0.275   4.804   3.524
  714SOL    HW1 3041   0.230   4.782   3.611
  714SOL    HW2 3042   0.206   4.825   3.455
  715SOL     OW 3043   5.095   6.022   6.547
  715SOL    HW1 3044   5.083   5.926   6.573
  715SOL    HW2 3045   5.179   6.057   6.588
  716SOL     OW 3046   0.832   0.406   1.928
  716SOL    HW1 3047   0.838   0.464   1.846
  716SOL    HW2 3048   0.885   0.448   2.001
  717SOL     OW 3049   6.646   4.082   4.473
  717SOL    HW1 3050   6.584   4.015   4.432
  717SOL    HW2 3051   6.675   4.050   4.562
  718SOL     OW 3052   4.333   2.771   6.123
  718SOL    HW1 3053   4.252   2.817   6.086
  718SOL    HW2 3054   4.408   2.777   6.057
  719SOL     OW 3055   6.520   0.967   2.576
  719SOL    HW1 3056   6.531   0.918   2.490
  719SOL    HW2 3057   6.430   0.946   2.616
  720SOL     OW 3058   2.450   0.519   6.312
  720SOL    HW1 3059   2.540   0.551   6.281
  720SOL    HW2 3060   2.407   0.590   6.367
  721SOL     OW 3061   2.432   1.914   3.373
  721SOL    HW1 3062   2.459   1.849   3.302
  721SOL    HW2 3063   2.410   1.864   3.457
  722SOL     OW 3064   3.121   0.300   5.543
  722SOL    HW1 3065   3.073   0.316   5.457
  722SOL    HW2 3066   3.056   0.300   5.619
  723SOL     OW 3067   1.070   4.400   3.521
  723SOL    HW1 3068   1.035   4.344   3.596
  723SOL    HW2 3069   1.118   4.479   3.557
  724SOL     OW 3070   1.274   2.605   4.207
  724SOL    HW1 3071   1.272   2.704   4.216
  724SOL    HW2 3072   1.190   2.574   4.162
  725SOL     OW 3073   2.240   5.789   1.598
  725SOL    HW1 3074   2.323   5.784   1.654
  725SOL    HW2 3075   2.206   5.883   1.599
  726SOL     OW 3076   3.507   5.142   1.425
  726SOL    HW1 3077   3.414   5.164   1.395
  726SOL    HW2 3078   3.510   5.139   1.524
  727SOL     OW 3079   6.049   4.802   5.831
  727SOL    HW1 3080   6.139   4.837   5.856
  727SOL    HW2 3081   5.979   4.867   5.858
  728SOL     OW 3082   6.523   3.032   4.405
  728SOL    HW1 3083   6.592   3.078   4.462
  728SOL    HW2 3084   6.515   2.937   4.434
  729SOL     OW 3085   0.472   1.839   1.776
  729SOL    HW1 3086   0.412   1.802   1.847
  729SOL    HW2 3087   0.520   1.919   1.810
  730SOL     OW 3088   5.767   0.120   4.461
  730SOL    HW1 3089   5.842   0.072   4.417
  730SOL    HW2 3090   5.680   0.083   4.431
  731SOL     OW 3091   4.740   4.468   6.189
  731SOL    HW1 3092   4.721   4.493   6.284
  731SOL    HW2 3093   4.828   4.506   6.161
  732SOL     OW 3094   5.741   3.303   1.561
  732SOL    HW1 3095   5.650   3.338   1.583
  732SOL    HW2 3096   5.763   3.226   1.622
  733SOL     OW 3097   5.259   6.665   4.709
  733SOL    HW1 3098   5.305   6.702   4.790
  733SOL    HW2 3099   5.313   6.688   4.627
  734SOL     OW 3100   6.641   5.110   2.826
  734SOL    HW1 3101   6.564   5.061   2.867
  734SOL    HW2 3102   6.630   5.110   2.726
  735SOL     OW 3103   4.705   1.671   0.007
  735SOL    HW1 3104   4.657   1.599   6.974
  735SOL    HW2 3105   4.775   1.630   0.066
  736SOL     OW 3106   6.844   1.848   3.590
  736SOL    HW1 3107   6.775   1.778   3.607
  736SOL    HW2 3108   6.935   1.808   3.602
  737SOL     OW 3109   5.267   1.617   4.736
  737SOL    HW1 3110   5.244   1.694   4.795
  737SOL    HW2 3111   5.270   1.648   4.641
  738SOL     OW 3112   2.326   3.849   0.999
  738SOL    HW1 3113   2.252   3.857   0.931
  738SOL    HW2 3114   2.304   3.774   1.062
  739SOL     OW 3115   4.855   1.034   3.548
  739SOL    HW1 3116   4.948   1.000   3.563
  739SOL    HW2 3117   4.789   0.961   3.567
  740SOL     OW 3118   6.330   1.209   1.391
  740SOL    HW1 3119   6.336   1.205   1.291
  740SOL    HW2 3120   6.341   1.118   1.429
  741SOL     OW 3121   1.440   0.644   3.214
  741SOL    HW1 3122   1.464   0.561   3.163
  741SOL    HW2 3123   1.508   0.715   3.197
  742SOL     OW 3124   3.035   6.675   1.744
  742SOL    HW1 3125   3.122   6.638   1.777
  742SOL    HW2 3126   3.022   6.767   1.782
  743SOL     OW 3127   0.750   4.937   3.635
  743SOL    HW1 3128   0.705   4.969   3.718
  743SOL    HW2 3129   0.850   4.943   3.646
  744SOL     OW 3130   5.394   0.274   0.756
  744SOL    HW1 3131   5.376   0.242   0.662
  744SOL    HW2 3132   5.488   0.305   0.763
  745SOL     OW 3133   1.573   5.261   4.513
  745SOL    HW1 3134   1.545   5.201   4.588
  745SOL    HW2 3135   1.549   5.218   4.426
  746SOL     OW 3136   6.619   4.044   6.822
  746SOL    HW1 3137   6.669   4.121   6.862
  746SOL    HW2 3138   6.575   3.991   6.895
  747SOL     OW 3139   3.467   6.394   4.206
  747SOL    HW1 3140   3.404   6.378   4.282
  747SOL    HW2 3141   3.560   6.406   4.242
  748SOL     OW 3142   3.986   4.856   1.960
  748SOL    HW1 3143   4.071   4.806   1.942
  748SOL    HW2 3144   3.993   4.903   2.048
  749SOL     OW 3145   5.816   3.657   4.666
  749SOL    HW1 3146   5.756   3.701   4.600
  749SOL    HW2 3147   5.910   3.660   4.632
  750SOL     OW 3148   2.662   1.917   1.494
  750SOL    HW1 3149   2.672   2.015   1.509
  750SOL    HW2 3150   2.672   1.869   1.581
  751SOL     OW 3151   4.214   1.822   6.909
  751SOL    HW1 3152   4.237   1.907   6.957
  751SOL    HW2 3153   4.293   1.790   6.857
  752SOL     OW 3154   3.727   0.931   1.881
  752SOL    HW1 3155   3.666   0.961   1.955
  752SOL    HW2 3156   3.743   1.008   1.819
  753SOL     OW 3157   1.707   3.616   5.403
  753SOL    HW1 3158   1.613   3.639   5.375
  753SOL    HW2 3159   1.715   3.626   5.503
  754SOL     OW 3160   4.637   2.191   5.174
  754SOL    HW1 3161   4.547   2.164   5.139
  754SOL    HW2 3162   4.626   2.237   5.262
  755SOL     OW 3163   1.063   4.759   4.857
  755SOL    HW1 3164   1.042   4.670   4.897
  755SOL    HW2 3165   1.136   4.749   4.789
  756SOL     OW 3166   3.092   6.307   6.625
  756SOL    HW1 3167   3.048   6.218   6.609
  756SOL    HW2 3168   3.038   6.361   6.689
  757SOL     OW 3169   0.603   0.399   4.091
  757SOL    HW1 3170   0.663   0.412   4.012
  757SOL    HW2 3171   0.650   0.428   4.174
  758SOL     OW 3172   3.051   0.112   2.714
  758SOL    HW1 3173   2.978   0.078   2.654
  758SOL    HW2 3174   3.010   0.154   2.795
  759SOL     OW 3175   0.418   2.324   1.986
  759SOL    HW1 3176   0.368   2.279   1.912
  759SOL    HW2 3177   0.364   2.401   2.020
  760SOL     OW 3178   6.139   0.175   4.007
  760SOL    HW1 3179   6.237   0.164   4.025
  760SOL    HW2 3180   6.088   0.169   4.092
  761SOL     OW 3181   5.387   4.173   6.297
  761SOL    HW1 3182   5.440   4.193   6.214
  761SOL    HW2 3183   5.424   4.091   6.340
  762SOL     OW 3184   2.177   6.547   5.122
  762SOL    HW1 3185   2.150   6.579   5.213
  762SOL    HW2 3186   2.215   6.455   5.128
  763SOL     OW 3187   4.266   5.152   6.168
  763SOL    HW1 3188   4.227   5.212   6.238
  763SOL    HW2 3189   4.267   5.057   6.201
  764SOL     OW 3190   5.389   0.666   4.818
  764SOL    HW1 3191   5.339   0.594   4.769
  764SOL    HW2 3192   5.387   0.647   4.916
  765SOL     OW 3193   1.557   5.192   1.493
  765SOL    HW1 3194   1.469   5.184   1.540
  765SOL    HW2 3195   1.555   5.271   1.433
  766SOL     OW 3196   2.411   2.435   6.155
  766SOL    HW1 3197   2.486   2.382   6.196
  766SOL    HW2 3198   2.389   2.397   6.065
  767SOL     OW 3199   6.548   5.885   2.671
  767SOL    HW1 3200   6.538   5.969   2.726
  767SOL    HW2 3201   6.617   5.826   2.714
  768SOL     OW 3202   2.593   5.988   2.552
  768SOL    HW1 3203   2.629   6.005   2.644
  768SOL    HW2 3204   2.584   5.890   2.537
  769SOL     OW 3205   2.229   1.194   5.611
  769SOL    HW1 3206   2.196   1.209   5.518
  769SOL    HW2 3207   2.284   1.111   5.614
  770SOL     OW 3208   1.622   4.458   3.246
  770SOL    HW1 3209   1.535   4.420   3.280
  770SOL    HW2 3210   1.681   4.478   3.324
  771SOL     OW 3211   1.122   4.731   2.396
  771SOL    HW1 3212   1.135   4.776   2.308
  771SOL    HW2 3213   1.165   4.786   2.468
  772SOL     OW 3214   5.745   4.944   6.547
  772SOL    HW1 3215   5.695   4.856   6.547
  772SOL    HW2 3216   5.726   4.992   6.462
  773SOL     OW 3217   0.362   4.378   3.792
  773SOL    HW1 3218   0.383   4.321   3.713
  773SOL    HW2 3219   0.354   4.322   3.874
  774SOL     OW 3220   1.755   1.495   1.272
  774SOL    HW1 3221   1.817   1.563   1.311
  774SOL    HW2 3222   1.775   1.405   1.313
  775SOL     OW 3223   1.737   2.473   3.975
  775SOL    HW1 3224   1.825   2.521   3.972
  775SOL    HW2 3225   1.685   2.493   3.892
  776SOL     OW 3226   1.187   0.744   5.513
  776SOL    HW1 3227   1.209   0.837   5.540
  776SOL    HW2 3228   1.244   0.680   5.564
  777SOL     OW 3229   2.033   4.203   2.087
  777SOL    HW1 3230   1.969   4.136   2.126
  777SOL    HW2 3231   2.034   4.195   1.988
  778SOL     OW 3232   2.395   1.165   2.318
  778SOL    HW1 3233   2.327   1.108   2.364
  778SOL    HW2 3234   2.405   1.252   2.367
  779SOL     OW 3235   6.495   2.261   2.621
  779SOL    HW1 3236   6.594   2.279   2.625
  779SOL    HW2 3237   6.446   2.347   2.614
  780SOL     OW 3238   0.336   3.262   3.995
  780SOL    HW1 3239   0.428   3.252   3.958
  780SOL    HW2 3240   0.282   3.323   3.937
  781SOL     OW 3241   6.054   6.768   0.030
  781SOL    HW1 3242   6.076   6.785   0.126
  781SOL    HW2 3243   5.955   6.759   0.019
  782SOL     OW 3244   1.576   3.659   6.444
  782SOL    HW1 3245   1.650   3.676   6.509
  782SOL    HW2 3246   1.498   3.716   6.466
  783SOL     OW 3247   5.034   4.791   2.118
  783SOL    HW1 3248   5.036   4.734   2.200
  783SOL    HW2 3249   5.073   4.740   2.041
  784SOL     OW 3250   4.481   5.034   0.233
  784SOL    HW1 3251   4.393   5.030   0.186
  784SOL    HW2 3252   4.523   4.944   0.231
  785SOL     OW 3253   0.321   2.098   3.523
  785SOL    HW1 3254   0.415   2.071   3.544
  785SOL    HW2 3255   0.320   2.190   3.484
  786SOL     OW 3256   0.766   0.248   3.489
  786SOL    HW1 3257   0.715   0.258   3.404
  786SOL    HW2 3258   0.837   0.318   3.495
  787SOL     OW 3259   1.649   0.135   6.891
  787SOL    HW1 3260   1.733   0.101   6.850
  787SOL    HW2 3261   1.658   0.233   6.909
  788SOL     OW 3262   3.990   1.592   0.363
  788SOL    HW1 3263   4.012   1.662   0.296
  788SOL    HW2 3264   3.906   1.545   0.336
  789SOL     OW 3265   4.238   4.296   1.329
  789SOL    HW1 3266   4.140   4.291   1.346
  789SOL    HW2 3267   4.266   4.220   1.270
  790SOL     OW 3268   1.818   1.633   2.876
  790SOL    HW1 3269   1.887   1.561   2.862
  790SOL    HW2 3270   1.780   1.624   2.968
  791SOL     OW 3271   1.702   5.676   4.558
  791SOL    HW1 3272   1.696   5.692   4.460
  791SOL    HW2 3273   1.610   5.661   4.595
  792SOL     OW 3274   0.663   1.115   1.158
  792SOL    HW1 3275   0.727   1.154   1.091
  792SOL    HW2 3276   0.693   1.140   1.250
  793SOL     OW 3277   4.941   4.824   3.741
  793SOL    HW1 3278   4.856   4.778   3.769
  793SOL    HW2 3279   4.948   4.912   3.788
  794SOL     OW 3280   2.959   4.018   6.146
  794SOL    HW1 3281   2.967   4.094   6.082
  794SOL    HW2 3282   2.903   3.946   6.105
  795SOL     OW 3283   3.330   6.782   4.709
  795SOL    HW1 3284   3.356   6.691   4.680
  795SOL    HW2 3285   3.233   6.783   4.734
  796SOL     OW 3286   0.364   2.676   5.822
  796SOL    HW1 3287   0.298   2.602   5.840
  796SOL    HW2 3288   0.445   2.638   5.778
  797SOL     OW 3289   5.868   2.176   1.221
  797SOL    HW1 3290   5.911   2.251   1.270
  797SOL    HW2 3291   5.919   2.091   1.237
  798SOL     OW 3292   3.042   6.399   2.077
  798SOL    HW1 3293   3.002   6.488   2.053
  798SOL    HW2 3294   3.037   6.338   1.998
  799SOL     OW 3295   0.024   0.370   6.223
  799SOL    HW1 3296   0.003   0.385   6.127
  799SOL    HW2 3297   0.113   0.410   6.245
  800SOL     OW 3298   5.216   1.432   2.943
  800SOL    HW1 3299   5.137   1.428   3.004
  800SOL    HW2 3300   5.232   1.527   2.915
  801SOL     OW 3301   2.295   4.655   4.556
  801SOL    HW1 3302   2.216   4.692   4.508
  801SOL    HW2 3303   2.280   4.662   4.655
  802SOL     OW 3304   3.006   1.581   0.862
  802SOL    HW1 3305   3.003   1.509   0.932
  802SOL    HW2 3306   3.082   1.642   0.880
  803SOL     OW 3307   0.958   0.029   6.124
  803SOL    HW1 3308   1.036   6.995   6.162
  803SOL    HW2 3309   0.930   0.101   6.187
  804SOL     OW 3310   5.861   6.311   0.292
  804SOL    HW1 3311   5.851   6.362   0.377
  804SOL    HW2 3312   5.956   6.315   0.261
  805SOL     OW 3313   3.132   0.832   3.695
  805SOL    HW1 3314   3.078   0.858   3.775
  805SOL    HW2 3315   3.139   0.910   3.633
  806SOL     OW 3316   5.502   1.225   4.423
  806SOL    HW1 3317   5.546   1.243   4.511
  806SOL    HW2 3318   5.406   1.200   4.438
  807SOL     OW 3319   1.510   1.097   5.231
  807SOL    HW1 3320   1.521   1.075   5.135
  807SOL    HW2 3321   1.512   1.196   5.243
  808SOL     OW 3322   4.188   4.136   6.247
  808SOL    HW1 3323   4.241   4.196   6.187
  808SOL    HW2 3324   4.201   4.163   6.342
  809SOL     OW 3325   0.829   4.744   1.412
  809SOL    HW1 3326   0.781   4.767   1.327
  809SOL    HW2 3327   0.764   4.701   1.475
  810SOL     OW 3328   3.347   4.041   1.310
  810SOL    HW1 3329   3.330   3.946   1.335
  810SOL    HW2 3330   3.294   4.063   1.228
  811SOL     OW 3331   5.087   5.898   5.590
  811SOL    HW1 3332   5.131   5.831   5.530
  811SOL    HW2 3333   5.120   5.887   5.683
  812SOL     OW 3334   0.051   0.676   2.513
  812SOL    HW1 3335   0.050   0.604   2.444
  812SOL    HW2 3336   0.014   0.640   2.599
  813SOL     OW 3337   4.219   0.209   4.210
  813SOL    HW1 3338   4.122   0.203   4.234
  813SOL    HW2 3339   4.257   0.117   4.202
  814SOL     OW 3340   5.970   6.192   2.828
  814SOL    HW1 3341   5.943   6.287   2.842
  814SOL    HW2 3342   5.913   6.132   2.884
  815SOL     OW 3343   6.906   3.588   3.611
  815SOL    HW1 3344   6.810   3.579   3.588
  815SOL    HW2 3345   6.940   3.501   3.648
  816SOL     OW 3346   6.223   5.920   0.436
  816SOL    HW1 3347   6.298   5.980   0.410
  816SOL    HW2 3348   6.228   5.836   0.382
  817SOL     OW 3349   2.100   5.556   1.624
  817SOL    HW1 3350   2.055   5.530   1.539
  817SOL    HW2 3351   2.124   5.653   1.621
  818SOL     OW 3352   5.904   2.464   3.188
  818SOL    HW1 3353   5.921   2.373   3.226
  818SOL    HW2 3354   5.806   2.481   3.185
  819SOL     OW 3355   5.923   2.913   2.461
  819SOL    HW1 3356   5.962   2.850   2.528
  819SOL    HW2 3357   5.830   2.938   2.489
  820SOL     OW 3358   3.649   2.124   5.102
  820SOL    HW1 3359   3.585   2.175   5.160
  820SOL    HW2 3360   3.624   2.135   5.006
  821SOL     OW 3361   0.127   3.824   0.789
  821SOL    HW1 3362   0.085   3.896   0.845
  821SOL    HW2 3363   0.190   3.866   0.724
  822SOL     OW 3364   0.705   3.449   3.541
  822SOL    HW1 3365   0.736   3.503   3.463
  822SOL    HW2 3366   0.761   3.471   3.621
  823SOL     OW 3367   5.487   3.821   6.416
  823SOL    HW1 3368   5.528   3.821   6.325
  823SOL    HW2 3369   5.485   3.728   6.453
  824SOL     OW 3370   4.632   1.514   6.008
  824SOL    HW1 3371   4.577   1.513   6.091
  824SOL    HW2 3372   4.700   1.587   6.013
  825SOL     OW 3373   7.000   5.020   1.526
  825SOL    HW1 3374   6.925   5.085   1.514
  825SOL    HW2 3375   0.070   5.060   1.490
  826SOL     OW 3376   3.861   2.387   5.849
  826SOL    HW1 3377   3.847   2.437   5.935
  826SOL    HW2 3378   3.821   2.295   5.857
  827SOL     OW 3379   2.796   4.477   5.435
  827SOL    HW1 3380   2.804   4.492   5.337
  827SOL    HW2 3381   2.877   4.429   5.468
  828SOL     OW 3382   5.236   6.301   6.685
  828SOL    HW1 3383   5.261   6.264   6.596
  828SOL    HW2 3384   5.200   6.394   6.673
  829SOL     OW 3385   4.002   3.767   2.449
  829SOL    HW1 3386   3.910   3.736   2.422
  829SOL    HW2 3387   3.998   3.862   2.477
  830SOL     OW 3388   6.010   5.034   6.494
  830SOL    HW1 3389   6.014   4.980   6.409
  830SOL    HW2 3390   5.935   5.001   6.551
  831SOL     OW 3391   6.367   0.434   0.082
  831SOL    HW1 3392   6.302   0.506   0.107
  831SOL    HW2 3393   6.460   0.463   0.107
  832SOL     OW 3394   4.446   1.147   2.602
  832SOL    HW1 3395   4.418   1.154   2.506
  832SOL    HW2 3396   4.365   1.130   2.659
  833SOL     OW 3397   1.153   3.407   6.706
  833SOL    HW1 3398   1.077   3.465   6.737
  833SOL    HW2 3399   1.239   3.453   6.724
  834SOL     OW 3400   3.973   4.188   0.969
  834SOL    HW1 3401   3.975   4.240   0.884
  834SOL    HW2 3402   3.882   4.150   0.983
  835SOL     OW 3403   3.349   0.067   5.634
  835SOL    HW1 3404   3.400   0.013   5.567
  835SOL    HW2 3405   3.327   0.009   5.713
  836SOL     OW 3406   4.039   6.799   5.488
  836SOL    HW1 3407   3.968   6.810   5.558
  836SOL    HW2 3408   4.038   6.705   5.454
  837SOL     OW 3409   5.663   0.077   0.887
  837SOL    HW1 3410   5.653   0.097   0.789
  837SOL    HW2 3411   5.750   0.113   0.920
  838SOL     OW 3412   1.822   0.833   4.331
  838SOL    HW1 3413   1.894   0.789   4.278
  838SOL    HW2 3414   1.836   0.932   4.332
  839SOL     OW 3415   1.284   1.633   1.993
  839SOL    HW1 3416   1.231   1.572   2.052
  839SOL    HW2 3417   1.254   1.620   1.898
  840SOL     OW 3418   6.675   5.656   6.842
  840SOL    HW1 3419   6.640   5.750   6.848
  840SOL    HW2 3420   6.651   5.606   6.925
  841SOL     OW 3421   3.079   5.495   6.229
  841SOL    HW1 3422   3.158   5.449   6.269
  841SOL    HW2 3423   2.998   5.437   6.242
  842SOL     OW 3424   3.584   0.301   4.636
  842SOL    HW1 3425   3.615   0.268   4.725
  842SOL    HW2 3426   3.621   0.393   4.620
  843SOL     OW 3427   1.318   1.319   1.019
  843SOL    HW1 3428   1.236   1.278   1.058
  843SOL    HW2 3429   1.357   1.384   1.084
  844SOL     OW 3430   5.688   0.167   0.605
  844SOL    HW1 3431   5.709   0.215   0.519
  844SOL    HW2 3432   5.618   0.099   0.588
  845SOL     OW 3433   4.902   4.125   4.193
  845SOL    HW1 3434   4.849   4.178   4.259
  845SOL    HW2 3435   4.849   4.112   4.110
  846SOL     OW 3436   2.181   1.406   5.918
  846SOL    HW1 3437   2.265   1.368   5.879
  846SOL    HW2 3438   2.149   1.482   5.862
  847SOL     OW 3439   1.630   3.555   1.184
  847SOL    HW1 3440   1.623   3.654   1.190
  847SOL    HW2 3441   1.582   3.523   1.102
  848SOL     OW 3442   6.601   0.162   5.772
  848SOL    HW1 3443   6.665   0.156   5.848
  848SOL    HW2 3444   6.649   0.196   5.691
  849SOL     OW 3445   6.644   3.957   5.642
  849SOL    HW1 3446   6.651   4.049   5.602
  849SOL    HW2 3447   6.662   3.889   5.572
  850SOL     OW 3448   4.833   1.360   3.899
  850SOL    HW1 3449   4.790   1.300   3.966
  850SOL    HW2 3450   4.794   1.342   3.808
  851SOL     OW 3451   6.572   2.822   2.035
  851SOL    HW1 3452   6.481   2.779   2.038
  851SOL    HW2 3453   6.583   2.869   1.947
  852SOL     OW 3454   1.186   3.659   0.264
  852SOL    HW1 3455   1.170   3.695   0.356
  852SOL    HW2 3456   1.279   3.622   0.258
  853SOL     OW 3457   0.888   4.569   0.953
  853SOL    HW1 3458   0.928   4.563   1.044
  853SOL    HW2 3459   0.860   4.663   0.935
  854SOL     OW 3460   5.618   5.235   0.857
  854SOL    HW1 3461   5.624   5.302   0.784
  854SOL    HW2 3462   5.588   5.147   0.819
  855SOL     OW 3463   7.000   6.979   1.545
  855SOL    HW1 3464   6.945   0.032   1.593
  855SOL    HW2 3465   0.076   0.001   1.528
  856SOL     OW 3466   1.485   2.190   6.103
  856SOL    HW1 3467   1.401   2.169   6.153
  856SOL    HW2 3468   1.550   2.235   6.165
  857SOL     OW 3469   6.319   4.819   1.904
  857SOL    HW1 3470   6.259   4.806   1.982
  857SOL    HW2 3471   6.400   4.762   1.914
  858SOL     OW 3472   3.091   3.633   1.303
  858SOL    HW1 3473   3.139   3.720   1.288
  858SOL    HW2 3474   3.152   3.570   1.351
  859SOL     OW 3475   5.501   6.852   4.633
  859SOL    HW1 3476   5.485   6.930   4.573
  859SOL    HW2 3477   5.566   6.790   4.590
  860SOL     OW 3478   6.274   2.531   1.030
  860SOL    HW1 3479   6.309   2.612   0.984
  860SOL    HW2 3480   6.180   2.548   1.061
  861SOL     OW 3481   2.736   5.485   3.988
  861SOL    HW1 3482   2.822   5.450   4.026
  861SOL    HW2 3483   2.755   5.534   3.903
  862SOL     OW 3484   1.435   3.604   4.401
  862SOL    HW1 3485   1.421   3.667   4.477
  862SOL    HW2 3486   1.358   3.611   4.337
  863SOL     OW 3487   5.709   1.797   0.536
  863SOL    HW1 3488   5.747   1.886   0.559
  863SOL    HW2 3489   5.728   1.776   0.440
  864SOL     OW 3490   4.412   5.894   4.027
  864SOL    HW1 3491   4.406   5.967   3.960
  864SOL    HW2 3492   4.392   5.806   3.984
  865SOL     OW 3493   1.861   6.404   5.637
  865SOL    HW1 3494   1.820   6.318   5.607
  865SOL    HW2 3495   1.788   6.467   5.666
  866SOL     OW 3496   1.983   1.662   1.354
  866SOL    HW1 3497   2.083   1.659   1.347
  866SOL    HW2 3498   1.956   1.652   1.450
  867SOL     OW 3499   4.911   3.741   0.455
  867SOL    HW1 3500   4.879   3.772   0.544
  867SOL    HW2 3501   4.914   3.641   0.454
  868SOL     OW 3502   6.098   1.211   0.539
  868SOL    HW1 3503   6.002   1.221   0.512
  868SOL    HW2 3504   6.154   1.275   0.486
  869SOL     OW 3505   0.697   4.332   2.630
  869SOL    HW1 3506   0.631   4.304   2.700
  869SOL    HW2 3507   0.658   4.404   2.574
  870SOL     OW 3508   3.877   3.476   0.030
  870SOL    HW1 3509   3.813   3.551   0.012
  870SOL    HW2 3510   3.873   3.452   0.127
  871SOL     OW 3511   5.137   2.119   2.896
  871SOL    HW1 3512   5.099   2.063   2.822
  871SOL    HW2 3513   5.165   2.207   2.859
  872SOL     OW 3514   5.325   3.405   3.972
  872SOL    HW1 3515   5.338   3.375   4.067
  872SOL    HW2 3516   5.347   3.502   3.963
  873SOL     OW 3517   5.921   6.597   4.883
  873SOL    HW1 3518   5.912   6.510   4.834
  873SOL    HW2 3519   5.834   6.646   4.880
  874SOL     OW 3520   0.971   3.755   5.605
  874SOL    HW1 3521   1.023   3.840   5.592
  874SOL    HW2 3522   0.883   3.762   5.557
  875SOL     OW 3523   4.875   3.744   0.958
  875SOL    HW1 3524   4.936   3.670   0.930
  875SOL    HW2 3525   4.819   3.773   0.880
  876SOL     OW 3526   1.078   4.130   1.955
  876SOL    HW1 3527   1.116   4.140   1.863
  876SOL    HW2 3528   1.116   4.201   2.014
  877SOL     OW 3529   3.796   4.519   5.956
  877SOL    HW1 3530   3.736   4.494   6.032
  877SOL    HW2 3531   3.793   4.618   5.942
  878SOL     OW 3532   3.539   5.688   5.211
  878SOL    HW1 3533   3.447   5.649   5.212
  878SOL    HW2 3534   3.606   5.615   5.223
  879SOL     OW 3535   3.871   1.766   0.590
  879SOL    HW1 3536   3.925   1.849   0.576
  879SOL    HW2 3537   3.796   1.763   0.525
  880SOL     OW 3538   3.021   3.544   4.088
  880SOL    HW1 3539   3.053   3.528   4.181
  880SOL    HW2 3540   3.099   3.554   4.026
  881SOL     OW 3541   5.588   3.716   5.421
  881SOL    HW1 3542   5.654   3.717   5.495
  881SOL    HW2 3543   5.610   3.643   5.356
  882SOL     OW 3544   1.047   2.739   4.453
  882SOL    HW1 3545   1.061   2.743   4.551
  882SOL    HW2 3546   1.115   2.795   4.407
  883SOL     OW 3547   3.357   0.567   0.425
  883SOL    HW1 3548   3.335   0.581   0.521
  883SOL    HW2 3549   3.381   0.471   0.410
  884SOL     OW 3550   6.983   4.236   0.117
  884SOL    HW1 3551   6.991   4.332   0.143
  884SOL    HW2 3552   6.914   4.192   0.174
  885SOL     OW 3553   4.629   6.578   5.445
  885SOL    HW1 3554   4.695   6.600   5.373
  885SOL    HW2 3555   4.536   6.595   5.411
  886SOL     OW 3556   3.966   1.414   1.208
  886SOL    HW1 3557   4.058   1.374   1.203
  886SOL    HW2 3558   3.929   1.424   1.115
  887SOL     OW 3559   3.889   5.426   3.831
  887SOL    HW1 3560   3.975   5.379   3.811
  887SOL    HW2 3561   3.829   5.420   3.751
  888SOL     OW 3562   7.015   6.695   2.688
  888SOL    HW1 3563   0.075   6.738   2.737
  888SOL    HW2 3564   6.984   6.614   2.738
  889SOL     OW 3565   0.173   1.110   6.123
  889SOL    HW1 3566   0.250   1.124   6.061
  889SOL    HW2 3567   0.129   1.022   6.102
  890SOL     OW 3568   2.126   4.703   2.209
  890SOL    HW1 3569   2.160   4.611   2.226
  890SOL    HW2 3570   2.196   4.757   2.163
  891SOL     OW 3571   6.886   3.882   0.612
  891SOL    HW1 3572   6.980   3.845   0.611
  891SOL    HW2 3573   6.886   3.975   0.576
  892SOL     OW 3574   3.581   3.733   5.164
  892SOL    HW1 3575   3.524   3.741   5.082
  892SOL    HW2 3576   3.616   3.823   5.190
  893SOL     OW 3577   1.496   0.423   3.082
  893SOL    HW1 3578   1.429   0.420   3.008
  893SOL    HW2 3579   1.485   0.343   3.141
  894SOL     OW 3580   1.057   2.868   2.950
  894SOL    HW1 3581   1.022   2.897   3.039
  894SOL    HW2 3582   1.147   2.827   2.961
  895SOL     OW 3583   1.380   5.067   3.664
  895SOL    HW1 3584   1.386   5.152   3.716
  895SOL    HW2 3585   1.305   5.074   3.598
  896SOL     OW 3586   6.473   5.695   1.403
  896SOL    HW1 3587   6.513   5.778   1.440
  896SOL    HW2 3588   6.539   5.651   1.341
  897SOL     OW 3589   4.287   6.874   6.983
  897SOL    HW1 3590   4.190   6.881   7.008
  897SOL    HW2 3591   4.295   6.862   6.884
  898SOL     OW 3592   3.634   5.661   2.213
  898SOL    HW1 3593   3.658   5.669   2.117
  898SOL    HW2 3594   3.545   5.705   2.229
  899SOL     OW 3595   0.488   5.853   0.336
  899SOL    HW1 3596   0.541   5.831   0.418
  899SOL    HW2 3597   0.424   5.778   0.317
  900SOL     OW 3598   4.848   6.371   6.508
  900SOL    HW1 3599   4.800   6.441   6.455
  900SOL    HW2 3600   4.874   6.296   6.448
  901SOL     OW 3601   0.912   0.845   4.580
  901SOL    HW1 3602   0.973   0.919   4.609
  901SOL    HW2 3603   0.964   0.761   4.568
  902SOL     OW 3604   1.264   2.500   1.227
  902SOL    HW1 3605   1.281   2.597   1.211
  902SOL    HW2 3606   1.194   2.489   1.297
  903SOL     OW 3607   0.195   2.998   6.597
  903SOL    HW1 3608   0.127   2.929   6.622
  903SOL    HW2 3609   0.238   3.034   6.679
  904SOL     OW 3610   2.274   2.920   2.577
  904SOL    HW1 3611   2.335   2.885   2.648
  904SOL    HW2 3612   2.256   2.848   2.511
  905SOL     OW 3613   4.972   4.591   6.089
  905SOL    HW1 3614   5.022   4.663   6.137
  905SOL    HW2 3615   5.032   4.546   6.024
  906SOL     OW 3616   1.068   2.641   6.242
  906SOL    HW1 3617   1.070   2.741   6.242
  906SOL    HW2 3618   1.139   2.606   6.181
  907SOL     OW 3619   4.949   2.515   1.962
  907SOL    HW1 3620   5.038   2.488   1.998
  907SOL    HW2 3621   4.953   2.610   1.932
  908SOL     OW 3622   2.418   4.835   2.834
  908SOL    HW1 3623   2.332   4.865   2.874
  908SOL    HW2 3624   2.438   4.890   2.752
  909SOL     OW 3625   3.403   5.850   2.212
  909SOL    HW1 3626   3.358   5.923   2.160
  909SOL    HW2 3627   3.400   5.872   2.309
  910SOL     OW 3628   2.968   0.849   0.784
  910SOL    HW1 3629   3.040   0.893   0.730
  910SOL    HW2 3630   2.965   0.751   0.763
  911SOL     OW 3631   0.625   5.806   6.921
  911SOL    HW1 3632   0.680   5.753   6.986
  911SOL    HW2 3633   0.667   5.804   6.831
  912SOL     OW 3634   4.765   0.467   3.544
  912SOL    HW1 3635   4.810   0.473   3.455
  912SOL    HW2 3636   4.762   0.372   3.574
  913SOL     OW 3637   2.058   1.061   3.929
  913SOL    HW1 3638   2.120   1.020   3.996
  913SOL    HW2 3639   2.081   1.028   3.838
  914SOL     OW 3640   2.795   5.830   5.601
  914SOL    HW1 3641   2.889   5.863   5.591
  914SOL    HW2 3642   2.734   5.883   5.542
  915SOL     OW 3643   0.566   3.142   0.653
  915SOL    HW1 3644   0.472   3.137   0.685
  915SOL    HW2 3645   0.622   3.074   0.701
  916SOL     OW 3646   2.152   3.059   2.380
  916SOL    HW1 3647   2.153   2.996   2.302
  916SOL    HW2 3648   2.220   3.029   2.447
  917SOL     OW 3649   6.260   0.908   2.645
  917SOL    HW1 3650   6.199   0.833   2.621
  917SOL    HW2 3651   6.227   0.953   2.728
  918SOL     OW 3652   3.211   0.496   0.912
  918SOL    HW1 3653   3.255   0.415   0.874
  918SOL    HW2 3654   3.155   0.469   0.991
  919SOL     OW 3655   6.844   6.448   3.511
  919SOL    HW1 3656   6.822   6.512   3.438
  919SOL    HW2 3657   6.767   6.442   3.575
  920SOL     OW 3658   2.242   4.673   2.557
  920SOL    HW1 3659   2.301   4.728   2.499
  920SOL    HW2 3660   2.297   4.610   2.612
  921SOL     OW 3661   4.226   4.839   2.931
  921SOL    HW1 3662   4.297   4.899   2.893
  921SOL    HW2 3663   4.137   4.886   2.927
  922SOL     OW 3664   2.943   3.462   5.391
  922SOL    HW1 3665   2.943   3.419   5.300
  922SOL    HW2 3666   2.955   3.391   5.460
  923SOL     OW 3667   2.971   4.135   5.865
  923SOL    HW1 3668   2.923   4.145   5.778
  923SOL    HW2 3669   3.048   4.072   5.853
  924SOL     OW 3670   5.713   2.853   3.204
  924SOL    HW1 3671   5.730   2.848   3.106
  924SOL    HW2 3672   5.695   2.761   3.239
  925SOL     OW 3673   6.884   1.858   6.960
  925SOL    HW1 3674   6.903   1.861   6.862
  925SOL    HW2 3675   6.931   1.779   7.000
  926SOL     OW 3676   5.999   1.513   1.202
  926SOL    HW1 3677   6.061   1.481   1.131
  926SOL    HW2 3678   6.038   1.593   1.247
  927SOL     OW 3679   6.002   4.231   2.991
  927SOL    HW1 3680   5.976   4.205   2.898
  927SOL    HW2 3681   5.919   4.247   3.045
  928SOL     OW 3682   1.025   6.584   0.437
  928SOL    HW1 3683   1.039   6.592   0.536
  928SOL    HW2 3684   1.005   6.674   0.399
  929SOL     OW 3685   0.149   0.226   1.147
  929SOL    HW1 3686   0.073   0.206   1.085
  929SOL    HW2 3687   0.236   0.208   1.101
  930SOL     OW 3688   5.459   5.802   3.854
  930SOL    HW1 3689   5.466   5.704   3.835
  930SOL    HW2 3690   5.445   5.816   3.952
  931SOL     OW 3691   5.828   1.656   3.986
  931SOL    HW1 3692   5.751   1.713   4.014
  931SOL    HW2 3693   5.794   1.569   3.951
  932SOL     OW 3694   3.057   7.015   3.698
  932SOL    HW1 3695   3.135   0.044   3.743
  932SOL    HW2 3696   3.052   0.030   3.603
  933SOL     OW 3697   1.829   5.687   3.492
  933SOL    HW1 3698   1.871   5.662   3.404
  933SOL    HW2 3699   1.898   5.728   3.551
  934SOL     OW 3700   1.282   0.235   6.218
  934SOL    HW1 3701   1.228   0.314   6.189
  934SOL    HW2 3702   1.259   0.156   6.161
  935SOL     OW 3703   4.799   4.249   3.947
  935SOL    HW1 3704   4.857   4.189   3.892
  935SOL    HW2 3705   4.727   4.288   3.889
  936SOL     OW 3706   0.790   0.541   6.264
  936SOL    HW1 3707   0.751   0.615   6.318
  936SOL    HW2 3708   0.728   0.462   6.264
  937SOL     OW 3709   5.411   1.468   5.101
  937SOL    HW1 3710   5.365   1.419   5.175
  937SOL    HW2 3711   5.388   1.565   5.105
  938SOL     OW 3712   6.924   5.157   6.373
  938SOL    HW1 3713   7.009   5.115   6.403
  938SOL    HW2 3714   6.909   5.241   6.425
  939SOL     OW 3715   6.625   6.643   5.358
  939SOL    HW1 3716   6.613   6.741   5.345
  939SOL    HW2 3717   6.596   6.617   5.450
  940SOL     OW 3718   1.207   3.338   1.718
  940SOL    HW1 3719   1.121   3.315   1.762
  940SOL    HW2 3720   1.242   3.424   1.755
  941SOL     OW 3721   5.209   1.260   6.112
  941SOL    HW1 3722   5.279   1.199   6.074
  941SOL    HW2 3723   5.137   1.205   6.156
  942SOL     OW 3724   4.862   6.803   2.806
  942SOL    HW1 3725   4.791   6.734   2.817
  942SOL    HW2 3726   4.936   6.765   2.750
  943SOL     OW 3727   2.117   3.764   3.690
  943SOL    HW1 3728   2.038   3.782   3.632
  943SOL    HW2 3729   2.118   3.667   3.716
  944SOL     OW 3730   0.666   5.013   6.550
  944SOL    HW1 3731   0.580   4.970   6.576
  944SOL    HW2 3732   0.725   4.946   6.504
  945SOL     OW 3733   6.629   4.188   5.515
  945SOL    HW1 3734   6.702   4.231   5.461
  945SOL    HW2 3735   6.541   4.204   5.470
  946SOL     OW 3736   4.687   3.060   5.968
  946SOL    HW1 3737   4.651   3.153   5.975
  946SOL    HW2 3738   4.618   2.999   5.929
  947SOL     OW 3739   3.582   2.960   3.355
  947SOL    HW1 3740   3.569   2.917   3.444
  947SOL    HW2 3741   3.680   2.977   3.340
  948SOL     OW 3742   3.597   0.477   2.737
  948SOL    HW1 3743   3.548   0.564   2.749
  948SOL    HW2 3744   3.563   0.410   2.802
  949SOL     OW 3745   1.111   6.015   6.347
  949SOL    HW1 3746   1.148   6.065   6.269
  949SOL    HW2 3747   1.130   5.918   6.337
  950SOL     OW 3748   5.043   5.404   1.775
  950SOL    HW1 3749   5.012   5.454   1.694
  950SOL    HW2 3750   5.142   5.394   1.772
  951SOL     OW 3751   2.214   0.670   3.948
  951SOL    HW1 3752   2.177   0.598   3.889
  951SOL    HW2 3753   2.255   0.741   3.890
  952SOL     OW 3754   4.530   1.872   3.101
  952SOL    HW1 3755   4.496   1.812   3.028
  952SOL    HW2 3756   4.495   1.964   3.087
  953SOL     OW 3757   5.357   4.921   3.962
  953SOL    HW1 3758   5.360   4.841   3.901
  953SOL    HW2 3759   5.304   4.898   4.044
  954SOL     OW 3760   3.793   5.494   1.440
  954SOL    HW1 3761   3.872   5.537   1.395
  954SOL    HW2 3762   3.750   5.560   1.501
  955SOL     OW 3763   0.383   3.422   2.501
  955SOL    HW1 3764   0.325   3.342   2.519
  955SOL    HW2 3765   0.457   3.426   2.567
  956SOL     OW 3766   6.718   1.086   2.731
  956SOL    HW1 3767   6.643   1.063   2.668
  956SOL    HW2 3768   6.804   1.055   2.691
  957SOL     OW 3769   5.834   3.762   5.040
  957SOL    HW1 3770   5.809   3.681   4.987
  957SOL    HW2 3771   5.906   3.738   5.104
  958SOL     OW 3772   4.417   2.078   1.623
  958SOL    HW1 3773   4.358   2.156   1.601
  958SOL    HW2 3774   4.435   2.077   1.721
  959SOL     OW 3775   4.665   5.979   2.983
  959SOL    HW1 3776   4.667   5.973   2.883
  959SOL    HW2 3777   4.573   5.954   3.015
  960SOL     OW 3778   1.131   6.300   1.911
  960SOL    HW1 3779   1.216   6.271   1.868
  960SOL    HW2 3780   1.093   6.378   1.861
  961SOL     OW 3781   4.753   6.478   3.579
  961SOL    HW1 3782   4.821   6.551   3.592
  961SOL    HW2 3783   4.692   6.503   3.503
  962SOL     OW 3784   0.294   1.566   5.342
  962SOL    HW1 3785   0.271   1.471   5.361
  962SOL    HW2 3786   0.298   1.581   5.243
  963SOL     OW 3787   6.116   1.823   6.332
  963SOL    HW1 3788   6.048   1.897   6.334
  963SOL    HW2 3789   6.092   1.754   6.401
  964SOL     OW 3790   5.383   4.565   0.456
  964SOL    HW1 3791   5.350   4.510   0.380
  964SOL    HW2 3792   5.393   4.660   0.427
  965SOL     OW 3793   5.317   2.328   1.505
  965SOL    HW1 3794   5.318   2.419   1.463
  965SOL    HW2 3795   5.373   2.266   1.450
  966SOL     OW 3796   5.888   2.273   2.671
  966SOL    HW1 3797   5.881   2.338   2.746
  966SOL    HW2 3798   5.932   2.317   2.592
  967SOL     OW 3799   2.381   4.703   0.563
  967SOL    HW1 3800   2.474   4.667   0.577
  967SOL    HW2 3801   2.348   4.743   0.648
  968SOL     OW 3802   3.675   0.526   1.976
  968SOL    HW1 3803   3.670   0.580   1.892
  968SOL    HW2 3804   3.597   0.464   1.981
  969SOL     OW 3805   2.564   5.920   6.175
  969SOL    HW1 3806   2.559   5.829   6.218
  969SOL    HW2 3807   2.657   5.954   6.180
  970SOL     OW 3808   5.335   0.910   6.480
  970SOL    HW1 3809   5.249   0.875   6.443
  970SOL    HW2 3810   5.321   1.002   6.516
  971SOL     OW 3811   6.862   2.620   2.985
  971SOL    HW1 3812   6.938   2.670   2.943
  971SOL    HW2 3813   6.890   2.525   3.001
  972SOL     OW 3814   5.547   3.214   2.211
  972SOL    HW1 3815   5.507   3.129   2.178
  972SOL    HW2 3816   5.476   3.283   2.223
  973SOL     OW 3817   0.368   5.344   6.555
  973SOL    HW1 3818   0.326   5.334   6.465
  973SOL    HW2 3819   0.319   5.415   6.606
  974SOL     OW 3820   5.541   6.008   2.019
  974SOL    HW1 3821   5.447   6.015   2.052
  974SOL    HW2 3822   5.598   5.965   2.089
  975SOL     OW 3823   1.490   0.227   6.399
  975SOL    HW1 3824   1.481   0.188   6.490
  975SOL    HW2 3825   1.412   0.198   6.343
  976SOL     OW 3826   6.854   3.420   2.557
  976SOL    HW1 3827   6.862   3.320   2.558
  976SOL    HW2 3828   6.834   3.451   2.464
  977SOL     OW 3829   0.969   6.789   2.249
  977SOL    HW1 3830   1.048   6.784   2.188
  977SOL    HW2 3831   0.952   6.698   2.289
  978SOL     OW 3832   4.964   3.078   5.880
  978SOL    HW1 3833   5.002   3.094   5.789
  978SOL    HW2 3834   4.876   3.124   5.888
  979SOL     OW 3835   0.046   1.984   0.663
  979SOL    HW1 3836   7.006   2.065   0.643
  979SOL    HW2 3837   0.109   2.005   0.738
  980SOL     OW 3838   4.592   2.490   3.580
  980SOL    HW1 3839   4.500   2.511   3.546
  980SOL    HW2 3840   4.607   2.538   3.666
  981SOL     OW 3841   0.324   1.491   4.691
  981SOL    HW1 3842   0.302   1.412   4.633
  981SOL    HW2 3843   0.348   1.460   4.783
  982SOL     OW 3844   2.255   1.836   5.083
  982SOL    HW1 3845   2.306   1.810   5.001
  982SOL    HW2 3846   2.201   1.918   5.064
  983SOL     OW 3847   6.482   3.259   3.968
  983SOL    HW1 3848   6.508   3.327   3.900
  983SOL    HW2 3849   6.423   3.190   3.925
  984SOL     OW 3850   3.007   1.893   4.816
  984SOL    HW1 3851   3.040   1.982   4.846
  984SOL    HW2 3852   2.985   1.837   4.896
  985SOL     OW 3853   5.841   3.417   5.149
  985SOL    HW1 3854   5.764   3.423   5.214
  985SOL    HW2 3855   5.821   3.474   5.069
  986SOL     OW 3856   5.920   5.041   1.052
  986SOL    HW1 3857   5.876   5.130   1.044
  986SOL    HW2 3858   5.851   4.969   1.056
  987SOL     OW 3859   4.794   6.554   2.400
  987SOL    HW1 3860   4.730   6.631   2.391
  987SOL    HW2 3861   4.887   6.589   2.407
  988SOL     OW 3862   3.861   3.348   1.653
  988SOL    HW1 3863   3.937   3.407   1.628
  988SOL    HW2 3864   3.896   3.255   1.671
  989SOL     OW 3865   5.865   1.383   6.180
  989SOL    HW1 3866   5.876   1.404   6.278
  989SOL    HW2 3867   5.906   1.457   6.126
  990SOL     OW 3868   4.510   1.080   2.131
  990SOL    HW1 3869   4.584   1.045   2.073
  990SOL    HW2 3870   4.515   1.180   2.135
  991SOL     OW 3871   0.643   3.659   4.773
  991SOL    HW1 3872   0.710   3.732   4.769
  991SOL    HW2 3873   0.551   3.698   4.771
  992SOL     OW 3874   6.774   3.094   1.672
  992SOL    HW1 3875   6.852   3.051   1.716
  992SOL    HW2 3876   6.791   3.192   1.662
  993SOL     OW 3877   0.343   4.822   1.106
  993SOL    HW1 3878   0.374   4.760   1.178
  993SOL    HW2 3879   0.306   4.906   1.148
  994SOL     OW 3880   4.294   5.300   0.902
  994SOL    HW1 3881   4.383   5.279   0.944
  994SOL    HW2 3882   4.287   5.252   0.814
  995SOL     OW 3883   3.696   2.839   5.340
  995SOL    HW1 3884   3.608   2.861   5.299
  995SOL    HW2 3885   3.766   2.836   5.268
  996SOL     OW 3886   3.752   5.070   4.844
  996SOL    HW1 3887   3.828   5.062   4.910
  996SOL    HW2 3888   3.789   5.079   4.752
  997SOL     OW 3889   1.191   0.251   3.648
  997SOL    HW1 3890   1.225   0.164   3.682
  997SOL    HW2 3891   1.194   0.252   3.548
  998SOL     OW 3892   5.210   0.251   4.722
  998SOL    HW1 3893   5.124   0.217   4.759
  998SOL    HW2 3894   5.285   0.193   4.753
  999SOL     OW 3895   5.015   4.353   3.021
  999SOL    HW1 3896   4.931   4.355   3.074
  999SOL    HW2 3897   5.006   4.412   2.941
 1000SOL     OW 3898   2.632   1.030   1.310
 1000SOL    HW1 3899   2.633   1.013   1.408
 1000SOL    HW2 3900   2.544   0.999   1.272
 1001SOL     OW 3901   5.025   5.501   0.684
 1001SOL    HW1 3902   4.987   5.565   0.617
 1001SOL    HW2 3903   4.959   5.426   0.700
 1002SOL     OW 3904   5.982   1.539   1.715
 1002SOL    HW1 3905   6.033   1.454   1.729
 1002SOL    HW2 3906   5.934   1.534   1.628
 1003SOL     OW 3907   1.910   6.529   2.418
 1003SOL    HW1 3908   1.859   6.576   2.489
 1003SOL    HW2 3909   1.859   6.533   2.332
 1004SOL     OW 3910   0.259   0.543   2.089
 1004SOL    HW1 3911   0.287   0.601   2.013
 1004SOL    HW2 3912   0.220   0.458   2.055
 1005SOL     OW 3913   2.259   3.011   3.994
 1005SOL    HW1 3914   2.341   3.003   4.050
 1005SOL    HW2 3915   2.273   2.964   3.907
 1006SOL     OW 3916   1.229   4.373   1.240
 1006SOL    HW1 3917   1.234   4.305   1.167
 1006SOL    HW2 3918   1.134   4.386   1.268
 1007SOL     OW 3919   4.866   0.444   5.092
 1007SOL    HW1 3920   4.856   0.540   5.066
 1007SOL    HW2 3921   4.784   0.394   5.063
 1008SOL     OW 3922   1.103   3.160   5.722
 1008SOL    HW1 3923   1.076   3.232   5.786
 1008SOL    HW2 3924   1.063   3.178   5.633
 1009SOL     OW 3925   0.744   5.280   5.035
 1009SOL    HW1 3926   0.685   5.208   5.070
 1009SOL    HW2 3927   0.762   5.347   5.107
 1010SOL     OW 3928   3.638   1.886   6.744
 1010SOL    HW1 3929   3.667   1.968   6.793
 1010SOL    HW2 3930   3.689   1.807   6.779
 1011SOL     OW 3931   1.510   4.763   2.410
 1011SOL    HW1 3932   1.609   4.778   2.407
 1011SOL    HW2 3933   1.469   4.823   2.479
 1012SOL     OW 3934   6.677   6.930   2.078
 1012SOL    HW1 3935   6.711   6.873   2.153
 1012SOL    HW2 3936   6.746   6.999   2.055
 1013SOL     OW 3937   1.403   1.161   6.026
 1013SOL    HW1 3938   1.384   1.120   6.115
 1013SOL    HW2 3939   1.327   1.220   5.999
 1014SOL     OW 3940   6.587   5.234   5.817
 1014SOL    HW1 3941   6.532   5.227   5.900
 1014SOL    HW2 3942   6.576   5.325   5.777
 1015SOL     OW 3943   2.740   6.660   6.099
 1015SOL    HW1 3944   2.679   6.719   6.152
 1015SOL    HW2 3945   2.721   6.564   6.121
 1016SOL     OW 3946   4.338   3.531   6.829
 1016SOL    HW1 3947   4.422   3.490   6.793
 1016SOL    HW2 3948   4.283   3.566   6.754
 1017SOL     OW 3949   4.192   2.980   1.213
 1017SOL    HW1 3950   4.097   2.974   1.180
 1017SOL    HW2 3951   4.191   3.007   1.309
 1018SOL     OW 3952   0.406   4.588   4.400
 1018SOL    HW1 3953   0.438   4.512   4.457
 1018SOL    HW2 3954   0.441   4.576   4.306
 1019SOL     OW 3955   6.836   6.676   1.044
 1019SOL    HW1 3956   6.924   6.686   0.996
 1019SOL    HW2 3957   6.820   6.579   1.063
 1020SOL     OW 3958   6.316   1.142   1.101
 1020SOL    HW1 3959   6.297   1.237   1.074
 1020SOL    HW2 3960   6.363   1.095   1.027
 1021SOL     OW 3961   5.768   6.769   1.325
 1021SOL    HW1 3962   5.672   6.796   1.317
 1021SOL    HW2 3963   5.784   6.731   1.416
 1022SOL     OW 3964   3.404   4.390   5.344
 1022SOL    HW1 3965   3.308   4.417   5.355
 1022SOL    HW2 3966   3.410   4.316   5.277
 1023SOL     OW 3967   0.424   0.074   3.324
 1023SOL    HW1 3968   0.399   0.068   3.421
 1023SOL    HW2 3969   0.500   0.138   3.314
 1024SOL     OW 3970   0.554   2.833   4.112
 1024SOL    HW1 3971   0.467   2.851   4.065
 1024SOL    HW2 3972   0.630   2.845   4.047
 1025SOL     OW 3973   3.609   3.728   1.520
 1025SOL    HW1 3974   3.624   3.771   1.609
 1025SOL    HW2 3975   3.615   3.629   1.530
 1026SOL     OW 3976   2.397   2.287   1.355
 1026SOL    HW1 3977   2.323   2.338   1.399
 1026SOL    HW2 3978   2.467   2.350   1.322
 1027SOL     OW 3979   3.335   6.237   1.919
 1027SOL    HW1 3980   3.401   6.299   1.961
 1027SOL    HW2 3981   3.375   6.196   1.837
 1028SOL     OW 3982   2.480   6.356   1.507
 1028SOL    HW1 3983   2.395   6.398   1.473
 1028SOL    HW2 3984   2.501   6.392   1.598
 1029SOL     OW 3985   1.765   0.167   6.318
 1029SOL    HW1 3986   1.677   0.212   6.332
 1029SOL    HW2 3987   1.752   0.068   6.319
 1030SOL     OW 3988   3.269   2.790   1.676
 1030SOL    HW1 3989   3.245   2.693   1.667
 1030SOL    HW2 3990   3.357   2.806   1.632
 1031SOL     OW 3991   4.707   3.895   1.528
 1031SOL    HW1 3992   4.697   3.932   1.621
 1031SOL    HW2 3993   4.800   3.911   1.495
 1032SOL     OW 3994   2.502   2.057   5.864
 1032SOL    HW1 3995   2.456   2.086   5.948
 1032SOL    HW2 3996   2.437   2.057   5.789
 1033SOL     OW 3997   1.484   6.447   1.968
 1033SOL    HW1 3998   1.452   6.541   1.983
 1033SOL    HW2 3999   1.460   6.418   1.876
 1034SOL     OW 4000   0.387   5.091   4.619
 1034SOL    HW1 4001   0.302   5.144   4.620
 1034SOL    HW2 4002   0.456   5.139   4.673
 1035SOL     OW 4003   0.196   1.477   5.083
 1035SOL    HW1 4004   0.152   1.516   5.002
 1035SOL    HW2 4005   0.280   1.430   5.055
 1036SOL     OW 4006   3.859   0.171   1.824
 1036SOL    HW1 4007   3.894   0.186   1.732
 1036SOL    HW2 4008   3.869   0.256   1.877
 1037SOL     OW 4009   1.728   1.201   1.721
 1037SOL    HW1 4010   1.660   1.272   1.740
 1037SOL    HW2 4011   1.682   1.116   1.696
 1038SOL     OW 4012   1.955   1.067   5.194
 1038SOL    HW1 4013   1.897   0.990   5.166
 1038SOL    HW2 4014   1.904   1.126   5.257
 1039SOL     OW 4015   3.565   3.886   4.201
 1039SOL    HW1 4016   3.618   3.963   4.237
 1039SOL    HW2 4017   3.543   3.904   4.105
 1040SOL     OW 4018   4.718   1.154   2.530
 1040SOL    HW1 4019   4.765   1.097   2.598
 1040SOL    HW2 4020   4.619   1.147   2.544
 1041SOL     OW 4021   0.062   6.444   3.689
 1041SOL    HW1 4022   7.009   6.473   3.623
 1041SOL    HW2 4023   0.113   6.524   3.721
 1042SOL     OW 4024   4.423   5.395   2.010
 1042SOL    HW1 4025   4.504   5.437   1.970
 1042SOL    HW2 4026   4.365   5.357   1.938
 1043SOL     OW 4027   3.152   2.065   4.465
 1043SOL    HW1 4028   3.198   1.978   4.449
 1043SOL    HW2 4029   3.162   2.091   4.561
 1044SOL     OW 4030   5.691   5.526   2.526
 1044SOL    HW1 4031   5.664   5.618   2.552
 1044SOL    HW2 4032   5.692   5.518   2.426
 1045SOL     OW 4033   4.249   0.019   2.558
 1045SOL    HW1 4034   4.162   0.056   2.593
 1045SOL    HW2 4035   4.304   0.094   2.521
 1046SOL     OW 4036   1.574   0.514   0.448
 1046SOL    HW1 4037   1.514   0.437   0.426
 1046SOL    HW2 4038   1.611   0.551   0.363
 1047SOL     OW 4039   1.813   0.546   3.650
 1047SOL    HW1 4040   1.853   0.566   3.561
 1047SOL    HW2 4041   1.724   0.592   3.658
 1048SOL     OW 4042   4.227   6.161   3.463
 1048SOL    HW1 4043   4.316   6.206   3.467
 1048SOL    HW2 4044   4.230   6.077   3.517
 1049SOL     OW 4045   6.693   6.290   4.012
 1049SOL    HW1 4046   6.666   6.319   4.104
 1049SOL    HW2 4047   6.612   6.273   3.957
 1050SOL     OW 4048   4.187   4.914   1.163
 1050SOL    HW1 4049   4.113   4.851   1.186
 1050SOL    HW2 4050   4.153   5.008   1.163
 1051SOL     OW 4051   1.075   5.693   0.512
 1051SOL    HW1 4052   1.142   5.742   0.457
 1051SOL    HW2 4053   1.115   5.671   0.602
 1052SOL     OW 4054   4.012   0.551   4.828
 1052SOL    HW1 4055   3.991   0.479   4.762
 1052SOL    HW2 4056   3.981   0.639   4.792
 1053SOL     OW 4057   6.422   4.773   2.511
 1053SOL    HW1 4058   6.452   4.783   2.606
 1053SOL    HW2 4059   6.335   4.819   2.498
 1054SOL     OW 4060   3.426   3.487   0.018
 1054SOL    HW1 4061   3.367   3.457   6.958
 1054SOL    HW2 4062   3.503   3.539   6.998
 1055SOL     OW 4063   3.327   5.994   4.316
 1055SOL    HW1 4064   3.227   5.998   4.321
 1055SOL    HW2 4065   3.354   5.957   4.227
 1056SOL     OW 4066   2.398   4.370   6.555
 1056SOL    HW1 4067   2.322   4.433   6.540
 1056SOL    HW2 4068   2.407   4.308   6.477
 1057SOL     OW 4069   2.923   3.246   2.028
 1057SOL    HW1 4070   2.865   3.307   1.974
 1057SOL    HW2 4071   2.910   3.152   1.996
 1058SOL     OW 4072   4.786   2.289   3.601
 1058SOL    HW1 4073   4.771   2.209   3.543
 1058SOL    HW2 4074   4.698   2.328   3.628
 1059SOL     OW 4075   2.738   0.505   2.180
 1059SOL    HW1 4076   2.831   0.470   2.172
 1059SOL    HW2 4077   2.676   0.430   2.202
 1060SOL     OW 4078   6.993   4.792   4.335
 1060SOL    HW1 4079   6.940   4.718   4.378
 1060SOL    HW2 4080   6.967   4.879   4.376
 1061SOL     OW 4081   6.623   3.100   0.783
 1061SOL    HW1 4082   6.568   3.062   0.857
 1061SOL    HW2 4083   6.630   3.199   0.793
 1062SOL     OW 4084   5.287   4.771   5.893
 1062SOL    HW1 4085   5.291   4.759   5.793
 1062SOL    HW2 4086   5.380   4.778   5.928
 1063SOL     OW 4087   1.488   4.742   1.202
 1063SOL    HW1 4088   1.563   4.797   1.240
 1063SOL    HW2 4089   1.408   4.800   1.189
 1064SOL     OW 4090   1.472   3.833   2.645
 1064SOL    HW1 4091   1.560   3.787   2.657
 1064SOL    HW2 4092   1.474   3.922   2.691
 1065SOL     OW 4093   4.085   0.513   3.434
 1065SOL    HW1 4094   3.996   0.537   3.396
 1065SOL    HW2 4095   4.084   0.416   3.461
 1066SOL     OW 4096   4.756   6.374   2.973
 1066SOL    HW1 4097   4.809   6.377   2.888
 1066SOL    HW2 4098   4.778   6.290   3.023
 1067SOL     OW 4099   0.994   3.116   1.019
 1067SOL    HW1 4100   1.087   3.135   0.988
 1067SOL    HW2 4101   0.975   3.170   1.101
 1068SOL     OW 4102   6.394   5.008   2.874
 1068SOL    HW1 4103   6.393   4.912   2.846
 1068SOL    HW2 4104   6.301   5.039   2.890
 1069SOL     OW 4105   4.369   5.196   0.642
 1069SOL    HW1 4106   4.454   5.144   0.630
 1069SOL    HW2 4107   4.338   5.230   0.553
 1070SOL     OW 4108   0.035   0.873   2.213
 1070SOL    HW1 4109   0.125   0.915   2.201
 1070SOL    HW2 4110   7.007   0.862   2.124
 1071SOL     OW 4111   1.310   0.759   4.410
 1071SOL    HW1 4112   1.312   0.852   4.374
 1071SOL    HW2 4113   1.332   0.694   4.338
 1072SOL     OW 4114   1.936   1.234   1.083
 1072SOL    HW1 4115   1.977   1.292   1.012
 1072SOL    HW2 4116   1.935   1.139   1.051
 1073SOL     OW 4117   4.712   6.842   2.546
 1073SOL    HW1 4118   4.664   6.851   2.634
 1073SOL    HW2 4119   4.811   6.844   2.562
 1074SOL     OW 4120   2.293   5.281   1.162
 1074SOL    HW1 4121   2.352   5.359   1.146
 1074SOL    HW2 4122   2.245   5.292   1.249
 1075SOL     OW 4123   5.063   0.393   3.336
 1075SOL    HW1 4124   5.062   0.421   3.432
 1075SOL    HW2 4125   5.153   0.411   3.297
 1076SOL     OW 4126   0.122   2.160   5.589
 1076SOL    HW1 4127   0.173   2.161   5.502
 1076SOL    HW2 4128   0.140   2.245   5.638
 1077SOL     OW 4129   5.334   0.214   1.207
 1077SOL    HW1 4130   5.289   0.257   1.129
 1077SOL    HW2 4131   5.381   0.131   1.176
 1078SOL     OW 4132   1.010   0.672   2.685
 1078SOL    HW1 4133   1.069   0.597   2.656
 1078SOL    HW2 4134   0.966   0.649   2.772
 1079SOL     OW 4135   1.593   6.464   2.477
 1079SOL    HW1 4136   1.613   6.369   2.500
 1079SOL    HW2 4137   1.499   6.471   2.443
 1080SOL     OW 4138   2.035   5.019   3.456
 1080SOL    HW1 4139   2.068   5.112   3.469
 1080SOL    HW2 4140   1.994   5.011   3.365
 1081SOL     OW 4141   0.450   5.533   5.643
 1081SOL    HW1 4142   0.448   5.499   5.738
 1081SOL    HW2 4143   0.543   5.526   5.608
 1082SOL     OW 4144   5.368   1.893   4.544
 1082SOL    HW1 4145   5.401   1.987   4.554
 1082SOL    HW2 4146   5.269   1.893   4.536
 1083SOL     OW 4147   4.250   4.323   0.837
 1083SOL    HW1 4148   4.347   4.345   0.827
 1083SOL    HW2 4149   4.201   4.354   0.755
 1084SOL     OW 4150   6.062   6.329   0.106
 1084SOL    HW1 4151   6.116   6.263   0.158
 1084SOL    HW2 4152   6.008   6.281   0.037
 1085SOL     OW 4153   1.931   3.232   4.217
 1085SOL    HW1 4154   1.887   3.287   4.147
 1085SOL    HW2 4155   1.982   3.292   4.279
 1086SOL     OW 4156   0.814   5.260   0.562
 1086SOL    HW1 4157   0.806   5.177   0.618
 1086SOL    HW2 4158   0.910   5.277   0.541
 1087SOL     OW 4159   5.900   2.143   5.134
 1087SOL    HW1 4160   5.843   2.076   5.088
 1087SOL    HW2 4161   5.850   2.182   5.211
 1088SOL     OW 4162   0.560   3.966   2.841
 1088SOL    HW1 4163   0.561   3.895   2.912
 1088SOL    HW2 4164   0.594   4.052   2.880
 1089SOL     OW 4165   1.123   6.153   4.370
 1089SOL    HW1 4166   1.197   6.205   4.414
 1089SOL    HW2 4167   1.035   6.183   4.406
 1090SOL     OW 4168   2.796   2.293   3.367
 1090SOL    HW1 4169   2.863   2.303   3.441
 1090SOL    HW2 4170   2.721   2.234   3.397
 1091SOL     OW 4171   3.142   2.145   4.731
 1091SOL    HW1 4172   3.150   2.188   4.821
 1091SOL    HW2 4173   3.047   2.150   4.700
 1092SOL     OW 4174   1.249   4.152   1.061
 1092SOL    HW1 4175   1.271   4.067   1.107
 1092SOL    HW2 4176   1.152   4.152   1.035
 1093SOL     OW 4177   1.861   1.395   2.024
 1093SOL    HW1 4178   1.874   1.306   1.979
 1093SOL    HW2 4179   1.945   1.449   2.017
 1094SOL     OW 4180   0.252   6.801   2.778
 1094SOL    HW1 4181   0.231   6.856   2.859
 1094SOL    HW2 4182   0.348   6.773   2.781
 1095SOL     OW 4183   1.078   2.922   6.195
 1095SOL    HW1 4184   1.013   2.983   6.150
 1095SOL    HW2 4185   1.153   2.975   6.233
 1096SOL     OW 4186   3.688   4.328   1.745
 1096SOL    HW1 4187   3.695   4.424   1.773
 1096SOL    HW2 4188   3.596   4.295   1.764
 1097SOL     OW 4189   2.372   4.519   4.322
 1097SOL    HW1 4190   2.352   4.551   4.415
 1097SOL    HW2 4191   2.367   4.597   4.259
 1098SOL     OW 4192   4.504   3.805   6.632
 1098SOL    HW1 4193   4.490   3.824   6.729
 1098SOL    HW2 4194   4.599   3.821   6.608
 1099SOL     OW 4195   3.584   0.934   5.754
 1099SOL    HW1 4196   3.604   1.002   5.824
 1099SOL    HW2 4197   3.666   0.917   5.700
 1100SOL     OW 4198   3.646   1.743   4.215
 1100SOL    HW1 4199   3.721   1.743   4.149
 1100SOL    HW2 4200   3.674   1.789   4.298
 1101SOL     OW 4201   5.737   2.927   6.261
 1101SOL    HW1 4202   5.688   2.864   6.201
 1101SOL    HW2 4203   5.709   2.911   6.356
 1102SOL     OW 4204   0.857   0.038   4.339
 1102SOL    HW1 4205   0.936   0.072   4.288
 1102SOL    HW2 4206   0.870   0.053   4.437
 1103SOL     OW 4207   4.121   1.573   0.060
 1103SOL    HW1 4208   4.132   1.656   0.005
 1103SOL    HW2 4209   4.031   1.534   0.042
 1104SOL     OW 4210   2.115   3.285   6.141
 1104SOL    HW1 4211   2.119   3.317   6.046
 1104SOL    HW2 4212   2.021   3.294   6.175
 1105SOL     OW 4213   6.220   3.489   4.826
 1105SOL    HW1 4214   6.161   3.419   4.785
 1105SOL    HW2 4215   6.315   3.465   4.811
 1106SOL     OW 4216   6.887   2.401   1.440
 1106SOL    HW1 4217   6.921   2.310   1.461
 1106SOL    HW2 4218   6.800   2.393   1.392
 1107SOL     OW 4219   0.487   0.662   6.852
 1107SOL    HW1 4220   0.511   0.727   6.780
 1107SOL    HW2 4221   0.554   0.668   6.926
 1108SOL     OW 4222   3.427   0.054   5.037
 1108SOL    HW1 4223   3.498   7.000   5.025
 1108SOL    HW2 4224   3.457   0.140   4.996
 1109SOL     OW 4225   4.646   1.244   4.158
 1109SOL    HW1 4226   4.712   1.227   4.231
 1109SOL    HW2 4227   4.586   1.319   4.183
 1110SOL     OW 4228   3.389   2.097   3.422
 1110SOL    HW1 4229   3.321   2.036   3.382
 1110SOL    HW2 4230   3.476   2.088   3.373
 1111SOL     OW 4231   4.936   5.578   6.212
 1111SOL    HW1 4232   4.904   5.566   6.118
 1111SOL    HW2 4233   4.860   5.558   6.275
 1112SOL     OW 4234   4.930   0.948   2.171
 1112SOL    HW1 4235   4.986   1.030   2.174
 1112SOL    HW2 4236   4.908   0.920   2.265
 1113SOL     OW 4237   6.077   4.697   1.613
 1113SOL    HW1 4238   6.058   4.668   1.520
 1113SOL    HW2 4239   6.011   4.657   1.676
 1114SOL     OW 4240   3.531   1.709   5.976
 1114SOL    HW1 4241   3.447   1.665   6.010
 1114SOL    HW2 4242   3.539   1.694   5.877
 1115SOL     OW 4243   4.077   3.142   5.874
 1115SOL    HW1 4244   4.052   3.169   5.967
 1115SOL    HW2 4245   4.130   3.215   5.830
 1116SOL     OW 4246   5.128   0.202   6.091
 1116SOL    HW1 4247   5.072   0.127   6.055
 1116SOL    HW2 4248   5.223   0.189   6.065
 1117SOL     OW 4249   2.691   1.873   2.451
 1117SOL    HW1 4250   2.777   1.835   2.418
 1117SOL    HW2 4251   2.710   1.934   2.528
 1118SOL     OW 4252   2.995   4.359   0.308
 1118SOL    HW1 4253   2.940   4.284   0.272
 1118SOL    HW2 4254   2.940   4.443   0.308
 1119SOL     OW 4255   4.243   5.038   1.790
 1119SOL    HW1 4256   4.144   5.030   1.779
 1119SOL    HW2 4257   4.288   4.960   1.746
 1120SOL     OW 4258   6.210   6.266   0.362
 1120SOL    HW1 4259   6.260   6.345   0.326
 1120SOL    HW2 4260   6.275   6.196   0.391
 1121SOL     OW 4261   6.149   4.280   4.473
 1121SOL    HW1 4262   6.163   4.313   4.380
 1121SOL    HW2 4263   6.104   4.190   4.470
 1122SOL     OW 4264   5.489   2.608   0.800
 1122SOL    HW1 4265   5.565   2.557   0.759
 1122SOL    HW2 4266   5.524   2.687   0.849
 1123SOL     OW 4267   4.951   1.647   3.370
 1123SOL    HW1 4268   5.019   1.705   3.323
 1123SOL    HW2 4269   4.866   1.698   3.381
 1124SOL     OW 4270   0.007   3.278   5.282
 1124SOL    HW1 4271   0.069   3.282   5.360
 1124SOL    HW2 4272   0.059   3.281   5.197
 1125SOL     OW 4273   2.494   2.106   4.013
 1125SOL    HW1 4274   2.430   2.041   4.053
 1125SOL    HW2 4275   2.460   2.137   3.925
 1126SOL     OW 4276   5.389   4.914   0.322
 1126SOL    HW1 4277   5.377   4.999   0.270
 1126SOL    HW2 4278   5.411   4.840   0.260
 1127SOL     OW 4279   5.310   5.277   4.847
 1127SOL    HW1 4280   5.381   5.303   4.913
 1127SOL    HW2 4281   5.297   5.351   4.781
 1128SOL     OW 4282   5.651   1.985   5.486
 1128SOL    HW1 4283   5.627   1.971   5.390
 1128SOL    HW2 4284   5.595   1.925   5.544
 1129SOL     OW 4285   1.341   0.618   0.622
 1129SOL    HW1 4286   1.418   0.579   0.572
 1129SOL    HW2 4287   1.373   0.692   0.681
 1130SOL     OW 4288   2.880   5.111   0.656
 1130SOL    HW1 4289   2.812   5.151   0.717
 1130SOL    HW2 4290   2.860   5.015   0.641
 1131SOL     OW 4291   1.024   5.618   5.760
 1131SOL    HW1 4292   1.108   5.587   5.715
 1131SOL    HW2 4293   1.042   5.702   5.810
 1132SOL     OW 4294   5.378   6.640   2.115
 1132SOL    HW1 4295   5.391   6.598   2.205
 1132SOL    HW2 4296   5.285   6.674   2.107
 1133SOL     OW 4297   0.788   1.068   0.677
 1133SOL    HW1 4298   0.734   1.061   0.593
 1133SOL    HW2 4299   0.834   1.157   0.679
 1134SOL     OW 4300   5.267   0.563   2.346
 1134SOL    HW1 4301   5.240   0.652   2.308
 1134SOL    HW2 4302   5.285   0.500   2.271
 1135SOL     OW 4303   2.497   0.366   3.012
 1135SOL    HW1 4304   2.400   0.355   2.988
 1135SOL    HW2 4305   2.530   0.452   2.972
 1136SOL     OW 4306   4.300   4.594   2.868
 1136SOL    HW1 4307   4.272   4.559   2.779
 1136SOL    HW2 4308   4.249   4.678   2.889
 1137SOL     OW 4309   0.932   0.018   6.742
 1137SOL    HW1 4310   0.910   0.109   6.779
 1137SOL    HW2 4311   0.928   6.966   6.816
 1138SOL     OW 4312   6.844   0.637   5.744
 1138SOL    HW1 4313   6.847   0.686   5.657
 1138SOL    HW2 4314   6.907   0.560   5.741
 1139SOL     OW 4315   3.293   4.917   2.480
 1139SOL    HW1 4316   3.235   4.865   2.542
 1139SOL    HW2 4317   3.351   4.979   2.534
 1140SOL     OW 4318   3.000   0.843   1.766
 1140SOL    HW1 4319   2.951   0.927   1.790
 1140SOL    HW2 4320   2.980   0.772   1.832
 1141SOL     OW 4321   0.666   6.624   6.795
 1141SOL    HW1 4322   0.610   6.553   6.837
 1141SOL    HW2 4323   0.642   6.632   6.698
 1142SOL     OW 4324   3.275   6.627   4.387
 1142SOL    HW1 4325   3.207   6.565   4.428
 1142SOL    HW2 4326   3.366   6.600   4.417
 1143SOL     OW 4327   1.690   2.785   3.307
 1143SOL    HW1 4328   1.652   2.703   3.265
 1143SOL    HW2 4329   1.786   2.795   3.281
 1144SOL     OW 4330   6.330   4.845   4.305
 1144SOL    HW1 4331   6.256   4.882   4.362
 1144SOL    HW2 4332   6.347   4.750   4.330
 1145SOL     OW 4333   6.585   4.054   1.693
 1145SOL    HW1 4334   6.664   4.001   1.725
 1145SOL    HW2 4335   6.508   4.039   1.755
 1146SOL     OW 4336   7.003   0.508   2.953
 1146SOL    HW1 4337   6.971   0.547   3.040
 1146SOL    HW2 4338   6.994   0.409   2.956
 1147SOL     OW 4339   2.834   5.623   1.139
 1147SOL    HW1 4340   2.884   5.685   1.079
 1147SOL    HW2 4341   2.899   5.575   1.198
 1148SOL     OW 4342   4.291   5.812   0.413
 1148SOL    HW1 4343   4.340   5.778   0.333
 1148SOL    HW2 4344   4.258   5.734   0.467
 1149SOL     OW 4345   6.270   3.640   2.836
 1149SOL    HW1 4346   6.274   3.740   2.831
 1149SOL    HW2 4347   6.253   3.603   2.744
 1150SOL     OW 4348   1.746   3.292   0.376
 1150SOL    HW1 4349   1.688   3.249   0.307
 1150SOL    HW2 4350   1.768   3.226   0.447
 1151SOL     OW 4351   4.836   4.259   6.941
 1151SOL    HW1 4352   4.823   4.182   6.879
 1151SOL    HW2 4353   4.927   4.298   6.927
 1152SOL     OW 4354   5.344   4.960   6.648
 1152SOL    HW1 4355   5.385   4.938   6.560
 1152SOL    HW2 4356   5.248   4.934   6.648
 1153SOL     OW 4357   1.062   0.322   1.660
 1153SOL    HW1 4358   1.121   0.245   1.633
 1153SOL    HW2 4359   0.967   0.302   1.635
 1154SOL     OW 4360   6.878   4.212   1.328
 1154SOL    HW1 4361   6.968   4.248   1.354
 1154SOL    HW2 4362   6.880   4.112   1.335
 1155SOL     OW 4363   2.349   4.915   6.031
 1155SOL    HW1 4364   2.289   4.839   6.057
 1155SOL    HW2 4365   2.293   4.992   6.000
 1156SOL     OW 4366   4.620   1.737   4.693
 1156SOL    HW1 4367   4.658   1.681   4.766
 1156SOL    HW2 4368   4.520   1.738   4.700
 1157SOL     OW 4369   5.115   1.859   6.031
 1157SOL    HW1 4370   5.052   1.786   6.004
 1157SOL    HW2 4371   5.063   1.937   6.065
 1158SOL     OW 4372   0.186   5.148   5.511
 1158SOL    HW1 4373   0.202   5.090   5.431
 1158SOL    HW2 4374   0.233   5.110   5.590
 1159SOL     OW 4375   6.633   6.451   3.669
 1159SOL    HW1 4376   6.613   6.537   3.716
 1159SOL    HW2 4377   6.547   6.407   3.644
 1160SOL     OW 4378   5.109   4.571   1.066
 1160SOL    HW1 4379   5.179   4.527   1.010
 1160SOL    HW2 4380   5.087   4.661   1.028
 1161SOL     OW 4381   5.827   6.613   5.754
 1161SOL    HW1 4382   5.756   6.624   5.824
 1161SOL    HW2 4383   5.897   6.550   5.788
 1162SOL     OW 4384   3.529   2.505   6.948
 1162SOL    HW1 4385   3.513   2.546   6.858
 1162SOL    HW2 4386   3.486   2.562   0.003
 1163SOL     OW 4387   6.914   3.916   1.525
 1163SOL    HW1 4388   6.980   3.988   1.505
 1163SOL    HW2 4389   6.911   3.852   1.448
 1164SOL     OW 4390   6.088   3.286   4.477
 1164SOL    HW1 4391   6.104   3.275   4.379
 1164SOL    HW2 4392   6.074   3.197   4.519
 1165SOL     OW 4393   3.706   4.850   3.654
 1165SOL    HW1 4394   3.752   4.829   3.740
 1165SOL    HW2 4395   3.612   4.877   3.673
 1166SOL     OW 4396   3.929   0.033   0.173
 1166SOL    HW1 4397   3.943   0.089   0.091
 1166SOL    HW2 4398   3.875   6.968   0.149
 1167SOL     OW 4399   4.767   6.178   6.732
 1167SOL    HW1 4400   4.805   6.242   6.665
 1167SOL    HW2 4401   4.826   6.176   6.813
 1168SOL     OW 4402   4.995   2.569   2.652
 1168SOL    HW1 4403   5.004   2.599   2.747
 1168SOL    HW2 4404   4.987   2.648   2.592
 1169SOL     OW 4405   4.529   2.843   5.902
 1169SOL    HW1 4406   4.616   2.795   5.886
 1169SOL    HW2 4407   4.463   2.816   5.832
 1170SOL     OW 4408   5.108   0.072   3.053
 1170SOL    HW1 4409   5.206   0.076   3.032
 1170SOL    HW2 4410   5.094   0.080   3.151
 1171SOL     OW 4411   2.441   6.345   6.970
 1171SOL    HW1 4412   2.520   6.291   6.941
 1171SOL    HW2 4413   2.422   6.415   6.901
 1172SOL     OW 4414   3.290   4.213   1.539
 1172SOL    HW1 4415   3.209   4.188   1.591
 1172SOL    HW2 4416   3.304   4.148   1.464
 1173SOL     OW 4417   2.842   0.919   0.319
 1173SOL    HW1 4418   2.807   0.858   0.391
 1173SOL    HW2 4419   2.898   0.990   0.361
 1174SOL     OW 4420   2.660   4.819   1.247
 1174SOL    HW1 4421   2.700   4.910   1.258
 1174SOL    HW2 4422   2.659   4.772   1.336
 1175SOL     OW 4423   4.358   4.398   6.743
 1175SOL    HW1 4424   4.452   4.399   6.709
 1175SOL    HW2 4425   4.308   4.475   6.703
 1176SOL     OW 4426   5.923   4.016   6.776
 1176SOL    HW1 4427   6.004   3.977   6.820
 1176SOL    HW2 4428   5.908   3.972   6.687
 1177SOL     OW 4429   0.562   3.395   5.327
 1177SOL    HW1 4430   0.492   3.428   5.390
 1177SOL    HW2 4431   0.524   3.323   5.269
 1178SOL     OW 4432   3.455   4.592   0.710
 1178SOL    HW1 4433   3.415   4.620   0.798
 1178SOL    HW2 4434   3.396   4.624   0.636
 1179SOL     OW 4435   2.296   6.088   1.042
 1179SOL    HW1 4436   2.248   6.123   0.961
 1179SOL    HW2 4437   2.254   6.003   1.072
 1180SOL     OW 4438   2.385   6.160   4.557
 1180SOL    HW1 4439   2.422   6.138   4.466
 1180SOL    HW2 4440   2.424   6.096   4.624
 1181SOL     OW 4441   6.748   4.285   6.458
 1181SOL    HW1 4442   6.845   4.305   6.477
 1181SOL    HW2 4443   6.722   4.200   6.503
 1182SOL     OW 4444   3.765   5.307   3.176
 1182SOL    HW1 4445   3.755   5.249   3.095
 1182SOL    HW2 4446   3.690   5.372   3.180
 1183SOL     OW 4447   3.202   5.013   1.484
 1183SOL    HW1 4448   3.131   4.986   1.549
 1183SOL    HW2 4449   3.160   5.051   1.402
 1184SOL     OW 4450   6.880   0.957   5.028
 1184SOL    HW1 4451   6.950   1.029   5.027
 1184SOL    HW2 4452   6.918   0.876   5.074
 1185SOL     OW 4453   1.233   0.733   0.099
 1185SOL    HW1 4454   1.287   0.807   0.059
 1185SOL    HW2 4455   1.141   0.734   0.062
 1186SOL     OW 4456   5.152   5.960   5.178
 1186SOL    HW1 4457   5.126   5.863   5.182
 1186SOL    HW2 4458   5.130   6.004   5.264
 1187SOL     OW 4459   5.275   6.781   5.054
 1187SOL    HW1 4460   5.234   6.871   5.035
 1187SOL    HW2 4461   5.267   6.762   5.152
 1188SOL     OW 4462   2.369   5.458   6.324
 1188SOL    HW1 4463   2.445   5.397   6.299
 1188SOL    HW2 4464   2.303   5.461   6.249
 1189SOL     OW 4465   6.419   1.407   1.566
 1189SOL    HW1 4466   6.506   1.419   1.518
 1189SOL    HW2 4467   6.385   1.314   1.549
 1190SOL     OW 4468   2.880   5.524   2.936
 1190SOL    HW1 4469   2.877   5.549   3.033
 1190SOL    HW2 4470   2.870   5.605   2.879
 1191SOL     OW 4471   3.758   6.157   4.222
 1191SOL    HW1 4472   3.671   6.137   4.178
 1191SOL    HW2 4473   3.831   6.105   4.178
 1192SOL     OW 4474   5.385   5.436   3.566
 1192SOL    HW1 4475   5.292   5.469   3.547
 1192SOL    HW2 4476   5.425   5.490   3.641
 1193SOL     OW 4477   6.902   1.665   5.672
 1193SOL    HW1 4478   6.971   1.614   5.723
 1193SOL    HW2 4479   6.827   1.690   5.734
 1194SOL     OW 4480   6.655   1.059   1.692
 1194SOL    HW1 4481   6.681   1.128   1.625
 1194SOL    HW2 4482   6.713   1.069   1.773
 1195SOL     OW 4483   0.270   3.252   0.449
 1195SOL    HW1 4484   0.309   3.338   0.481
 1195SOL    HW2 4485   0.344   3.189   0.425
 1196SOL     OW 4486   6.576   4.770   3.445
 1196SOL    HW1 4487   6.549   4.678   3.416
 1196SOL    HW2 4488   6.554   4.782   3.542
 1197SOL     OW 4489   4.664   6.156   3.737
 1197SOL    HW1 4490   4.678   6.246   3.777
 1197SOL    HW2 4491   4.752   6.112   3.720
 1198SOL     OW 4492   1.678   3.548   1.888
 1198SOL    HW1 4493   1.721   3.508   1.969
 1198SOL    HW2 4494   1.682   3.483   1.813
 1199SOL     OW 4495   3.401   4.161   2.813
 1199SOL    HW1 4496   3.460   4.199   2.741
 1199SOL    HW2 4497   3.330   4.105   2.771
 1200SOL     OW 4498   2.990   3.893   4.666
 1200SOL    HW1 4499   2.971   3.919   4.761
 1200SOL    HW2 4500   2.929   3.819   4.639
 1201SOL     OW 4501   0.236   1.625   4.059
 1201SOL    HW1 4502   0.333   1.600   4.066
 1201SOL    HW2 4503   0.186   1.553   4.011
 1202SOL     OW 4504   0.556   6.014   5.793
 1202SOL    HW1 4505   0.479   6.074   5.817
 1202SOL    HW2 4506   0.629   6.025   5.861
 1203SOL     OW 4507   0.828   5.497   0.820
 1203SOL    HW1 4508   0.828   5.415   0.762
 1203SOL    HW2 4509   0.742   5.546   0.809
 1204SOL     OW 4510   4.392   1.394   1.459
 1204SOL    HW1 4511   4.335   1.312   1.464
 1204SOL    HW2 4512   4.335   1.472   1.429
 1205SOL     OW 4513   3.529   3.818   0.629
 1205SOL    HW1 4514   3.553   3.802   0.533
 1205SOL    HW2 4515   3.613   3.821   0.684
 1206SOL     OW 4516   2.014   2.873   5.566
 1206SOL    HW1 4517   1.935   2.883   5.505
 1206SOL    HW2 4518   2.002   2.932   5.646
 1207SOL     OW 4519   1.017   0.520   0.841
 1207SOL    HW1 4520   1.039   0.553   0.749
 1207SOL    HW2 4521   0.925   0.550   0.865
 1208SOL     OW 4522   3.126   3.257   1.584
 1208SOL    HW1 4523   3.131   3.238   1.682
 1208SOL    HW2 4524   3.157   3.351   1.567
 1209SOL     OW 4525   5.200   0.632   3.963
 1209SOL    HW1 4526   5.227   0.696   4.035
 1209SOL    HW2 4527   5.145   0.558   4.002
 1210SOL     OW 4528   3.973   6.438   3.693
 1210SOL    HW1 4529   3.917   6.440   3.776
 1210SOL    HW2 4530   3.932   6.497   3.624
 1211SOL     OW 4531   1.302   2.804   2.999
 1211SOL    HW1 4532   1.355   2.776   2.918
 1211SOL    HW2 4533   1.348   2.880   3.044
 1212SOL     OW 4534   6.224   0.239   6.037
 1212SOL    HW1 4535   6.258   0.223   6.130
 1212SOL    HW2 4536   6.160   0.167   6.012
 1213SOL     OW 4537   5.925   2.592   1.490
 1213SOL    HW1 4538   5.915   2.612   1.587
 1213SOL    HW2 4539   5.869   2.513   1.466
 1214SOL     OW 4540   1.064   2.813   0.336
 1214SOL    HW1 4541   1.091   2.837   0.243
 1214SOL    HW2 4542   1.008   2.729   0.333
 1215SOL     OW 4543   0.757   4.852   3.063
 1215SOL    HW1 4544   0.835   4.870   3.124
 1215SOL    HW2 4545   0.682   4.812   3.116
 1216SOL     OW 4546   5.257   1.321   0.355
 1216SOL    HW1 4547   5.194   1.264   0.303
 1216SOL    HW2 4548   5.216   1.411   0.369
 1217SOL     OW 4549   2.757   4.660   0.832
 1217SOL    HW1 4550   2.802   4.643   0.919
 1217SOL    HW2 4551   2.666   4.618   0.833
 1218SOL     OW 4552   1.627   3.022   5.181
 1218SOL    HW1 4553   1.673   2.994   5.097
 1218SOL    HW2 4554   1.688   3.010   5.259
 1219SOL     OW 4555   6.138   5.885   1.715
 1219SOL    HW1 4556   6.210   5.888   1.645
 1219SOL    HW2 4557   6.177   5.909   1.803
 1220SOL     OW 4558   0.717   4.488   2.218
 1220SOL    HW1 4559   0.815   4.464   2.218
 1220SOL    HW2 4560   0.687   4.501   2.123
 1221SOL     OW 4561   4.292   3.317   6.471
 1221SOL    HW1 4562   4.307   3.414   6.490
 1221SOL    HW2 4563   4.243   3.275   6.547
 1222SOL     OW 4564   6.924   1.374   6.636
 1222SOL    HW1 4565   0.004   1.350   6.656
 1222SOL    HW2 4566   6.882   1.299   6.585
 1223SOL     OW 4567   4.113   1.369   0.795
 1223SOL    HW1 4568   4.024   1.410   0.774
 1223SOL    HW2 4569   4.186   1.427   0.759
 1224SOL     OW 4570   3.148   6.066   0.197
 1224SOL    HW1 4571   3.159   5.992   0.131
 1224SOL    HW2 4572   3.087   6.036   0.271
 1225SOL     OW 4573   3.129   2.739   6.822
 1225SOL    HW1 4574   3.202   2.673   6.806
 1225SOL    HW2 4575   3.083   2.760   6.735
 1226SOL     OW 4576   3.140   6.686   1.329
 1226SOL    HW1 4577   3.093   6.730   1.406
 1226SOL    HW2 4578   3.218   6.635   1.364
 1227SOL     OW 4579   4.820   4.515   5.805
 1227SOL    HW1 4580   4.762   4.583   5.851
 1227SOL    HW2 4581   4.915   4.528   5.833
 1228SOL     OW 4582   2.683   2.336   6.196
 1228SOL    HW1 4583   2.683   2.237   6.208
 1228SOL    HW2 4584   2.705   2.358   6.100
 1229SOL     OW 4585   3.096   5.648   6.490
 1229SOL    HW1 4586   3.046   5.600   6.418
 1229SOL    HW2 4587   3.192   5.618   6.489
 1230SOL     OW 4588   5.028   6.329   2.081
 1230SOL    HW1 4589   5.127   6.335   2.078
 1230SOL    HW2 4590   4.989   6.420   2.066
 1231SOL     OW 4591   1.674   2.127   5.541
 1231SOL    HW1 4592   1.671   2.166   5.633
 1231SOL    HW2 4593   1.646   2.031   5.545
 1232SOL     OW 4594   0.098   1.734   5.490
 1232SOL    HW1 4595   0.009   1.737   5.537
 1232SOL    HW2 4596   0.091   1.674   5.410
 1233SOL     OW 4597   0.885   5.397   5.231
 1233SOL    HW1 4598   0.929   5.315   5.269
 1233SOL    HW2 4599   0.794   5.406   5.270
 1234SOL     OW 4600   6.290   3.089   6.099
 1234SOL    HW1 4601   6.228   3.167   6.089
 1234SOL    HW2 4602   6.351   3.085   6.021
 1235SOL     OW 4603   6.155   5.965   2.563
 1235SOL    HW1 4604   6.163   5.976   2.662
 1235SOL    HW2 4605   6.140   5.868   2.542
 1236SOL     OW 4606   4.501   0.900   0.174
 1236SOL    HW1 4607   4.575   0.834   0.162
 1236SOL    HW2 4608   4.540   0.991   0.190
 1237SOL     OW 4609   2.074   4.753   5.725
 1237SOL    HW1 4610   2.114   4.685   5.787
 1237SOL    HW2 4611   1.982   4.724   5.699
 1238SOL     OW 4612   1.218   0.993   6.680
 1238SOL    HW1 4613   1.283   1.026   6.611
 1238SOL    HW2 4614   1.222   0.893   6.684
 1239SOL     OW 4615   6.411   6.851   6.660
 1239SOL    HW1 4616   6.386   6.797   6.741
 1239SOL    HW2 4617   6.491   6.810   6.617
 1240SOL     OW 4618   5.186   6.002   0.508
 1240SOL    HW1 4619   5.210   6.070   0.577
 1240SOL    HW2 4620   5.090   6.013   0.483
 1241SOL     OW 4621   5.493   3.881   4.233
 1241SOL    HW1 4622   5.437   3.865   4.152
 1241SOL    HW2 4623   5.434   3.908   4.309
 1242SOL     OW 4624   0.636   3.852   1.420
 1242SOL    HW1 4625   0.660   3.759   1.393
 1242SOL    HW2 4626   0.574   3.849   1.498
 1243SOL     OW 4627   0.732   0.296   5.113
 1243SOL    HW1 4628   0.680   0.329   5.034
 1243SOL    HW2 4629   0.703   0.204   5.137
 1244SOL     OW 4630   5.999   6.379   4.199
 1244SOL    HW1 4631   5.902   6.394   4.218
 1244SOL    HW2 4632   6.053   6.448   4.248
 1245SOL     OW 4633   6.062   4.195   0.587
 1245SOL    HW1 4634   6.073   4.120   0.651
 1245SOL    HW2 4635   6.025   4.275   0.635
 1246SOL     OW 4636   2.647   0.293   1.209
 1246SOL    HW1 4637   2.668   0.287   1.306
 1246SOL    HW2 4638   2.718   0.347   1.163
 1247SOL     OW 4639   0.331   6.665   6.631
 1247SOL    HW1 4640   0.287   6.710   6.709
 1247SOL    HW2 4641   0.292   6.701   6.546
 1248SOL     OW 4642   2.087   0.391   5.026
 1248SOL    HW1 4643   2.001   0.438   5.041
 1248SOL    HW2 4644   2.071   0.293   5.017
 1249SOL     OW 4645   6.490   2.145   2.316
 1249SOL    HW1 4646   6.435   2.137   2.399
 1249SOL    HW2 4647   6.534   2.057   2.296
 1250SOL     OW 4648   6.117   5.607   3.718
 1250SOL    HW1 4649   6.160   5.580   3.632
 1250SOL    HW2 4650   6.189   5.625   3.786
 1251SOL     OW 4651   2.496   0.829   3.433
 1251SOL    HW1 4652   2.478   0.739   3.474
 1251SOL    HW2 4653   2.584   0.863   3.466
 1252SOL     OW 4654   4.651   3.325   6.004
 1252SOL    HW1 4655   4.742   3.334   6.044
 1252SOL    HW2 4656   4.583   3.356   6.070
 1253SOL     OW 4657   2.937   6.003   1.973
 1253SOL    HW1 4658   2.965   6.089   1.930
 1253SOL    HW2 4659   2.983   5.926   1.927
 1254SOL     OW 4660   1.143   2.770   2.590
 1254SOL    HW1 4661   1.094   2.749   2.675
 1254SOL    HW2 4662   1.161   2.685   2.540
 1255SOL     OW 4663   5.522   1.454   6.408
 1255SOL    HW1 4664   5.434   1.495   6.384
 1255SOL    HW2 4665   5.520   1.423   6.503
 1256SOL     OW 4666   6.677   6.474   2.998
 1256SOL    HW1 4667   6.733   6.402   2.958
 1256SOL    HW2 4668   6.636   6.529   2.924
 1257SOL     OW 4669   6.667   5.905   4.848
 1257SOL    HW1 4670   6.725   5.840   4.897
 1257SOL    HW2 4671   6.586   5.858   4.813
 1258SOL     OW 4672   1.511   4.749   3.392
 1258SOL    HW1 4673   1.575   4.820   3.362
 1258SOL    HW2 4674   1.451   4.724   3.317
 1259SOL     OW 4675   3.655   0.627   4.077
 1259SOL    HW1 4676   3.676   0.556   4.011
 1259SOL    HW2 4677   3.607   0.702   4.032
 1260SOL     OW 4678   2.284   2.253   0.138
 1260SOL    HW1 4679   2.307   2.158   0.115
 1260SOL    HW2 4680   2.194   2.257   0.181
 1261SOL     OW 4681   0.233   6.137   6.676
 1261SOL    HW1 4682   0.237   6.182   6.587
 1261SOL    HW2 4683   0.322   6.147   6.722
 1262SOL     OW 4684   5.694   4.514   1.180
 1262SOL    HW1 4685   5.623   4.545   1.243
 1262SOL    HW2 4686   5.698   4.414   1.180
 1263SOL     OW 4687   6.855   2.421   1.862
 1263SOL    HW1 4688   6.799   2.480   1.920
 1263SOL    HW2 4689   6.885   2.473   1.782
 1264SOL     OW 4690   0.659   4.425   1.420
 1264SOL    HW1 4691   0.643   4.358   1.492
 1264SOL    HW2 4692   0.689   4.512   1.460
 1265SOL     OW 4693   5.538   5.082   4.470
 1265SOL    HW1 4694   5.445   5.116   4.454
 1265SOL    HW2 4695   5.536   4.982   4.473
 1266SOL     OW 4696   0.507   1.556   4.158
 1266SOL    HW1 4697   0.605   1.572   4.144
 1266SOL    HW2 4698   0.494   1.476   4.216
 1267SOL     OW 4699   4.486   6.985   1.205
 1267SOL    HW1 4700   4.431   6.903   1.219
 1267SOL    HW2 4701   4.554   6.967   1.133
 1268SOL     OW 4702   2.935   2.380   0.426
 1268SOL    HW1 4703   2.866   2.445   0.395
 1268SOL    HW2 4704   2.945   2.307   0.358
 1269SOL     OW 4705   5.708   4.480   5.083
 1269SOL    HW1 4706   5.685   4.420   5.007
 1269SOL    HW2 4707   5.728   4.425   5.164
 1270SOL     OW 4708   1.141   3.086   3.332
 1270SOL    HW1 4709   1.069   3.151   3.306
 1270SOL    HW2 4710   1.188   3.120   3.413
 1271SOL     OW 4711   2.420   2.209   3.745
 1271SOL    HW1 4712   2.516   2.207   3.717
 1271SOL    HW2 4713   2.365   2.256   3.675
 1272SOL     OW 4714   5.688   4.586   6.934
 1272SOL    HW1 4715   5.786   4.582   6.914
 1272SOL    HW2 4716   5.636   4.581   6.849
 1273SOL     OW 4717   0.560   2.998   7.014
 1273SOL    HW1 4718   0.603   2.918   0.040
 1273SOL    HW2 4719   0.584   3.079   0.051
 1274SOL     OW 4720   6.721   4.562   1.729
 1274SOL    HW1 4721   6.756   4.586   1.639
 1274SOL    HW2 4722   6.649   4.494   1.720
 1275SOL     OW 4723   3.663   1.471   4.178
 1275SOL    HW1 4724   3.636   1.563   4.206
 1275SOL    HW2 4725   3.645   1.459   4.080
 1276SOL     OW 4726   6.497   6.046   5.159
 1276SOL    HW1 4727   6.492   6.145   5.169
 1276SOL    HW2 4728   6.451   6.018   5.074
 1277SOL     OW 4729   1.336   5.543   5.878
 1277SOL    HW1 4730   1.307   5.537   5.782
 1277SOL    HW2 4731   1.358   5.637   5.900
 1278SOL     OW 4732   0.910   6.795   4.704
 1278SOL    HW1 4733   0.891   6.796   4.802
 1278SOL    HW2 4734   0.881   6.708   4.665
 1279SOL     OW 4735   1.919   5.150   0.265
 1279SOL    HW1 4736   1.901   5.120   0.171
 1279SOL    HW2 4737   2.017   5.146   0.283
 1280SOL     OW 4738   3.777   6.432   4.278
 1280SOL    HW1 4739   3.849   6.479   4.226
 1280SOL    HW2 4740   3.785   6.333   4.264
 1281SOL     OW 4741   2.242   6.163   3.353
 1281SOL    HW1 4742   2.330   6.117   3.363
 1281SOL    HW2 4743   2.216   6.204   3.440
 1282SOL     OW 4744   6.628   2.580   0.344
 1282SOL    HW1 4745   6.692   2.657   0.337
 1282SOL    HW2 4746   6.664   2.502   0.294
 1283SOL     OW 4747   7.014   3.416   5.685
 1283SOL    HW1 4748   6.939   3.482   5.697
 1283SOL    HW2 4749   0.054   3.414   5.768
 1284SOL     OW 4750   5.071   2.339   1.167
 1284SOL    HW1 4751   5.061   2.436   1.146
 1284SOL    HW2 4752   5.063   2.325   1.265
 1285SOL     OW 4753   4.326   1.777   5.872
 1285SOL    HW1 4754   4.360   1.862   5.832
 1285SOL    HW2 4755   4.380   1.700   5.837
 1286SOL     OW 4756   4.288   3.787   1.741
 1286SOL    HW1 4757   4.194   3.804   1.769
 1286SOL    HW2 4758   4.306   3.689   1.744
 1287SOL     OW 4759   5.924   5.221   5.200
 1287SOL    HW1 4760   5.979   5.303   5.217
 1287SOL    HW2 4761   5.972   5.140   5.233
 1288SOL     OW 4762   3.820   3.096   6.991
 1288SOL    HW1 4763   3.770   3.056   0.053
 1288SOL    HW2 4764   3.855   3.023   6.933
 1289SOL     OW 4765   6.351   6.874   1.189
 1289SOL    HW1 4766   6.265   6.826   1.205
 1289SOL    HW2 4767   6.347   6.919   1.099
 1290SOL     OW 4768   0.841   6.577   0.040
 1290SOL    HW1 4769   0.927   6.529   0.019
 1290SOL    HW2 4770   0.765   6.531   7.009
 1291SOL     OW 4771   0.244   4.160   4.450
 1291SOL    HW1 4772   0.208   4.242   4.406
 1291SOL    HW2 4773   0.299   4.108   4.385
 1292SOL     OW 4774   0.690   5.745   2.442
 1292SOL    HW1 4775   0.701   5.793   2.530
 1292SOL    HW2 4776   0.688   5.812   2.368
 1293SOL     OW 4777   0.882   1.681   6.886
 1293SOL    HW1 4778   0.843   1.689   6.794
 1293SOL    HW2 4779   0.977   1.652   6.879
 1294SOL     OW 4780   0.436   3.875   6.318
 1294SOL    HW1 4781   0.490   3.946   6.274
 1294SOL    HW2 4782   0.406   3.907   6.408
 1295SOL     OW 4783   0.441   3.716   1.595
 1295SOL    HW1 4784   0.513   3.738   1.661
 1295SOL    HW2 4785   0.465   3.633   1.546
 1296SOL     OW 4786   4.390   6.462   5.694
 1296SOL    HW1 4787   4.373   6.551   5.737
 1296SOL    HW2 4788   4.438   6.403   5.759
 1297SOL     OW 4789   6.892   0.495   1.317
 1297SOL    HW1 4790   6.882   0.589   1.351
 1297SOL    HW2 4791   6.885   0.431   1.394
 1298SOL     OW 4792   5.603   5.451   3.402
 1298SOL    HW1 4793   5.667   5.374   3.407
 1298SOL    HW2 4794   5.525   5.433   3.462
 1299SOL     OW 4795   2.005   3.219   3.044
 1299SOL    HW1 4796   2.055   3.279   2.981
 1299SOL    HW2 4797   1.906   3.232   3.030
 1300SOL     OW 4798   2.030   3.237   0.816
 1300SOL    HW1 4799   2.026   3.223   0.915
 1300SOL    HW2 4800   2.122   3.264   0.790
 1301SOL     OW 4801   0.426   6.907   0.996
 1301SOL    HW1 4802   0.399   6.990   1.045
 1301SOL    HW2 4803   0.521   6.885   1.018
 1302SOL     OW 4804   4.143   0.549   5.891
 1302SOL    HW1 4805   4.119   0.552   5.988
 1302SOL    HW2 4806   4.210   0.477   5.875
 1303SOL     OW 4807   3.852   2.167   1.498
 1303SOL    HW1 4808   3.789   2.238   1.531
 1303SOL    HW2 4809   3.894   2.121   1.576
 1304SOL     OW 4810   2.480   0.752   6.947
 1304SOL    HW1 4811   2.502   0.764   6.850
 1304SOL    HW2 4812   2.395   0.700   6.956
 1305SOL     OW 4813   5.480   3.532   1.286
 1305SOL    HW1 4814   5.489   3.543   1.385
 1305SOL    HW2 4815   5.487   3.435   1.262
 1306SOL     OW 4816   1.184   5.520   3.840
 1306SOL    HW1 4817   1.166   5.618   3.851
 1306SOL    HW2 4818   1.109   5.477   3.789
 1307SOL     OW 4819   1.675   3.886   3.948
 1307SOL    HW1 4820   1.739   3.956   3.980
 1307SOL    HW2 4821   1.630   3.843   4.027
 1308SOL     OW 4822   6.375   0.123   5.233
 1308SOL    HW1 4823   6.276   0.128   5.221
 1308SOL    HW2 4824   6.405   0.194   5.297
 1309SOL     OW 4825   5.754   4.871   5.545
 1309SOL    HW1 4826   5.746   4.935   5.469
 1309SOL    HW2 4827   5.840   4.821   5.538
 1310SOL     OW 4828   6.456   4.106   4.061
 1310SOL    HW1 4829   6.540   4.078   4.108
 1310SOL    HW2 4830   6.439   4.203   4.080
 1311SOL     OW 4831   0.569   5.822   5.570
 1311SOL    HW1 4832   0.522   5.741   5.606
 1311SOL    HW2 4833   0.573   5.892   5.641
 1312SOL     OW 4834   0.910   6.700   6.711
 1312SOL    HW1 4835   0.905   6.735   6.618
 1312SOL    HW2 4836   0.818   6.692   6.749
 1313SOL     OW 4837   0.470   5.033   3.024
 1313SOL    HW1 4838   0.494   5.060   3.117
 1313SOL    HW2 4839   0.552   5.033   2.967
 1314SOL     OW 4840   4.465   1.081   5.529
 1314SOL    HW1 4841   4.494   1.125   5.614
 1314SOL    HW2 4842   4.375   1.039   5.543
 1315SOL     OW 4843   0.251   1.714   2.764
 1315SOL    HW1 4844   0.159   1.752   2.758
 1315SOL    HW2 4845   0.255   1.645   2.836
 1316SOL     OW 4846   3.059   6.567   6.257
 1316SOL    HW1 4847   3.057   6.532   6.163
 1316SOL    HW2 4848   3.051   6.667   6.255
 1317SOL     OW 4849   1.921   4.202   6.044
 1317SOL    HW1 4850   1.911   4.288   6.094
 1317SOL    HW2 4851   2.016   4.192   6.013
 1318SOL     OW 4852   0.839   2.000   1.002
 1318SOL    HW1 4853   0.935   1.974   1.013
 1318SOL    HW2 4854   0.826   2.043   0.913
 1319SOL     OW 4855   6.628   6.392   6.963
 1319SOL    HW1 4856   6.716   6.417   6.922
 1319SOL    HW2 4857   6.571   6.473   6.974
 1320SOL     OW 4858   3.899   4.846   6.836
 1320SOL    HW1 4859   3.846   4.928   6.857
 1320SOL    HW2 4860   3.837   4.768   6.825
 1321SOL     OW 4861   5.593   2.215   6.342
 1321SOL    HW1 4862   5.629   2.154   6.271
 1321SOL    HW2 4863   5.649   2.298   6.345
 1322SOL     OW 4864   3.432   1.175   3.505
 1322SOL    HW1 4865   3.464   1.210   3.417
 1322SOL    HW2 4866   3.444   1.246   3.575
 1323SOL     OW 4867   4.305   0.226   6.368
 1323SOL    HW1 4868   4.297   0.255   6.273
 1323SOL    HW2 4869   4.399   0.196   6.386
 1324SOL     OW 4870   0.629   3.654   6.718
 1324SOL    HW1 4871   0.662   3.722   6.652
 1324SOL    HW2 4872   0.616   3.697   6.807
 1325SOL     OW 4873   2.433   6.976   3.583
 1325SOL    HW1 4874   2.403   6.973   3.678
 1325SOL    HW2 4875   2.480   0.048   3.565
 1326SOL     OW 4876   4.859   3.637   5.473
 1326SOL    HW1 4877   4.769   3.668   5.441
 1326SOL    HW2 4878   4.917   3.716   5.492
 1327SOL     OW 4879   0.992   5.959   1.411
 1327SOL    HW1 4880   1.004   6.051   1.448
 1327SOL    HW2 4881   1.076   5.906   1.425
 1328SOL     OW 4882   2.109   3.223   1.513
 1328SOL    HW1 4883   2.173   3.298   1.524
 1328SOL    HW2 4884   2.056   3.237   1.429
 1329SOL     OW 4885   0.941   2.338   1.949
 1329SOL    HW1 4886   0.896   2.345   2.038
 1329SOL    HW2 4887   0.898   2.265   1.896
 1330SOL     OW 4888   0.832   0.752   2.286
 1330SOL    HW1 4889   0.760   0.818   2.311
 1330SOL    HW2 4890   0.828   0.734   2.188
 1331SOL     OW 4891   4.905   3.285   2.788
 1331SOL    HW1 4892   4.989   3.268   2.839
 1331SOL    HW2 4893   4.877   3.203   2.739
 1332SOL     OW 4894   2.672   0.020   6.718
 1332SOL    HW1 4895   2.575   0.037   6.702
 1332SOL    HW2 4896   2.727   0.082   6.662
 1333SOL     OW 4897   3.327   3.197   4.310
 1333SOL    HW1 4898   3.242   3.163   4.268
 1333SOL    HW2 4899   3.345   3.289   4.278
 1334SOL     OW 4900   6.055   1.590   3.856
 1334SOL    HW1 4901   6.098   1.521   3.914
 1334SOL    HW2 4902   5.979   1.632   3.905
 1335SOL     OW 4903   2.248   1.679   2.448
 1335SOL    HW1 4904   2.238   1.776   2.468
 1335SOL    HW2 4905   2.183   1.652   2.377
 1336SOL     OW 4906   2.397   2.611   5.186
 1336SOL    HW1 4907   2.312   2.628   5.236
 1336SOL    HW2 4908   2.380   2.626   5.088
 1337SOL     OW 4909   1.767   2.067   4.228
 1337SOL    HW1 4910   1.742   2.098   4.136
 1337SOL    HW2 4911   1.867   2.063   4.236
 1338SOL     OW 4912   5.538   2.290   5.132
 1338SOL    HW1 4913   5.550   2.328   5.224
 1338SOL    HW2 4914   5.576   2.354   5.064
 1339SOL     OW 4915   6.538   2.516   6.715
 1339SOL    HW1 4916   6.577   2.600   6.751
 1339SOL    HW2 4917   6.521   2.527   6.617
 1340SOL     OW 4918   6.196   2.186   2.933
 1340SOL    HW1 4919   6.192   2.256   2.862
 1340SOL    HW2 4920   6.104   2.164   2.964
 1341SOL     OW 4921   5.380   6.609   6.523
 1341SOL    HW1 4922   5.329   6.694   6.513
 1341SOL    HW2 4923   5.477   6.629   6.534
 1342SOL     OW 4924   3.017   5.877   5.894
 1342SOL    HW1 4925   2.957   5.806   5.931
 1342SOL    HW2 4926   3.069   5.920   5.969
 1343SOL     OW 4927   5.480   5.720   2.290
 1343SOL    HW1 4928   5.410   5.693   2.224
 1343SOL    HW2 4929   5.436   5.743   2.377
 1344SOL     OW 4930   6.988   5.961   4.698
 1344SOL    HW1 4931   0.038   6.036   4.707
 1344SOL    HW2 4932   6.904   5.995   4.654
 1345SOL     OW 4933   1.312   6.871   3.414
 1345SOL    HW1 4934   1.395   6.886   3.361
 1345SOL    HW2 4935   1.317   6.923   3.499
 1346SOL     OW 4936   1.097   5.072   4.650
 1346SOL    HW1 4937   1.072   5.098   4.743
 1346SOL    HW2 4938   1.030   5.007   4.614
 1347SOL     OW 4939   0.317   6.701   5.767
 1347SOL    HW1 4940   0.221   6.728   5.761
 1347SOL    HW2 4941   0.374   6.781   5.780
 1348SOL     OW 4942   5.771   6.042   3.599
 1348SOL    HW1 4943   5.802   6.129   3.562
 1348SOL    HW2 4944   5.674   6.030   3.579
 1349SOL     OW 4945   4.504   2.600   5.663
 1349SOL    HW1 4946   4.566   2.625   5.737
 1349SOL    HW2 4947   4.435   2.671   5.652
 1350SOL     OW 4948   5.606   5.294   5.464
 1350SOL    HW1 4949   5.667   5.320   5.538
 1350SOL    HW2 4950   5.524   5.352   5.466
 1351SOL     OW 4951   5.497   2.092   2.749
 1351SOL    HW1 4952   5.466   2.034   2.673
 1351SOL    HW2 4953   5.555   2.165   2.714
 1352SOL     OW 4954   7.009   6.173   2.553
 1352SOL    HW1 4955   6.914   6.169   2.582
 1352SOL    HW2 4956   0.025   6.080   2.532
 1353SOL     OW 4957   6.901   2.207   0.646
 1353SOL    HW1 4958   6.810   2.190   0.609
 1353SOL    HW2 4959   6.893   2.257   0.732
 1354SOL     OW 4960   0.883   4.360   1.619
 1354SOL    HW1 4961   0.950   4.318   1.681
 1354SOL    HW2 4962   0.908   4.338   1.524
 1355SOL     OW 4963   5.966   2.806   3.924
 1355SOL    HW1 4964   6.025   2.764   3.856
 1355SOL    HW2 4965   5.912   2.736   3.970
 1356SOL     OW 4966   3.540   3.311   2.446
 1356SOL    HW1 4967   3.543   3.398   2.398
 1356SOL    HW2 4968   3.612   3.310   2.516
 1357SOL     OW 4969   0.585   3.239   6.184
 1357SOL    HW1 4970   0.511   3.211   6.245
 1357SOL    HW2 4971   0.608   3.335   6.200
 1358SOL     OW 4972   4.154   6.906   6.290
 1358SOL    HW1 4973   4.089   6.967   6.244
 1358SOL    HW2 4974   4.247   6.926   6.260
 1359SOL     OW 4975   6.004   5.338   2.134
 1359SOL    HW1 4976   6.051   5.427   2.130
 1359SOL    HW2 4977   6.056   5.271   2.083
 1360SOL     OW 4978   2.889   3.106   6.988
 1360SOL    HW1 4979   2.858   3.146   6.902
 1360SOL    HW2 4980   2.962   3.162   0.012
 1361SOL     OW 4981   6.735   5.513   5.731
 1361SOL    HW1 4982   6.734   5.612   5.747
 1361SOL    HW2 4983   6.677   5.492   5.652
 1362SOL     OW 4984   3.177   4.071   3.510
 1362SOL    HW1 4985   3.187   4.071   3.410
 1362SOL    HW2 4986   3.194   3.978   3.544
 1363SOL     OW 4987   0.014   5.209   3.116
 1363SOL    HW1 4988   0.091   5.164   3.069
 1363SOL    HW2 4989   0.007   5.304   3.086
 1364SOL     OW 4990   6.412   3.820   1.006
 1364SOL    HW1 4991   6.420   3.878   1.088
 1364SOL    HW2 4992   6.315   3.808   0.983
 1365SOL     OW 4993   0.416   3.600   6.320
 1365SOL    HW1 4994   0.325   3.560   6.329
 1365SOL    HW2 4995   0.410   3.699   6.333
 1366SOL     OW 4996   0.962   4.808   6.884
 1366SOL    HW1 4997   1.007   4.872   6.822
 1366SOL    HW2 4998   0.863   4.825   6.883
 1367SOL     OW 4999   2.012   0.535   3.390
 1367SOL    HW1 5000   2.062   0.483   3.460
 1367SOL    HW2 5001   2.075   0.564   3.319
 1368SOL     OW 5002   5.634   0.587   3.087
 1368SOL    HW1 5003   5.587   0.671   3.111
 1368SOL    HW2 5004   5.620   0.567   2.990
 1369SOL     OW 5005   2.504   6.675   1.365
 1369SOL    HW1 5006   2.413   6.636   1.349
 1369SOL    HW2 5007   2.529   6.733   1.288
 1370SOL     OW 5008   3.787   0.834   0.786
 1370SOL    HW1 5009   3.849   0.775   0.839
 1370SOL    HW2 5010   3.807   0.824   0.689
 1371SOL     OW 5011   6.036   2.035   4.272
 1371SOL    HW1 5012   6.030   2.014   4.175
 1371SOL    HW2 5013   5.989   1.964   4.325
 1372SOL     OW 5014   1.425   2.975   0.180
 1372SOL    HW1 5015   1.348   3.035   0.162
 1372SOL    HW2 5016   1.392   2.882   0.198
 1373SOL     OW 5017   5.677   3.166   0.613
 1373SOL    HW1 5018   5.690   3.070   0.635
 1373SOL    HW2 5019   5.594   3.177   0.558
 1374SOL     OW 5020   5.330   1.887   0.060
 1374SOL    HW1 5021   5.241   1.844   0.070
 1374SOL    HW2 5022   5.348   1.904   6.979
 1375SOL     OW 5023   0.280   3.839   6.108
 1375SOL    HW1 5024   0.313   3.762   6.054
 1375SOL    HW2 5025   0.336   3.849   6.190
 1376SOL     OW 5026   4.653   4.273   4.590
 1376SOL    HW1 5027   4.621   4.290   4.683
 1376SOL    HW2 5028   4.752   4.287   4.585
 1377SOL     OW 5029   6.525   3.919   6.049
 1377SOL    HW1 5030   6.615   3.936   6.010
 1377SOL    HW2 5031   6.482   4.006   6.072
 1378SOL     OW 5032   6.198   1.033   4.706
 1378SOL    HW1 5033   6.255   0.954   4.684
 1378SOL    HW2 5034   6.232   1.114   4.657
 1379SOL     OW 5035   3.247   6.700   2.609
 1379SOL    HW1 5036   3.153   6.696   2.643
 1379SOL    HW2 5037   3.302   6.630   2.655
 1380SOL     OW 5038   0.286   0.168   2.866
 1380SOL    HW1 5039   0.355   0.234   2.896
 1380SOL    HW2 5040   0.311   0.132   2.776
 1381SOL     OW 5041   6.064   2.105   0.308
 1381SOL    HW1 5042   6.103   2.188   0.266
 1381SOL    HW2 5043   6.084   2.106   0.406
 1382SOL     OW 5044   4.431   4.564   0.713
 1382SOL    HW1 5045   4.393   4.567   0.621
 1382SOL    HW2 5046   4.407   4.648   0.762
 1383SOL     OW 5047   1.139   0.262   1.389
 1383SOL    HW1 5048   1.231   0.245   1.354
 1383SOL    HW2 5049   1.094   0.175   1.408
 1384SOL     OW 5050   4.064   0.365   2.194
 1384SOL    HW1 5051   4.137   0.399   2.254
 1384SOL    HW2 5052   3.988   0.333   2.249
 1385SOL     OW 5053   1.003   3.441   3.509
 1385SOL    HW1 5054   1.004   3.373   3.582
 1385SOL    HW2 5055   0.951   3.407   3.431
 1386SOL     OW 5056   2.687   1.206   4.711
 1386SOL    HW1 5057   2.741   1.288   4.730
 1386SOL    HW2 5058   2.744   1.125   4.725
 1387SOL     OW 5059   4.023   6.473   2.469
 1387SOL    HW1 5060   3.998   6.408   2.397
 1387SOL    HW2 5061   4.118   6.501   2.457
 1388SOL     OW 5062   0.124   6.646   3.385
 1388SOL    HW1 5063   0.173   6.567   3.421
 1388SOL    HW2 5064   0.097   6.629   3.291
 1389SOL     OW 5065   0.477   0.948   3.980
 1389SOL    HW1 5066   0.500   0.979   4.072
 1389SOL    HW2 5067   0.378   0.933   3.973
 1390SOL     OW 5068   4.686   2.490   6.290
 1390SOL    HW1 5069   4.762   2.520   6.232
 1390SOL    HW2 5070   4.679   2.549   6.370
 1391SOL     OW 5071   6.393   0.699   5.096
 1391SOL    HW1 5072   6.401   0.796   5.074
 1391SOL    HW2 5073   6.297   0.672   5.098
 1392SOL     OW 5074   5.332   6.238   6.447
 1392SOL    HW1 5075   5.358   6.156   6.396
 1392SOL    HW2 5076   5.322   6.315   6.383
 1393SOL     OW 5077   6.260   3.754   6.266
 1393SOL    HW1 5078   6.249   3.673   6.323
 1393SOL    HW2 5079   6.321   3.733   6.190
 1394SOL     OW 5080   4.227   6.436   3.578
 1394SOL    HW1 5081   4.275   6.349   3.568
 1394SOL    HW2 5082   4.130   6.419   3.595
 1395SOL     OW 5083   1.365   4.079   3.784
 1395SOL    HW1 5084   1.435   4.009   3.777
 1395SOL    HW2 5085   1.361   4.132   3.699
 1396SOL     OW 5086   1.490   0.445   3.910
 1396SOL    HW1 5087   1.438   0.492   3.838
 1396SOL    HW2 5088   1.427   0.405   3.976
 1397SOL     OW 5089   0.671   5.978   4.367
 1397SOL    HW1 5090   0.642   5.884   4.385
 1397SOL    HW2 5091   0.591   6.036   4.353
 1398SOL     OW 5092   1.169   1.698   6.419
 1398SOL    HW1 5093   1.257   1.722   6.379
 1398SOL    HW2 5094   1.167   1.601   6.442
 1399SOL     OW 5095   4.256   0.437   0.163
 1399SOL    HW1 5096   4.212   0.525   0.184
 1399SOL    HW2 5097   4.225   0.368   0.229
 1400SOL     OW 5098   6.876   2.208   4.418
 1400SOL    HW1 5099   6.823   2.127   4.443
 1400SOL    HW2 5100   6.814   2.285   4.404
 1401SOL     OW 5101   6.070   6.593   4.397
 1401SOL    HW1 5102   5.989   6.651   4.408
 1401SOL    HW2 5103   6.133   6.607   4.473
 1402SOL     OW 5104   5.683   3.951   6.879
 1402SOL    HW1 5105   5.777   3.969   6.852
 1402SOL    HW2 5106   5.621   3.997   6.815
 1403SOL     OW 5107   1.954   2.037   1.063
 1403SOL    HW1 5108   1.941   1.939   1.075
 1403SOL    HW2 5109   2.019   2.071   1.132
 1404SOL     OW 5110   5.975   6.972   0.356
 1404SOL    HW1 5111   5.908   7.004   0.288
 1404SOL    HW2 5112   5.976   0.020   0.433
 1405SOL     OW 5113   2.866   3.256   0.354
 1405SOL    HW1 5114   2.768   3.273   0.361
 1405SOL    HW2 5115   2.911   3.338   0.318
 1406SOL     OW 5116   2.315   4.786   0.898
 1406SOL    HW1 5117   2.385   4.846   0.937
 1406SOL    HW2 5118   2.243   4.842   0.857
 1407SOL     OW 5119   1.822   3.940   3.325
 1407SOL    HW1 5120   1.794   3.883   3.248
 1407SOL    HW2 5121   1.742   3.962   3.381
 1408SOL     OW 5122   5.260   6.653   6.810
 1408SOL    HW1 5123   5.229   6.602   6.730
 1408SOL    HW2 5124   5.355   6.631   6.830
 1409SOL     OW 5125   0.235   0.855   4.884
 1409SOL    HW1 5126   0.248   0.845   4.786
 1409SOL    HW2 5127   0.142   0.888   4.902
 1410SOL     OW 5128   3.372   4.156   0.264
 1410SOL    HW1 5129   3.318   4.073   0.251
 1410SOL    HW2 5130   3.391   4.198   0.175
 1411SOL     OW 5131   3.679   6.103   6.220
 1411SOL    HW1 5132   3.659   6.181   6.160
 1411SOL    HW2 5133   3.768   6.065   6.198
 1412SOL     OW 5134   0.429   4.373   1.754
 1412SOL    HW1 5135   0.509   4.325   1.718
 1412SOL    HW2 5136   0.442   4.393   1.851
 1413SOL     OW 5137   1.432   1.812   4.463
 1413SOL    HW1 5138   1.481   1.868   4.396
 1413SOL    HW2 5139   1.387   1.872   4.529
 1414SOL     OW 5140   1.757   2.453   2.052
 1414SOL    HW1 5141   1.840   2.495   2.016
 1414SOL    HW2 5142   1.742   2.483   2.146
 1415SOL     OW 5143   3.188   1.506   4.253
 1415SOL    HW1 5144   3.261   1.558   4.208
 1415SOL    HW2 5145   3.106   1.508   4.196
 1416SOL     OW 5146   3.643   0.666   4.340
 1416SOL    HW1 5147   3.594   0.750   4.364
 1416SOL    HW2 5148   3.650   0.659   4.241
 1417SOL     OW 5149   3.052   2.921   6.121
 1417SOL    HW1 5150   3.036   2.997   6.058
 1417SOL    HW2 5151   2.967   2.872   6.137
 1418SOL     OW 5152   2.990   3.497   6.863
 1418SOL    HW1 5153   2.950   3.563   6.926
 1418SOL    HW2 5154   2.918   3.439   6.825
 1419SOL     OW 5155   2.241   5.445   4.149
 1419SOL    HW1 5156   2.293   5.460   4.233
 1419SOL    HW2 5157   2.155   5.497   4.152
 1420SOL     OW 5158   3.265   5.608   2.672
 1420SOL    HW1 5159   3.259   5.649   2.763
 1420SOL    HW2 5160   3.333   5.656   2.618
 1421SOL     OW 5161   1.122   3.968   3.826
 1421SOL    HW1 5162   1.143   3.898   3.894
 1421SOL    HW2 5163   1.205   4.021   3.806
 1422SOL     OW 5164   3.363   4.508   5.812
 1422SOL    HW1 5165   3.420   4.590   5.815
 1422SOL    HW2 5166   3.353   4.471   5.904
 1423SOL     OW 5167   3.556   1.155   4.957
 1423SOL    HW1 5168   3.517   1.247   4.962
 1423SOL    HW2 5169   3.641   1.152   5.010
 1424SOL     OW 5170   6.626   3.526   0.044
 1424SOL    HW1 5171   6.635   3.580   6.976
 1424SOL    HW2 5172   6.569   3.445   0.026
 1425SOL     OW 5173   2.200   5.612   5.463
 1425SOL    HW1 5174   2.297   5.591   5.457
 1425SOL    HW2 5175   2.165   5.634   5.372
 1426SOL     OW 5176   1.901   1.592   6.180
 1426SOL    HW1 5177   1.820   1.598   6.238
 1426SOL    HW2 5178   1.885   1.643   6.095
 1427SOL     OW 5179   0.180   0.366   3.802
 1427SOL    HW1 5180   0.146   0.293   3.744
 1427SOL    HW2 5181   0.106   0.429   3.823
 1428SOL     OW 5182   0.067   1.856   2.188
 1428SOL    HW1 5183   0.156   1.816   2.210
 1428SOL    HW2 5184   0.079   1.952   2.162
 1429SOL     OW 5185   6.120   1.394   6.862
 1429SOL    HW1 5186   6.053   1.341   6.810
 1429SOL    HW2 5187   6.206   1.343   6.867
 1430SOL     OW 5188   2.041   3.872   3.932
 1430SOL    HW1 5189   2.060   3.821   3.848
 1430SOL    HW2 5190   1.960   3.833   3.977
 1431SOL     OW 5191   2.372   2.519   6.493
 1431SOL    HW1 5192   2.315   2.568   6.426
 1431SOL    HW2 5193   2.334   2.531   6.584
 1432SOL     OW 5194   2.239   1.035   1.546
 1432SOL    HW1 5195   2.207   1.128   1.531
 1432SOL    HW2 5196   2.200   0.999   1.631
 1433SOL     OW 5197   4.118   6.739   4.450
 1433SOL    HW1 5198   4.169   6.825   4.444
 1433SOL    HW2 5199   4.111   6.711   4.546
 1434SOL     OW 5200   6.887   1.146   6.474
 1434SOL    HW1 5201   6.834   1.099   6.404
 1434SOL    HW2 5202   6.972   1.180   6.434
 1435SOL     OW 5203   6.704   0.952   3.643
 1435SOL    HW1 5204   6.762   0.897   3.584
 1435SOL    HW2 5205   6.609   0.922   3.635
 1436SOL     OW 5206   5.985   4.140   0.192
 1436SOL    HW1 5207   5.964   4.140   0.290
 1436SOL    HW2 5208   5.952   4.224   0.151
 1437SOL     OW 5209   3.241   0.605   5.608
 1437SOL    HW1 5210   3.293   0.635   5.529
 1437SOL    HW2 5211   3.281   0.644   5.691
 1438SOL     OW 5212   2.989   0.587   1.673
 1438SOL    HW1 5213   3.016   0.681   1.694
 1438SOL    HW2 5214   3.001   0.530   1.754
 1439SOL     OW 5215   0.737   5.199   1.103
 1439SOL    HW1 5216   0.683   5.266   1.052
 1439SOL    HW2 5217   0.816   5.171   1.049
 1440SOL     OW 5218   3.647   3.411   5.015
 1440SOL    HW1 5219   3.701   3.470   5.075
 1440SOL    HW2 5220   3.601   3.341   5.069
 1441SOL     OW 5221   6.738   3.579   4.096
 1441SOL    HW1 5222   6.720   3.603   4.000
 1441SOL    HW2 5223   6.723   3.481   4.109
 1442SOL     OW 5224   6.880   4.582   0.404
 1442SOL    HW1 5225   6.836   4.641   0.337
 1442SOL    HW2 5226   6.974   4.561   0.375
 1443SOL     OW 5227   0.858   2.257   4.646
 1443SOL    HW1 5228   0.867   2.193   4.570
 1443SOL    HW2 5229   0.836   2.206   4.729
 1444SOL     OW 5230   4.488   6.379   1.869
 1444SOL    HW1 5231   4.402   6.361   1.820
 1444SOL    HW2 5232   4.483   6.468   1.913
 1445SOL     OW 5233   0.292   2.605   2.357
 1445SOL    HW1 5234   0.326   2.519   2.318
 1445SOL    HW2 5235   0.331   2.618   2.448
 1446SOL     OW 5236   4.799   2.072   6.512
 1446SOL    HW1 5237   4.778   2.163   6.549
 1446SOL    HW2 5238   4.886   2.040   6.550
 1447SOL     OW 5239   6.635   6.933   4.717
 1447SOL    HW1 5240   6.540   6.963   4.708
 1447SOL    HW2 5241   6.679   6.981   4.793
 1448SOL     OW 5242   6.639   2.498   0.641
 1448SOL    HW1 5243   6.624   2.401   0.622
 1448SOL    HW2 5244   6.634   2.550   0.556
 1449SOL     OW 5245   6.197   0.521   6.839
 1449SOL    HW1 5246   6.222   0.531   6.935
 1449SOL    HW2 5247   6.151   0.434   6.825
 1450SOL     OW 5248   0.384   2.335   2.284
 1450SOL    HW1 5249   0.400   2.306   2.190
 1450SOL    HW2 5250   0.468   2.321   2.337
 1451SOL     OW 5251   3.154   0.756   2.149
 1451SOL    HW1 5252   3.153   0.794   2.241
 1451SOL    HW2 5253   3.248   0.733   2.124
 1452SOL     OW 5254   4.790   2.189   4.474
 1452SOL    HW1 5255   4.798   2.239   4.388
 1452SOL    HW2 5256   4.749   2.099   4.456
 1453SOL     OW 5257   6.866   3.512   5.217
 1453SOL    HW1 5258   6.912   3.426   5.239
 1453SOL    HW2 5259   6.873   3.529   5.119
 1454SOL     OW 5260   6.323   2.669   2.401
 1454SOL    HW1 5261   6.386   2.620   2.340
 1454SOL    HW2 5262   6.333   2.767   2.387
 1455SOL     OW 5263   1.814   0.208   1.848
 1455SOL    HW1 5264   1.845   0.123   1.805
 1455SOL    HW2 5265   1.888   0.246   1.903
 1456SOL     OW 5266   6.088   0.116   5.238
 1456SOL    HW1 5267   6.029   0.197   5.231
 1456SOL    HW2 5268   6.108   0.081   5.146
 1457SOL     OW 5269   1.527   0.198   1.602
 1457SOL    HW1 5270   1.477   0.285   1.597
 1457SOL    HW2 5271   1.534   0.169   1.698
 1458SOL     OW 5272   5.334   6.199   3.920
 1458SOL    HW1 5273   5.359   6.289   3.955
 1458SOL    HW2 5274   5.395   6.175   3.844
 1459SOL     OW 5275   2.931   4.698   6.357
 1459SOL    HW1 5276   3.017   4.649   6.342
 1459SOL    HW2 5277   2.896   4.731   6.269
 1460SOL     OW 5278   0.500   5.486   5.938
 1460SOL    HW1 5279   0.441   5.526   6.008
 1460SOL    HW2 5280   0.595   5.511   5.956
 1461SOL     OW 5281   0.445   4.856   3.751
 1461SOL    HW1 5282   0.493   4.937   3.784
 1461SOL    HW2 5283   0.382   4.882   3.679
 1462SOL     OW 5284   6.738   1.079   6.216
 1462SOL    HW1 5285   6.788   1.083   6.129
 1462SOL    HW2 5286   6.642   1.060   6.197
 1463SOL     OW 5287   0.262   5.945   6.366
 1463SOL    HW1 5288   0.265   5.863   6.310
 1463SOL    HW2 5289   0.346   5.953   6.419
 1464SOL     OW 5290   6.416   6.704   0.791
 1464SOL    HW1 5291   6.434   6.700   0.693
 1464SOL    HW2 5292   6.454   6.622   0.835
 1465SOL     OW 5293   1.499   1.858   2.735
 1465SOL    HW1 5294   1.460   1.936   2.782
 1465SOL    HW2 5295   1.511   1.782   2.799
 1466SOL     OW 5296   1.340   0.674   2.776
 1466SOL    HW1 5297   1.309   0.640   2.687
 1466SOL    HW2 5298   1.291   0.758   2.799
 1467SOL     OW 5299   2.537   1.256   2.073
 1467SOL    HW1 5300   2.636   1.268   2.086
 1467SOL    HW2 5301   2.498   1.217   2.157
 1468SOL     OW 5302   5.049   5.597   2.990
 1468SOL    HW1 5303   5.013   5.518   2.940
 1468SOL    HW2 5304   5.147   5.606   2.972
 1469SOL     OW 5305   1.214   0.509   2.556
 1469SOL    HW1 5306   1.280   0.540   2.488
 1469SOL    HW2 5307   1.216   0.409   2.562
 1470SOL     OW 5308   1.554   1.138   2.877
 1470SOL    HW1 5309   1.607   1.203   2.823
 1470SOL    HW2 5310   1.480   1.101   2.821
 1471SOL     OW 5311   0.521   0.629   0.930
 1471SOL    HW1 5312   0.556   0.721   0.948
 1471SOL    HW2 5313   0.454   0.633   0.856
 1472SOL     OW 5314   4.635   5.785   4.919
 1472SOL    HW1 5315   4.714   5.763   4.862
 1472SOL    HW2 5316   4.552   5.775   4.865
 1473SOL     OW 5317   5.772   5.734   3.820
 1473SOL    HW1 5318   5.767   5.641   3.783
 1473SOL    HW2 5319   5.683   5.779   3.811
 1474SOL     OW 5320   6.486   5.826   3.852
 1474SOL    HW1 5321   6.443   5.815   3.762
 1474SOL    HW2 5322   6.542   5.746   3.872
 1475SOL     OW 5323   6.397   0.023   1.412
 1475SOL    HW1 5324   6.411   0.120   1.392
 1475SOL    HW2 5325   6.391   6.988   1.326
 1476SOL     OW 5326   1.474   1.523   1.157
 1476SOL    HW1 5327   1.566   1.502   1.190
 1476SOL    HW2 5328   1.410   1.522   1.234
 1477SOL     OW 5329   2.124   0.355   6.934
 1477SOL    HW1 5330   2.058   0.376   6.861
 1477SOL    HW2 5331   2.166   0.266   6.916
 1478SOL     OW 5332   5.151   4.215   0.428
 1478SOL    HW1 5333   5.242   4.181   0.452
 1478SOL    HW2 5334   5.088   4.138   0.418
 1479SOL     OW 5335   1.680   3.398   6.904
 1479SOL    HW1 5336   1.680   3.468   6.833
 1479SOL    HW2 5337   1.758   3.410   6.964
 1480SOL     OW 5338   2.481   0.015   6.402
 1480SOL    HW1 5339   2.447   0.025   6.496
 1480SOL    HW2 5340   2.406   7.002   6.343
 1481SOL     OW 5341   0.238   2.155   5.334
 1481SOL    HW1 5342   0.335   2.174   5.349
 1481SOL    HW2 5343   0.209   2.193   5.246
 1482SOL     OW 5344   5.368   2.309   1.244
 1482SOL    HW1 5345   5.401   2.317   1.150
 1482SOL    HW2 5346   5.273   2.342   1.248
 1483SOL     OW 5347   6.666   2.457   6.227
 1483SOL    HW1 5348   6.736   2.522   6.199
 1483SOL    HW2 5349   6.686   2.367   6.187
 1484SOL     OW 5350   5.961   4.389   4.121
 1484SOL    HW1 5351   6.059   4.372   4.112
 1484SOL    HW2 5352   5.940   4.482   4.091
 1485SOL     OW 5353   4.088   2.076   2.453
 1485SOL    HW1 5354   4.087   2.097   2.551
 1485SOL    HW2 5355   4.129   1.986   2.438
 1486SOL     OW 5356   4.677   2.718   2.659
 1486SOL    HW1 5357   4.727   2.721   2.572
 1486SOL    HW2 5358   4.612   2.642   2.657
 1487SOL     OW 5359   6.682   2.736   6.889
 1487SOL    HW1 5360   6.660   2.758   6.984
 1487SOL    HW2 5361   6.732   2.649   6.886
 1488SOL     OW 5362   5.957   2.118   3.047
 1488SOL    HW1 5363   5.886   2.050   3.031
 1488SOL    HW2 5364   5.958   2.144   3.143
 1489SOL     OW 5365   4.261   5.443   4.096
 1489SOL    HW1 5366   4.226   5.503   4.168
 1489SOL    HW2 5367   4.289   5.498   4.018
 1490SOL     OW 5368   1.694   2.967   1.362
 1490SOL    HW1 5369   1.650   2.886   1.401
 1490SOL    HW2 5370   1.712   3.034   1.434
 1491SOL     OW 5371   6.271   3.432   3.998
 1491SOL    HW1 5372   6.339   3.359   3.988
 1491SOL    HW2 5373   6.265   3.459   4.094
 1492SOL     OW 5374   5.433   1.966   2.193
 1492SOL    HW1 5375   5.355   1.904   2.193
 1492SOL    HW2 5376   5.489   1.949   2.275
 1493SOL     OW 5377   5.037   0.001   3.840
 1493SOL    HW1 5378   4.997   0.070   3.901
 1493SOL    HW2 5379   5.129   0.029   3.814
 1494SOL     OW 5380   4.539   2.541   6.032
 1494SOL    HW1 5381   4.578   2.521   6.122
 1494SOL    HW2 5382   4.450   2.497   6.024
 1495SOL     OW 5383   0.335   2.940   4.325
 1495SOL    HW1 5384   0.344   2.842   4.342
 1495SOL    HW2 5385   0.425   2.983   4.332
 1496SOL     OW 5386   0.982   1.198   2.831
 1496SOL    HW1 5387   1.044   1.216   2.908
 1496SOL    HW2 5388   0.890   1.184   2.867
 1497SOL     OW 5389   0.448   3.448   2.888
 1497SOL    HW1 5390   0.482   3.355   2.874
 1497SOL    HW2 5391   0.364   3.461   2.834
 1498SOL     OW 5392   1.728   4.222   6.302
 1498SOL    HW1 5393   1.782   4.262   6.376
 1498SOL    HW2 5394   1.716   4.289   6.229
 1499SOL     OW 5395   1.442   3.629   5.360
 1499SOL    HW1 5396   1.458   3.598   5.266
 1499SOL    HW2 5397   1.348   3.607   5.388
 1500SOL     OW 5398   5.852   6.550   0.115
 1500SOL    HW1 5399   5.806   6.474   0.160
 1500SOL    HW2 5400   5.951   6.535   0.115
 1501SOL     OW 5401   4.683   1.357   6.611
 1501SOL    HW1 5402   4.740   1.435   6.589
 1501SOL    HW2 5403   4.615   1.384   6.680
 1502SOL     OW 5404   5.727   6.588   1.067
 1502SOL    HW1 5405   5.635   6.570   1.030
 1502SOL    HW2 5406   5.751   6.683   1.049
 1503SOL     OW 5407   2.627   0.822   2.452
 1503SOL    HW1 5408   2.617   0.746   2.387
 1503SOL    HW2 5409   2.646   0.906   2.402
 1504SOL     OW 5410   1.240   1.455   4.671
 1504SOL    HW1 5411   1.150   1.442   4.712
 1504SOL    HW2 5412   1.238   1.532   4.608
 1505SOL     OW 5413   5.745   0.861   6.473
 1505SOL    HW1 5414   5.680   0.899   6.408
 1505SOL    HW2 5415   5.744   0.761   6.467
 1506SOL     OW 5416   2.083   5.543   2.093
 1506SOL    HW1 5417   2.044   5.510   2.008
 1506SOL    HW2 5418   2.039   5.499   2.171
 1507SOL     OW 5419   1.075   2.359   5.617
 1507SOL    HW1 5420   1.123   2.445   5.602
 1507SOL    HW2 5421   1.021   2.336   5.536
 1508SOL     OW 5422   6.242   0.648   1.515
 1508SOL    HW1 5423   6.300   0.672   1.592
 1508SOL    HW2 5424   6.201   0.558   1.532
 1509SOL     OW 5425   4.424   2.540   6.553
 1509SOL    HW1 5426   4.395   2.454   6.596
 1509SOL    HW2 5427   4.523   2.539   6.541
 1510SOL     OW 5428   5.691   2.434   3.841
 1510SOL    HW1 5429   5.724   2.367   3.774
 1510SOL    HW2 5430   5.712   2.526   3.808
 1511SOL     OW 5431   3.083   2.779   0.964
 1511SOL    HW1 5432   2.990   2.766   0.998
 1511SOL    HW2 5433   3.142   2.707   1.000
 1512SOL     OW 5434   0.081   6.833   2.083
 1512SOL    HW1 5435   0.174   6.846   2.118
 1512SOL    HW2 5436   0.018   6.819   2.159
 1513SOL     OW 5437   4.131   0.452   4.112
 1513SOL    HW1 5438   4.180   0.374   4.150
 1513SOL    HW2 5439   4.064   0.419   4.044
 1514SOL     OW 5440   5.528   2.992   5.515
 1514SOL    HW1 5441   5.536   2.940   5.430
 1514SOL    HW2 5442   5.433   3.020   5.528
 1515SOL     OW 5443   6.605   3.284   5.299
 1515SOL    HW1 5444   6.595   3.282   5.199
 1515SOL    HW2 5445   6.664   3.209   5.328
 1516SOL     OW 5446   0.773   0.550   0.948
 1516SOL    HW1 5447   0.808   0.546   1.042
 1516SOL    HW2 5448   0.674   0.563   0.950
 1517SOL     OW 5449   4.071   5.862   3.450
 1517SOL    HW1 5450   4.074   5.936   3.383
 1517SOL    HW2 5451   4.144   5.875   3.518
 1518SOL     OW 5452   0.785   3.008   0.304
 1518SOL    HW1 5453   0.693   3.015   0.342
 1518SOL    HW2 5454   0.788   2.937   0.234
 1519SOL     OW 5455   6.929   4.464   2.216
 1519SOL    HW1 5456   6.832   4.448   2.231
 1519SOL    HW2 5457   6.964   4.396   2.151
 1520SOL     OW 5458   1.295   2.906   2.395
 1520SOL    HW1 5459   1.228   2.859   2.453
 1520SOL    HW2 5460   1.247   2.970   2.335
 1521SOL     OW 5461   2.847   3.692   7.015
 1521SOL    HW1 5462   2.750   3.709   0.018
 1521SOL    HW2 5463   2.903   3.747   0.061
 1522SOL     OW 5464   6.509   1.307   4.899
 1522SOL    HW1 5465   6.530   1.391   4.948
 1522SOL    HW2 5466   6.591   1.249   4.896
 1523SOL     OW 5467   5.024   3.969   0.697
 1523SOL    HW1 5468   5.098   3.983   0.763
 1523SOL    HW2 5469   5.054   4.000   0.607
 1524SOL     OW 5470   1.128   1.989   2.120
 1524SOL    HW1 5471   1.185   2.049   2.176
 1524SOL    HW2 5472   1.096   1.912   2.175
 1525SOL     OW 5473   6.173   2.220   6.880
 1525SOL    HW1 5474   6.091   2.174   6.846
 1525SOL    HW2 5475   6.194   2.298   6.821
 1526SOL     OW 5476   1.633   0.401   6.921
 1526SOL    HW1 5477   1.550   0.427   6.970
 1526SOL    HW2 5478   1.705   0.468   6.939
 1527SOL     OW 5479   3.575   0.584   5.668
 1527SOL    HW1 5480   3.625   0.657   5.714
 1527SOL    HW2 5481   3.601   0.580   5.572
 1528SOL     OW 5482   5.278   5.640   2.123
 1528SOL    HW1 5483   5.201   5.701   2.140
 1528SOL    HW2 5484   5.280   5.615   2.026
 1529SOL     OW 5485   4.048   1.207   0.106
 1529SOL    HW1 5486   4.125   1.248   0.154
 1529SOL    HW2 5487   3.972   1.272   0.103
 1530SOL     OW 5488   2.614   0.811   1.818
 1530SOL    HW1 5489   2.644   0.857   1.735
 1530SOL    HW2 5490   2.624   0.873   1.896
 1531SOL     OW 5491   5.811   1.832   4.530
 1531SOL    HW1 5492   5.751   1.757   4.557
 1531SOL    HW2 5493   5.889   1.795   4.479
 1532SOL     OW 5494   2.549   3.057   5.985
 1532SOL    HW1 5495   2.462   3.056   6.034
 1532SOL    HW2 5496   2.569   2.966   5.950
 1533SOL     OW 5497   0.137   3.514   6.524
 1533SOL    HW1 5498   0.225   3.562   6.524
 1533SOL    HW2 5499   0.152   3.417   6.542
 1534SOL     OW 5500   1.182   4.713   6.525
 1534SOL    HW1 5501   1.266   4.669   6.494
 1534SOL    HW2 5502   1.173   4.802   6.481
 1535SOL     OW 5503   5.397   5.857   4.145
 1535SOL    HW1 5504   5.420   5.943   4.190
 1535SOL    HW2 5505   5.299   5.839   4.154
 1536SOL     OW 5506   4.197   4.526   5.708
 1536SOL    HW1 5507   4.150   4.612   5.731
 1536SOL    HW2 5508   4.244   4.491   5.789
 1537SOL     OW 5509   3.992   5.853   2.453
 1537SOL    HW1 5510   3.893   5.862   2.465
 1537SOL    HW2 5511   4.015   5.860   2.356
 1538SOL     OW 5512   3.157   5.735   6.076
 1538SOL    HW1 5513   3.094   5.660   6.093
 1538SOL    HW2 5514   3.247   5.698   6.052
 1539SOL     OW 5515   4.251   4.563   1.389
 1539SOL    HW1 5516   4.311   4.632   1.349
 1539SOL    HW2 5517   4.231   4.492   1.322
 1540SOL     OW 5518   0.797   0.491   5.398
 1540SOL    HW1 5519   0.805   0.435   5.316
 1540SOL    HW2 5520   0.876   0.552   5.404
 1541SOL     OW 5521   3.503   3.237   1.844
 1541SOL    HW1 5522   3.446   3.276   1.916
 1541SOL    HW2 5523   3.597   3.227   1.877
 1542SOL     OW 5524   0.432   5.593   1.693
 1542SOL    HW1 5525   0.387   5.588   1.782
 1542SOL    HW2 5526   0.477   5.682   1.683
 1543SOL     OW 5527   3.108   3.151   4.132
 1543SOL    HW1 5528   3.087   3.179   4.039
 1543SOL    HW2 5529   3.039   3.188   4.195
 1544SOL     OW 5530   3.050   3.863   2.275
 1544SOL    HW1 5531   3.067   3.852   2.373
 1544SOL    HW2 5532   3.022   3.775   2.236
 1545SOL     OW 5533   5.550   0.890   4.802
 1545SOL    HW1 5534   5.596   0.846   4.725
 1545SOL    HW2 5535   5.469   0.836   4.827
 1546SOL     OW 5536   5.469   0.478   6.046
 1546SOL    HW1 5537   5.402   0.491   6.119
 1546SOL    HW2 5538   5.545   0.541   6.059
 1547SOL     OW 5539   2.565   4.591   2.560
 1547SOL    HW1 5540   2.526   4.558   2.646
 1547SOL    HW2 5541   2.657   4.625   2.576
 1548SOL     OW 5542   5.271   3.249   5.814
 1548SOL    HW1 5543   5.204   3.234   5.741
 1548SOL    HW2 5544   5.325   3.331   5.794
 1549SOL     OW 5545   5.210   1.629   2.572
 1549SOL    HW1 5546   5.147   1.652   2.646
 1549SOL    HW2 5547   5.215   1.705   2.508
 1550SOL     OW 5548   3.345   5.960   5.885
 1550SOL    HW1 5549   3.390   5.886   5.834
 1550SOL    HW2 5550   3.352   5.942   5.983
 1551SOL     OW 5551   2.296   3.028   0.495
 1551SOL    HW1 5552   2.369   2.964   0.518
 1551SOL    HW2 5553   2.209   2.993   0.529
 1552SOL     OW 5554   0.200   0.124   1.437
 1552SOL    HW1 5555   0.178   0.163   1.347
 1552SOL    HW2 5556   0.263   0.184   1.485
 1553SOL     OW 5557   6.329   1.719   6.219
 1553SOL    HW1 5558   6.247   1.767   6.250
 1553SOL    HW2 5559   6.304   1.652   6.149
 1554SOL     OW 5560   3.454   2.075   2.398
 1554SOL    HW1 5561   3.363   2.101   2.431
 1554SOL    HW2 5562   3.523   2.112   2.461
 1555SOL     OW 5563   4.922   2.246   5.988
 1555SOL    HW1 5564   4.933   2.316   5.917
 1555SOL    HW2 5565   4.916   2.291   6.077
 1556SOL     OW 5566   3.779   0.972   0.261
 1556SOL    HW1 5567   3.860   0.915   0.250
 1556SOL    HW2 5568   3.806   1.063   0.290
 1557SOL     OW 5569   2.852   1.568   0.397
 1557SOL    HW1 5570   2.871   1.520   0.311
 1557SOL    HW2 5571   2.894   1.659   0.395
 1558SOL     OW 5572   5.653   2.130   4.198
 1558SOL    HW1 5573   5.738   2.115   4.249
 1558SOL    HW2 5574   5.644   2.227   4.175
 1559SOL     OW 5575   0.049   2.702   0.834
 1559SOL    HW1 5576   0.109   2.775   0.867
 1559SOL    HW2 5577   0.098   2.647   0.766
 1560SOL     OW 5578   2.795   1.255   6.543
 1560SOL    HW1 5579   2.751   1.335   6.502
 1560SOL    HW2 5580   2.810   1.272   6.640
 1561SOL     OW 5581   5.291   5.932   3.111
 1561SOL    HW1 5582   5.241   5.867   3.170
 1561SOL    HW2 5583   5.385   5.900   3.099
 1562SOL     OW 5584   3.867   6.341   1.477
 1562SOL    HW1 5585   3.840   6.433   1.502
 1562SOL    HW2 5586   3.967   6.333   1.480
 1563SOL     OW 5587   2.212   2.074   5.924
 1563SOL    HW1 5588   2.217   1.977   5.898
 1563SOL    HW2 5589   2.117   2.104   5.925
 1564SOL     OW 5590   1.418   2.467   2.677
 1564SOL    HW1 5591   1.343   2.413   2.715
 1564SOL    HW2 5592   1.480   2.408   2.625
 1565SOL     OW 5593   4.059   5.230   4.513
 1565SOL    HW1 5594   4.135   5.295   4.522
 1565SOL    HW2 5595   3.993   5.265   4.447
 1566SOL     OW 5596   6.671   5.604   4.824
 1566SOL    HW1 5597   6.769   5.596   4.807
 1566SOL    HW2 5598   6.640   5.528   4.881
 1567SOL     OW 5599   6.453   6.096   0.352
 1567SOL    HW1 5600   6.517   6.061   0.420
 1567SOL    HW2 5601   6.501   6.110   0.266
 1568SOL     OW 5602   2.439   6.326   2.500
 1568SOL    HW1 5603   2.536   6.334   2.526
 1568SOL    HW2 5604   2.428   6.251   2.436
 1569SOL     OW 5605   3.886   6.587   3.472
 1569SOL    HW1 5606   3.952   6.656   3.445
 1569SOL    HW2 5607   3.843   6.548   3.391
 1570SOL     OW 5608   1.388   6.913   0.445
 1570SOL    HW1 5609   1.368   6.878   0.536
 1570SOL    HW2 5610   1.423   6.838   0.388
 1571SOL     OW 5611   6.995   1.904   3.145
 1571SOL    HW1 5612   0.048   1.977   3.143
 1571SOL    HW2 5613   6.920   1.927   3.083
 1572SOL     OW 5614   1.996   5.601   1.182
 1572SOL    HW1 5615   1.909   5.635   1.217
 1572SOL    HW2 5616   2.071   5.643   1.232
 1573SOL     OW 5617   6.235   5.244   1.718
 1573SOL    HW1 5618   6.199   5.335   1.737
 1573SOL    HW2 5619   6.193   5.209   1.634
 1574SOL     OW 5620   6.650   2.346   3.306
 1574SOL    HW1 5621   6.708   2.272   3.272
 1574SOL    HW2 5622   6.680   2.433   3.267
 1575SOL     OW 5623   2.571   1.122   1.814
 1575SOL    HW1 5624   2.568   1.047   1.880
 1575SOL    HW2 5625   2.597   1.206   1.862
 1576SOL     OW 5626   0.776   0.084   3.820
 1576SOL    HW1 5627   0.806   0.064   3.727
 1576SOL    HW2 5628   0.854   0.076   3.883
 1577SOL     OW 5629   2.329   0.856   5.888
 1577SOL    HW1 5630   2.362   0.777   5.940
 1577SOL    HW2 5631   2.394   0.877   5.815
 1578SOL     OW 5632   5.039   1.755   5.471
 1578SOL    HW1 5633   4.966   1.699   5.432
 1578SOL    HW2 5634   5.000   1.826   5.529
 1579SOL     OW 5635   6.932   1.512   2.391
 1579SOL    HW1 5636   0.010   1.547   2.397
 1579SOL    HW2 5637   6.868   1.588   2.388
 1580SOL     OW 5638   3.275   4.132   4.113
 1580SOL    HW1 5639   3.208   4.058   4.120
 1580SOL    HW2 5640   3.286   4.158   4.017
 1581SOL     OW 5641   6.685   4.707   5.583
 1581SOL    HW1 5642   6.760   4.682   5.644
 1581SOL    HW2 5643   6.698   4.802   5.552
 1582SOL     OW 5644   2.852   6.072   4.958
 1582SOL    HW1 5645   2.835   6.130   5.038
 1582SOL    HW2 5646   2.766   6.059   4.908
 1583SOL     OW 5647   0.429   5.869   3.646
 1583SOL    HW1 5648   0.498   5.908   3.585
 1583SOL    HW2 5649   0.425   5.770   3.632
 1584SOL     OW 5650   0.503   5.093   5.506
 1584SOL    HW1 5651   0.581   5.156   5.505
 1584SOL    HW2 5652   0.518   5.021   5.439
 1585SOL     OW 5653   4.331   2.419   2.769
 1585SOL    HW1 5654   4.265   2.424   2.693
 1585SOL    HW2 5655   4.369   2.327   2.773
 1586SOL     OW 5656   2.892   5.039   2.532
 1586SOL    HW1 5657   2.860   5.108   2.467
 1586SOL    HW2 5658   2.911   4.954   2.484
 1587SOL     OW 5659   2.570   5.559   5.151
 1587SOL    HW1 5660   2.529   5.479   5.108
 1587SOL    HW2 5661   2.513   5.639   5.135
 1588SOL     OW 5662   4.294   1.050   1.717
 1588SOL    HW1 5663   4.320   0.954   1.728
 1588SOL    HW2 5664   4.348   1.106   1.780
 1589SOL     OW 5665   0.210   3.156   2.446
 1589SOL    HW1 5666   0.198   3.112   2.535
 1589SOL    HW2 5667   0.203   3.087   2.374
 1590SOL     OW 5668   4.905   0.623   3.833
 1590SOL    HW1 5669   4.988   0.617   3.778
 1590SOL    HW2 5670   4.911   0.702   3.893
 1591SOL     OW 5671   0.082   5.545   1.258
 1591SOL    HW1 5672   0.151   5.581   1.320
 1591SOL    HW2 5673   0.086   5.594   1.171
 1592SOL     OW 5674   2.093   4.091   6.615
 1592SOL    HW1 5675   2.118   4.116   6.522
 1592SOL    HW2 5676   2.081   3.992   6.622
 1593SOL     OW 5677   0.913   6.997   5.035
 1593SOL    HW1 5678   0.991   0.022   4.987
 1593SOL    HW2 5679   0.917   6.897   5.025
 1594SOL     OW 5680   0.479   6.016   2.020
 1594SOL    HW1 5681   0.382   5.995   2.032
 1594SOL    HW2 5682   0.523   5.943   1.969
 1595SOL     OW 5683   0.799   4.844   0.949
 1595SOL    HW1 5684   0.860   4.837   0.870
 1595SOL    HW2 5685   0.814   4.932   0.995
 1596SOL     OW 5686   6.666   3.550   3.511
 1596SOL    HW1 5687   6.583   3.494   3.517
 1596SOL    HW2 5688   6.645   3.636   3.464
 1597SOL     OW 5689   1.253   6.071   1.114
 1597SOL    HW1 5690   1.159   6.041   1.096
 1597SOL    HW2 5691   1.310   6.053   1.034
 1598SOL     OW 5692   0.571   4.446   6.381
 1598SOL    HW1 5693   0.514   4.368   6.354
 1598SOL    HW2 5694   0.638   4.417   6.449
 1599SOL     OW 5695   5.421   5.350   5.182
 1599SOL    HW1 5696   5.513   5.387   5.184
 1599SOL    HW2 5697   5.425   5.250   5.187
 1600SOL     OW 5698   2.893   1.589   3.460
 1600SOL    HW1 5699   2.982   1.623   3.429
 1600SOL    HW2 5700   2.830   1.666   3.472
 1601SOL     OW 5701   6.406   6.808   4.087
 1601SOL    HW1 5702   6.506   6.812   4.085
 1601SOL    HW2 5703   6.375   6.806   4.182
 1602SOL     OW 5704   4.374   4.575   4.130
 1602SOL    HW1 5705   4.315   4.582   4.050
 1602SOL    HW2 5706   4.352   4.649   4.194
 1603SOL     OW 5707   2.117   6.082   3.144
 1603SOL    HW1 5708   2.054   6.009   3.172
 1603SOL    HW2 5709   2.175   6.107   3.221
 1604SOL     OW 5710   4.888   4.533   1.600
 1604SOL    HW1 5711   4.859   4.616   1.552
 1604SOL    HW2 5712   4.892   4.551   1.698
 1605SOL     OW 5713   6.552   5.376   2.209
 1605SOL    HW1 5714   6.466   5.394   2.161
 1605SOL    HW2 5715   6.619   5.339   2.145
 1606SOL     OW 5716   4.133   5.941   5.984
 1606SOL    HW1 5717   4.172   5.937   5.893
 1606SOL    HW2 5718   4.204   5.925   6.052
 1607SOL     OW 5719   3.774   0.026   0.744
 1607SOL    HW1 5720   3.724   0.022   0.658
 1607SOL    HW2 5721   3.776   0.120   0.778
 1608SOL     OW 5722   0.004   1.228   3.230
 1608SOL    HW1 5723   6.993   1.162   3.160
 1608SOL    HW2 5724   6.995   1.193   3.320
 1609SOL     OW 5725   3.602   6.974   0.473
 1609SOL    HW1 5726   3.601   6.897   0.409
 1609SOL    HW2 5727   3.666   0.027   0.440
 1610SOL     OW 5728   5.856   5.821   0.351
 1610SOL    HW1 5729   5.947   5.787   0.330
 1610SOL    HW2 5730   5.833   5.895   0.289
 1611SOL     OW 5731   2.604   2.935   0.251
 1611SOL    HW1 5732   2.662   2.994   0.308
 1611SOL    HW2 5733   2.546   2.879   0.309
 1612SOL     OW 5734   3.148   0.150   0.782
 1612SOL    HW1 5735   3.230   0.206   0.791
 1612SOL    HW2 5736   3.120   0.117   0.873
 1613SOL     OW 5737   1.717   5.228   2.152
 1613SOL    HW1 5738   1.704   5.239   2.054
 1613SOL    HW2 5739   1.629   5.210   2.196
 1614SOL     OW 5740   5.626   1.808   6.326
 1614SOL    HW1 5741   5.570   1.727   6.344
 1614SOL    HW2 5742   5.657   1.806   6.231
 1615SOL     OW 5743   6.506   5.866   6.964
 1615SOL    HW1 5744   6.418   5.858   6.918
 1615SOL    HW2 5745   6.492   5.868   0.047
 1616SOL     OW 5746   3.473   0.929   4.694
 1616SOL    HW1 5747   3.547   0.872   4.731
 1616SOL    HW2 5748   3.487   1.024   4.722
 1617SOL     OW 5749   5.295   6.161   2.870
 1617SOL    HW1 5750   5.304   6.186   2.966
 1617SOL    HW2 5751   5.355   6.084   2.850
 1618SOL     OW 5752   2.000   6.620   3.158
 1618SOL    HW1 5753   1.941   6.641   3.080
 1618SOL    HW2 5754   1.959   6.547   3.212
 1619SOL     OW 5755   0.441   4.630   1.276
 1619SOL    HW1 5756   0.396   4.613   1.364
 1619SOL    HW2 5757   0.445   4.545   1.223
 1620SOL     OW 5758   3.005   4.724   1.526
 1620SOL    HW1 5759   2.979   4.811   1.567
 1620SOL    HW2 5760   3.054   4.741   1.440
 1621SOL     OW 5761   6.157   0.624   0.820
 1621SOL    HW1 5762   6.136   0.642   0.916
 1621SOL    HW2 5763   6.098   0.679   0.761
 1622SOL     OW 5764   0.875   3.466   5.505
 1622SOL    HW1 5765   0.885   3.525   5.425
 1622SOL    HW2 5766   0.902   3.516   5.587
 1623SOL     OW 5767   0.676   2.991   5.116
 1623SOL    HW1 5768   0.719   2.928   5.181
 1623SOL    HW2 5769   0.636   2.939   5.041
 1624SOL     OW 5770   3.899   0.949   5.157
 1624SOL    HW1 5771   3.824   1.014   5.148
 1624SOL    HW2 5772   3.985   0.995   5.133
 1625SOL     OW 5773   1.209   4.623   0.232
 1625SOL    HW1 5774   1.270   4.606   0.155
 1625SOL    HW2 5775   1.257   4.674   0.303
 1626SOL     OW 5776   3.690   1.089   0.880
 1626SOL    HW1 5777   3.754   1.022   0.844
 1626SOL    HW2 5778   3.601   1.046   0.893
 1627SOL     OW 5779   5.771   3.233   3.652
 1627SOL    HW1 5780   5.710   3.283   3.590
 1627SOL    HW2 5781   5.764   3.271   3.744
 1628SOL     OW 5782   4.287   5.132   0.046
 1628SOL    HW1 5783   4.329   5.146   6.972
 1628SOL    HW2 5784   4.225   5.053   0.041
 1629SOL     OW 5785   2.497   1.032   3.674
 1629SOL    HW1 5786   2.545   1.114   3.706
 1629SOL    HW2 5787   2.562   0.971   3.629
 1630SOL     OW 5788   0.377   4.776   6.309
 1630SOL    HW1 5789   0.473   4.790   6.288
 1630SOL    HW2 5790   0.368   4.715   6.389
 1631SOL     OW 5791   0.955   2.534   0.241
 1631SOL    HW1 5792   0.902   2.452   0.261
 1631SOL    HW2 5793   0.978   2.536   0.144
 1632SOL     OW 5794   5.519   2.508   1.654
 1632SOL    HW1 5795   5.455   2.430   1.652
 1632SOL    HW2 5796   5.509   2.561   1.570
 1633SOL     OW 5797   4.844   3.897   4.449
 1633SOL    HW1 5798   4.858   3.953   4.367
 1633SOL    HW2 5799   4.892   3.939   4.526
 1634SOL     OW 5800   4.917   5.884   4.264
 1634SOL    HW1 5801   4.969   5.850   4.342
 1634SOL    HW2 5802   4.820   5.860   4.275
 1635SOL     OW 5803   0.641   5.049   0.248
 1635SOL    HW1 5804   0.610   5.003   0.164
 1635SOL    HW2 5805   0.562   5.077   0.302
 1636SOL     OW 5806   3.079   5.083   0.991
 1636SOL    HW1 5807   3.096   5.071   0.894
 1636SOL    HW2 5808   3.157   5.048   1.044
 1637SOL     OW 5809   6.811   0.484   3.602
 1637SOL    HW1 5810   6.857   0.464   3.688
 1637SOL    HW2 5811   6.719   0.517   3.620
 1638SOL     OW 5812   0.552   3.208   2.854
 1638SOL    HW1 5813   0.596   3.146   2.919
 1638SOL    HW2 5814   0.590   3.192   2.762
 1639SOL     OW 5815   5.678   5.159   1.263
 1639SOL    HW1 5816   5.694   5.098   1.340
 1639SOL    HW2 5817   5.617   5.115   1.198
 1640SOL     OW 5818   5.676   0.283   0.128
 1640SOL    HW1 5819   5.665   0.321   0.220
 1640SOL    HW2 5820   5.599   0.313   0.071
 1641SOL     OW 5821   5.294   2.026   3.111
 1641SOL    HW1 5822   5.222   2.068   3.055
 1641SOL    HW2 5823   5.262   1.938   3.146
 1642SOL     OW 5824   6.826   3.361   0.069
 1642SOL    HW1 5825   6.749   3.424   0.064
 1642SOL    HW2 5826   6.795   3.268   0.050
 1643SOL     OW 5827   2.802   4.875   4.052
 1643SOL    HW1 5828   2.852   4.961   4.064
 1643SOL    HW2 5829   2.830   4.810   4.124
 1644SOL     OW 5830   5.596   4.257   6.955
 1644SOL    HW1 5831   5.581   4.200   0.020
 1644SOL    HW2 5832   5.514   4.255   6.898
 1645SOL     OW 5833   2.246   5.593   6.077
 1645SOL    HW1 5834   2.313   5.574   6.005
 1645SOL    HW2 5835   2.250   5.690   6.101
 1646SOL     OW 5836   2.129   6.636   0.816
 1646SOL    HW1 5837   2.086   6.676   0.735
 1646SOL    HW2 5838   2.217   6.681   0.833
 1647SOL     OW 5839   6.192   2.956   4.254
 1647SOL    HW1 5840   6.126   2.898   4.301
 1647SOL    HW2 5841   6.151   3.046   4.238
 1648SOL     OW 5842   4.916   5.863   0.156
 1648SOL    HW1 5843   4.855   5.833   0.229
 1648SOL    HW2 5844   4.864   5.910   0.085
 1649SOL     OW 5845   3.376   1.700   4.112
 1649SOL    HW1 5846   3.466   1.719   4.151
 1649SOL    HW2 5847   3.382   1.701   4.012
 1650SOL     OW 5848   0.684   6.011   4.918
 1650SOL    HW1 5849   0.732   5.924   4.921
 1650SOL    HW2 5850   0.688   6.055   5.008
 1651SOL     OW 5851   0.327   2.121   1.800
 1651SOL    HW1 5852   0.344   2.028   1.832
 1651SOL    HW2 5853   0.385   2.140   1.721
 1652SOL     OW 5854   1.776   2.629   2.533
 1652SOL    HW1 5855   1.716   2.709   2.541
 1652SOL    HW2 5856   1.871   2.659   2.523
 1653SOL     OW 5857   0.735   6.549   0.304
 1653SOL    HW1 5858   0.795   6.567   0.382
 1653SOL    HW2 5859   0.780   6.577   0.219
 1654SOL     OW 5860   6.820   3.409   1.710
 1654SOL    HW1 5861   6.737   3.397   1.765
 1654SOL    HW2 5862   6.874   3.484   1.748
 1655SOL     OW 5863   0.536   2.541   4.411
 1655SOL    HW1 5864   0.436   2.536   4.410
 1655SOL    HW2 5865   0.574   2.456   4.375
 1656SOL     OW 5866   2.178   5.253   3.125
 1656SOL    HW1 5867   2.198   5.351   3.117
 1656SOL    HW2 5868   2.135   5.221   3.041
 1657SOL     OW 5869   5.765   1.427   3.856
 1657SOL    HW1 5870   5.689   1.366   3.836
 1657SOL    HW2 5871   5.821   1.440   3.774
 1658SOL     OW 5872   5.846   1.148   1.321
 1658SOL    HW1 5873   5.795   1.234   1.315
 1658SOL    HW2 5874   5.783   1.072   1.305
 1659SOL     OW 5875   2.914   0.398   6.806
 1659SOL    HW1 5876   2.961   0.310   6.814
 1659SOL    HW2 5877   2.817   0.382   6.789
 1660SOL     OW 5878   1.994   5.952   2.600
 1660SOL    HW1 5879   2.024   5.858   2.588
 1660SOL    HW2 5880   2.041   6.011   2.534
 1661SOL     OW 5881   2.268   6.477   1.455
 1661SOL    HW1 5882   2.228   6.504   1.368
 1661SOL    HW2 5883   2.232   6.535   1.528
 1662SOL     OW 5884   0.273   1.241   4.030
 1662SOL    HW1 5885   0.202   1.282   3.972
 1662SOL    HW2 5886   0.262   1.271   4.124
 1663SOL     OW 5887   4.320   5.398   3.405
 1663SOL    HW1 5888   4.238   5.453   3.423
 1663SOL    HW2 5889   4.381   5.449   3.344
 1664SOL     OW 5890   2.696   5.993   5.398
 1664SOL    HW1 5891   2.713   6.091   5.407
 1664SOL    HW2 5892   2.757   5.955   5.328
 1665SOL     OW 5893   6.396   3.146   2.651
 1665SOL    HW1 5894   6.381   3.146   2.750
 1665SOL    HW2 5895   6.315   3.108   2.606
 1666SOL     OW 5896   5.145   1.376   6.722
 1666SOL    HW1 5897   5.128   1.434   6.802
 1666SOL    HW2 5898   5.244   1.362   6.712
 1667SOL     OW 5899   0.154   6.742   1.177
 1667SOL    HW1 5900   0.148   6.657   1.126
 1667SOL    HW2 5901   0.102   6.814   1.129
 1668SOL     OW 5902   4.901   5.360   3.922
 1668SOL    HW1 5903   4.807   5.338   3.947
 1668SOL    HW2 5904   4.961   5.341   4.000
 1669SOL     OW 5905   6.852   4.673   5.778
 1669SOL    HW1 5906   6.952   4.672   5.769
 1669SOL    HW2 5907   6.826   4.745   5.842
 1670SOL     OW 5908   6.857   4.210   5.383
 1670SOL    HW1 5909   6.843   4.144   5.309
 1670SOL    HW2 5910   6.954   4.212   5.408
 1671SOL     OW 5911   5.370   1.562   3.224
 1671SOL    HW1 5912   5.367   1.462   3.227
 1671SOL    HW2 5913   5.400   1.592   3.133
 1672SOL     OW 5914   2.118   3.511   1.135
 1672SOL    HW1 5915   2.206   3.542   1.169
 1672SOL    HW2 5916   2.098   3.555   1.048
 1673SOL     OW 5917   1.410   1.678   5.243
 1673SOL    HW1 5918   1.417   1.771   5.279
 1673SOL    HW2 5919   1.470   1.668   5.164
 1674SOL     OW 5920   0.918   2.963   2.175
 1674SOL    HW1 5921   0.836   3.009   2.141
 1674SOL    HW2 5922   0.892   2.884   2.230
 1675SOL     OW 5923   4.827   6.935   0.104
 1675SOL    HW1 5924   4.743   6.931   0.051
 1675SOL    HW2 5925   4.837   6.850   0.157
 1676SOL     OW 5926   2.098   2.147   1.335
 1676SOL    HW1 5927   2.185   2.195   1.347
 1676SOL    HW2 5928   2.089   2.076   1.405
 1677SOL     OW 5929   3.653   3.177   3.934
 1677SOL    HW1 5930   3.752   3.162   3.930
 1677SOL    HW2 5931   3.606   3.090   3.921
 1678SOL     OW 5932   6.771   4.436   2.795
 1678SOL    HW1 5933   6.818   4.391   2.719
 1678SOL    HW2 5934   6.811   4.407   2.881
 1679SOL     OW 5935   2.636   1.829   4.205
 1679SOL    HW1 5936   2.557   1.801   4.150
 1679SOL    HW2 5937   2.633   1.782   4.293
 1680SOL     OW 5938   0.552   3.051   5.450
 1680SOL    HW1 5939   0.479   3.010   5.505
 1680SOL    HW2 5940   0.523   3.055   5.355
 1681SOL     OW 5941   0.523   4.940   0.022
 1681SOL    HW1 5942   0.595   4.925   6.969
 1681SOL    HW2 5943   0.447   4.877   0.005
 1682SOL     OW 5944   1.737   0.887   5.774
 1682SOL    HW1 5945   1.832   0.913   5.758
 1682SOL    HW2 5946   1.714   0.806   5.721
 1683SOL     OW 5947   6.024   5.286   2.588
 1683SOL    HW1 5948   6.079   5.206   2.613
 1683SOL    HW2 5949   5.981   5.270   2.499
 1684SOL     OW 5950   1.016   5.760   2.148
 1684SOL    HW1 5951   0.976   5.677   2.110
 1684SOL    HW2 5952   1.006   5.836   2.083
 1685SOL     OW 5953   1.538   1.281   5.678
 1685SOL    HW1 5954   1.516   1.192   5.717
 1685SOL    HW2 5955   1.481   1.352   5.719
 1686SOL     OW 5956   2.513   6.440   4.471
 1686SOL    HW1 5957   2.459   6.362   4.504
 1686SOL    HW2 5958   2.596   6.448   4.527
 1687SOL     OW 5959   1.393   2.960   1.908
 1687SOL    HW1 5960   1.408   3.050   1.948
 1687SOL    HW2 5961   1.406   2.890   1.978
 1688SOL     OW 5962   2.248   2.013   3.620
 1688SOL    HW1 5963   2.264   1.939   3.685
 1688SOL    HW2 5964   2.263   2.101   3.665
 1689SOL     OW 5965   6.397   0.527   3.022
 1689SOL    HW1 5966   6.377   0.468   3.101
 1689SOL    HW2 5967   6.351   0.615   3.034
 1690SOL     OW 5968   1.387   2.689   4.562
 1690SOL    HW1 5969   1.388   2.629   4.482
 1690SOL    HW2 5970   1.304   2.674   4.615
 1691SOL     OW 5971   5.045   2.927   3.511
 1691SOL    HW1 5972   5.143   2.941   3.495
 1691SOL    HW2 5973   5.033   2.857   3.582
 1692SOL     OW 5974   5.122   6.317   0.916
 1692SOL    HW1 5975   5.051   6.248   0.932
 1692SOL    HW2 5976   5.143   6.364   1.002
 1693SOL     OW 5977   6.543   2.303   2.962
 1693SOL    HW1 5978   6.574   2.210   2.941
 1693SOL    HW2 5979   6.479   2.333   2.891
 1694SOL     OW 5980   6.131   1.891   3.313
 1694SOL    HW1 5981   6.163   1.985   3.305
 1694SOL    HW2 5982   6.210   1.829   3.309
 1695SOL     OW 5983   4.176   0.559   6.174
 1695SOL    HW1 5984   4.253   0.596   6.226
 1695SOL    HW2 5985   4.091   0.593   6.214
 1696SOL     OW 5986   4.218   6.002   1.660
 1696SOL    HW1 5987   4.273   6.038   1.735
 1696SOL    HW2 5988   4.143   5.947   1.696
 1697SOL     OW 5989   6.758   1.391   0.632
 1697SOL    HW1 5990   6.789   1.363   0.541
 1697SOL    HW2 5991   6.708   1.317   0.675
 1698SOL     OW 5992   3.230   6.980   0.542
 1698SOL    HW1 5993   3.301   0.028   0.511
 1698SOL    HW2 5994   3.189   7.015   0.626
 1699SOL     OW 5995   2.413   1.405   6.758
 1699SOL    HW1 5996   2.389   1.364   6.669
 1699SOL    HW2 5997   2.486   1.471   6.745
 1700SOL     OW 5998   6.204   4.704   3.869
 1700SOL    HW1 5999   6.297   4.673   3.887
 1700SOL    HW2 6000   6.197   4.802   3.889
 1701SOL     OW 6001   5.796   5.475   6.079
 1701SOL    HW1 6002   5.732   5.435   6.013
 1701SOL    HW2 6003   5.745   5.518   6.153
 1702SOL     OW 6004   6.229   1.389   1.041
 1702SOL    HW1 6005   6.317   1.425   1.071
 1702SOL    HW2 6006   6.223   1.396   0.941
 1703SOL     OW 6007   3.528   1.693   0.238
 1703SOL    HW1 6008   3.475   1.751   0.177
 1703SOL    HW2 6009   3.581   1.627   0.184
 1704SOL     OW 6010   0.597   2.238   0.275
 1704SOL    HW1 6011   0.689   2.200   0.287
 1704SOL    HW2 6012   0.534   2.165   0.249
 1705SOL     OW 6013   3.040   2.149   1.874
 1705SOL    HW1 6014   2.985   2.075   1.837
 1705SOL    HW2 6015   2.980   2.223   1.906
 1706SOL     OW 6016   4.934   1.323   1.741
 1706SOL    HW1 6017   4.959   1.298   1.648
 1706SOL    HW2 6018   4.916   1.421   1.746
 1707SOL     OW 6019   4.343   1.902   2.731
 1707SOL    HW1 6020   4.378   1.989   2.764
 1707SOL    HW2 6021   4.385   1.827   2.783
 1708SOL     OW 6022   5.104   5.828   1.844
 1708SOL    HW1 6023   5.170   5.754   1.850
 1708SOL    HW2 6024   5.051   5.833   1.929
 1709SOL     OW 6025   3.166   6.380   2.939
 1709SOL    HW1 6026   3.134   6.411   3.029
 1709SOL    HW2 6027   3.246   6.322   2.950
 1710SOL     OW 6028   4.662   4.751   3.120
 1710SOL    HW1 6029   4.615   4.686   3.060
 1710SOL    HW2 6030   4.683   4.834   3.068
 1711SOL     OW 6031   1.811   4.922   4.472
 1711SOL    HW1 6032   1.826   4.976   4.389
 1711SOL    HW2 6033   1.874   4.952   4.543
 1712SOL     OW 6034   6.646   2.717   4.253
 1712SOL    HW1 6035   6.667   2.634   4.203
 1712SOL    HW2 6036   6.717   2.786   4.234
 1713SOL     OW 6037   4.604   2.635   1.888
 1713SOL    HW1 6038   4.692   2.611   1.848
 1713SOL    HW2 6039   4.610   2.627   1.988
 1714SOL     OW 6040   3.537   1.438   6.194
 1714SOL    HW1 6041   3.511   1.430   6.098
 1714SOL    HW2 6042   3.475   1.500   6.241
 1715SOL     OW 6043   2.318   5.599   3.358
 1715SOL    HW1 6044   2.394   5.535   3.363
 1715SOL    HW2 6045   2.326   5.653   3.274
 1716SOL     OW 6046   3.461   6.962   3.310
 1716SOL    HW1 6047   3.558   6.937   3.318
 1716SOL    HW2 6048   3.405   6.880   3.324
 1717SOL     OW 6049   3.309   5.800   4.984
 1717SOL    HW1 6050   3.313   5.734   4.909
 1717SOL    HW2 6051   3.214   5.825   5.001
 1718SOL     OW 6052   3.285   0.989   2.054
 1718SOL    HW1 6053   3.251   0.898   2.078
 1718SOL    HW2 6054   3.220   1.058   2.083
 1719SOL     OW 6055   2.346   2.941   0.916
 1719SOL    HW1 6056   2.360   2.845   0.892
 1719SOL    HW2 6057   2.284   2.947   0.995
 1720SOL     OW 6058   0.072   3.271   6.823
 1720SOL    HW1 6059   0.020   3.227   6.897
 1720SOL    HW2 6060   0.166   3.288   6.855
 1721SOL     OW 6061   1.856   6.578   1.504
 1721SOL    HW1 6062   1.859   6.481   1.481
 1721SOL    HW2 6063   1.791   6.625   1.444
 1722SOL     OW 6064   2.899   1.800   3.833
 1722SOL    HW1 6065   2.990   1.762   3.849
 1722SOL    HW2 6066   2.876   1.865   3.906
 1723SOL     OW 6067   6.169   2.309   0.153
 1723SOL    HW1 6068   6.169   2.299   0.053
 1723SOL    HW2 6069   6.149   2.405   0.176
 1724SOL     OW 6070   0.510   2.940   2.179
 1724SOL    HW1 6071   0.542   2.850   2.150
 1724SOL    HW2 6072   0.558   3.011   2.127
 1725SOL     OW 6073   1.737   5.097   5.987
 1725SOL    HW1 6074   1.643   5.089   5.955
 1725SOL    HW2 6075   1.788   5.160   5.928
 1726SOL     OW 6076   5.922   4.262   5.014
 1726SOL    HW1 6077   5.972   4.278   5.099
 1726SOL    HW2 6078   5.875   4.175   5.019
 1727SOL     OW 6079   3.767   2.946   3.748
 1727SOL    HW1 6080   3.696   2.917   3.813
 1727SOL    HW2 6081   3.843   2.986   3.798
 1728SOL     OW 6082   5.849   5.572   5.270
 1728SOL    HW1 6083   5.923   5.504   5.268
 1728SOL    HW2 6084   5.842   5.611   5.362
 1729SOL     OW 6085   2.117   3.892   2.828
 1729SOL    HW1 6086   2.139   3.990   2.819
 1729SOL    HW2 6087   2.150   3.843   2.748
 1730SOL     OW 6088   2.315   0.374   5.460
 1730SOL    HW1 6089   2.330   0.421   5.547
 1730SOL    HW2 6090   2.252   0.427   5.404
 1731SOL     OW 6091   0.733   4.173   3.928
 1731SOL    HW1 6092   0.751   4.089   3.878
 1731SOL    HW2 6093   0.710   4.246   3.863
 1732SOL     OW 6094   2.482   4.894   5.758
 1732SOL    HW1 6095   2.485   4.800   5.726
 1732SOL    HW2 6096   2.445   4.897   5.851
 1733SOL     OW 6097   1.940   4.115   1.304
 1733SOL    HW1 6098   1.967   4.211   1.302
 1733SOL    HW2 6099   1.903   4.089   1.215
 1734SOL     OW 6100   4.423   2.835   1.137
 1734SOL    HW1 6101   4.331   2.873   1.144
 1734SOL    HW2 6102   4.480   2.871   1.212
 1735SOL     OW 6103   4.474   5.506   6.365
 1735SOL    HW1 6104   4.459   5.418   6.319
 1735SOL    HW2 6105   4.453   5.496   6.462
 1736SOL     OW 6106   3.501   3.998   1.047
 1736SOL    HW1 6107   3.498   3.968   1.143
 1736SOL    HW2 6108   3.450   3.932   0.991
 1737SOL     OW 6109   4.447   0.756   4.747
 1737SOL    HW1 6110   4.442   0.668   4.700
 1737SOL    HW2 6111   4.526   0.807   4.714
 1738SOL     OW 6112   2.176   2.575   4.503
 1738SOL    HW1 6113   2.140   2.482   4.509
 1738SOL    HW2 6114   2.115   2.637   4.552
 1739SOL     OW 6115   6.900   2.110   5.001
 1739SOL    HW1 6116   6.858   2.093   5.090
 1739SOL    HW2 6117   6.829   2.119   4.931
 1740SOL     OW 6118   6.898   2.313   4.675
 1740SOL    HW1 6119   6.884   2.255   4.595
 1740SOL    HW2 6120   6.841   2.281   4.751
 1741SOL     OW 6121   2.499   0.469   4.696
 1741SOL    HW1 6122   2.580   0.415   4.717
 1741SOL    HW2 6123   2.420   0.408   4.685
 1742SOL     OW 6124   5.921   0.641   5.304
 1742SOL    HW1 6125   5.968   0.724   5.275
 1742SOL    HW2 6126   5.988   0.574   5.335
 1743SOL     OW 6127   0.597   1.846   2.153
 1743SOL    HW1 6128   0.633   1.815   2.241
 1743SOL    HW2 6129   0.651   1.805   2.079
 1744SOL     OW 6130   6.363   3.494   3.480
 1744SOL    HW1 6131   6.336   3.585   3.513
 1744SOL    HW2 6132   6.281   3.440   3.463
 1745SOL     OW 6133   5.330   5.769   2.514
 1745SOL    HW1 6134   5.267   5.783   2.590
 1745SOL    HW2 6135   5.388   5.849   2.504
 1746SOL     OW 6136   1.294   4.149   4.071
 1746SOL    HW1 6137   1.212   4.108   4.111
 1746SOL    HW2 6138   1.333   4.086   4.004
 1747SOL     OW 6139   4.459   1.538   2.554
 1747SOL    HW1 6140   4.552   1.519   2.584
 1747SOL    HW2 6141   4.409   1.584   2.627
 1748SOL     OW 6142   0.112   2.016   4.595
 1748SOL    HW1 6143   0.196   1.965   4.574
 1748SOL    HW2 6144   0.037   1.981   4.540
 1749SOL     OW 6145   2.522   6.775   5.674
 1749SOL    HW1 6146   2.504   6.871   5.695
 1749SOL    HW2 6147   2.612   6.750   5.708
 1750SOL     OW 6148   5.330   6.209   3.572
 1750SOL    HW1 6149   5.301   6.187   3.479
 1750SOL    HW2 6150   5.250   6.232   3.627
 1751SOL     OW 6151   4.663   1.931   4.402
 1751SOL    HW1 6152   4.593   1.940   4.473
 1751SOL    HW2 6153   4.710   1.843   4.411
 1752SOL     OW 6154   6.168   0.930   2.153
 1752SOL    HW1 6155   6.180   1.020   2.193
 1752SOL    HW2 6156   6.150   0.863   2.225
 1753SOL     OW 6157   6.817   0.855   1.612
 1753SOL    HW1 6158   6.755   0.929   1.640
 1753SOL    HW2 6159   6.772   0.767   1.626
 1754SOL     OW 6160   1.470   4.807   6.673
 1754SOL    HW1 6161   1.478   4.708   6.676
 1754SOL    HW2 6162   1.465   4.838   6.578
 1755SOL     OW 6163   0.303   5.399   0.449
 1755SOL    HW1 6164   0.330   5.464   0.378
 1755SOL    HW2 6165   0.204   5.400   0.460
 1756SOL     OW 6166   4.059   5.407   5.542
 1756SOL    HW1 6167   4.146   5.375   5.506
 1756SOL    HW2 6168   4.035   5.355   5.624
 1757SOL     OW 6169   3.088   5.226   4.884
 1757SOL    HW1 6170   3.113   5.133   4.913
 1757SOL    HW2 6171   3.064   5.226   4.787
 1758SOL     OW 6172   1.820   1.132   4.352
 1758SOL    HW1 6173   1.920   1.127   4.355
 1758SOL    HW2 6174   1.785   1.142   4.445
 1759SOL     OW 6175   2.992   6.107   5.757
 1759SOL    HW1 6176   2.982   6.021   5.806
 1759SOL    HW2 6177   2.999   6.182   5.824
 1760SOL     OW 6178   5.848   0.815   3.472
 1760SOL    HW1 6179   5.905   0.799   3.392
 1760SOL    HW2 6180   5.756   0.844   3.442
 1761SOL     OW 6181   0.463   1.057   1.761
 1761SOL    HW1 6182   0.452   1.114   1.842
 1761SOL    HW2 6183   0.560   1.046   1.741
 1762SOL     OW 6184   0.205   1.298   4.304
 1762SOL    HW1 6185   0.142   1.222   4.287
 1762SOL    HW2 6186   0.157   1.371   4.352
 1763SOL     OW 6187   0.712   4.455   4.546
 1763SOL    HW1 6188   0.617   4.429   4.565
 1763SOL    HW2 6189   0.757   4.382   4.495
 1764SOL     OW 6190   2.103   3.113   2.018
 1764SOL    HW1 6191   2.149   3.146   1.936
 1764SOL    HW2 6192   2.008   3.143   2.018
 1765SOL     OW 6193   3.735   0.674   1.726
 1765SOL    HW1 6194   3.710   0.763   1.765
 1765SOL    HW2 6195   3.831   0.675   1.700
 1766SOL     OW 6196   5.865   4.937   3.859
 1766SOL    HW1 6197   5.925   4.902   3.788
 1766SOL    HW2 6198   5.906   4.921   3.949
 1767SOL     OW 6199   0.691   4.191   2.964
 1767SOL    HW1 6200   0.713   4.288   2.955
 1767SOL    HW2 6201   0.661   4.172   3.057
 1768SOL     OW 6202   3.294   0.659   6.689
 1768SOL    HW1 6203   3.284   0.560   6.680
 1768SOL    HW2 6204   3.379   0.679   6.737
 1769SOL     OW 6205   5.441   1.090   6.980
 1769SOL    HW1 6206   5.485   1.020   0.021
 1769SOL    HW2 6207   5.434   1.175   0.016
 1770SOL     OW 6208   6.631   4.888   5.080
 1770SOL    HW1 6209   6.595   4.858   4.992
 1770SOL    HW2 6210   6.675   4.977   5.070
 1771SOL     OW 6211   1.298   4.785   0.470
 1771SOL    HW1 6212   1.261   4.877   0.470
 1771SOL    HW2 6213   1.387   4.784   0.517
 1772SOL     OW 6214   3.653   5.970   3.523
 1772SOL    HW1 6215   3.703   5.886   3.543
 1772SOL    HW2 6216   3.574   5.949   3.465
 1773SOL     OW 6217   2.674   2.451   5.666
 1773SOL    HW1 6218   2.596   2.388   5.658
 1773SOL    HW2 6219   2.672   2.515   5.589
 1774SOL     OW 6220   5.628   6.257   1.980
 1774SOL    HW1 6221   5.616   6.277   1.883
 1774SOL    HW2 6222   5.577   6.175   2.004
 1775SOL     OW 6223   1.534   5.341   5.942
 1775SOL    HW1 6224   1.491   5.251   5.939
 1775SOL    HW2 6225   1.466   5.411   5.921
 1776SOL     OW 6226   5.120   0.728   6.429
 1776SOL    HW1 6227   5.061   0.711   6.508
 1776SOL    HW2 6228   5.069   0.711   6.345
 1777SOL     OW 6229   3.038   7.011   6.514
 1777SOL    HW1 6230   3.058   6.919   6.547
 1777SOL    HW2 6231   3.081   0.008   6.424
 1778SOL     OW 6232   4.934   1.980   3.945
 1778SOL    HW1 6233   4.928   2.074   3.980
 1778SOL    HW2 6234   5.028   1.946   3.956
 1779SOL     OW 6235   5.296   1.272   5.295
 1779SOL    HW1 6236   5.393   1.248   5.300
 1779SOL    HW2 6237   5.241   1.202   5.340
 1780SOL     OW 6238   1.962   3.966   5.659
 1780SOL    HW1 6239   1.945   3.932   5.567
 1780SOL    HW2 6240   1.927   3.900   5.726
 1781SOL     OW 6241   5.709   6.235   4.585
 1781SOL    HW1 6242   5.738   6.155   4.533
 1781SOL    HW2 6243   5.640   6.208   4.653
 1782SOL     OW 6244   2.590   0.785   2.710
 1782SOL    HW1 6245   2.521   0.713   2.718
 1782SOL    HW2 6246   2.601   0.810   2.614
 1783SOL     OW 6247   2.973   3.179   6.342
 1783SOL    HW1 6248   2.909   3.163   6.267
 1783SOL    HW2 6249   3.028   3.260   6.322
 1784SOL     OW 6250   2.417   1.389   1.184
 1784SOL    HW1 6251   2.484   1.446   1.138
 1784SOL    HW2 6252   2.402   1.304   1.132
 1785SOL     OW 6253   6.004   6.375   3.828
 1785SOL    HW1 6254   5.947   6.296   3.851
 1785SOL    HW2 6255   6.084   6.376   3.887
 1786SOL     OW 6256   2.081   4.359   0.036
 1786SOL    HW1 6257   2.179   4.343   0.046
 1786SOL    HW2 6258   2.055   4.350   6.956
 1787SOL     OW 6259   2.735   2.041   6.194
 1787SOL    HW1 6260   2.756   2.074   6.102
 1787SOL    HW2 6261   2.817   2.047   6.251
 1788SOL     OW 6262   4.659   4.121   6.736
 1788SOL    HW1 6263   4.648   4.219   6.717
 1788SOL    HW2 6264   4.584   4.091   6.795
 1789SOL     OW 6265   5.764   3.318   2.076
 1789SOL    HW1 6266   5.735   3.411   2.055
 1789SOL    HW2 6267   5.690   3.269   2.121
 1790SOL     OW 6268   2.568   0.920   4.740
 1790SOL    HW1 6269   2.518   0.984   4.681
 1790SOL    HW2 6270   2.521   0.912   4.828
 1791SOL     OW 6271   6.358   1.746   3.348
 1791SOL    HW1 6272   6.412   1.665   3.369
 1791SOL    HW2 6273   6.404   1.800   3.277
 1792SOL     OW 6274   6.842   1.582   4.192
 1792SOL    HW1 6275   6.928   1.565   4.240
 1792SOL    HW2 6276   6.859   1.642   4.114
 1793SOL     OW 6277   6.314   1.991   4.101
 1793SOL    HW1 6278   6.324   2.084   4.063
 1793SOL    HW2 6279   6.257   1.937   4.039
 1794SOL     OW 6280   5.305   6.505   5.034
 1794SOL    HW1 6281   5.269   6.598   5.037
 1794SOL    HW2 6282   5.233   6.442   5.004
 1795SOL     OW 6283   6.954   5.118   2.431
 1795SOL    HW1 6284   0.007   5.106   2.359
 1795SOL    HW2 6285   6.898   5.198   2.411
 1796SOL     OW 6286   2.780   1.536   5.619
 1796SOL    HW1 6287   2.724   1.618   5.632
 1796SOL    HW2 6288   2.822   1.539   5.528
 1797SOL     OW 6289   1.145   0.119   5.429
 1797SOL    HW1 6290   1.063   0.142   5.376
 1797SOL    HW2 6291   1.165   0.022   5.418
 1798SOL     OW 6292   3.654   3.078   4.998
 1798SOL    HW1 6293   3.607   3.066   4.911
 1798SOL    HW2 6294   3.746   3.038   4.992
 1799SOL     OW 6295   4.844   2.786   6.480
 1799SOL    HW1 6296   4.760   2.839   6.471
 1799SOL    HW2 6297   4.922   2.849   6.488
 1800SOL     OW 6298   5.011   5.180   3.593
 1800SOL    HW1 6299   5.043   5.195   3.686
 1800SOL    HW2 6300   5.089   5.157   3.534
 1801SOL     OW 6301   1.192   1.483   2.457
 1801SOL    HW1 6302   1.227   1.400   2.501
 1801SOL    HW2 6303   1.220   1.563   2.509
 1802SOL     OW 6304   6.698   6.147   3.680
 1802SOL    HW1 6305   6.616   6.163   3.736
 1802SOL    HW2 6306   6.763   6.221   3.696
 1803SOL     OW 6307   0.108   0.300   1.995
 1803SOL    HW1 6308   0.010   0.303   2.016
 1803SOL    HW2 6309   0.141   0.206   2.003
 1804SOL     OW 6310   4.045   3.763   5.271
 1804SOL    HW1 6311   4.121   3.712   5.312
 1804SOL    HW2 6312   3.963   3.705   5.268
 1805SOL     OW 6313   0.367   5.085   5.747
 1805SOL    HW1 6314   0.398   5.139   5.826
 1805SOL    HW2 6315   0.427   5.102   5.670
 1806SOL     OW 6316   0.555   2.379   1.730
 1806SOL    HW1 6317   0.558   2.475   1.700
 1806SOL    HW2 6318   0.557   2.375   1.829
 1807SOL     OW 6319   6.164   2.737   6.620
 1807SOL    HW1 6320   6.147   2.828   6.582
 1807SOL    HW2 6321   6.242   2.695   6.573
 1808SOL     OW 6322   6.009   4.031   4.507
 1808SOL    HW1 6323   5.915   4.036   4.542
 1808SOL    HW2 6324   6.027   3.938   4.474
 1809SOL     OW 6325   2.854   2.007   5.231
 1809SOL    HW1 6326   2.842   2.068   5.310
 1809SOL    HW2 6327   2.937   2.033   5.182
 1810SOL     OW 6328   0.771   0.515   4.876
 1810SOL    HW1 6329   0.842   0.542   4.940
 1810SOL    HW2 6330   0.811   0.462   4.801
 1811SOL     OW 6331   5.165   4.486   2.375
 1811SOL    HW1 6332   5.176   4.581   2.404
 1811SOL    HW2 6333   5.195   4.425   2.448
 1812SOL     OW 6334   4.492   6.550   6.815
 1812SOL    HW1 6335   4.413   6.507   6.771
 1812SOL    HW2 6336   4.465   6.638   6.854
 1813SOL     OW 6337   5.383   5.166   2.247
 1813SOL    HW1 6338   5.330   5.237   2.294
 1813SOL    HW2 6339   5.431   5.110   2.315
 1814SOL     OW 6340   5.975   0.304   0.710
 1814SOL    HW1 6341   6.062   0.334   0.747
 1814SOL    HW2 6342   5.928   0.247   0.777
 1815SOL     OW 6343   6.042   0.038   2.853
 1815SOL    HW1 6344   6.004   0.107   2.792
 1815SOL    HW2 6345   6.080   0.083   2.934
 1816SOL     OW 6346   3.350   5.098   6.481
 1816SOL    HW1 6347   3.298   5.024   6.524
 1816SOL    HW2 6348   3.396   5.063   6.399
 1817SOL     OW 6349   3.438   0.580   3.010
 1817SOL    HW1 6350   3.533   0.611   3.014
 1817SOL    HW2 6351   3.395   0.615   2.926
 1818SOL     OW 6352   1.402   0.199   0.502
 1818SOL    HW1 6353   1.407   0.100   0.494
 1818SOL    HW2 6354   1.313   0.231   0.470
 1819SOL     OW 6355   1.365   5.649   2.079
 1819SOL    HW1 6356   1.459   5.651   2.112
 1819SOL    HW2 6357   1.304   5.684   2.151
 1820SOL     OW 6358   3.169   0.505   2.218
 1820SOL    HW1 6359   3.149   0.574   2.148
 1820SOL    HW2 6360   3.243   0.539   2.277
 1821SOL     OW 6361   2.604   0.767   2.183
 1821SOL    HW1 6362   2.629   0.856   2.146
 1821SOL    HW2 6363   2.684   0.707   2.185
 1822SOL     OW 6364   1.289   3.239   1.224
 1822SOL    HW1 6365   1.389   3.240   1.222
 1822SOL    HW2 6366   1.254   3.283   1.141
 1823SOL     OW 6367   2.859   6.091   3.281
 1823SOL    HW1 6368   2.946   6.123   3.319
 1823SOL    HW2 6369   2.792   6.165   3.285
 1824SOL     OW 6370   4.012   3.979   0.187
 1824SOL    HW1 6371   3.999   3.958   0.090
 1824SOL    HW2 6372   4.079   4.052   0.198
 1825SOL     OW 6373   0.571   3.069   4.275
 1825SOL    HW1 6374   0.579   2.988   4.217
 1825SOL    HW2 6375   0.645   3.133   4.253
 1826SOL     OW 6376   2.763   0.660   1.297
 1826SOL    HW1 6377   2.715   0.616   1.373
 1826SOL    HW2 6378   2.800   0.590   1.236
 1827SOL     OW 6379   5.909   5.374   0.716
 1827SOL    HW1 6380   5.812   5.351   0.705
 1827SOL    HW2 6381   5.959   5.293   0.745
 1828SOL     OW 6382   1.486   2.545   6.685
 1828SOL    HW1 6383   1.507   2.493   6.767
 1828SOL    HW2 6384   1.426   2.621   6.708
 1829SOL     OW 6385   3.248   6.767   3.402
 1829SOL    HW1 6386   3.286   6.787   3.492
 1829SOL    HW2 6387   3.187   6.842   3.374
 1830SOL     OW 6388   5.747   6.427   4.315
 1830SOL    HW1 6389   5.661   6.380   4.336
 1830SOL    HW2 6390   5.744   6.462   4.222
 1831SOL     OW 6391   5.065   6.351   2.931
 1831SOL    HW1 6392   5.015   6.312   3.009
 1831SOL    HW2 6393   5.127   6.283   2.893
 1832SOL     OW 6394   3.983   1.992   0.482
 1832SOL    HW1 6395   3.966   2.083   0.444
 1832SOL    HW2 6396   4.028   2.001   0.571
 1833SOL     OW 6397   5.517   0.676   1.393
 1833SOL    HW1 6398   5.508   0.582   1.362
 1833SOL    HW2 6399   5.499   0.681   1.491
 1834SOL     OW 6400   2.353   3.959   1.236
 1834SOL    HW1 6401   2.321   3.960   1.141
 1834SOL    HW2 6402   2.428   3.894   1.245
 1835SOL     OW 6403   1.053   4.614   1.643
 1835SOL    HW1 6404   0.988   4.538   1.640
 1835SOL    HW2 6405   1.133   4.592   1.588
 1836SOL     OW 6406   5.619   2.533   1.926
 1836SOL    HW1 6407   5.598   2.437   1.907
 1836SOL    HW2 6408   5.556   2.591   1.875
 1837SOL     OW 6409   1.552   6.921   6.096
 1837SOL    HW1 6410   1.638   6.930   6.047
 1837SOL    HW2 6411   1.568   6.930   6.194
 1838SOL     OW 6412   5.676   0.762   6.124
 1838SOL    HW1 6413   5.708   0.856   6.111
 1838SOL    HW2 6414   5.640   0.752   6.216
 1839SOL     OW 6415   6.573   0.946   5.754
 1839SOL    HW1 6416   6.662   0.988   5.734
 1839SOL    HW2 6417   6.503   0.990   5.697
 1840SOL     OW 6418   3.892   0.266   2.362
 1840SOL    HW1 6419   3.853   0.196   2.423
 1840SOL    HW2 6420   3.872   0.357   2.398
 1841SOL     OW 6421   1.976   0.165   3.058
 1841SOL    HW1 6422   1.971   0.106   3.138
 1841SOL    HW2 6423   1.887   0.209   3.045
 1842SOL     OW 6424   0.875   5.690   1.227
 1842SOL    HW1 6425   0.961   5.723   1.190
 1842SOL    HW2 6426   0.853   5.740   1.311
 1843SOL     OW 6427   5.671   0.159   4.197
 1843SOL    HW1 6428   5.725   0.169   4.281
 1843SOL    HW2 6429   5.574   0.170   4.218
 1844SOL     OW 6430   4.014   0.476   5.085
 1844SOL    HW1 6431   4.010   0.552   5.150
 1844SOL    HW2 6432   4.016   0.512   4.991
 1845SOL     OW 6433   3.010   7.014   4.077
 1845SOL    HW1 6434   3.007   6.916   4.099
 1845SOL    HW2 6435   2.917   0.035   4.073
 1846SOL     OW 6436   3.883   0.874   3.325
 1846SOL    HW1 6437   3.900   0.889   3.422
 1846SOL    HW2 6438   3.793   0.912   3.301
 1847SOL     OW 6439   1.172   0.326   5.595
 1847SOL    HW1 6440   1.218   0.298   5.679
 1847SOL    HW2 6441   1.182   0.254   5.525
 1848SOL     OW 6442   2.013   6.385   3.794
 1848SOL    HW1 6443   2.054   6.298   3.767
 1848SOL    HW2 6444   1.918   6.371   3.820
 1849SOL     OW 6445   4.255   2.396   1.332
 1849SOL    HW1 6446   4.292   2.394   1.239
 1849SOL    HW2 6447   4.209   2.483   1.347
 1850SOL     OW 6448   5.833   2.016   2.548
 1850SOL    HW1 6449   5.917   2.002   2.496
 1850SOL    HW2 6450   5.838   2.103   2.597
 1851SOL     OW 6451   1.323   3.182   0.331
 1851SOL    HW1 6452   1.381   3.249   0.285
 1851SOL    HW2 6453   1.380   3.110   0.370
 1852SOL     OW 6454   0.409   4.807   2.688
 1852SOL    HW1 6455   0.496   4.799   2.639
 1852SOL    HW2 6456   0.367   4.895   2.667
 1853SOL     OW 6457   6.692   2.910   3.053
 1853SOL    HW1 6458   6.624   2.960   2.999
 1853SOL    HW2 6459   6.721   2.829   3.003
 1854SOL     OW 6460   1.478   4.921   2.659
 1854SOL    HW1 6461   1.386   4.956   2.641
 1854SOL    HW2 6462   1.473   4.844   2.723
 1855SOL     OW 6463   5.051   3.137   5.634
 1855SOL    HW1 6464   5.107   3.095   5.562
 1855SOL    HW2 6465   5.025   3.229   5.606
 1856SOL     OW 6466   4.212   3.106   6.316
 1856SOL    HW1 6467   4.249   3.182   6.369
 1856SOL    HW2 6468   4.275   3.029   6.319
 1857SOL     OW 6469   4.317   1.519   0.265
 1857SOL    HW1 6470   4.363   1.433   0.240
 1857SOL    HW2 6471   4.244   1.538   0.199
 1858SOL     OW 6472   5.196   2.430   3.403
 1858SOL    HW1 6473   5.237   2.468   3.486
 1858SOL    HW2 6474   5.128   2.493   3.367
 1859SOL     OW 6475   4.500   1.698   3.527
 1859SOL    HW1 6476   4.472   1.618   3.580
 1859SOL    HW2 6477   4.502   1.675   3.430
 1860SOL     OW 6478   0.165   1.355   5.490
 1860SOL    HW1 6479   0.151   1.427   5.558
 1860SOL    HW2 6480   0.171   1.266   5.535
 1861SOL     OW 6481   4.764   0.769   3.127
 1861SOL    HW1 6482   4.719   0.762   3.039
 1861SOL    HW2 6483   4.765   0.680   3.172
 1862SOL     OW 6484   1.775   6.484   6.852
 1862SOL    HW1 6485   1.770   6.547   6.929
 1862SOL    HW2 6486   1.733   6.397   6.877
 1863SOL     OW 6487   6.674   2.554   2.038
 1863SOL    HW1 6488   6.599   2.506   2.084
 1863SOL    HW2 6489   6.657   2.653   2.042
 1864SOL     OW 6490   3.547   5.834   4.535
 1864SOL    HW1 6491   3.534   5.861   4.631
 1864SOL    HW2 6492   3.567   5.915   4.480
 1865SOL     OW 6493   3.211   1.097   1.020
 1865SOL    HW1 6494   3.296   1.052   0.992
 1865SOL    HW2 6495   3.138   1.072   0.957
 1866SOL     OW 6496   6.412   5.084   3.788
 1866SOL    HW1 6497   6.367   5.045   3.868
 1866SOL    HW2 6498   6.438   5.178   3.807
 1867SOL     OW 6499   2.264   3.443   1.542
 1867SOL    HW1 6500   2.318   3.521   1.508
 1867SOL    HW2 6501   2.291   3.424   1.637
 1868SOL     OW 6502   5.180   3.572   6.373
 1868SOL    HW1 6503   5.217   3.497   6.318
 1868SOL    HW2 6504   5.243   3.592   6.448
 1869SOL     OW 6505   6.451   3.366   4.529
 1869SOL    HW1 6506   6.441   3.312   4.445
 1869SOL    HW2 6507   6.439   3.307   4.609
 1870SOL     OW 6508   1.338   2.975   5.021
 1870SOL    HW1 6509   1.327   3.068   5.058
 1870SOL    HW2 6510   1.425   2.937   5.054
 1871SOL     OW 6511   6.183   6.804   0.268
 1871SOL    HW1 6512   6.213   6.767   0.356
 1871SOL    HW2 6513   6.124   6.883   0.283
 1872SOL     OW 6514   4.592   2.197   0.119
 1872SOL    HW1 6515   4.688   2.220   0.108
 1872SOL    HW2 6516   4.584   2.118   0.181
 1873SOL     OW 6517   6.679   0.520   5.468
 1873SOL    HW1 6518   6.741   0.594   5.443
 1873SOL    HW2 6519   6.620   0.550   5.544
 1874SOL     OW 6520   0.724   1.186   6.185
 1874SOL    HW1 6521   0.675   1.155   6.267
 1874SOL    HW2 6522   0.823   1.180   6.201
 1875SOL     OW 6523   6.628   6.641   0.609
 1875SOL    HW1 6524   6.659   6.701   0.536
 1875SOL    HW2 6525   6.661   6.675   0.697
 1876SOL     OW 6526   4.435   6.224   6.473
 1876SOL    HW1 6527   4.379   6.307   6.464
 1876SOL    HW2 6528   4.457   6.209   6.569
 1877SOL     OW 6529   0.829   1.866   3.361
 1877SOL    HW1 6530   0.770   1.786   3.375
 1877SOL    HW2 6531   0.884   1.853   3.278
 1878SOL     OW 6532   0.306   4.251   4.049
 1878SOL    HW1 6533   0.248   4.169   4.046
 1878SOL    HW2 6534   0.285   4.303   4.132
 1879SOL     OW 6535   2.787   5.998   3.983
 1879SOL    HW1 6536   2.859   5.985   4.051
 1879SOL    HW2 6537   2.786   6.093   3.952
 1880SOL     OW 6538   0.347   2.297   2.975
 1880SOL    HW1 6539   0.426   2.333   2.925
 1880SOL    HW2 6540   0.377   2.222   3.035
 1881SOL     OW 6541   1.152   1.947   3.561
 1881SOL    HW1 6542   1.250   1.934   3.577
 1881SOL    HW2 6543   1.114   1.867   3.515
 1882SOL     OW 6544   0.880   5.171   6.866
 1882SOL    HW1 6545   0.892   5.191   6.963
 1882SOL    HW2 6546   0.814   5.235   6.827
 1883SOL     OW 6547   0.854   3.477   3.792
 1883SOL    HW1 6548   0.774   3.492   3.850
 1883SOL    HW2 6549   0.937   3.495   3.845
 1884SOL     OW 6550   5.913   2.094   0.889
 1884SOL    HW1 6551   5.881   2.023   0.952
 1884SOL    HW2 6552   5.905   2.061   0.795
 1885SOL     OW 6553   6.991   2.148   1.147
 1885SOL    HW1 6554   0.035   2.223   1.176
 1885SOL    HW2 6555   6.910   2.186   1.101
 1886SOL     OW 6556   1.982   1.953   0.159
 1886SOL    HW1 6557   1.996   2.039   0.208
 1886SOL    HW2 6558   1.952   1.883   0.224
 1887SOL     OW 6559   0.297   4.366   5.621
 1887SOL    HW1 6560   0.217   4.420   5.647
 1887SOL    HW2 6561   0.362   4.364   5.697
 1888SOL     OW 6562   2.018   1.971   6.313
 1888SOL    HW1 6563   2.104   1.938   6.273
 1888SOL    HW2 6564   2.021   1.960   6.412
 1889SOL     OW 6565   4.853   3.351   6.528
 1889SOL    HW1 6566   4.775   3.384   6.475
 1889SOL    HW2 6567   4.896   3.429   6.575
 1890SOL     OW 6568   1.473   6.066   5.870
 1890SOL    HW1 6569   1.447   6.066   5.774
 1890SOL    HW2 6570   1.549   6.131   5.884
 1891SOL     OW 6571   5.326   3.375   4.252
 1891SOL    HW1 6572   5.256   3.441   4.278
 1891SOL    HW2 6573   5.394   3.368   4.325
 1892SOL     OW 6574   3.633   6.772   1.057
 1892SOL    HW1 6575   3.710   6.732   1.007
 1892SOL    HW2 6576   3.562   6.702   1.070
 1893SOL     OW 6577   3.979   1.919   5.101
 1893SOL    HW1 6578   3.895   1.867   5.116
 1893SOL    HW2 6579   3.981   1.952   5.007
 1894SOL     OW 6580   4.269   3.773   1.478
 1894SOL    HW1 6581   4.264   3.789   1.576
 1894SOL    HW2 6582   4.290   3.677   1.460
 1895SOL     OW 6583   5.611   0.976   2.887
 1895SOL    HW1 6584   5.537   1.023   2.838
 1895SOL    HW2 6585   5.690   1.037   2.895
 1896SOL     OW 6586   0.075   0.715   3.473
 1896SOL    HW1 6587   0.067   0.746   3.567
 1896SOL    HW2 6588   0.156   0.756   3.431
 1897SOL     OW 6589   6.843   5.102   3.287
 1897SOL    HW1 6590   6.898   5.097   3.371
 1897SOL    HW2 6591   6.896   5.148   3.216
 1898SOL     OW 6592   3.001   5.448   1.922
 1898SOL    HW1 6593   2.971   5.357   1.953
 1898SOL    HW2 6594   2.935   5.516   1.953
 1899SOL     OW 6595   0.977   2.660   2.787
 1899SOL    HW1 6596   0.979   2.583   2.851
 1899SOL    HW2 6597   0.991   2.745   2.837
 1900SOL     OW 6598   0.916   0.352   5.640
 1900SOL    HW1 6599   0.878   0.425   5.584
 1900SOL    HW2 6600   1.012   0.338   5.617
 1901SOL     OW 6601   2.338   1.433   1.436
 1901SOL    HW1 6602   2.263   1.368   1.446
 1901SOL    HW2 6603   2.373   1.430   1.343
 1902SOL     OW 6604   2.752   2.036   4.696
 1902SOL    HW1 6605   2.743   2.086   4.610
 1902SOL    HW2 6606   2.814   2.085   4.757
 1903SOL     OW 6607   6.971   4.290   3.940
 1903SOL    HW1 6608   6.993   4.356   4.012
 1903SOL    HW2 6609   6.875   4.265   3.946
 1904SOL     OW 6610   6.353   0.127   3.751
 1904SOL    HW1 6611   6.288   0.076   3.694
 1904SOL    HW2 6612   6.436   0.072   3.762
 1905SOL     OW 6613   0.845   2.016   4.169
 1905SOL    HW1 6614   0.935   2.053   4.188
 1905SOL    HW2 6615   0.834   2.003   4.070
 1906SOL     OW 6616   2.737   0.161   5.458
 1906SOL    HW1 6617   2.675   0.207   5.395
 1906SOL    HW2 6618   2.831   0.167   5.424
 1907SOL     OW 6619   2.999   6.617   3.428
 1907SOL    HW1 6620   2.989   6.607   3.527
 1907SOL    HW2 6621   3.073   6.682   3.409
 1908SOL     OW 6622   4.809   0.698   4.994
 1908SOL    HW1 6623   4.734   0.763   5.006
 1908SOL    HW2 6624   4.866   0.726   4.916
 1909SOL     OW 6625   1.773   4.270   3.112
 1909SOL    HW1 6626   1.716   4.341   3.153
 1909SOL    HW2 6627   1.720   4.185   3.105
 1910SOL     OW 6628   6.469   2.243   0.175
 1910SOL    HW1 6629   6.508   2.258   0.084
 1910SOL    HW2 6630   6.382   2.290   0.182
 1911SOL     OW 6631   6.206   2.128   5.669
 1911SOL    HW1 6632   6.173   2.148   5.577
 1911SOL    HW2 6633   6.250   2.038   5.670
 1912SOL     OW 6634   3.999   6.496   1.782
 1912SOL    HW1 6635   4.037   6.549   1.706
 1912SOL    HW2 6636   4.006   6.549   1.867
 1913SOL     OW 6637   2.076   6.372   5.471
 1913SOL    HW1 6638   2.105   6.276   5.474
 1913SOL    HW2 6639   1.994   6.384   5.527
 1914SOL     OW 6640   2.876   2.720   6.900
 1914SOL    HW1 6641   2.877   2.772   6.985
 1914SOL    HW2 6642   2.969   2.693   6.875
 1915SOL     OW 6643   4.109   1.085   5.425
 1915SOL    HW1 6644   4.105   1.184   5.412
 1915SOL    HW2 6645   4.121   1.039   5.337
 1916SOL     OW 6646   3.196   5.812   0.750
 1916SOL    HW1 6647   3.173   5.905   0.779
 1916SOL    HW2 6648   3.117   5.752   0.765
 1917SOL     OW 6649   3.869   3.465   4.650
 1917SOL    HW1 6650   3.791   3.496   4.596
 1917SOL    HW2 6651   3.954   3.503   4.612
 1918SOL     OW 6652   6.802   0.081   6.623
 1918SOL    HW1 6653   6.733   0.141   6.662
 1918SOL    HW2 6654   6.893   0.122   6.634
 1919SOL     OW 6655   1.748   6.871   2.170
 1919SOL    HW1 6656   1.763   6.777   2.202
 1919SOL    HW2 6657   1.697   6.869   2.084
 1920SOL     OW 6658   0.555   5.094   3.284
 1920SOL    HW1 6659   0.647   5.130   3.303
 1920SOL    HW2 6660   0.553   4.996   3.301
 1921SOL     OW 6661   0.988   4.181   6.757
 1921SOL    HW1 6662   0.965   4.159   6.663
 1921SOL    HW2 6663   1.044   4.265   6.760
 1922SOL     OW 6664   3.553   4.342   1.050
 1922SOL    HW1 6665   3.460   4.357   1.017
 1922SOL    HW2 6666   3.607   4.297   0.978
 1923SOL     OW 6667   3.623   0.783   6.787
 1923SOL    HW1 6668   3.672   0.764   6.873
 1923SOL    HW2 6669   3.596   0.879   6.785
 1924SOL     OW 6670   5.891   5.561   1.952
 1924SOL    HW1 6671   5.948   5.564   2.033
 1924SOL    HW2 6672   5.949   5.565   1.870
 1925SOL     OW 6673   3.088   3.998   2.021
 1925SOL    HW1 6674   3.065   3.958   2.109
 1925SOL    HW2 6675   3.039   4.084   2.008
 1926SOL     OW 6676   0.979   0.048   4.004
 1926SOL    HW1 6677   0.957   6.971   4.035
 1926SOL    HW2 6678   1.016   0.101   4.081
 1927SOL     OW 6679   3.495   4.978   6.247
 1927SOL    HW1 6680   3.518   5.054   6.187
 1927SOL    HW2 6681   3.554   4.900   6.226
 1928SOL     OW 6682   6.899   3.605   6.062
 1928SOL    HW1 6683   6.941   3.602   6.153
 1928SOL    HW2 6684   6.934   3.683   6.011
 1929SOL     OW 6685   0.672   6.146   1.178
 1929SOL    HW1 6686   0.654   6.086   1.100
 1929SOL    HW2 6687   0.709   6.233   1.144
 1930SOL     OW 6688   4.144   3.582   0.031
 1930SOL    HW1 6689   4.046   3.562   0.025
 1930SOL    HW2 6690   4.184   3.580   6.955
 1931SOL     OW 6691   0.174   2.981   3.207
 1931SOL    HW1 6692   0.136   2.895   3.242
 1931SOL    HW2 6693   0.213   3.033   3.282
 1932SOL     OW 6694   4.871   4.241   2.324
 1932SOL    HW1 6695   4.848   4.147   2.298
 1932SOL    HW2 6696   4.957   4.267   2.281
 1933SOL     OW 6697   3.408   4.299   0.470
 1933SOL    HW1 6698   3.394   4.229   0.400
 1933SOL    HW2 6699   3.327   4.357   0.477
 1934SOL     OW 6700   0.164   0.553   4.692
 1934SOL    HW1 6701   0.247   0.606   4.675
 1934SOL    HW2 6702   0.119   0.586   4.774
 1935SOL     OW 6703   3.292   0.381   4.734
 1935SOL    HW1 6704   3.231   0.433   4.793
 1935SOL    HW2 6705   3.310   0.432   4.650
 1936SOL     OW 6706   6.473   3.890   4.379
 1936SOL    HW1 6707   6.402   3.891   4.308
 1936SOL    HW2 6708   6.477   3.799   4.421
 1937SOL     OW 6709   5.010   6.528   0.769
 1937SOL    HW1 6710   5.079   6.464   0.803
 1937SOL    HW2 6711   4.941   6.543   0.840
 1938SOL     OW 6712   3.940   1.395   2.237
 1938SOL    HW1 6713   4.040   1.389   2.228
 1938SOL    HW2 6714   3.917   1.474   2.293
 1939SOL     OW 6715   0.474   6.920   4.923
 1939SOL    HW1 6716   0.434   6.987   4.860
 1939SOL    HW2 6717   0.491   6.834   4.875
 1940SOL     OW 6718   4.650   5.000   6.587
 1940SOL    HW1 6719   4.561   4.956   6.577
 1940SOL    HW2 6720   4.688   4.979   6.677
 1941SOL     OW 6721   0.168   3.974   2.873
 1941SOL    HW1 6722   0.127   3.887   2.901
 1941SOL    HW2 6723   0.251   3.957   2.820
 1942SOL     OW 6724   5.767   0.650   2.471
 1942SOL    HW1 6725   5.742   0.716   2.543
 1942SOL    HW2 6726   5.731   0.560   2.494
 1943SOL     OW 6727   2.535   6.247   2.115
 1943SOL    HW1 6728   2.533   6.185   2.194
 1943SOL    HW2 6729   2.451   6.301   2.113
 1944SOL     OW 6730   5.717   1.902   6.888
 1944SOL    HW1 6731   5.665   1.933   6.808
 1944SOL    HW2 6732   5.672   1.936   6.971
 1945SOL     OW 6733   3.725   6.265   2.581
 1945SOL    HW1 6734   3.628   6.241   2.580
 1945SOL    HW2 6735   3.762   6.255   2.488
 1946SOL     OW 6736   5.697   0.861   1.230
 1946SOL    HW1 6737   5.641   0.879   1.149
 1946SOL    HW2 6738   5.656   0.788   1.284
 1947SOL     OW 6739   4.814   6.308   4.111
 1947SOL    HW1 6740   4.880   6.254   4.163
 1947SOL    HW2 6741   4.849   6.401   4.098
 1948SOL     OW 6742   5.898   6.021   3.856
 1948SOL    HW1 6743   5.846   6.005   3.773
 1948SOL    HW2 6744   5.957   5.943   3.875
 1949SOL     OW 6745   4.261   4.189   5.926
 1949SOL    HW1 6746   4.174   4.226   5.957
 1949SOL    HW2 6747   4.255   4.162   5.830
 1950SOL     OW 6748   3.686   4.948   1.334
 1950SOL    HW1 6749   3.637   4.931   1.249
 1950SOL    HW2 6750   3.642   5.022   1.384
 1951SOL     OW 6751   6.235   4.212   0.379
 1951SOL    HW1 6752   6.229   4.293   0.321
 1951SOL    HW2 6753   6.183   4.228   0.463
 1952SOL     OW 6754   3.809   2.113   6.828
 1952SOL    HW1 6755   3.777   2.201   6.793
 1952SOL    HW2 6756   3.879   2.076   6.767
 1953SOL     OW 6757   6.502   3.299   6.963
 1953SOL    HW1 6758   6.542   3.234   6.900
 1953SOL    HW2 6759   6.508   3.263   0.041
 1954SOL     OW 6760   5.453   1.226   4.123
 1954SOL    HW1 6761   5.533   1.283   4.105
 1954SOL    HW2 6762   5.429   1.231   4.220
 1955SOL     OW 6763   1.408   1.067   2.435
 1955SOL    HW1 6764   1.336   1.036   2.373
 1955SOL    HW2 6765   1.457   0.988   2.472
 1956SOL     OW 6766   5.025   0.239   2.151
 1956SOL    HW1 6767   5.058   0.147   2.131
 1956SOL    HW2 6768   4.993   0.243   2.246
 1957SOL     OW 6769   6.244   6.101   4.764
 1957SOL    HW1 6770   6.197   6.189   4.754
 1957SOL    HW2 6771   6.328   6.102   4.709
 1958SOL     OW 6772   5.673   2.936   2.573
 1958SOL    HW1 6773   5.587   2.985   2.559
 1958SOL    HW2 6774   5.658   2.838   2.558
 1959SOL     OW 6775   0.759   1.452   5.680
 1959SOL    HW1 6776   0.703   1.535   5.673
 1959SOL    HW2 6777   0.789   1.424   5.589
 1960SOL     OW 6778   0.173   4.269   1.315
 1960SOL    HW1 6779   0.212   4.325   1.242
 1960SOL    HW2 6780   0.235   4.193   1.334
 1961SOL     OW 6781   5.790   4.700   4.488
 1961SOL    HW1 6782   5.814   4.605   4.466
 1961SOL    HW2 6783   5.853   4.735   4.557
 1962SOL     OW 6784   2.558   6.769   3.462
 1962SOL    HW1 6785   2.534   6.856   3.504
 1962SOL    HW2 6786   2.477   6.711   3.456
 1963SOL     OW 6787   1.170   1.302   1.394
 1963SOL    HW1 6788   1.112   1.280   1.472
 1963SOL    HW2 6789   1.208   1.218   1.356
 1964SOL     OW 6790   4.812   3.450   1.334
 1964SOL    HW1 6791   4.832   3.455   1.432
 1964SOL    HW2 6792   4.842   3.362   1.298
 1965SOL     OW 6793   1.074   3.265   4.075
 1965SOL    HW1 6794   1.057   3.173   4.040
 1965SOL    HW2 6795   1.153   3.263   4.137
 1966SOL     OW 6796   6.850   6.131   6.479
 1966SOL    HW1 6797   6.870   6.044   6.524
 1966SOL    HW2 6798   6.761   6.125   6.434
 1967SOL     OW 6799   4.706   2.374   4.903
 1967SOL    HW1 6800   4.755   2.341   4.984
 1967SOL    HW2 6801   4.620   2.417   4.932
 1968SOL     OW 6802   3.437   6.541   0.732
 1968SOL    HW1 6803   3.377   6.593   0.670
 1968SOL    HW2 6804   3.395   6.454   0.754
 1969SOL     OW 6805   0.872   1.740   1.985
 1969SOL    HW1 6806   0.868   1.836   2.013
 1969SOL    HW2 6807   0.903   1.734   1.890
 1970SOL     OW 6808   2.174   0.152   6.134
 1970SOL    HW1 6809   2.094   0.210   6.147
 1970SOL    HW2 6810   2.257   0.206   6.146
 1971SOL     OW 6811   7.008   0.320   5.945
 1971SOL    HW1 6812   7.006   0.361   5.854
 1971SOL    HW2 6813   0.083   0.280   5.962
 1972SOL     OW 6814   5.481   3.096   2.856
 1972SOL    HW1 6815   5.560   3.035   2.859
 1972SOL    HW2 6816   5.399   3.044   2.879
 1973SOL     OW 6817   2.704   2.869   0.660
 1973SOL    HW1 6818   2.738   2.907   0.574
 1973SOL    HW2 6819   2.620   2.817   0.642
 1974SOL     OW 6820   5.924   6.123   4.176
 1974SOL    HW1 6821   5.948   6.220   4.173
 1974SOL    HW2 6822   5.883   6.097   4.088
 1975SOL     OW 6823   2.439   1.751   3.616
 1975SOL    HW1 6824   2.480   1.660   3.626
 1975SOL    HW2 6825   2.423   1.790   3.707
 1976SOL     OW 6826   0.386   5.641   0.563
 1976SOL    HW1 6827   0.345   5.622   0.475
 1976SOL    HW2 6828   0.349   5.726   0.600
 1977SOL     OW 6829   1.034   3.267   3.728
 1977SOL    HW1 6830   1.026   3.184   3.784
 1977SOL    HW2 6831   0.958   3.328   3.748
 1978SOL     OW 6832   0.616   0.932   3.272
 1978SOL    HW1 6833   0.575   0.940   3.181
 1978SOL    HW2 6834   0.608   1.019   3.320
 1979SOL     OW 6835   6.310   4.410   5.368
 1979SOL    HW1 6836   6.324   4.357   5.452
 1979SOL    HW2 6837   6.310   4.347   5.290
 1980SOL     OW 6838   2.946   1.104   5.871
 1980SOL    HW1 6839   2.970   1.007   5.883
 1980SOL    HW2 6840   2.850   1.112   5.844
 1981SOL     OW 6841   6.197   2.407   2.724
 1981SOL    HW1 6842   6.124   2.404   2.655
 1981SOL    HW2 6843   6.268   2.470   2.693
 1982SOL     OW 6844   0.394   3.745   5.552
 1982SOL    HW1 6845   0.357   3.770   5.462
 1982SOL    HW2 6846   0.375   3.819   5.617
 1983SOL     OW 6847   0.742   0.791   2.634
 1983SOL    HW1 6848   0.831   0.749   2.651
 1983SOL    HW2 6849   0.742   0.833   2.543
 1984SOL     OW 6850   6.328   2.244   4.724
 1984SOL    HW1 6851   6.363   2.210   4.637
 1984SOL    HW2 6852   6.244   2.196   4.748
 1985SOL     OW 6853   1.089   6.510   2.872
 1985SOL    HW1 6854   1.081   6.491   2.969
 1985SOL    HW2 6855   1.180   6.481   2.840
 1986SOL     OW 6856   1.415   0.531   0.038
 1986SOL    HW1 6857   1.323   0.569   0.051
 1986SOL    HW2 6858   1.440   0.478   0.119
 1987SOL     OW 6859   1.305   2.787   1.260
 1987SOL    HW1 6860   1.342   2.795   1.353
 1987SOL    HW2 6861   1.209   2.815   1.260
 1988SOL     OW 6862   5.537   4.629   0.975
 1988SOL    HW1 6863   5.465   4.684   1.018
 1988SOL    HW2 6864   5.567   4.558   1.039
 1989SOL     OW 6865   2.726   6.473   4.611
 1989SOL    HW1 6866   2.788   6.449   4.686
 1989SOL    HW2 6867   2.757   6.558   4.569
 1990SOL     OW 6868   3.351   6.194   0.389
 1990SOL    HW1 6869   3.408   6.149   0.458
 1990SOL    HW2 6870   3.284   6.128   0.353
 1991SOL     OW 6871   4.562   4.781   6.296
 1991SOL    HW1 6872   4.642   4.840   6.288
 1991SOL    HW2 6873   4.566   4.731   6.383
 1992SOL     OW 6874   0.611   0.495   6.666
 1992SOL    HW1 6875   0.557   0.525   6.745
 1992SOL    HW2 6876   0.601   0.396   6.655
 1993SOL     OW 6877   4.058   3.151   4.589
 1993SOL    HW1 6878   3.987   3.128   4.522
 1993SOL    HW2 6879   4.105   3.067   4.617
 1994SOL     OW 6880   1.107   1.375   0.279
 1994SOL    HW1 6881   1.196   1.417   0.298
 1994SOL    HW2 6882   1.094   1.296   0.338
 1995SOL     OW 6883   5.785   2.541   2.527
 1995SOL    HW1 6884   5.696   2.584   2.514
 1995SOL    HW2 6885   5.801   2.476   2.453
 1996SOL     OW 6886   2.194   3.703   0.448
 1996SOL    HW1 6887   2.154   3.616   0.479
 1996SOL    HW2 6888   2.124   3.774   0.450
 1997SOL     OW 6889   4.235   0.716   4.942
 1997SOL    HW1 6890   4.306   0.744   4.878
 1997SOL    HW2 6891   4.190   0.633   4.908
 1998SOL     OW 6892   3.347   3.870   6.432
 1998SOL    HW1 6893   3.417   3.837   6.369
 1998SOL    HW2 6894   3.365   3.835   6.523
 1999SOL     OW 6895   3.450   6.706   1.709
 1999SOL    HW1 6896   3.548   6.707   1.732
 1999SOL    HW2 6897   3.399   6.755   1.779
 2000SOL     OW 6898   4.398   2.169   5.008
 2000SOL    HW1 6899   4.401   2.258   4.962
 2000SOL    HW2 6900   4.473   2.112   4.975
 2001SOL     OW 6901   3.118   1.265   1.748
 2001SOL    HW1 6902   3.209   1.264   1.790
 2001SOL    HW2 6903   3.128   1.283   1.650
 2002SOL     OW 6904   1.029   4.695   5.648
 2002SOL    HW1 6905   1.119   4.655   5.630
 2002SOL    HW2 6906   0.965   4.622   5.672
 2003SOL     OW 6907   5.748   6.130   3.228
 2003SOL    HW1 6908   5.697   6.065   3.172
 2003SOL    HW2 6909   5.706   6.221   3.219
 2004SOL     OW 6910   4.471   1.158   5.247
 2004SOL    HW1 6911   4.447   1.138   5.342
 2004SOL    HW2 6912   4.460   1.075   5.192
 2005SOL     OW 6913   1.041   4.416   7.012
 2005SOL    HW1 6914   1.117   4.389   0.055
 2005SOL    HW2 6915   1.077   4.460   6.929
 2006SOL     OW 6916   5.110   5.045   4.274
 2006SOL    HW1 6917   5.156   4.978   4.216
 2006SOL    HW2 6918   5.030   5.003   4.317
 2007SOL     OW 6919   4.542   4.954   0.987
 2007SOL    HW1 6920   4.569   5.039   0.941
 2007SOL    HW2 6921   4.503   4.976   1.076
 2008SOL     OW 6922   1.417   5.021   2.988
 2008SOL    HW1 6923   1.399   5.052   3.082
 2008SOL    HW2 6924   1.500   4.965   2.987
 2009SOL     OW 6925   6.159   6.965   2.036
 2009SOL    HW1 6926   6.157   6.991   2.133
 2009SOL    HW2 6927   6.254   6.965   2.004
 2010SOL     OW 6928   2.169   1.702   0.751
 2010SOL    HW1 6929   2.207   1.610   0.751
 2010SOL    HW2 6930   2.218   1.759   0.817
 2011SOL     OW 6931   6.459   1.661   4.596
 2011SOL    HW1 6932   6.526   1.627   4.530
 2011SOL    HW2 6933   6.379   1.696   4.547
 2012SOL     OW 6934   1.753   2.698   1.879
 2012SOL    HW1 6935   1.827   2.648   1.925
 2012SOL    HW2 6936   1.673   2.701   1.939
 2013SOL     OW 6937   6.532   1.501   3.383
 2013SOL    HW1 6938   6.503   1.421   3.435
 2013SOL    HW2 6939   6.544   1.476   3.287
 2014SOL     OW 6940   1.893   4.868   2.806
 2014SOL    HW1 6941   1.875   4.770   2.812
 2014SOL    HW2 6942   1.969   4.883   2.742
 2015SOL     OW 6943   1.938   1.372   0.581
 2015SOL    HW1 6944   1.853   1.341   0.537
 2015SOL    HW2 6945   1.931   1.470   0.600
 2016SOL     OW 6946   0.800   5.745   4.976
 2016SOL    HW1 6947   0.876   5.691   5.011
 2016SOL    HW2 6948   0.800   5.741   4.876
 2017SOL     OW 6949   2.232   6.988   4.485
 2017SOL    HW1 6950   2.318   6.939   4.473
 2017SOL    HW2 6951   2.218   0.034   4.407
 2018SOL     OW 6952   5.597   6.960   5.595
 2018SOL    HW1 6953   5.661   6.954   5.518
 2018SOL    HW2 6954   5.615   0.028   5.646
 2019SOL     OW 6955   5.040   2.213   2.198
 2019SOL    HW1 6956   5.005   2.292   2.248
 2019SOL    HW2 6957   5.115   2.242   2.138
 2020SOL     OW 6958   0.638   6.100   5.169
 2020SOL    HW1 6959   0.541   6.078   5.172
 2020SOL    HW2 6960   0.673   6.113   5.261
 2021SOL     OW 6961   2.148   5.552   3.072
 2021SOL    HW1 6962   2.185   5.635   3.114
 2021SOL    HW2 6963   2.178   5.547   2.977
 2022SOL     OW 6964   1.925   3.604   3.233
 2022SOL    HW1 6965   1.833   3.639   3.214
 2022SOL    HW2 6966   1.992   3.652   3.177
 2023SOL     OW 6967   6.280   1.259   6.073
 2023SOL    HW1 6968   6.215   1.199   6.026
 2023SOL    HW2 6969   6.371   1.217   6.071
 2024SOL     OW 6970   6.972   6.998   3.139
 2024SOL    HW1 6971   6.874   0.005   3.140
 2024SOL    HW2 6972   7.008   7.005   3.232
 2025SOL     OW 6973   3.009   2.239   2.679
 2025SOL    HW1 6974   3.045   2.174   2.746
 2025SOL    HW2 6975   2.973   2.319   2.727
 2026SOL     OW 6976   0.605   2.987   6.484
 2026SOL    HW1 6977   0.647   2.992   6.574
 2026SOL    HW2 6978   0.674   3.004   6.414
 2027SOL     OW 6979   0.724   0.748   0.337
 2027SOL    HW1 6980   0.680   0.752   0.427
 2027SOL    HW2 6981   0.703   0.832   0.286
 2028SOL     OW 6982   3.016   1.223   6.107
 2028SOL    HW1 6983   3.042   1.320   6.112
 2028SOL    HW2 6984   2.988   1.200   6.014
 2029SOL     OW 6985   6.201   0.478   1.226
 2029SOL    HW1 6986   6.280   0.431   1.267
 2029SOL    HW2 6987   6.234   0.557   1.174
 2030SOL     OW 6988   2.210   0.563   2.837
 2030SOL    HW1 6989   2.233   0.630   2.908
 2030SOL    HW2 6990   2.116   0.532   2.849
 2031SOL     OW 6991   6.279   6.422   2.046
 2031SOL    HW1 6992   6.270   6.449   1.951
 2031SOL    HW2 6993   6.321   6.331   2.051
 2032SOL     OW 6994   5.288   6.501   1.855
 2032SOL    HW1 6995   5.280   6.595   1.824
 2032SOL    HW2 6996   5.209   6.449   1.824
 2033SOL     OW 6997   3.469   4.234   7.013
 2033SOL    HW1 6998   3.372   4.250   6.994
 2033SOL    HW2 6999   3.524   4.263   6.935
 2034SOL     OW 7000   3.241   6.501   4.788
 2034SOL    HW1 7001   3.152   6.516   4.831
 2034SOL    HW2 7002   3.233   6.513   4.689
 2035SOL     OW 7003   6.976   0.652   1.771
 2035SOL    HW1 7004   6.902   0.647   1.704
 2035SOL    HW2 7005   6.940   0.678   1.860
 2036SOL     OW 7006   0.960   5.107   3.006
 2036SOL    HW1 7007   0.919   5.061   2.927
 2036SOL    HW2 7008   1.059   5.093   3.005
 2037SOL     OW 7009   0.247   2.925   5.810
 2037SOL    HW1 7010   0.311   2.854   5.839
 2037SOL    HW2 7011   0.154   2.889   5.809
 2038SOL     OW 7012   1.319   2.127   6.552
 2038SOL    HW1 7013   1.347   2.039   6.589
 2038SOL    HW2 7014   1.277   2.182   6.624
 2039SOL     OW 7015   0.862   5.634   3.241
 2039SOL    HW1 7016   0.905   5.716   3.202
 2039SOL    HW2 7017   0.822   5.657   3.329
 2040SOL     OW 7018   3.856   2.991   4.850
 2040SOL    HW1 7019   3.848   2.965   4.754
 2040SOL    HW2 7020   3.913   3.073   4.857
 2041SOL     OW 7021   0.175   5.963   5.956
 2041SOL    HW1 7022   0.127   6.047   5.983
 2041SOL    HW2 7023   0.123   5.884   5.987
 2042SOL     OW 7024   5.058   4.640   6.883
 2042SOL    HW1 7025   4.996   4.564   6.902
 2042SOL    HW2 7026   5.152   4.606   6.877
 2043SOL     OW 7027   6.165   4.135   3.182
 2043SOL    HW1 7028   6.201   4.051   3.142
 2043SOL    HW2 7029   6.105   4.180   3.117
 2044SOL     OW 7030   5.365   6.479   1.586
 2044SOL    HW1 7031   5.407   6.569   1.597
 2044SOL    HW2 7032   5.326   6.448   1.673
 2045SOL     OW 7033   3.155   4.962   3.970
 2045SOL    HW1 7034   3.073   5.019   3.978
 2045SOL    HW2 7035   3.178   4.925   4.060
 2046SOL     OW 7036   6.775   1.765   3.984
 2046SOL    HW1 7037   6.677   1.771   3.966
 2046SOL    HW2 7038   6.815   1.857   3.982
 2047SOL     OW 7039   5.834   2.398   0.024
 2047SOL    HW1 7040   5.915   2.438   0.068
 2047SOL    HW2 7041   5.821   2.304   0.058
 2048SOL     OW 7042   1.200   6.131   0.413
 2048SOL    HW1 7043   1.260   6.170   0.483
 2048SOL    HW2 7044   1.119   6.189   0.402
 2049SOL     OW 7045   5.039   1.566   6.474
 2049SOL    HW1 7046   5.025   1.641   6.409
 2049SOL    HW2 7047   5.068   1.485   6.425
 2050SOL     OW 7048   0.533   2.867   2.848
 2050SOL    HW1 7049   0.492   2.931   2.783
 2050SOL    HW2 7050   0.469   2.791   2.864
 2051SOL     OW 7051   0.925   5.854   0.812
 2051SOL    HW1 7052   0.964   5.911   0.740
 2051SOL    HW2 7053   0.982   5.772   0.824
 2052SOL     OW 7054   1.046   3.914   1.078
 2052SOL    HW1 7055   1.075   3.866   0.995
 2052SOL    HW2 7056   0.954   3.952   1.064
 2053SOL     OW 7057   5.662   6.721   4.889
 2053SOL    HW1 7058   5.636   6.624   4.890
 2053SOL    HW2 7059   5.606   6.769   4.822
 2054SOL     OW 7060   3.815   3.572   2.083
 2054SOL    HW1 7061   3.911   3.555   2.060
 2054SOL    HW2 7062   3.759   3.563   2.000
 2055SOL     OW 7063   5.946   3.653   3.432
 2055SOL    HW1 7064   5.988   3.678   3.519
 2055SOL    HW2 7065   5.935   3.735   3.376
 2056SOL     OW 7066   2.385   6.792   2.790
 2056SOL    HW1 7067   2.339   6.867   2.837
 2056SOL    HW2 7068   2.336   6.771   2.705
 2057SOL     OW 7069   5.637   3.232   4.152
 2057SOL    HW1 7070   5.687   3.221   4.239
 2057SOL    HW2 7071   5.610   3.328   4.141
 2058SOL     OW 7072   0.442   1.806   3.107
 2058SOL    HW1 7073   0.393   1.798   3.194
 2058SOL    HW2 7074   0.486   1.718   3.085
 2059SOL     OW 7075   2.212   5.992   6.453
 2059SOL    HW1 7076   2.257   5.919   6.504
 2059SOL    HW2 7077   2.203   6.073   6.512
 2060SOL     OW 7078   6.546   4.630   0.557
 2060SOL    HW1 7079   6.542   4.654   0.460
 2060SOL    HW2 7080   6.460   4.655   0.601
 2061SOL     OW 7081   0.077   1.707   3.572
 2061SOL    HW1 7082   0.100   1.726   3.668
 2061SOL    HW2 7083   0.092   1.789   3.517
 2062SOL     OW 7084   6.205   0.347   3.754
 2062SOL    HW1 7085   6.220   0.401   3.837
 2062SOL    HW2 7086   6.263   0.266   3.756
 2063SOL     OW 7087   1.728   6.891   6.296
 2063SOL    HW1 7088   1.662   6.824   6.329
 2063SOL    HW2 7089   1.820   6.850   6.294
 2064SOL     OW 7090   0.640   2.550   5.344
 2064SOL    HW1 7091   0.699   2.494   5.287
 2064SOL    HW2 7092   0.640   2.514   5.437
 2065SOL     OW 7093   0.032   2.586   4.609
 2065SOL    HW1 7094   6.958   2.629   4.615
 2065SOL    HW2 7095   0.028   2.495   4.650
 2066SOL     OW 7096   1.018   4.964   3.603
 2066SOL    HW1 7097   1.057   5.038   3.547
 2066SOL    HW2 7098   0.992   4.888   3.544
 2067SOL     OW 7099   6.592   5.440   0.696
 2067SOL    HW1 7100   6.602   5.359   0.753
 2067SOL    HW2 7101   6.639   5.426   0.609
 2068SOL     OW 7102   1.680   1.338   5.034
 2068SOL    HW1 7103   1.705   1.363   4.941
 2068SOL    HW2 7104   1.762   1.316   5.087
 2069SOL     OW 7105   0.891   3.101   2.982
 2069SOL    HW1 7106   0.942   3.058   2.907
 2069SOL    HW2 7107   0.798   3.064   2.984
 2070SOL     OW 7108   1.373   1.086   1.853
 2070SOL    HW1 7109   1.287   1.115   1.896
 2070SOL    HW2 7110   1.441   1.068   1.924
 2071SOL     OW 7111   6.206   5.959   5.345
 2071SOL    HW1 7112   6.279   6.026   5.333
 2071SOL    HW2 7113   6.205   5.927   5.440
 2072SOL     OW 7114   4.310   6.621   3.418
 2072SOL    HW1 7115   4.408   6.641   3.414
 2072SOL    HW2 7116   4.296   6.536   3.469
 2073SOL     OW 7117   4.129   0.217   4.509
 2073SOL    HW1 7118   4.097   0.123   4.499
 2073SOL    HW2 7119   4.222   0.217   4.545
 2074SOL     OW 7120   1.542   2.783   0.627
 2074SOL    HW1 7121   1.478   2.831   0.567
 2074SOL    HW2 7122   1.539   2.824   0.718
 2075SOL     OW 7123   5.458   3.351   1.761
 2075SOL    HW1 7124   5.530   3.414   1.791
 2075SOL    HW2 7125   5.384   3.350   1.829
 2076SOL     OW 7126   5.834   0.301   6.639
 2076SOL    HW1 7127   5.907   0.317   6.704
 2076SOL    HW2 7128   5.873   0.282   6.549
 2077SOL     OW 7129   5.366   2.636   2.712
 2077SOL    HW1 7130   5.325   2.699   2.778
 2077SOL    HW2 7131   5.394   2.552   2.758
 2078SOL     OW 7132   1.224   5.537   5.575
 2078SOL    HW1 7133   1.180   5.595   5.506
 2078SOL    HW2 7134   1.309   5.500   5.537
 2079SOL     OW 7135   5.190   2.140   3.754
 2079SOL    HW1 7136   5.132   2.114   3.677
 2079SOL    HW2 7137   5.166   2.084   3.833
 2080SOL     OW 7138   1.838   0.407   5.269
 2080SOL    HW1 7139   1.783   0.449   5.341
 2080SOL    HW2 7140   1.932   0.397   5.301
 2081SOL     OW 7141   1.535   5.232   4.233
 2081SOL    HW1 7142   1.437   5.256   4.229
 2081SOL    HW2 7143   1.551   5.148   4.181
 2082SOL     OW 7144   0.298   6.879   3.206
 2082SOL    HW1 7145   0.352   6.952   3.249
 2082SOL    HW2 7146   0.266   6.909   3.117
 2083SOL     OW 7147   6.454   5.073   6.163
 2083SOL    HW1 7148   6.548   5.046   6.143
 2083SOL    HW2 7149   6.453   5.131   6.244
 2084SOL     OW 7150   1.606   3.446   3.480
 2084SOL    HW1 7151   1.646   3.367   3.433
 2084SOL    HW2 7152   1.577   3.514   3.413
 2085SOL     OW 7153   4.255   0.296   6.891
 2085SOL    HW1 7154   4.353   0.293   6.870
 2085SOL    HW2 7155   4.239   0.360   6.967
 2086SOL     OW 7156   4.299   6.808   5.563
 2086SOL    HW1 7157   4.203   6.818   5.537
 2086SOL    HW2 7158   4.340   6.733   5.511
 2087SOL     OW 7159   4.944   7.004   1.328
 2087SOL    HW1 7160   5.043   7.014   1.318
 2087SOL    HW2 7161   4.898   0.030   1.250
 2088SOL     OW 7162   1.842   5.894   0.297
 2088SOL    HW1 7163   1.846   5.865   0.202
 2088SOL    HW2 7164   1.891   5.828   0.355
 2089SOL     OW 7165   5.334   1.957   6.381
 2089SOL    HW1 7166   5.385   2.041   6.363
 2089SOL    HW2 7167   5.236   1.977   6.381
 2090SOL     OW 7168   3.767   2.958   5.892
 2090SOL    HW1 7169   3.858   2.932   5.925
 2090SOL    HW2 7170   3.727   2.882   5.842
 2091SOL     OW 7171   0.032   5.143   0.464
 2091SOL    HW1 7172   6.994   5.063   0.489
 2091SOL    HW2 7173   0.088   5.122   0.383
 2092SOL     OW 7174   5.222   3.948   6.969
 2092SOL    HW1 7175   5.291   3.887   7.008
 2092SOL    HW2 7176   5.202   3.921   6.875
 2093SOL     OW 7177   2.746   2.438   1.490
 2093SOL    HW1 7178   2.767   2.341   1.473
 2093SOL    HW2 7179   2.699   2.476   1.411
 2094SOL     OW 7180   5.998   1.647   1.966
 2094SOL    HW1 7181   5.995   1.594   1.881
 2094SOL    HW2 7182   5.921   1.620   2.024
 2095SOL     OW 7183   5.539   0.118   5.097
 2095SOL    HW1 7184   5.599   0.134   5.175
 2095SOL    HW2 7185   5.448   0.154   5.117
 2096SOL     OW 7186   4.871   3.919   2.822
 2096SOL    HW1 7187   4.946   3.966   2.868
 2096SOL    HW2 7188   4.850   3.834   2.871
 2097SOL     OW 7189   3.047   3.120   6.644
 2097SOL    HW1 7190   2.947   3.117   6.652
 2097SOL    HW2 7191   3.075   3.070   6.562
 2098SOL     OW 7192   3.833   5.862   2.016
 2098SOL    HW1 7193   3.838   5.802   1.935
 2098SOL    HW2 7194   3.737   5.877   2.040
 2099SOL     OW 7195   3.117   2.955   6.391
 2099SOL    HW1 7196   3.074   3.042   6.365
 2099SOL    HW2 7197   3.138   2.902   6.309
 2100SOL     OW 7198   4.686   2.536   6.562
 2100SOL    HW1 7199   4.665   2.606   6.630
 2100SOL    HW2 7200   4.716   2.452   6.607
 2101SOL     OW 7201   1.271   6.161   2.584
 2101SOL    HW1 7202   1.349   6.110   2.549
 2101SOL    HW2 7203   1.242   6.122   2.671
 2102SOL     OW 7204   6.310   4.749   2.811
 2102SOL    HW1 7205   6.278   4.733   2.905
 2102SOL    HW2 7206   6.262   4.688   2.749
 2103SOL     OW 7207   4.011   4.387   5.580
 2103SOL    HW1 7208   4.068   4.467   5.597
 2103SOL    HW2 7209   4.025   4.356   5.486
 2104SOL     OW 7210   2.427   4.558   1.200
 2104SOL    HW1 7211   2.468   4.512   1.279
 2104SOL    HW2 7212   2.485   4.546   1.120
 2105SOL     OW 7213   5.105   6.339   4.973
 2105SOL    HW1 7214   5.040   6.304   5.040
 2105SOL    HW2 7215   5.075   6.314   4.881
 2106SOL     OW 7216   4.832   4.303   1.454
 2106SOL    HW1 7217   4.852   4.382   1.512
 2106SOL    HW2 7218   4.735   4.280   1.461
 2107SOL     OW 7219   4.933   2.512   5.460
 2107SOL    HW1 7220   4.965   2.591   5.511
 2107SOL    HW2 7221   4.981   2.430   5.491
 2108SOL     OW 7222   6.268   5.773   5.113
 2108SOL    HW1 7223   6.211   5.691   5.120
 2108SOL    HW2 7224   6.276   5.815   5.204
 2109SOL     OW 7225   4.271   5.965   2.449
 2109SOL    HW1 7226   4.171   5.961   2.443
 2109SOL    HW2 7227   4.303   5.894   2.511
 2110SOL     OW 7228   2.200   1.437   0.439
 2110SOL    HW1 7229   2.121   1.396   0.484
 2110SOL    HW2 7230   2.264   1.471   0.509
 2111SOL     OW 7231   1.642   2.162   6.733
 2111SOL    HW1 7232   1.609   2.251   6.765
 2111SOL    HW2 7233   1.741   2.164   6.723
 2112SOL     OW 7234   5.567   3.738   0.668
 2112SOL    HW1 7235   5.550   3.704   0.760
 2112SOL    HW2 7236   5.625   3.673   0.619
 2113SOL     OW 7237   2.500   2.054   5.537
 2113SOL    HW1 7238   2.532   2.128   5.596
 2113SOL    HW2 7239   2.479   2.091   5.446
 2114SOL     OW 7240   1.455   1.752   6.757
 2114SOL    HW1 7241   1.368   1.790   6.727
 2114SOL    HW2 7242   1.526   1.774   6.691
 2115SOL     OW 7243   1.959   3.565   2.582
 2115SOL    HW1 7244   1.966   3.525   2.673
 2115SOL    HW2 7245   1.982   3.496   2.513
 2116SOL     OW 7246   0.501   5.432   3.337
 2116SOL    HW1 7247   0.436   5.365   3.302
 2116SOL    HW2 7248   0.586   5.386   3.364
 2117SOL     OW 7249   7.008   5.291   1.780
 2117SOL    HW1 7250   7.014   5.281   1.879
 2117SOL    HW2 7251   6.934   5.235   1.745
 2118SOL     OW 7252   6.145   3.538   2.534
 2118SOL    HW1 7253   6.226   3.484   2.556
 2118SOL    HW2 7254   6.085   3.484   2.475
 2119SOL     OW 7255   1.509   6.900   0.940
 2119SOL    HW1 7256   1.510   6.999   0.921
 2119SOL    HW2 7257   1.595   6.875   0.985
 2120SOL     OW 7258   6.658   5.150   3.949
 2120SOL    HW1 7259   6.743   5.158   3.896
 2120SOL    HW2 7260   6.662   5.067   4.005
 2121SOL     OW 7261   1.605   4.485   5.772
 2121SOL    HW1 7262   1.678   4.416   5.774
 2121SOL    HW2 7263   1.540   4.462   5.700
 2122SOL     OW 7264   5.848   3.936   5.657
 2122SOL    HW1 7265   5.921   3.926   5.589
 2122SOL    HW2 7266   5.797   3.850   5.664
 2123SOL     OW 7267   0.090   5.833   2.643
 2123SOL    HW1 7268   0.163   5.821   2.576
 2123SOL    HW2 7269   0.120   5.894   2.716
 2124SOL     OW 7270   3.096   1.894   1.251
 2124SOL    HW1 7271   3.089   1.799   1.281
 2124SOL    HW2 7272   3.112   1.953   1.330
 2125SOL     OW 7273   2.132   0.704   2.151
 2125SOL    HW1 7274   2.086   0.616   2.153
 2125SOL    HW2 7275   2.225   0.693   2.114
 2126SOL     OW 7276   3.712   1.811   6.135
 2126SOL    HW1 7277   3.634   1.786   6.077
 2126SOL    HW2 7278   3.787   1.844   6.078
 2127SOL     OW 7279   0.353   3.277   4.967
 2127SOL    HW1 7280   0.383   3.250   5.058
 2127SOL    HW2 7281   0.430   3.316   4.917
 2128SOL     OW 7282   6.590   3.396   3.756
 2128SOL    HW1 7283   6.606   3.492   3.780
 2128SOL    HW2 7284   6.587   3.386   3.657
 2129SOL     OW 7285   4.361   3.400   5.385
 2129SOL    HW1 7286   4.365   3.355   5.475
 2129SOL    HW2 7287   4.306   3.344   5.323
 2130SOL     OW 7288   3.451   0.707   2.763
 2130SOL    HW1 7289   3.351   0.700   2.755
 2130SOL    HW2 7290   3.481   0.797   2.731
 2131SOL     OW 7291   5.514   1.284   0.839
 2131SOL    HW1 7292   5.460   1.206   0.871
 2131SOL    HW2 7293   5.454   1.362   0.821
 2132SOL     OW 7294   3.371   0.288   1.645
 2132SOL    HW1 7295   3.406   0.371   1.601
 2132SOL    HW2 7296   3.420   0.208   1.612
 2133SOL     OW 7297   3.224   3.109   0.447
 2133SOL    HW1 7298   3.222   3.092   0.545
 2133SOL    HW2 7299   3.170   3.038   0.400
 2134SOL     OW 7300   0.002   1.408   6.081
 2134SOL    HW1 7301   0.070   1.477   6.104
 2134SOL    HW2 7302   6.954   1.396   6.157
 2135SOL     OW 7303   1.314   3.366   4.831
 2135SOL    HW1 7304   1.287   3.308   4.755
 2135SOL    HW2 7305   1.412   3.353   4.849
 2136SOL     OW 7306   1.425   3.675   3.732
 2136SOL    HW1 7307   1.503   3.691   3.671
 2136SOL    HW2 7308   1.341   3.668   3.678
 2137SOL     OW 7309   3.092   5.541   4.904
 2137SOL    HW1 7310   3.024   5.602   4.865
 2137SOL    HW2 7311   3.062   5.446   4.895
 2138SOL     OW 7312   6.508   0.528   2.782
 2138SOL    HW1 7313   6.555   0.616   2.783
 2138SOL    HW2 7314   6.463   0.513   2.870
 2139SOL     OW 7315   3.807   0.592   3.335
 2139SOL    HW1 7316   3.716   0.571   3.371
 2139SOL    HW2 7317   3.812   0.690   3.314
 2140SOL     OW 7318   3.990   6.785   4.225
 2140SOL    HW1 7319   4.022   6.761   4.317
 2140SOL    HW2 7320   4.010   6.710   4.162
 2141SOL     OW 7321   6.651   3.774   2.601
 2141SOL    HW1 7322   6.749   3.758   2.593
 2141SOL    HW2 7323   6.617   3.734   2.686
 2142SOL     OW 7324   1.967   2.066   2.899
 2142SOL    HW1 7325   1.943   1.993   2.964
 2142SOL    HW2 7326   1.907   2.144   2.913
 2143SOL     OW 7327   2.820   4.554   1.625
 2143SOL    HW1 7328   2.880   4.631   1.603
 2143SOL    HW2 7329   2.839   4.522   1.718
 2144SOL     OW 7330   1.268   5.281   4.236
 2144SOL    HW1 7331   1.203   5.267   4.311
 2144SOL    HW2 7332   1.222   5.263   4.149
 2145SOL     OW 7333   4.597   5.758   4.218
 2145SOL    HW1 7334   4.641   5.685   4.166
 2145SOL    HW2 7335   4.563   5.828   4.155
 2146SOL     OW 7336   2.646   3.577   1.558
 2146SOL    HW1 7337   2.707   3.592   1.635
 2146SOL    HW2 7338   2.678   3.499   1.504
 2147SOL     OW 7339   6.216   1.950   5.959
 2147SOL    HW1 7340   6.140   1.912   6.013
 2147SOL    HW2 7341   6.228   2.046   5.982
 2148SOL     OW 7342   5.858   2.772   5.519
 2148SOL    HW1 7343   5.856   2.831   5.437
 2148SOL    HW2 7344   5.953   2.760   5.548
 2149SOL     OW 7345   3.612   1.966   1.332
 2149SOL    HW1 7346   3.592   1.926   1.242
 2149SOL    HW2 7347   3.607   1.895   1.402
 2150SOL     OW 7348   2.501   1.710   2.344
 2150SOL    HW1 7349   2.413   1.707   2.392
 2150SOL    HW2 7350   2.565   1.768   2.396
 2151SOL     OW 7351   1.260   0.223   5.201
 2151SOL    HW1 7352   1.264   0.173   5.287
 2151SOL    HW2 7353   1.266   0.159   5.124
 2152SOL     OW 7354   3.441   5.929   1.834
 2152SOL    HW1 7355   3.454   6.008   1.773
 2152SOL    HW2 7356   3.388   5.859   1.787
 2153SOL     OW 7357   3.901   1.295   2.750
 2153SOL    HW1 7358   3.871   1.353   2.826
 2153SOL    HW2 7359   3.885   1.199   2.773
 2154SOL     OW 7360   5.115   0.424   5.004
 2154SOL    HW1 7361   5.101   0.385   4.914
 2154SOL    HW2 7362   5.027   0.444   5.046
 2155SOL     OW 7363   2.677   5.726   0.258
 2155SOL    HW1 7364   2.672   5.673   0.343
 2155SOL    HW2 7365   2.729   5.810   0.275
 2156SOL     OW 7366   1.848   1.808   5.061
 2156SOL    HW1 7367   1.899   1.789   4.976
 2156SOL    HW2 7368   1.913   1.829   5.134
 2157SOL     OW 7369   6.040   0.603   3.282
 2157SOL    HW1 7370   6.024   0.664   3.205
 2157SOL    HW2 7371   5.953   0.577   3.323
 2158SOL     OW 7372   3.801   5.948   1.300
 2158SOL    HW1 7373   3.883   5.992   1.337
 2158SOL    HW2 7374   3.730   5.947   1.370
 2159SOL     OW 7375   1.330   6.580   5.112
 2159SOL    HW1 7376   1.426   6.597   5.088
 2159SOL    HW2 7377   1.290   6.515   5.048
 2160SOL     OW 7378   4.025   3.715   0.274
 2160SOL    HW1 7379   4.113   3.696   0.318
 2160SOL    HW2 7380   4.028   3.806   0.232
 2161SOL     OW 7381   5.930   5.171   2.923
 2161SOL    HW1 7382   5.857   5.146   2.986
 2161SOL    HW2 7383   5.913   5.263   2.887
 2162SOL     OW 7384   2.228   1.063   1.883
 2162SOL    HW1 7385   2.232   0.998   1.807
 2162SOL    HW2 7386   2.133   1.089   1.900
 2163SOL     OW 7387   1.486   4.701   5.927
 2163SOL    HW1 7388   1.552   4.639   5.884
 2163SOL    HW2 7389   1.456   4.769   5.861
 2164SOL     OW 7390   1.426   2.545   0.340
 2164SOL    HW1 7391   1.406   2.588   0.252
 2164SOL    HW2 7392   1.373   2.589   0.412
 2165SOL     OW 7393   0.588   1.876   2.471
 2165SOL    HW1 7394   0.567   1.790   2.423
 2165SOL    HW2 7395   0.511   1.902   2.528
 2166SOL     OW 7396   1.786   2.289   5.358
 2166SOL    HW1 7397   1.716   2.359   5.370
 2166SOL    HW2 7398   1.755   2.204   5.400
 2167SOL     OW 7399   2.020   1.700   3.368
 2167SOL    HW1 7400   2.050   1.785   3.324
 2167SOL    HW2 7401   2.099   1.657   3.412
 2168SOL     OW 7402   0.521   2.056   3.834
 2168SOL    HW1 7403   0.534   1.976   3.775
 2168SOL    HW2 7404   0.533   2.029   3.929
 2169SOL     OW 7405   5.156   1.121   6.900
 2169SOL    HW1 7406   5.230   1.097   6.963
 2169SOL    HW2 7407   5.190   1.182   6.829
 2170SOL     OW 7408   6.486   4.542   5.694
 2170SOL    HW1 7409   6.560   4.593   5.650
 2170SOL    HW2 7410   6.522   4.455   5.728
 2171SOL     OW 7411   0.390   4.936   1.694
 2171SOL    HW1 7412   0.349   4.859   1.743
 2171SOL    HW2 7413   0.350   4.942   1.603
 2172SOL     OW 7414   1.995   2.211   0.263
 2172SOL    HW1 7415   2.013   2.308   0.247
 2172SOL    HW2 7416   1.914   2.202   0.321
 2173SOL     OW 7417   3.670   0.546   5.415
 2173SOL    HW1 7418   3.708   0.466   5.369
 2173SOL    HW2 7419   3.674   0.625   5.353
 2174SOL     OW 7420   5.537   6.466   4.875
 2174SOL    HW1 7421   5.452   6.496   4.918
 2174SOL    HW2 7422   5.579   6.395   4.930
 2175SOL     OW 7423   2.380   2.719   4.276
 2175SOL    HW1 7424   2.331   2.805   4.293
 2175SOL    HW2 7425   2.437   2.697   4.354
 2176SOL     OW 7426   6.452   1.988   0.788
 2176SOL    HW1 7427   6.491   1.896   0.783
 2176SOL    HW2 7428   6.368   1.991   0.733
 2177SOL     OW 7429   6.604   2.064   3.556
 2177SOL    HW1 7430   6.570   2.158   3.558
 2177SOL    HW2 7431   6.700   2.064   3.528
 2178SOL     OW 7432   2.005   2.197   0.850
 2178SOL    HW1 7433   2.069   2.265   0.886
 2178SOL    HW2 7434   1.975   2.137   0.924
 2179SOL     OW 7435   2.130   5.283   4.930
 2179SOL    HW1 7436   2.195   5.207   4.933
 2179SOL    HW2 7437   2.047   5.253   4.883
 2180SOL     OW 7438   1.970   2.345   1.782
 2180SOL    HW1 7439   2.006   2.331   1.874
 2180SOL    HW2 7440   1.970   2.443   1.760
 2181SOL     OW 7441   4.675   5.009   4.545
 2181SOL    HW1 7442   4.754   4.975   4.596
 2181SOL    HW2 7443   4.700   5.092   4.496
 2182SOL     OW 7444   1.539   3.372   3.802
 2182SOL    HW1 7445   1.576   3.281   3.820
 2182SOL    HW2 7446   1.574   3.405   3.714
 2183SOL     OW 7447   2.840   3.837   5.955
 2183SOL    HW1 7448   2.898   3.826   5.874
 2183SOL    HW2 7449   2.748   3.864   5.927
 2184SOL     OW 7450   4.218   1.885   6.491
 2184SOL    HW1 7451   4.210   1.926   6.582
 2184SOL    HW2 7452   4.314   1.863   6.474
 2185SOL     OW 7453   0.862   1.607   1.017
 2185SOL    HW1 7454   0.873   1.576   1.112
 2185SOL    HW2 7455   0.947   1.650   0.987
 2186SOL     OW 7456   0.629   5.808   1.976
 2186SOL    HW1 7457   0.705   5.754   2.013
 2186SOL    HW2 7458   0.628   5.800   1.876
 2187SOL     OW 7459   6.485   0.207   2.914
 2187SOL    HW1 7460   6.582   0.227   2.920
 2187SOL    HW2 7461   6.436   0.289   2.883
 2188SOL     OW 7462   0.025   6.447   4.933
 2188SOL    HW1 7463   6.969   6.392   4.891
 2188SOL    HW2 7464   0.113   6.398   4.927
 2189SOL     OW 7465   1.609   6.703   0.712
 2189SOL    HW1 7466   1.672   6.755   0.770
 2189SOL    HW2 7467   1.654   6.681   0.626
 2190SOL     OW 7468   0.007   3.004   1.796
 2190SOL    HW1 7469   0.095   3.024   1.754
 2190SOL    HW2 7470   0.008   2.913   1.837
 2191SOL     OW 7471   3.331   2.092   6.887
 2191SOL    HW1 7472   3.306   2.093   6.790
 2191SOL    HW2 7473   3.414   2.147   6.900
 2192SOL     OW 7474   4.340   1.111   2.346
 2192SOL    HW1 7475   4.426   1.104   2.294
 2192SOL    HW2 7476   4.291   1.193   2.317
 2193SOL     OW 7477   5.745   5.616   6.601
 2193SOL    HW1 7478   5.736   5.715   6.588
 2193SOL    HW2 7479   5.655   5.574   6.594
 2194SOL     OW 7480   2.835   4.153   5.626
 2194SOL    HW1 7481   2.748   4.108   5.609
 2194SOL    HW2 7482   2.898   4.133   5.551
 2195SOL     OW 7483   0.436   0.657   4.560
 2195SOL    HW1 7484   0.448   0.668   4.461
 2195SOL    HW2 7485   0.525   0.657   4.605
 2196SOL     OW 7486   2.981   6.909   5.284
 2196SOL    HW1 7487   3.046   6.952   5.346
 2196SOL    HW2 7488   3.030   6.868   5.207
 2197SOL     OW 7489   3.115   3.828   0.947
 2197SOL    HW1 7490   3.071   3.745   0.980
 2197SOL    HW2 7491   3.211   3.809   0.925
 2198SOL     OW 7492   5.668   1.375   0.074
 2198SOL    HW1 7493   5.701   1.306   0.008
 2198SOL    HW2 7494   5.574   1.355   0.098
 2199SOL     OW 7495   5.032   0.738   3.288
 2199SOL    HW1 7496   4.933   0.724   3.288
 2199SOL    HW2 7497   5.072   0.690   3.211
 2200SOL     OW 7498   2.677   1.263   5.608
 2200SOL    HW1 7499   2.676   1.357   5.641
 2200SOL    HW2 7500   2.654   1.261   5.510
 2201SOL     OW 7501   6.469   2.997   3.565
 2201SOL    HW1 7502   6.530   2.977   3.488
 2201SOL    HW2 7503   6.406   2.920   3.579
 2202SOL     OW 7504   2.587   5.586   2.226
 2202SOL    HW1 7505   2.548   5.505   2.269
 2202SOL    HW2 7506   2.520   5.628   2.165
 2203SOL     OW 7507   1.707   2.054   1.388
 2203SOL    HW1 7508   1.748   2.105   1.464
 2203SOL    HW2 7509   1.694   2.116   1.310
 2204SOL     OW 7510   3.578   0.961   1.286
 2204SOL    HW1 7511   3.569   0.922   1.195
 2204SOL    HW2 7512   3.654   1.027   1.288
 2205SOL     OW 7513   0.625   0.339   6.279
 2205SOL    HW1 7514   0.676   0.295   6.205
 2205SOL    HW2 7515   0.550   0.281   6.308
 2206SOL     OW 7516   3.155   4.529   6.360
 2206SOL    HW1 7517   3.248   4.556   6.336
 2206SOL    HW2 7518   3.158   4.452   6.424
 2207SOL     OW 7519   2.797   4.462   6.526
 2207SOL    HW1 7520   2.807   4.540   6.465
 2207SOL    HW2 7521   2.743   4.391   6.481
 2208SOL     OW 7522   1.906   6.392   3.232
 2208SOL    HW1 7523   1.934   6.348   3.146
 2208SOL    HW2 7524   1.876   6.323   3.297
 2209SOL     OW 7525   1.508   6.226   5.520
 2209SOL    HW1 7526   1.459   6.182   5.444
 2209SOL    HW2 7527   1.600   6.188   5.526
 2210SOL     OW 7528   6.283   4.549   4.202
 2210SOL    HW1 7529   6.206   4.591   4.251
 2210SOL    HW2 7530   6.267   4.451   4.192
 2211SOL     OW 7531   5.656   0.371   0.790
 2211SOL    HW1 7532   5.714   0.327   0.722
 2211SOL    HW2 7533   5.712   0.407   0.864
 2212SOL     OW 7534   1.534   5.884   7.003
 2212SOL    HW1 7535   1.597   5.825   6.953
 2212SOL    HW2 7536   1.583   5.927   0.064
 2213SOL     OW 7537   3.536   2.482   5.341
 2213SOL    HW1 7538   3.629   2.489   5.377
 2213SOL    HW2 7539   3.525   2.547   5.266
 2214SOL     OW 7540   3.447   2.822   4.897
 2214SOL    HW1 7541   3.464   2.901   4.837
 2214SOL    HW2 7542   3.413   2.745   4.842
 2215SOL     OW 7543   6.304   1.013   0.527
 2215SOL    HW1 7544   6.227   1.073   0.549
 2215SOL    HW2 7545   6.300   0.989   0.430
 2216SOL     OW 7546   1.638   0.551   6.092
 2216SOL    HW1 7547   1.693   0.471   6.070
 2216SOL    HW2 7548   1.629   0.559   6.192
 2217SOL     OW 7549   4.021   6.668   1.538
 2217SOL    HW1 7550   3.927   6.651   1.508
 2217SOL    HW2 7551   4.022   6.746   1.601
 2218SOL     OW 7552   0.336   6.200   7.004
 2218SOL    HW1 7553   0.378   6.130   6.945
 2218SOL    HW2 7554   0.252   6.164   0.027
 2219SOL     OW 7555   5.708   2.087   1.644
 2219SOL    HW1 7556   5.754   2.027   1.709
 2219SOL    HW2 7557   5.678   2.034   1.565
 2220SOL     OW 7558   1.669   0.590   4.656
 2220SOL    HW1 7559   1.764   0.571   4.631
 2220SOL    HW2 7560   1.667   0.653   4.733
 2221SOL     OW 7561   5.912   1.173   5.165
 2221SOL    HW1 7562   5.883   1.089   5.121
 2221SOL    HW2 7563   5.952   1.235   5.097
 2222SOL     OW 7564   4.847   0.557   0.497
 2222SOL    HW1 7565   4.880   0.566   0.403
 2222SOL    HW2 7566   4.751   0.528   0.496
 2223SOL     OW 7567   6.006   1.427   4.804
 2223SOL    HW1 7568   6.062   1.426   4.722
 2223SOL    HW2 7569   5.981   1.522   4.826
 2224SOL     OW 7570   0.952   3.876   0.184
 2224SOL    HW1 7571   1.034   3.889   0.241
 2224SOL    HW2 7572   0.907   3.963   0.170
 2225SOL     OW 7573   6.400   6.469   3.105
 2225SOL    HW1 7574   6.406   6.482   3.204
 2225SOL    HW2 7575   6.490   6.446   3.068
 2226SOL     OW 7576   3.545   4.886   1.072
 2226SOL    HW1 7577   3.569   4.916   0.979
 2226SOL    HW2 7578   3.586   4.796   1.089
 2227SOL     OW 7579   5.740   3.567   0.502
 2227SOL    HW1 7580   5.790   3.481   0.502
 2227SOL    HW2 7581   5.652   3.555   0.456
 2228SOL     OW 7582   2.820   5.017   0.979
 2228SOL    HW1 7583   2.804   5.012   0.880
 2228SOL    HW2 7584   2.918   5.023   0.996
 2229SOL     OW 7585   4.337   2.292   4.534
 2229SOL    HW1 7586   4.436   2.304   4.545
 2229SOL    HW2 7587   4.294   2.290   4.624
 2230SOL     OW 7588   5.900   5.675   6.836
 2230SOL    HW1 7589   5.953   5.604   6.882
 2230SOL    HW2 7590   5.844   5.634   6.764
 2231SOL     OW 7591   0.513   0.525   2.219
 2231SOL    HW1 7592   0.521   0.481   2.129
 2231SOL    HW2 7593   0.435   0.588   2.218
 2232SOL     OW 7594   0.124   2.874   5.024
 2232SOL    HW1 7595   0.063   2.849   4.949
 2232SOL    HW2 7596   0.191   2.942   4.992
 2233SOL     OW 7597   2.397   3.649   0.289
 2233SOL    HW1 7598   2.365   3.566   0.243
 2233SOL    HW2 7599   2.332   3.676   0.359
 2234SOL     OW 7600   3.921   1.788   1.672
 2234SOL    HW1 7601   3.841   1.730   1.653
 2234SOL    HW2 7602   3.949   1.776   1.767
 2235SOL     OW 7603   2.733   6.965   1.613
 2235SOL    HW1 7604   2.677   7.003   1.539
 2235SOL    HW2 7605   2.809   0.011   1.633
 2236SOL     OW 7606   1.698   4.836   6.081
 2236SOL    HW1 7607   1.714   4.934   6.072
 2236SOL    HW2 7608   1.602   4.815   6.063
 2237SOL     OW 7609   6.123   4.945   4.427
 2237SOL    HW1 7610   6.078   5.005   4.361
 2237SOL    HW2 7611   6.069   4.940   4.510
 2238SOL     OW 7612   5.338   4.447   0.892
 2238SOL    HW1 7613   5.405   4.521   0.897
 2238SOL    HW2 7614   5.308   4.436   0.797
 2239SOL     OW 7615   3.992   4.892   3.170
 2239SOL    HW1 7616   3.902   4.850   3.181
 2239SOL    HW2 7617   3.995   4.944   3.085
 2240SOL     OW 7618   5.279   5.359   3.973
 2240SOL    HW1 7619   5.356   5.367   4.037
 2240SOL    HW2 7620   5.193   5.359   4.025
 2241SOL     OW 7621   0.391   6.206   3.026
 2241SOL    HW1 7622   0.312   6.253   3.065
 2241SOL    HW2 7623   0.424   6.258   2.947
 2242SOL     OW 7624   4.859   2.108   3.005
 2242SOL    HW1 7625   4.947   2.064   2.987
 2242SOL    HW2 7626   4.802   2.102   2.923
 2243SOL     OW 7627   1.955   6.469   5.907
 2243SOL    HW1 7628   1.922   6.432   5.820
 2243SOL    HW2 7629   1.887   6.533   5.943
 2244SOL     OW 7630   2.099   6.654   1.595
 2244SOL    HW1 7631   2.011   6.613   1.572
 2244SOL    HW2 7632   2.084   6.747   1.629
 2245SOL     OW 7633   0.682   1.945   1.237
 2245SOL    HW1 7634   0.752   1.913   1.301
 2245SOL    HW2 7635   0.724   1.963   1.148
 2246SOL     OW 7636   0.955   2.312   5.314
 2246SOL    HW1 7637   1.015   2.237   5.341
 2246SOL    HW2 7638   0.886   2.278   5.250
 2247SOL     OW 7639   3.479   3.249   4.528
 2247SOL    HW1 7640   3.420   3.202   4.462
 2247SOL    HW2 7641   3.468   3.206   4.618
 2248SOL     OW 7642   4.998   3.880   5.379
 2248SOL    HW1 7643   5.002   3.877   5.478
 2248SOL    HW2 7644   5.088   3.858   5.341
 2249SOL     OW 7645   6.535   6.172   3.295
 2249SOL    HW1 7646   6.587   6.090   3.272
 2249SOL    HW2 7647   6.438   6.149   3.303
 2250SOL     OW 7648   4.395   3.590   6.528
 2250SOL    HW1 7649   4.414   3.682   6.561
 2250SOL    HW2 7650   4.478   3.534   6.533
 2251SOL     OW 7651   5.100   0.724   7.016
 2251SOL    HW1 7652   5.002   0.740   7.000
 2251SOL    HW2 7653   5.153   0.786   6.959
 2252SOL     OW 7654   4.904   3.090   2.578
 2252SOL    HW1 7655   4.844   3.076   2.500
 2252SOL    HW2 7656   4.882   3.024   2.650
 2253SOL     OW 7657   1.172   3.141   6.641
 2253SOL    HW1 7658   1.155   3.215   6.706
 2253SOL    HW2 7659   1.087   3.119   6.593
 2254SOL     OW 7660   3.921   2.829   5.188
 2254SOL    HW1 7661   3.940   2.773   5.107
 2254SOL    HW2 7662   3.929   2.926   5.164
 2255SOL     OW 7663   4.719   2.276   6.663
 2255SOL    HW1 7664   4.741   2.297   6.759
 2255SOL    HW2 7665   4.655   2.199   6.660
 2256SOL     OW 7666   5.785   5.849   1.356
 2256SOL    HW1 7667   5.808   5.758   1.391
 2256SOL    HW2 7668   5.744   5.840   1.265
 2257SOL     OW 7669   6.938   2.363   4.077
 2257SOL    HW1 7670   6.946   2.314   4.164
 2257SOL    HW2 7671   0.014   2.382   4.041
 2258SOL     OW 7672   1.229   5.272   5.582
 2258SOL    HW1 7673   1.303   5.279   5.516
 2258SOL    HW2 7674   1.205   5.364   5.615
 2259SOL     OW 7675   5.500   3.480   0.102
 2259SOL    HW1 7676   5.470   3.458   0.009
 2259SOL    HW2 7677   5.570   3.415   0.130
 2260SOL     OW 7678   6.428   4.685   2.223
 2260SOL    HW1 7679   6.334   4.721   2.220
 2260SOL    HW2 7680   6.454   4.669   2.318
 2261SOL     OW 7681   6.518   6.270   6.716
 2261SOL    HW1 7682   6.539   6.333   6.642
 2261SOL    HW2 7683   6.533   6.315   6.804
 2262SOL     OW 7684   5.438   1.526   2.464
 2262SOL    HW1 7685   5.522   1.571   2.496
 2262SOL    HW2 7686   5.359   1.572   2.505
 2263SOL     OW 7687   3.565   5.915   6.728
 2263SOL    HW1 7688   3.547   5.830   6.778
 2263SOL    HW2 7689   3.651   5.955   6.759
 2264SOL     OW 7690   3.018   3.797   0.411
 2264SOL    HW1 7691   2.944   3.738   0.442
 2264SOL    HW2 7692   3.049   3.855   0.486
 2265SOL     OW 7693   0.766   1.236   4.877
 2265SOL    HW1 7694   0.723   1.151   4.908
 2265SOL    HW2 7695   0.828   1.216   4.801
 2266SOL     OW 7696   5.614   2.083   0.509
 2266SOL    HW1 7697   5.554   2.069   0.430
 2266SOL    HW2 7698   5.578   2.033   0.588
 2267SOL     OW 7699   4.900   2.704   5.086
 2267SOL    HW1 7700   4.984   2.723   5.035
 2267SOL    HW2 7701   4.821   2.734   5.033
 2268SOL     OW 7702   6.765   3.503   6.528
 2268SOL    HW1 7703   6.670   3.501   6.496
 2268SOL    HW2 7704   6.785   3.419   6.579
 2269SOL     OW 7705   5.725   5.561   4.750
 2269SOL    HW1 7706   5.698   5.643   4.700
 2269SOL    HW2 7707   5.811   5.578   4.799
 2270SOL     OW 7708   3.125   2.377   6.254
 2270SOL    HW1 7709   3.094   2.440   6.325
 2270SOL    HW2 7710   3.146   2.428   6.171
 2271SOL     OW 7711   5.729   4.067   0.333
 2271SOL    HW1 7712   5.694   4.132   0.401
 2271SOL    HW2 7713   5.653   4.016   0.293
 2272SOL     OW 7714   6.288   2.289   6.010
 2272SOL    HW1 7715   6.371   2.244   6.043
 2272SOL    HW2 7716   6.311   2.378   5.971
 2273SOL     OW 7717   1.706   0.418   2.168
 2273SOL    HW1 7718   1.674   0.422   2.073
 2273SOL    HW2 7719   1.636   0.374   2.225
 2274SOL     OW 7720   0.006   2.780   6.558
 2274SOL    HW1 7721   6.987   2.755   6.649
 2274SOL    HW2 7722   6.945   2.799   6.497
 2275SOL     OW 7723   5.980   0.759   4.102
 2275SOL    HW1 7724   6.028   0.674   4.126
 2275SOL    HW2 7725   6.034   0.809   4.034
 2276SOL     OW 7726   2.287   5.038   1.070
 2276SOL    HW1 7727   2.289   5.126   1.117
 2276SOL    HW2 7728   2.375   5.023   1.024
 2277SOL     OW 7729   4.219   3.648   5.439
 2277SOL    HW1 7730   4.272   3.577   5.394
 2277SOL    HW2 7731   4.272   3.686   5.516
 2278SOL     OW 7732   6.375   4.958   4.049
 2278SOL    HW1 7733   6.347   4.924   4.139
 2278SOL    HW2 7734   6.474   4.966   4.045
 2279SOL     OW 7735   5.372   5.945   4.572
 2279SOL    HW1 7736   5.422   6.014   4.625
 2279SOL    HW2 7737   5.296   5.988   4.524
 2280SOL     OW 7738   0.533   6.576   4.523
 2280SOL    HW1 7739   0.512   6.596   4.427
 2280SOL    HW2 7740   0.473   6.631   4.582
 2281SOL     OW 7741   3.186   1.535   1.998
 2281SOL    HW1 7742   3.242   1.567   1.921
 2281SOL    HW2 7743   3.103   1.492   1.963
 2282SOL     OW 7744   4.878   6.944   4.890
 2282SOL    HW1 7745   4.786   6.976   4.867
 2282SOL    HW2 7746   4.878   6.845   4.898
 2283SOL     OW 7747   0.388   4.654   2.149
 2283SOL    HW1 7748   0.445   4.599   2.087
 2283SOL    HW2 7749   0.292   4.642   2.124
 2284SOL     OW 7750   1.905   2.154   6.892
 2284SOL    HW1 7751   1.904   2.233   6.954
 2284SOL    HW2 7752   1.844   2.083   6.927
 2285SOL     OW 7753   2.350   2.162   0.984
 2285SOL    HW1 7754   2.361   2.260   0.965
 2285SOL    HW2 7755   2.425   2.130   1.042
 2286SOL     OW 7756   0.015   0.466   4.123
 2286SOL    HW1 7757   6.944   0.512   4.141
 2286SOL    HW2 7758   0.013   0.373   4.162
 2287SOL     OW 7759   1.399   1.496   3.298
 2287SOL    HW1 7760   1.480   1.439   3.309
 2287SOL    HW2 7761   1.341   1.457   3.227
 2288SOL     OW 7762   6.559   5.387   4.952
 2288SOL    HW1 7763   6.543   5.334   4.869
 2288SOL    HW2 7764   6.475   5.390   5.006
 2289SOL     OW 7765   0.581   4.488   2.451
 2289SOL    HW1 7766   0.486   4.470   2.423
 2289SOL    HW2 7767   0.641   4.477   2.372
 2290SOL     OW 7768   1.578   4.507   1.890
 2290SOL    HW1 7769   1.600   4.410   1.898
 2290SOL    HW2 7770   1.560   4.545   1.981
 2291SOL     OW 7771   2.516   2.292   6.595
 2291SOL    HW1 7772   2.605   2.290   6.551
 2291SOL    HW2 7773   2.461   2.366   6.556
 2292SOL     OW 7774   5.867   2.259   4.383
 2292SOL    HW1 7775   5.829   2.197   4.451
 2292SOL    HW2 7776   5.961   2.232   4.361
 2293SOL     OW 7777   5.266   6.656   1.270
 2293SOL    HW1 7778   5.218   6.715   1.334
 2293SOL    HW2 7779   5.365   6.664   1.284
 2294SOL     OW 7780   3.056   1.171   6.585
 2294SOL    HW1 7781   3.100   1.161   6.496
 2294SOL    HW2 7782   2.960   1.195   6.573
 2295SOL     OW 7783   0.401   1.968   2.747
 2295SOL    HW1 7784   0.381   1.870   2.754
 2295SOL    HW2 7785   0.346   2.018   2.814
 2296SOL     OW 7786   3.585   6.000   2.032
 2296SOL    HW1 7787   3.555   6.027   2.123
 2296SOL    HW2 7788   3.505   5.987   1.973
 2297SOL     OW 7789   4.743   4.380   5.481
 2297SOL    HW1 7790   4.656   4.360   5.436
 2297SOL    HW2 7791   4.819   4.352   5.423
 2298SOL     OW 7792   4.183   3.353   1.896
 2298SOL    HW1 7793   4.189   3.451   1.915
 2298SOL    HW2 7794   4.098   3.317   1.934
 2299SOL     OW 7795   4.593   5.185   4.909
 2299SOL    HW1 7796   4.537   5.208   4.830
 2299SOL    HW2 7797   4.596   5.085   4.920
 2300SOL     OW 7798   2.236   6.067   1.981
 2300SOL    HW1 7799   2.291   6.144   1.947
 2300SOL    HW2 7800   2.146   6.100   2.008
 2301SOL     OW 7801   3.658   2.935   2.452
 2301SOL    HW1 7802   3.692   2.928   2.546
 2301SOL    HW2 7803   3.558   2.939   2.453
 2302SOL     OW 7804   3.437   6.993   1.016
 2302SOL    HW1 7805   3.511   6.926   1.029
 2302SOL    HW2 7806   3.458   0.034   0.936
 2303SOL     OW 7807   2.219   3.502   6.577
 2303SOL    HW1 7808   2.128   3.479   6.611
 2303SOL    HW2 7809   2.236   3.452   6.492
 2304SOL     OW 7810   5.053   6.545   3.923
 2304SOL    HW1 7811   5.149   6.570   3.929
 2304SOL    HW2 7812   5.011   6.555   4.014
 2305SOL     OW 7813   2.185   0.017   2.692
 2305SOL    HW1 7814   2.171   7.014   2.789
 2305SOL    HW2 7815   2.134   6.966   2.637
 2306SOL     OW 7816   2.588   4.930   1.794
 2306SOL    HW1 7817   2.512   4.892   1.740
 2306SOL    HW2 7818   2.552   4.975   1.875
 2307SOL     OW 7819   6.537   3.858   3.643
 2307SOL    HW1 7820   6.473   3.799   3.594
 2307SOL    HW2 7821   6.545   3.946   3.595
 2308SOL     OW 7822   1.622   4.931   1.401
 2308SOL    HW1 7823   1.617   5.019   1.448
 2308SOL    HW2 7824   1.674   4.941   1.316
 2309SOL     OW 7825   1.487   0.823   6.461
 2309SOL    HW1 7826   1.568   0.841   6.404
 2309SOL    HW2 7827   1.517   0.795   6.552
 2310SOL     OW 7828   5.461   6.192   0.312
 2310SOL    HW1 7829   5.466   6.097   0.344
 2310SOL    HW2 7830   5.392   6.199   0.240
 2311SOL     OW 7831   1.986   6.801   1.298
 2311SOL    HW1 7832   1.926   6.741   1.246
 2311SOL    HW2 7833   2.077   6.761   1.303
 2312SOL     OW 7834   3.801   6.110   2.813
 2312SOL    HW1 7835   3.781   6.176   2.740
 2312SOL    HW2 7836   3.744   6.130   2.892
 2313SOL     OW 7837   6.027   5.981   1.361
 2313SOL    HW1 7838   6.104   5.920   1.344
 2313SOL    HW2 7839   5.942   5.928   1.368
 2314SOL     OW 7840   5.495   6.803   3.846
 2314SOL    HW1 7841   5.522   6.711   3.819
 2314SOL    HW2 7842   5.573   6.864   3.839
 2315SOL     OW 7843   4.902   3.400   6.129
 2315SOL    HW1 7844   4.906   3.318   6.186
 2315SOL    HW2 7845   4.990   3.413   6.083
 2316SOL     OW 7846   3.609   1.080   4.322
 2316SOL    HW1 7847   3.551   1.151   4.282
 2316SOL    HW2 7848   3.665   1.038   4.250
 2317SOL     OW 7849   0.766   6.568   3.036
 2317SOL    HW1 7850   0.832   6.600   2.967
 2317SOL    HW2 7851   0.739   6.474   3.016
 2318SOL     OW 7852   1.925   2.832   4.057
 2318SOL    HW1 7853   1.982   2.778   4.120
 2318SOL    HW2 7854   1.886   2.909   4.106
 2319SOL     OW 7855   1.928   4.725   4.101
 2319SOL    HW1 7856   1.983   4.643   4.085
 2319SOL    HW2 7857   1.967   4.801   4.049
 2320SOL     OW 7858   0.760   2.101   4.847
 2320SOL    HW1 7859   0.686   2.124   4.911
 2320SOL    HW2 7860   0.785   2.005   4.859
 2321SOL     OW 7861   2.467   0.703   0.234
 2321SOL    HW1 7862   2.451   0.709   0.135
 2321SOL    HW2 7863   2.542   0.639   0.251
 2322SOL     OW 7864   3.267   1.316   4.427
 2322SOL    HW1 7865   3.221   1.374   4.360
 2322SOL    HW2 7866   3.202   1.250   4.466
 2323SOL     OW 7867   2.692   5.068   1.565
 2323SOL    HW1 7868   2.611   5.104   1.519
 2323SOL    HW2 7869   2.668   5.039   1.658
 2324SOL     OW 7870   6.645   6.956   1.678
 2324SOL    HW1 7871   6.658   6.929   1.583
 2324SOL    HW2 7872   6.549   6.944   1.704
 2325SOL     OW 7873   1.390   4.925   2.234
 2325SOL    HW1 7874   1.427   4.850   2.290
 2325SOL    HW2 7875   1.306   4.893   2.188
 2326SOL     OW 7876   3.080   6.240   5.533
 2326SOL    HW1 7877   3.006   6.197   5.583
 2326SOL    HW2 7878   3.167   6.217   5.576
 2327SOL     OW 7879   6.266   2.961   4.574
 2327SOL    HW1 7880   6.278   2.957   4.475
 2327SOL    HW2 7881   6.242   2.871   4.608
 2328SOL     OW 7882   3.238   1.724   2.573
 2328SOL    HW1 7883   3.239   1.730   2.673
 2328SOL    HW2 7884   3.315   1.776   2.536
 2329SOL     OW 7885   1.525   3.616   5.099
 2329SOL    HW1 7886   1.548   3.713   5.111
 2329SOL    HW2 7887   1.609   3.562   5.091
 2330SOL     OW 7888   0.942   3.564   1.812
 2330SOL    HW1 7889   1.027   3.513   1.817
 2330SOL    HW2 7890   0.914   3.592   1.904
 2331SOL     OW 7891   5.700   4.853   1.151
 2331SOL    HW1 7892   5.734   4.857   1.245
 2331SOL    HW2 7893   5.701   4.758   1.119
 2332SOL     OW 7894   4.747   1.648   4.902
 2332SOL    HW1 7895   4.820   1.599   4.949
 2332SOL    HW2 7896   4.721   1.728   4.956
 2333SOL     OW 7897   0.529   5.445   2.959
 2333SOL    HW1 7898   0.517   5.362   2.905
 2333SOL    HW2 7899   0.557   5.520   2.899
 2334SOL     OW 7900   2.272   0.108   6.929
 2334SOL    HW1 7901   2.355   0.129   6.981
 2334SOL    HW2 7902   2.216   0.044   6.981
 2335SOL     OW 7903   6.053   1.633   2.618
 2335SOL    HW1 7904   6.013   1.577   2.691
 2335SOL    HW2 7905   6.152   1.639   2.632
 2336SOL     OW 7906   4.435   1.940   4.548
 2336SOL    HW1 7907   4.397   1.949   4.456
 2336SOL    HW2 7908   4.386   1.868   4.597
 2337SOL     OW 7909   3.981   1.123   3.185
 2337SOL    HW1 7910   3.959   1.101   3.090
 2337SOL    HW2 7911   3.965   1.042   3.242
 2338SOL     OW 7912   0.913   1.825   5.901
 2338SOL    HW1 7913   1.012   1.838   5.913
 2338SOL    HW2 7914   0.879   1.889   5.833
 2339SOL     OW 7915   3.810   3.954   4.967
 2339SOL    HW1 7916   3.759   3.869   4.954
 2339SOL    HW2 7917   3.903   3.933   4.997
 2340SOL     OW 7918   5.092   4.881   0.011
 2340SOL    HW1 7919   5.058   4.800   6.979
 2340SOL    HW2 7920   5.080   4.961   6.968
 2341SOL     OW 7921   5.423   4.155   1.184
 2341SOL    HW1 7922   5.448   4.151   1.281
 2341SOL    HW2 7923   5.504   4.178   1.130
 2342SOL     OW 7924   0.570   6.405   5.198
 2342SOL    HW1 7925   0.638   6.379   5.129
 2342SOL    HW2 7926   0.579   6.502   5.218
 2343SOL     OW 7927   1.624   6.149   2.683
 2343SOL    HW1 7928   1.721   6.153   2.707
 2343SOL    HW2 7929   1.586   6.061   2.711
 2344SOL     OW 7930   1.687   0.922   1.154
 2344SOL    HW1 7931   1.749   0.944   1.229
 2344SOL    HW2 7932   1.684   0.999   1.090
 2345SOL     OW 7933   3.264   5.310   5.773
 2345SOL    HW1 7934   3.177   5.265   5.795
 2345SOL    HW2 7935   3.303   5.350   5.856
 2346SOL     OW 7936   4.665   2.813   4.947
 2346SOL    HW1 7937   4.695   2.904   4.973
 2346SOL    HW2 7938   4.628   2.815   4.855
 2347SOL     OW 7939   2.587   3.379   1.779
 2347SOL    HW1 7940   2.654   3.416   1.842
 2347SOL    HW2 7941   2.497   3.418   1.798
 2348SOL     OW 7942   3.889   6.102   3.168
 2348SOL    HW1 7943   3.954   6.148   3.229
 2348SOL    HW2 7944   3.830   6.170   3.124
 2349SOL     OW 7945   0.428   4.757   5.921
 2349SOL    HW1 7946   0.393   4.793   5.835
 2349SOL    HW2 7947   0.513   4.804   5.944
 2350SOL     OW 7948   5.726   6.962   6.608
 2350SOL    HW1 7949   5.716   0.005   6.689
 2350SOL    HW2 7950   5.765   0.001   6.533
 2351SOL     OW 7951   3.258   5.098   2.271
 2351SOL    HW1 7952   3.219   5.188   2.290
 2351SOL    HW2 7953   3.252   5.042   2.353
 2352SOL     OW 7954   0.860   3.391   2.078
 2352SOL    HW1 7955   0.900   3.435   2.159
 2352SOL    HW2 7956   0.783   3.446   2.045
 2353SOL     OW 7957   3.200   4.674   5.411
 2353SOL    HW1 7958   3.164   4.582   5.392
 2353SOL    HW2 7959   3.186   4.695   5.508
 2354SOL     OW 7960   3.190   1.905   6.279
 2354SOL    HW1 7961   3.251   1.980   6.304
 2354SOL    HW2 7962   3.228   1.857   6.199
 2355SOL     OW 7963   1.380   5.730   6.686
 2355SOL    HW1 7964   1.387   5.697   6.780
 2355SOL    HW2 7965   1.330   5.664   6.631
 2356SOL     OW 7966   2.231   4.068   0.209
 2356SOL    HW1 7967   2.315   4.122   0.206
 2356SOL    HW2 7968   2.243   3.984   0.156
 2357SOL     OW 7969   4.338   5.213   3.862
 2357SOL    HW1 7970   4.389   5.138   3.820
 2357SOL    HW2 7971   4.311   5.188   3.955
 2358SOL     OW 7972   2.646   5.255   5.479
 2358SOL    HW1 7973   2.599   5.325   5.533
 2358SOL    HW2 7974   2.605   5.166   5.498
 2359SOL     OW 7975   0.053   0.882   5.559
 2359SOL    HW1 7976   0.132   0.923   5.513
 2359SOL    HW2 7977   0.085   0.824   5.634
 2360SOL     OW 7978   5.339   6.328   6.030
 2360SOL    HW1 7979   5.247   6.327   5.990
 2360SOL    HW2 7980   5.337   6.382   6.115
 2361SOL     OW 7981   3.118   0.540   5.316
 2361SOL    HW1 7982   3.133   0.636   5.290
 2361SOL    HW2 7983   3.171   0.519   5.398
 2362SOL     OW 7984   2.784   0.645   5.507
 2362SOL    HW1 7985   2.869   0.673   5.552
 2362SOL    HW2 7986   2.805   0.601   5.419
 2363SOL     OW 7987   3.934   2.534   5.646
 2363SOL    HW1 7988   4.030   2.519   5.626
 2363SOL    HW2 7989   3.906   2.474   5.721
 2364SOL     OW 7990   0.364   2.630   2.878
 2364SOL    HW1 7991   0.433   2.563   2.906
 2364SOL    HW2 7992   0.340   2.614   2.782
 2365SOL     OW 7993   6.317   2.527   5.885
 2365SOL    HW1 7994   6.395   2.570   5.930
 2365SOL    HW2 7995   6.233   2.570   5.917
 2366SOL     OW 7996   1.417   4.873   5.723
 2366SOL    HW1 7997   1.478   4.848   5.648
 2366SOL    HW2 7998   1.337   4.921   5.688
 2367SOL     OW 7999   3.742   4.018   6.991
 2367SOL    HW1 8000   3.681   4.062   6.925
 2367SOL    HW2 8001   3.696   4.009   0.064
 2368SOL     OW 8002   5.017   0.124   3.309
 2368SOL    HW1 8003   4.927   0.106   3.350
 2368SOL    HW2 8004   5.040   0.221   3.319
 2369SOL     OW 8005   1.926   2.772   5.239
 2369SOL    HW1 8006   1.981   2.855   5.232
 2369SOL    HW2 8007   1.944   2.713   5.160
 2370SOL     OW 8008   5.081   3.804   6.784
 2370SOL    HW1 8009   5.115   3.809   6.690
 2370SOL    HW2 8010   4.985   3.834   6.786
 2371SOL     OW 8011   1.343   6.010   1.702
 2371SOL    HW1 8012   1.312   5.932   1.757
 2371SOL    HW2 8013   1.393   5.976   1.622
 2372SOL     OW 8014   0.408   2.231   1.541
 2372SOL    HW1 8015   0.473   2.294   1.584
 2372SOL    HW2 8016   0.433   2.218   1.446
 2373SOL     OW 8017   6.516   6.736   0.272
 2373SOL    HW1 8018   6.498   6.827   0.234
 2373SOL    HW2 8019   6.592   6.741   0.336
 2374SOL     OW 8020   6.216   0.949   3.957
 2374SOL    HW1 8021   6.231   1.015   4.031
 2374SOL    HW2 8022   6.214   0.996   3.869
 2375SOL     OW 8023   2.190   6.774   4.763
 2375SOL    HW1 8024   2.097   6.810   4.771
 2375SOL    HW2 8025   2.205   6.741   4.669
 2376SOL     OW 8026   5.862   2.128   3.795
 2376SOL    HW1 8027   5.890   2.224   3.799
 2376SOL    HW2 8028   5.878   2.085   3.884
 2377SOL     OW 8029   3.410   4.127   3.093
 2377SOL    HW1 8030   3.508   4.113   3.104
 2377SOL    HW2 8031   3.391   4.154   2.998
 2378SOL     OW 8032   5.064   2.456   6.864
 2378SOL    HW1 8033   5.105   2.379   6.815
 2378SOL    HW2 8034   4.968   2.435   6.883
 2379SOL     OW 8035   6.394   1.509   6.407
 2379SOL    HW1 8036   6.375   1.575   6.334
 2379SOL    HW2 8037   6.325   1.518   6.479
 2380SOL     OW 8038   6.685   6.519   5.926
 2380SOL    HW1 8039   6.677   6.607   5.972
 2380SOL    HW2 8040   6.595   6.476   5.920
 2381SOL     OW 8041   2.234   4.041   4.006
 2381SOL    HW1 8042   2.163   3.989   3.959
 2381SOL    HW2 8043   2.323   4.022   3.965
 2382SOL     OW 8044   2.271   4.996   3.247
 2382SOL    HW1 8045   2.231   4.998   3.339
 2382SOL    HW2 8046   2.259   5.085   3.203
 2383SOL     OW 8047   5.173   5.990   6.995
 2383SOL    HW1 8048   5.166   6.005   0.078
 2383SOL    HW2 8049   5.183   5.892   6.977
 2384SOL     OW 8050   0.341   6.838   2.184
 2384SOL    HW1 8051   0.379   6.843   2.277
 2384SOL    HW2 8052   0.406   6.877   2.119
 2385SOL     OW 8053   6.350   6.664   1.501
 2385SOL    HW1 8054   6.260   6.624   1.522
 2385SOL    HW2 8055   6.338   6.741   1.438
 2386SOL     OW 8056   5.342   4.604   4.372
 2386SOL    HW1 8057   5.431   4.561   4.361
 2386SOL    HW2 8058   5.281   4.544   4.424
 2387SOL     OW 8059   0.108   1.952   3.441
 2387SOL    HW1 8060   0.178   2.008   3.485
 2387SOL    HW2 8061   0.054   2.009   3.379
 2388SOL     OW 8062   1.291   2.164   3.971
 2388SOL    HW1 8063   1.314   2.223   4.049
 2388SOL    HW2 8064   1.349   2.083   3.972
 2389SOL     OW 8065   5.472   3.245   3.738
 2389SOL    HW1 8066   5.488   3.301   3.656
 2389SOL    HW2 8067   5.544   3.263   3.805
 2390SOL     OW 8068   3.358   3.719   4.307
 2390SOL    HW1 8069   3.393   3.782   4.238
 2390SOL    HW2 8070   3.373   3.757   4.398
 2391SOL     OW 8071   4.542   4.401   5.762
 2391SOL    HW1 8072   4.632   4.403   5.719
 2391SOL    HW2 8073   4.482   4.338   5.713
 2392SOL     OW 8074   3.381   6.725   5.222
 2392SOL    HW1 8075   3.461   6.746   5.166
 2392SOL    HW2 8076   3.381   6.628   5.246
 2393SOL     OW 8077   3.945   5.130   0.710
 2393SOL    HW1 8078   3.915   5.189   0.636
 2393SOL    HW2 8079   4.045   5.126   0.712
 2394SOL     OW 8080   1.630   2.977   4.899
 2394SOL    HW1 8081   1.609   2.959   4.802
 2394SOL    HW2 8082   1.585   3.062   4.927
 2395SOL     OW 8083   6.163   2.847   0.282
 2395SOL    HW1 8084   6.222   2.771   0.309
 2395SOL    HW2 8085   6.079   2.811   0.241
 2396SOL     OW 8086   4.208   5.946   0.062
 2396SOL    HW1 8087   4.165   5.998   7.004
 2396SOL    HW2 8088   4.138   5.916   0.127
 2397SOL     OW 8089   0.069   3.621   0.361
 2397SOL    HW1 8090   7.012   3.603   0.428
 2397SOL    HW2 8091   0.128   3.694   0.395
 2398SOL     OW 8092   3.052   4.328   6.213
 2398SOL    HW1 8093   3.082   4.393   6.283
 2398SOL    HW2 8094   3.099   4.241   6.227
 2399SOL     OW 8095   4.832   1.248   2.311
 2399SOL    HW1 8096   4.785   1.218   2.394
 2399SOL    HW2 8097   4.917   1.197   2.300
 2400SOL     OW 8098   4.040   4.928   0.493
 2400SOL    HW1 8099   4.023   4.943   0.590
 2400SOL    HW2 8100   4.105   4.853   0.481
 2401SOL     OW 8101   3.944   0.639   6.263
 2401SOL    HW1 8102   3.887   0.559   6.279
 2401SOL    HW2 8103   3.928   0.706   6.336
 2402SOL     OW 8104   0.556   1.998   4.090
 2402SOL    HW1 8105   0.643   2.034   4.125
 2402SOL    HW2 8106   0.522   1.927   4.152
 2403SOL     OW 8107   2.875   2.871   0.118
 2403SOL    HW1 8108   2.780   2.886   0.142
 2403SOL    HW2 8109   2.916   2.957   0.088
 2404SOL     OW 8110   5.822   0.532   2.041
 2404SOL    HW1 8111   5.883   0.539   1.962
 2404SOL    HW2 8112   5.868   0.571   2.121
 2405SOL     OW 8113   3.108   3.593   3.625
 2405SOL    HW1 8114   3.040   3.652   3.667
 2405SOL    HW2 8115   3.105   3.604   3.525
 2406SOL     OW 8116   1.673   0.307   3.742
 2406SOL    HW1 8117   1.637   0.317   3.649
 2406SOL    HW2 8118   1.626   0.371   3.803
 2407SOL     OW 8119   4.818   2.930   2.793
 2407SOL    HW1 8120   4.761   2.857   2.753
 2407SOL    HW2 8121   4.848   2.901   2.884
 2408SOL     OW 8122   2.983   4.802   2.384
 2408SOL    HW1 8123   3.070   4.851   2.379
 2408SOL    HW2 8124   2.966   4.755   2.298
 2409SOL     OW 8125   1.984   2.562   1.958
 2409SOL    HW1 8126   2.037   2.618   1.894
 2409SOL    HW2 8127   2.046   2.519   2.024
 2410SOL     OW 8128   5.146   2.791   6.102
 2410SOL    HW1 8129   5.204   2.783   6.021
 2410SOL    HW2 8130   5.140   2.887   6.129
 2411SOL     OW 8131   4.473   5.525   5.503
 2411SOL    HW1 8132   4.408   5.570   5.443
 2411SOL    HW2 8133   4.473   5.570   5.592
 2412SOL     OW 8134   2.778   4.160   6.957
 2412SOL    HW1 8135   2.837   4.232   6.920
 2412SOL    HW2 8136   2.772   4.085   6.891
 2413SOL     OW 8137   6.422   2.824   6.889
 2413SOL    HW1 8138   6.384   2.899   6.835
 2413SOL    HW2 8139   6.514   2.802   6.855
 2414SOL     OW 8140   6.005   4.345   2.243
 2414SOL    HW1 8141   6.020   4.307   2.152
 2414SOL    HW2 8142   6.076   4.413   2.262
 2415SOL     OW 8143   0.731   6.815   0.980
 2415SOL    HW1 8144   0.715   6.761   0.897
 2415SOL    HW2 8145   0.747   6.754   1.058
 2416SOL     OW 8146   3.164   2.028   5.152
 2416SOL    HW1 8147   3.156   2.116   5.106
 2416SOL    HW2 8148   3.249   1.983   5.123
 2417SOL     OW 8149   4.220   2.671   6.431
 2417SOL    HW1 8150   4.212   2.713   6.340
 2417SOL    HW2 8151   4.309   2.627   6.438
 2418SOL     OW 8152   2.935   3.464   3.173
 2418SOL    HW1 8153   2.914   3.416   3.088
 2418SOL    HW2 8154   2.907   3.409   3.251
 2419SOL     OW 8155   0.729   6.418   3.535
 2419SOL    HW1 8156   0.745   6.391   3.440
 2419SOL    HW2 8157   0.644   6.471   3.540
 2420SOL     OW 8158   3.477   1.080   2.386
 2420SOL    HW1 8159   3.439   1.150   2.325
 2420SOL    HW2 8160   3.576   1.089   2.389
 2421SOL     OW 8161   2.631   1.187   5.261
 2421SOL    HW1 8162   2.658   1.114   5.325
 2421SOL    HW2 8163   2.689   1.182   5.180
 2422SOL     OW 8164   5.231   0.309   1.784
 2422SOL    HW1 8165   5.201   0.317   1.689
 2422SOL    HW2 8166   5.317   0.360   1.796
 2423SOL     OW 8167   1.794   5.805   3.764
 2423SOL    HW1 8168   1.820   5.734   3.830
 2423SOL    HW2 8169   1.733   5.765   3.695
 2424SOL     OW 8170   5.592   6.288   5.929
 2424SOL    HW1 8171   5.582   6.286   5.829
 2424SOL    HW2 8172   5.504   6.312   5.970
 2425SOL     OW 8173   6.071   0.202   4.264
 2425SOL    HW1 8174   6.145   0.227   4.327
 2425SOL    HW2 8175   5.991   0.260   4.283
 2426SOL     OW 8176   0.782   4.551   3.959
 2426SOL    HW1 8177   0.744   4.643   3.971
 2426SOL    HW2 8178   0.767   4.520   3.865
 2427SOL     OW 8179   6.422   5.265   6.400
 2427SOL    HW1 8180   6.358   5.296   6.330
 2427SOL    HW2 8181   6.375   5.203   6.463
 2428SOL     OW 8182   0.015   7.007   3.403
 2428SOL    HW1 8183   6.973   6.929   3.378
 2428SOL    HW2 8184   0.111   6.979   3.400
 2429SOL     OW 8185   6.519   6.110   4.321
 2429SOL    HW1 8186   6.455   6.046   4.362
 2429SOL    HW2 8187   6.588   6.060   4.269
 2430SOL     OW 8188   6.000   2.246   1.914
 2430SOL    HW1 8189   5.981   2.291   1.827
 2430SOL    HW2 8190   6.087   2.278   1.950
 2431SOL     OW 8191   3.567   0.072   1.870
 2431SOL    HW1 8192   3.550   0.050   1.966
 2431SOL    HW2 8193   3.661   0.105   1.860
 2432SOL     OW 8194   3.792   6.642   3.189
 2432SOL    HW1 8195   3.840   6.715   3.140
 2432SOL    HW2 8196   3.714   6.611   3.134
 2433SOL     OW 8197   3.087   6.635   0.800
 2433SOL    HW1 8198   3.007   6.582   0.773
 2433SOL    HW2 8199   3.060   6.703   0.868
 2434SOL     OW 8200   4.025   1.393   3.292
 2434SOL    HW1 8201   4.122   1.387   3.315
 2434SOL    HW2 8202   3.994   1.305   3.255
 2435SOL     OW 8203   4.897   5.592   5.607
 2435SOL    HW1 8204   4.858   5.682   5.588
 2435SOL    HW2 8205   4.830   5.521   5.586
 2436SOL     OW 8206   1.647   6.999   0.648
 2436SOL    HW1 8207   1.586   6.926   0.678
 2436SOL    HW2 8208   1.597   0.045   0.586
 2437SOL     OW 8209   3.720   5.448   0.744
 2437SOL    HW1 8210   3.736   5.483   0.837
 2437SOL    HW2 8211   3.622   5.444   0.727
 2438SOL     OW 8212   3.847   1.480   5.567
 2438SOL    HW1 8213   3.815   1.516   5.480
 2438SOL    HW2 8214   3.848   1.554   5.635
 2439SOL     OW 8215   1.244   4.331   0.157
 2439SOL    HW1 8216   1.218   4.240   0.189
 2439SOL    HW2 8217   1.337   4.352   0.187
 2440SOL     OW 8218   3.599   6.513   5.223
 2440SOL    HW1 8219   3.688   6.470   5.243
 2440SOL    HW2 8220   3.588   6.520   5.124
 2441SOL     OW 8221   6.156   0.636   0.079
 2441SOL    HW1 8222   6.145   0.656   0.177
 2441SOL    HW2 8223   6.093   0.694   0.027
 2442SOL     OW 8224   0.191   5.876   3.789
 2442SOL    HW1 8225   0.263   5.859   3.722
 2442SOL    HW2 8226   0.214   5.830   3.875
 2443SOL     OW 8227   3.398   6.647   6.332
 2443SOL    HW1 8228   3.320   6.594   6.364
 2443SOL    HW2 8229   3.443   6.692   6.409
 2444SOL     OW 8230   3.718   4.283   6.378
 2444SOL    HW1 8231   3.770   4.290   6.293
 2444SOL    HW2 8232   3.771   4.322   6.453
 2445SOL     OW 8233   6.647   1.146   2.274
 2445SOL    HW1 8234   6.743   1.162   2.298
 2445SOL    HW2 8235   6.608   1.077   2.336
 2446SOL     OW 8236   0.321   3.240   4.422
 2446SOL    HW1 8237   0.350   3.145   4.410
 2446SOL    HW2 8238   0.269   3.269   4.342
 2447SOL     OW 8239   2.384   1.133   1.081
 2447SOL    HW1 8240   2.378   1.088   1.170
 2447SOL    HW2 8241   2.472   1.113   1.039
 2448SOL     OW 8242   0.860   0.311   4.664
 2448SOL    HW1 8243   0.852   0.224   4.713
 2448SOL    HW2 8244   0.784   0.320   4.599
 2449SOL     OW 8245   0.115   4.160   2.305
 2449SOL    HW1 8246   0.017   4.152   2.286
 2449SOL    HW2 8247   0.155   4.229   2.244
 2450SOL     OW 8248   2.842   4.761   4.354
 2450SOL    HW1 8249   2.930   4.801   4.328
 2450SOL    HW2 8250   2.855   4.698   4.431
 2451SOL     OW 8251   0.143   6.930   4.254
 2451SOL    HW1 8252   0.071   6.918   4.186
 2451SOL    HW2 8253   0.198   7.010   4.231
 2452SOL     OW 8254   2.957   2.250   3.155
 2452SOL    HW1 8255   2.893   2.217   3.085
 2452SOL    HW2 8256   2.906   2.302   3.224
 2453SOL     OW 8257   6.945   3.372   0.731
 2453SOL    HW1 8258   6.917   3.457   0.776
 2453SOL    HW2 8259   0.027   3.377   0.708
 2454SOL     OW 8260   3.470   0.758   0.005
 2454SOL    HW1 8261   3.482   0.752   6.922
 2454SOL    HW2 8262   3.556   0.790   0.047
 2455SOL     OW 8263   5.285   6.954   0.821
 2455SOL    HW1 8264   5.277   6.888   0.895
 2455SOL    HW2 8265   5.369   7.008   0.834
 2456SOL     OW 8266   5.651   1.044   6.717
 2456SOL    HW1 8267   5.578   0.979   6.697
 2456SOL    HW2 8268   5.731   1.023   6.660
 2457SOL     OW 8269   5.876   6.171   6.642
 2457SOL    HW1 8270   5.791   6.144   6.686
 2457SOL    HW2 8271   5.861   6.187   6.545
 2458SOL     OW 8272   2.163   5.800   3.982
 2458SOL    HW1 8273   2.222   5.829   3.907
 2458SOL    HW2 8274   2.215   5.802   4.068
 2459SOL     OW 8275   2.666   6.229   0.359
 2459SOL    HW1 8276   2.729   6.287   0.307
 2459SOL    HW2 8277   2.631   6.280   0.437
 2460SOL     OW 8278   1.958   1.348   1.691
 2460SOL    HW1 8279   1.876   1.295   1.710
 2460SOL    HW2 8280   1.939   1.445   1.704
 2461SOL     OW 8281   4.256   0.213   3.047
 2461SOL    HW1 8282   4.247   0.279   3.122
 2461SOL    HW2 8283   4.285   0.261   2.964
 2462SOL     OW 8284   2.741   5.297   6.924
 2462SOL    HW1 8285   2.643   5.308   6.904
 2462SOL    HW2 8286   2.793   5.363   6.869
 2463SOL     OW 8287   6.232   2.672   4.073
 2463SOL    HW1 8288   6.286   2.606   4.022
 2463SOL    HW2 8289   6.197   2.742   4.011
 2464SOL     OW 8290   1.846   3.999   1.526
 2464SOL    HW1 8291   1.858   3.901   1.511
 2464SOL    HW2 8292   1.892   4.050   1.453
 2465SOL     OW 8293   0.733   6.901   1.625
 2465SOL    HW1 8294   0.758   6.996   1.604
 2465SOL    HW2 8295   0.797   6.864   1.692
 2466SOL     OW 8296   2.955   1.415   1.933
 2466SOL    HW1 8297   2.991   1.361   1.857
 2466SOL    HW2 8298   2.872   1.463   1.904
 2467SOL     OW 8299   5.695   1.528   5.064
 2467SOL    HW1 8300   5.596   1.544   5.071
 2467SOL    HW2 8301   5.713   1.464   4.989
 2468SOL     OW 8302   5.708   6.063   2.410
 2468SOL    HW1 8303   5.741   6.017   2.327
 2468SOL    HW2 8304   5.786   6.084   2.470
 2469SOL     OW 8305   3.998   4.554   5.329
 2469SOL    HW1 8306   3.950   4.477   5.288
 2469SOL    HW2 8307   4.096   4.545   5.312
 2470SOL     OW 8308   3.638   4.511   6.183
 2470SOL    HW1 8309   3.643   4.486   6.280
 2470SOL    HW2 8310   3.548   4.485   6.147
 2471SOL     OW 8311   2.220   6.298   0.564
 2471SOL    HW1 8312   2.217   6.341   0.655
 2471SOL    HW2 8313   2.137   6.323   0.513
 2472SOL     OW 8314   4.409   2.097   3.713
 2472SOL    HW1 8315   4.331   2.121   3.772
 2472SOL    HW2 8316   4.492   2.095   3.768
 2473SOL     OW 8317   2.088   4.219   4.980
 2473SOL    HW1 8318   1.998   4.178   4.970
 2473SOL    HW2 8319   2.157   4.147   4.983
 2474SOL     OW 8320   0.614   5.544   0.657
 2474SOL    HW1 8321   0.528   5.581   0.623
 2474SOL    HW2 8322   0.689   5.606   0.633
 2475SOL     OW 8323   5.146   1.278   1.048
 2475SOL    HW1 8324   5.090   1.242   0.973
 2475SOL    HW2 8325   5.134   1.221   1.129
 2476SOL     OW 8326   0.804   2.828   3.611
 2476SOL    HW1 8327   0.739   2.781   3.671
 2476SOL    HW2 8328   0.833   2.913   3.655
 2477SOL     OW 8329   5.406   1.061   2.443
 2477SOL    HW1 8330   5.345   1.139   2.429
 2477SOL    HW2 8331   5.391   0.993   2.370
 2478SOL     OW 8332   5.717   0.367   2.266
 2478SOL    HW1 8333   5.738   0.430   2.191
 2478SOL    HW2 8334   5.619   0.344   2.263
 2479SOL     OW 8335   1.615   3.842   1.180
 2479SOL    HW1 8336   1.562   3.888   1.110
 2479SOL    HW2 8337   1.599   3.886   1.269
 2480SOL     OW 8338   5.966   4.634   0.877
 2480SOL    HW1 8339   6.045   4.695   0.870
 2480SOL    HW2 8340   5.889   4.676   0.829
 2481SOL     OW 8341   2.563   0.145   0.459
 2481SOL    HW1 8342   2.650   0.115   0.419
 2481SOL    HW2 8343   2.538   0.234   0.422
 2482SOL     OW 8344   4.895   2.848   5.746
 2482SOL    HW1 8345   4.931   2.917   5.808
 2482SOL    HW2 8346   4.824   2.795   5.792
 2483SOL     OW 8347   2.158   1.342   6.791
 2483SOL    HW1 8348   2.106   1.427   6.781
 2483SOL    HW2 8349   2.256   1.363   6.793
 2484SOL     OW 8350   2.029   0.637   0.375
 2484SOL    HW1 8351   1.947   0.624   0.319
 2484SOL    HW2 8352   2.100   0.572   0.347
 2485SOL     OW 8353   4.646   4.638   2.139
 2485SOL    HW1 8354   4.657   4.545   2.174
 2485SOL    HW2 8355   4.685   4.703   2.204
 2486SOL     OW 8356   3.469   5.264   3.409
 2486SOL    HW1 8357   3.553   5.254   3.463
 2486SOL    HW2 8358   3.390   5.266   3.471
 2487SOL     OW 8359   4.076   5.368   6.743
 2487SOL    HW1 8360   3.979   5.374   6.717
 2487SOL    HW2 8361   4.128   5.327   6.669
 2488SOL     OW 8362   2.014   4.179   2.681
 2488SOL    HW1 8363   1.961   4.223   2.754
 2488SOL    HW2 8364   1.999   4.227   2.595
 2489SOL     OW 8365   2.297   5.939   3.593
 2489SOL    HW1 8366   2.338   5.876   3.659
 2489SOL    HW2 8367   2.368   5.979   3.535
 2490SOL     OW 8368   6.586   5.615   0.892
 2490SOL    HW1 8369   6.678   5.602   0.929
 2490SOL    HW2 8370   6.579   5.571   0.803
 2491SOL     OW 8371   2.629   6.397   1.237
 2491SOL    HW1 8372   2.594   6.432   1.324
 2491SOL    HW2 8373   2.687   6.467   1.194
 2492SOL     OW 8374   4.441   3.210   6.713
 2492SOL    HW1 8375   4.504   3.256   6.650
 2492SOL    HW2 8376   4.368   3.273   6.739
 2493SOL     OW 8377   5.679   0.108   2.779
 2493SOL    HW1 8378   5.618   0.042   2.734
 2493SOL    HW2 8379   5.758   0.126   2.720
 2494SOL     OW 8380   5.808   3.509   2.603
 2494SOL    HW1 8381   5.718   3.547   2.583
 2494SOL    HW2 8382   5.842   3.459   2.523
 2495SOL     OW 8383   4.922   0.031   4.649
 2495SOL    HW1 8384   4.912   6.995   4.734
 2495SOL    HW2 8385   4.841   0.020   4.592
 2496SOL     OW 8386   0.631   4.724   6.262
 2496SOL    HW1 8387   0.626   4.631   6.299
 2496SOL    HW2 8388   0.714   4.734   6.207
 2497SOL     OW 8389   0.376   1.307   1.020
 2497SOL    HW1 8390   0.407   1.357   1.101
 2497SOL    HW2 8391   0.408   1.212   1.025
 2498SOL     OW 8392   3.037   2.210   3.511
 2498SOL    HW1 8393   3.128   2.240   3.484
 2498SOL    HW2 8394   3.014   2.124   3.464
 2499SOL     OW 8395   5.056   2.010   4.289
 2499SOL    HW1 8396   5.154   2.015   4.269
 2499SOL    HW2 8397   5.021   1.920   4.262
 2500SOL     OW 8398   4.239   3.356   5.826
 2500SOL    HW1 8399   4.300   3.325   5.754
 2500SOL    HW2 8400   4.259   3.452   5.848
 2501SOL     OW 8401   0.456   5.999   6.866
 2501SOL    HW1 8402   0.525   5.936   6.902
 2501SOL    HW2 8403   0.468   6.010   6.768
 2502SOL     OW 8404   2.490   6.043   3.418
 2502SOL    HW1 8405   2.505   6.001   3.329
 2502SOL    HW2 8406   2.496   6.143   3.410
 2503SOL     OW 8407   3.495   5.699   6.157
 2503SOL    HW1 8408   3.480   5.655   6.069
 2503SOL    HW2 8409   3.458   5.792   6.154
 2504SOL     OW 8410   3.347   5.472   5.551
 2504SOL    HW1 8411   3.339   5.406   5.625
 2504SOL    HW2 8412   3.264   5.528   5.548
 2505SOL     OW 8413   1.872   6.437   4.289
 2505SOL    HW1 8414   1.830   6.373   4.225
 2505SOL    HW2 8415   1.886   6.391   4.377
 2506SOL     OW 8416   6.103   3.302   6.127
 2506SOL    HW1 8417   6.044   3.344   6.058
 2506SOL    HW2 8418   6.051   3.290   6.212
 2507SOL     OW 8419   0.152   3.906   0.492
 2507SOL    HW1 8420   0.172   3.941   0.401
 2507SOL    HW2 8421   0.133   3.982   0.554
 2508SOL     OW 8422   2.959   1.169   2.504
 2508SOL    HW1 8423   2.999   1.210   2.423
 2508SOL    HW2 8424   2.872   1.214   2.525
 2509SOL     OW 8425   5.942   3.089   2.905
 2509SOL    HW1 8426   5.870   3.021   2.888
 2509SOL    HW2 8427   5.958   3.096   3.003
 2510SOL     OW 8428   3.493   4.645   1.360
 2510SOL    HW1 8429   3.531   4.619   1.271
 2510SOL    HW2 8430   3.568   4.662   1.424
 2511SOL     OW 8431   2.276   2.239   4.454
 2511SOL    HW1 8432   2.185   2.232   4.496
 2511SOL    HW2 8433   2.316   2.148   4.447
 2512SOL     OW 8434   5.186   5.391   5.577
 2512SOL    HW1 8435   5.128   5.328   5.629
 2512SOL    HW2 8436   5.168   5.485   5.606
 2513SOL     OW 8437   1.175   3.186   5.378
 2513SOL    HW1 8438   1.195   3.227   5.288
 2513SOL    HW2 8439   1.076   3.179   5.390
 2514SOL     OW 8440   6.689   3.668   4.362
 2514SOL    HW1 8441   6.596   3.641   4.384
 2514SOL    HW2 8442   6.705   3.654   4.264
 2515SOL     OW 8443   1.265   0.044   0.803
 2515SOL    HW1 8444   1.338   0.106   0.832
 2515SOL    HW2 8445   1.197   0.095   0.751
 2516SOL     OW 8446   5.813   6.853   3.393
 2516SOL    HW1 8447   5.716   6.853   3.368
 2516SOL    HW2 8448   5.864   6.908   3.327
 2517SOL     OW 8449   1.661   5.500   5.537
 2517SOL    HW1 8450   1.702   5.463   5.620
 2517SOL    HW2 8451   1.722   5.568   5.496
 2518SOL     OW 8452   2.151   3.014   0.065
 2518SOL    HW1 8453   2.236   3.022   0.012
 2518SOL    HW2 8454   2.145   2.922   0.103
 2519SOL     OW 8455   5.051   5.421   4.401
 2519SOL    HW1 8456   5.083   5.504   4.355
 2519SOL    HW2 8457   5.040   5.439   4.499
 2520SOL     OW 8458   1.187   2.781   0.888
 2520SOL    HW1 8459   1.216   2.712   0.954
 2520SOL    HW2 8460   1.189   2.743   0.796
 2521SOL     OW 8461   1.047   6.383   5.604
 2521SOL    HW1 8462   0.963   6.335   5.628
 2521SOL    HW2 8463   1.104   6.393   5.685
 2522SOL     OW 8464   0.900   3.089   6.042
 2522SOL    HW1 8465   0.953   3.171   6.019
 2522SOL    HW2 8466   0.902   3.025   5.966
 2523SOL     OW 8467   0.455   3.190   1.077
 2523SOL    HW1 8468   0.510   3.202   0.994
 2523SOL    HW2 8469   0.456   3.275   1.129
 2524SOL     OW 8470   0.761   6.004   4.116
 2524SOL    HW1 8471   0.749   5.998   4.215
 2524SOL    HW2 8472   0.720   6.088   4.082
 2525SOL     OW 8473   1.181   2.693   4.745
 2525SOL    HW1 8474   1.260   2.665   4.800
 2525SOL    HW2 8475   1.097   2.671   4.795
 2526SOL     OW 8476   1.219   3.950   5.859
 2526SOL    HW1 8477   1.266   4.007   5.926
 2526SOL    HW2 8478   1.235   3.853   5.879
 2527SOL     OW 8479   4.636   0.002   4.768
 2527SOL    HW1 8480   4.654   0.018   4.672
 2527SOL    HW2 8481   4.551   6.966   4.778
 2528SOL     OW 8482   6.094   4.652   1.125
 2528SOL    HW1 8483   6.041   4.632   1.043
 2528SOL    HW2 8484   6.143   4.738   1.113
 2529SOL     OW 8485   6.055   5.745   5.907
 2529SOL    HW1 8486   5.972   5.719   5.957
 2529SOL    HW2 8487   6.105   5.663   5.880
 2530SOL     OW 8488   1.094   5.862   4.718
 2530SOL    HW1 8489   1.111   5.786   4.656
 2530SOL    HW2 8490   1.017   5.917   4.683
 2531SOL     OW 8491   5.623   5.593   4.385
 2531SOL    HW1 8492   5.665   5.680   4.359
 2531SOL    HW2 8493   5.604   5.593   4.483
 2532SOL     OW 8494   0.677   6.040   0.887
 2532SOL    HW1 8495   0.719   5.974   0.823
 2532SOL    HW2 8496   0.684   6.132   0.848
 2533SOL     OW 8497   4.917   6.284   3.636
 2533SOL    HW1 8498   5.002   6.329   3.662
 2533SOL    HW2 8499   4.845   6.353   3.626
 2534SOL     OW 8500   1.869   0.079   3.527
 2534SOL    HW1 8501   1.956   0.090   3.575
 2534SOL    HW2 8502   1.805   0.027   3.584
 2535SOL     OW 8503   2.622   2.423   0.060
 2535SOL    HW1 8504   2.575   2.354   0.005
 2535SOL    HW2 8505   2.699   2.461   0.008
 2536SOL     OW 8506   0.321   1.793   3.354
 2536SOL    HW1 8507   0.377   1.777   3.435
 2536SOL    HW2 8508   0.237   1.840   3.380
 2537SOL     OW 8509   5.441   5.495   6.986
 2537SOL    HW1 8510   5.454   5.565   6.915
 2537SOL    HW2 8511   5.354   5.511   0.017
 2538SOL     OW 8512   1.421   4.214   4.516
 2538SOL    HW1 8513   1.482   4.291   4.534
 2538SOL    HW2 8514   1.455   4.162   4.437
 2539SOL     OW 8515   4.533   0.072   5.965
 2539SOL    HW1 8516   4.493   0.163   5.953
 2539SOL    HW2 8517   4.466   0.002   5.941
 2540SOL     OW 8518   4.836   1.136   1.182
 2540SOL    HW1 8519   4.840   1.226   1.139
 2540SOL    HW2 8520   4.742   1.116   1.211
 2541SOL     OW 8521   1.413   0.415   6.011
 2541SOL    HW1 8522   1.493   0.468   6.039
 2541SOL    HW2 8523   1.405   0.334   6.068
 2542SOL     OW 8524   4.171   1.363   5.101
 2542SOL    HW1 8525   4.255   1.416   5.091
 2542SOL    HW2 8526   4.092   1.422   5.084
 2543SOL     OW 8527   2.061   0.866   2.820
 2543SOL    HW1 8528   2.075   0.963   2.802
 2543SOL    HW2 8529   1.964   0.845   2.816
 2544SOL     OW 8530   0.493   5.247   2.770
 2544SOL    HW1 8531   0.549   5.164   2.766
 2544SOL    HW2 8532   0.397   5.222   2.766
 2545SOL     OW 8533   1.301   0.586   1.322
 2545SOL    HW1 8534   1.389   0.617   1.287
 2545SOL    HW2 8535   1.251   0.540   1.248
 2546SOL     OW 8536   6.215   3.282   1.655
 2546SOL    HW1 8537   6.283   3.332   1.709
 2546SOL    HW2 8538   6.142   3.250   1.716
 2547SOL     OW 8539   5.232   5.454   6.693
 2547SOL    HW1 8540   5.285   5.538   6.702
 2547SOL    HW2 8541   5.293   5.375   6.706
 2548SOL     OW 8542   2.483   0.795   5.430
 2548SOL    HW1 8543   2.532   0.756   5.352
 2548SOL    HW2 8544   2.503   0.743   5.512
 2549SOL     OW 8545   2.299   1.911   2.171
 2549SOL    HW1 8546   2.349   1.843   2.117
 2549SOL    HW2 8547   2.364   1.960   2.229
 2550SOL     OW 8548   6.513   0.889   6.571
 2550SOL    HW1 8549   6.555   0.980   6.577
 2550SOL    HW2 8550   6.417   0.897   6.544
 2551SOL     OW 8551   3.128   5.285   0.213
 2551SOL    HW1 8552   3.052   5.285   0.279
 2551SOL    HW2 8553   3.215   5.285   0.263
 2552SOL     OW 8554   1.749   5.512   6.039
 2552SOL    HW1 8555   1.703   5.574   6.102
 2552SOL    HW2 8556   1.690   5.433   6.021
 2553SOL     OW 8557   2.860   3.415   6.572
 2553SOL    HW1 8558   2.870   3.355   6.493
 2553SOL    HW2 8559   2.943   3.471   6.582
 2554SOL     OW 8560   1.465   5.922   6.497
 2554SOL    HW1 8561   1.432   5.865   6.573
 2554SOL    HW2 8562   1.564   5.917   6.493
 2555SOL     OW 8563   6.286   6.437   6.675
 2555SOL    HW1 8564   6.363   6.384   6.708
 2555SOL    HW2 8565   6.216   6.376   6.638
 2556SOL     OW 8566   4.143   6.063   0.883
 2556SOL    HW1 8567   4.093   5.976   0.882
 2556SOL    HW2 8568   4.104   6.125   0.815
 2557SOL     OW 8569   2.448   1.881   6.626
 2557SOL    HW1 8570   2.392   1.801   6.603
 2557SOL    HW2 8571   2.394   1.964   6.615
 2558SOL     OW 8572   3.807   3.705   5.999
 2558SOL    HW1 8573   3.844   3.668   5.914
 2558SOL    HW2 8574   3.719   3.661   6.020
 2559SOL     OW 8575   6.453   3.276   4.255
 2559SOL    HW1 8576   6.481   3.204   4.319
 2559SOL    HW2 8577   6.474   3.249   4.162
 2560SOL     OW 8578   4.912   3.470   4.150
 2560SOL    HW1 8579   4.962   3.419   4.081
 2560SOL    HW2 8580   4.866   3.406   4.212
 2561SOL     OW 8581   3.611   0.484   3.474
 2561SOL    HW1 8582   3.577   0.413   3.412
 2561SOL    HW2 8583   3.556   0.485   3.557
 2562SOL     OW 8584   2.044   5.351   2.706
 2562SOL    HW1 8585   1.954   5.343   2.750
 2562SOL    HW2 8586   2.038   5.316   2.612
 2563SOL     OW 8587   4.175   1.609   6.710
 2563SOL    HW1 8588   4.109   1.652   6.649
 2563SOL    HW2 8589   4.144   1.620   6.805
 2564SOL     OW 8590   1.088   6.527   6.397
 2564SOL    HW1 8591   1.181   6.551   6.367
 2564SOL    HW2 8592   1.089   6.434   6.435
 2565SOL     OW 8593   0.035   0.775   0.838
 2565SOL    HW1 8594   0.029   0.855   0.899
 2565SOL    HW2 8595   6.960   0.757   0.799
 2566SOL     OW 8596   1.131   0.020   0.466
 2566SOL    HW1 8597   1.107   0.075   0.386
 2566SOL    HW2 8598   1.219   6.990   0.451
 2567SOL     OW 8599   1.617   1.049   2.036
 2567SOL    HW1 8600   1.642   1.126   2.095
 2567SOL    HW2 8601   1.646   0.963   2.079
 2568SOL     OW 8602   2.711   0.592   0.306
 2568SOL    HW1 8603   2.783   0.659   0.323
 2568SOL    HW2 8604   2.722   0.552   0.215
 2569SOL     OW 8605   2.043   1.314   2.553
 2569SOL    HW1 8606   1.981   1.392   2.544
 2569SOL    HW2 8607   2.039   1.258   2.471
 2570SOL     OW 8608   5.742   0.258   6.210
 2570SOL    HW1 8609   5.759   0.355   6.190
 2570SOL    HW2 8610   5.675   0.251   6.284
 2571SOL     OW 8611   2.958   3.245   4.359
 2571SOL    HW1 8612   2.990   3.340   4.361
 2571SOL    HW2 8613   2.960   3.207   4.452
 2572SOL     OW 8614   1.498   6.748   1.666
 2572SOL    HW1 8615   1.427   6.705   1.722
 2572SOL    HW2 8616   1.456   6.790   1.586
 2573SOL     OW 8617   6.311   1.255   2.054
 2573SOL    HW1 8618   6.220   1.246   2.012
 2573SOL    HW2 8619   6.374   1.296   1.988
 2574SOL     OW 8620   0.004   3.128   0.046
 2574SOL    HW1 8621   0.077   3.071   0.084
 2574SOL    HW2 8622   7.004   3.206   0.107
 2575SOL     OW 8623   4.477   4.124   1.169
 2575SOL    HW1 8624   4.436   4.043   1.211
 2575SOL    HW2 8625   4.448   4.129   1.073
 2576SOL     OW 8626   3.876   0.056   3.782
 2576SOL    HW1 8627   3.793   0.031   3.731
 2576SOL    HW2 8628   3.877   0.007   3.869
 2577SOL     OW 8629   4.606   0.268   2.644
 2577SOL    HW1 8630   4.703   0.245   2.642
 2577SOL    HW2 8631   4.560   0.215   2.715
 2578SOL     OW 8632   4.357   3.250   5.629
 2578SOL    HW1 8633   4.421   3.173   5.628
 2578SOL    HW2 8634   4.264   3.216   5.615
 2579SOL     OW 8635   1.098   1.195   4.270
 2579SOL    HW1 8636   1.008   1.237   4.264
 2579SOL    HW2 8637   1.105   1.142   4.355
 2580SOL     OW 8638   1.566   3.065   6.475
 2580SOL    HW1 8639   1.534   3.064   6.570
 2580SOL    HW2 8640   1.525   2.989   6.426
 2581SOL     OW 8641   6.131   4.944   1.744
 2581SOL    HW1 8642   6.203   4.926   1.810
 2581SOL    HW2 8643   6.130   4.872   1.674
 2582SOL     OW 8644   1.593   4.057   3.030
 2582SOL    HW1 8645   1.554   3.967   3.051
 2582SOL    HW2 8646   1.573   4.079   2.934
 2583SOL     OW 8647   1.276   1.543   1.362
 2583SOL    HW1 8648   1.248   1.453   1.395
 2583SOL    HW2 8649   1.345   1.581   1.424
 2584SOL     OW 8650   3.243   5.585   0.230
 2584SOL    HW1 8651   3.249   5.534   0.316
 2584SOL    HW2 8652   3.310   5.549   0.166
 2585SOL     OW 8653   3.218   0.671   0.056
 2585SOL    HW1 8654   3.316   0.688   0.045
 2585SOL    HW2 8655   3.174   0.675   6.982
 2586SOL     OW 8656   4.749   1.820   3.765
 2586SOL    HW1 8657   4.823   1.859   3.819
 2586SOL    HW2 8658   4.779   1.808   3.670
 2587SOL     OW 8659   6.804   1.097   4.158
 2587SOL    HW1 8660   6.775   1.004   4.137
 2587SOL    HW2 8661   6.781   1.157   4.082
 2588SOL     OW 8662   4.649   6.937   0.439
 2588SOL    HW1 8663   4.553   6.936   0.468
 2588SOL    HW2 8664   4.697   6.859   0.479
 2589SOL     OW 8665   0.150   6.425   5.465
 2589SOL    HW1 8666   0.084   6.493   5.432
 2589SOL    HW2 8667   0.138   6.412   5.564
 2590SOL     OW 8668   3.531   6.433   1.937
 2590SOL    HW1 8669   3.581   6.507   1.982
 2590SOL    HW2 8670   3.595   6.375   1.886
 2591SOL     OW 8671   6.393   6.110   2.540
 2591SOL    HW1 8672   6.466   6.056   2.582
 2591SOL    HW2 8673   6.304   6.080   2.576
 2592SOL     OW 8674   2.290   6.904   1.384
 2592SOL    HW1 8675   2.290   7.003   1.367
 2592SOL    HW2 8676   2.314   6.887   1.479
 2593SOL     OW 8677   3.254   6.525   1.848
 2593SOL    HW1 8678   3.257   6.446   1.908
 2593SOL    HW2 8679   3.333   6.584   1.867
 2594SOL     OW 8680   0.333   6.468   5.899
 2594SOL    HW1 8681   0.350   6.549   5.842
 2594SOL    HW2 8682   0.254   6.485   5.958
 2595SOL     OW 8683   6.104   1.763   5.392
 2595SOL    HW1 8684   6.131   1.732   5.483
 2595SOL    HW2 8685   6.019   1.816   5.399
 2596SOL     OW 8686   3.891   2.184   1.855
 2596SOL    HW1 8687   3.880   2.097   1.904
 2596SOL    HW2 8688   3.803   2.231   1.851
 2597SOL     OW 8689   1.707   3.899   0.295
 2597SOL    HW1 8690   1.725   3.817   0.349
 2597SOL    HW2 8691   1.772   3.970   0.319
 2598SOL     OW 8692   6.687   1.563   4.449
 2598SOL    HW1 8693   6.687   1.467   4.478
 2598SOL    HW2 8694   6.738   1.572   4.364
 2599SOL     OW 8695   2.566   0.714   0.682
 2599SOL    HW1 8696   2.504   0.656   0.628
 2599SOL    HW2 8697   2.516   0.792   0.718
 2600SOL     OW 8698   4.933   3.587   4.557
 2600SOL    HW1 8699   4.904   3.682   4.544
 2600SOL    HW2 8700   4.963   3.573   4.652
 2601SOL     OW 8701   2.857   1.581   6.960
 2601SOL    HW1 8702   2.916   1.621   6.890
 2601SOL    HW2 8703   2.871   1.629   0.031
 2602SOL     OW 8704   6.578   4.875   3.739
 2602SOL    HW1 8705   6.666   4.861   3.785
 2602SOL    HW2 8706   6.533   4.956   3.777
 2603SOL     OW 8707   2.265   2.363   1.747
 2603SOL    HW1 8708   2.232   2.431   1.681
 2603SOL    HW2 8709   2.270   2.273   1.702
 2604SOL     OW 8710   4.936   1.225   2.871
 2604SOL    HW1 8711   4.856   1.168   2.851
 2604SOL    HW2 8712   4.908   1.321   2.871
 2605SOL     OW 8713   2.935   4.977   3.341
 2605SOL    HW1 8714   2.919   5.064   3.386
 2605SOL    HW2 8715   2.961   4.908   3.409
 2606SOL     OW 8716   0.268   4.575   0.944
 2606SOL    HW1 8717   0.216   4.492   0.965
 2606SOL    HW2 8718   0.215   4.655   0.973
 2607SOL     OW 8719   0.614   1.711   5.659
 2607SOL    HW1 8720   0.527   1.694   5.613
 2607SOL    HW2 8721   0.597   1.750   5.749
 2608SOL     OW 8722   3.913   5.396   2.442
 2608SOL    HW1 8723   3.872   5.435   2.524
 2608SOL    HW2 8724   3.843   5.349   2.388
 2609SOL     OW 8725   0.802   2.321   1.681
 2609SOL    HW1 8726   0.849   2.393   1.630
 2609SOL    HW2 8727   0.704   2.343   1.686
 2610SOL     OW 8728   6.956   4.942   4.585
 2610SOL    HW1 8729   6.886   4.943   4.656
 2610SOL    HW2 8730   0.029   4.922   4.626
 2611SOL     OW 8731   5.596   6.626   1.594
 2611SOL    HW1 8732   5.581   6.532   1.624
 2611SOL    HW2 8733   5.692   6.637   1.568
 2612SOL     OW 8734   6.717   6.899   5.997
 2612SOL    HW1 8735   6.767   6.853   6.070
 2612SOL    HW2 8736   6.719   6.998   6.012
 2613SOL     OW 8737   2.780   6.579   1.121
 2613SOL    HW1 8738   2.750   6.672   1.144
 2613SOL    HW2 8739   2.859   6.555   1.178
 2614SOL     OW 8740   6.788   0.155   6.010
 2614SOL    HW1 8741   6.735   0.181   6.091
 2614SOL    HW2 8742   6.882   0.189   6.019
 2615SOL     OW 8743   6.247   3.927   2.796
 2615SOL    HW1 8744   6.173   3.942   2.861
 2615SOL    HW2 8745   6.264   4.010   2.744
 2616SOL     OW 8746   3.700   3.591   3.536
 2616SOL    HW1 8747   3.640   3.669   3.547
 2616SOL    HW2 8748   3.682   3.524   3.608
 2617SOL     OW 8749   4.197   6.209   1.230
 2617SOL    HW1 8750   4.235   6.285   1.282
 2617SOL    HW2 8751   4.270   6.163   1.179
 2618SOL     OW 8752   6.974   6.856   3.999
 2618SOL    HW1 8753   6.983   6.945   3.954
 2618SOL    HW2 8754   6.950   6.787   3.931
 2619SOL     OW 8755   3.245   1.363   3.345
 2619SOL    HW1 8756   3.239   1.328   3.438
 2619SOL    HW2 8757   3.304   1.444   3.344
 2620SOL     OW 8758   0.703   6.289   3.035
 2620SOL    HW1 8759   0.735   6.235   2.957
 2620SOL    HW2 8760   0.612   6.258   3.062
 2621SOL     OW 8761   1.707   5.578   2.628
 2621SOL    HW1 8762   1.634   5.567   2.560
 2621SOL    HW2 8763   1.689   5.519   2.706
 2622SOL     OW 8764   2.674   1.737   6.539
 2622SOL    HW1 8765   2.752   1.770   6.591
 2622SOL    HW2 8766   2.589   1.775   6.577
 2623SOL     OW 8767   3.386   2.033   4.771
 2623SOL    HW1 8768   3.296   2.073   4.752
 2623SOL    HW2 8769   3.457   2.103   4.761
 2624SOL     OW 8770   6.775   2.820   5.337
 2624SOL    HW1 8771   6.696   2.767   5.308
 2624SOL    HW2 8772   6.856   2.789   5.287
 2625SOL     OW 8773   3.232   2.423   6.012
 2625SOL    HW1 8774   3.211   2.338   5.964
 2625SOL    HW2 8775   3.170   2.495   5.981
 2626SOL     OW 8776   0.244   0.476   5.069
 2626SOL    HW1 8777   0.171   0.504   5.007
 2626SOL    HW2 8778   0.212   0.402   5.127
 2627SOL     OW 8779   0.990   0.617   5.021
 2627SOL    HW1 8780   1.020   0.523   5.003
 2627SOL    HW2 8781   1.041   0.654   5.098
 2628SOL     OW 8782   2.195   4.548   6.573
 2628SOL    HW1 8783   2.195   4.645   6.598
 2628SOL    HW2 8784   2.195   4.492   6.656
 2629SOL     OW 8785   3.452   4.210   1.764
 2629SOL    HW1 8786   3.388   4.238   1.692
 2629SOL    HW2 8787   3.402   4.200   1.850
 2630SOL     OW 8788   3.215   1.472   3.641
 2630SOL    HW1 8789   3.211   1.566   3.605
 2630SOL    HW2 8790   3.310   1.446   3.654
 2631SOL     OW 8791   4.915   0.163   4.033
 2631SOL    HW1 8792   4.857   0.244   4.022
 2631SOL    HW2 8793   5.006   0.191   4.062
 2632SOL     OW 8794   2.859   1.865   6.739
 2632SOL    HW1 8795   2.932   1.817   6.789
 2632SOL    HW2 8796   2.860   1.962   6.764
 2633SOL     OW 8797   6.281   1.839   5.676
 2633SOL    HW1 8798   6.260   1.864   5.771
 2633SOL    HW2 8799   6.291   1.740   5.668
 2634SOL     OW 8800   1.360   4.120   3.152
 2634SOL    HW1 8801   1.301   4.039   3.145
 2634SOL    HW2 8802   1.437   4.111   3.089
 2635SOL     OW 8803   5.981   5.968   5.175
 2635SOL    HW1 8804   5.902   5.988   5.234
 2635SOL    HW2 8805   6.058   5.940   5.232
 2636SOL     OW 8806   4.920   0.336   5.413
 2636SOL    HW1 8807   5.003   0.341   5.468
 2636SOL    HW2 8808   4.922   0.406   5.342
 2637SOL     OW 8809   5.414   1.774   3.729
 2637SOL    HW1 8810   5.367   1.737   3.810
 2637SOL    HW2 8811   5.434   1.700   3.666
 2638SOL     OW 8812   6.643   0.025   2.584
 2638SOL    HW1 8813   6.556   0.073   2.569
 2638SOL    HW2 8814   6.711   0.058   2.519
 2639SOL     OW 8815   0.927   6.923   1.804
 2639SOL    HW1 8816   0.883   7.011   1.825
 2639SOL    HW2 8817   1.020   6.923   1.842
 2640SOL     OW 8818   0.122   6.189   4.742
 2640SOL    HW1 8819   0.162   6.189   4.833
 2640SOL    HW2 8820   0.137   6.278   4.699
 2641SOL     OW 8821   4.972   3.036   1.831
 2641SOL    HW1 8822   4.883   3.034   1.876
 2641SOL    HW2 8823   4.961   3.050   1.733
 2642SOL     OW 8824   4.261   6.956   4.152
 2642SOL    HW1 8825   4.222   6.920   4.237
 2642SOL    HW2 8826   4.210   6.920   4.075
 2643SOL     OW 8827   0.891   3.994   2.356
 2643SOL    HW1 8828   0.806   4.048   2.354
 2643SOL    HW2 8829   0.882   3.920   2.422
 2644SOL     OW 8830   6.210   5.958   5.939
 2644SOL    HW1 8831   6.130   5.899   5.930
 2644SOL    HW2 8832   6.263   5.956   5.854
 2645SOL     OW 8833   4.667   5.239   3.962
 2645SOL    HW1 8834   4.656   5.231   3.863
 2645SOL    HW2 8835   4.661   5.148   4.003
 2646SOL     OW 8836   6.021   0.304   6.831
 2646SOL    HW1 8837   5.971   0.342   6.909
 2646SOL    HW2 8838   6.026   0.205   6.840
 2647SOL     OW 8839   6.433   0.362   2.115
 2647SOL    HW1 8840   6.427   0.264   2.136
 2647SOL    HW2 8841   6.509   0.378   2.052
 2648SOL     OW 8842   0.119   0.200   3.581
 2648SOL    HW1 8843   0.063   0.152   3.513
 2648SOL    HW2 8844   0.155   0.284   3.541
 2649SOL     OW 8845   5.859   3.637   6.393
 2649SOL    HW1 8846   5.880   3.674   6.303
 2649SOL    HW2 8847   5.943   3.631   6.447
 2650SOL     OW 8848   0.398   3.758   4.525
 2650SOL    HW1 8849   0.406   3.830   4.456
 2650SOL    HW2 8850   0.336   3.687   4.493
 2651SOL     OW 8851   0.066   2.163   6.976
 2651SOL    HW1 8852   0.093   2.074   6.941
 2651SOL    HW2 8853   0.013   2.151   0.045
 2652SOL     OW 8854   3.348   3.811   3.971
 2652SOL    HW1 8855   3.345   3.711   3.974
 2652SOL    HW2 8856   3.262   3.848   4.005
 2653SOL     OW 8857   5.215   0.277   5.721
 2653SOL    HW1 8858   5.285   0.344   5.744
 2653SOL    HW2 8859   5.229   0.194   5.775
 2654SOL     OW 8860   5.126   4.848   0.998
 2654SOL    HW1 8861   5.097   4.913   1.068
 2654SOL    HW2 8862   5.093   4.879   0.909
 2655SOL     OW 8863   4.868   4.829   4.275
 2655SOL    HW1 8864   4.951   4.806   4.326
 2655SOL    HW2 8865   4.822   4.746   4.246
 2656SOL     OW 8866   3.587   4.914   4.024
 2656SOL    HW1 8867   3.532   4.938   4.104
 2656SOL    HW2 8868   3.679   4.889   4.054
 2657SOL     OW 8869   1.865   4.251   6.530
 2657SOL    HW1 8870   1.889   4.346   6.509
 2657SOL    HW2 8871   1.948   4.199   6.550
 2658SOL     OW 8872   4.944   4.488   0.375
 2658SOL    HW1 8873   5.042   4.504   0.384
 2658SOL    HW2 8874   4.928   4.405   0.322
 2659SOL     OW 8875   6.191   2.725   4.755
 2659SOL    HW1 8876   6.201   2.628   4.777
 2659SOL    HW2 8877   6.115   2.763   4.808
 2660SOL     OW 8878   0.509   1.557   1.225
 2660SOL    HW1 8879   0.545   1.649   1.213
 2660SOL    HW2 8880   0.417   1.561   1.263
 2661SOL     OW 8881   2.213   6.375   0.845
 2661SOL    HW1 8882   2.178   6.468   0.857
 2661SOL    HW2 8883   2.307   6.370   0.880
 2662SOL     OW 8884   4.481   0.239   5.200
 2662SOL    HW1 8885   4.393   0.273   5.166
 2662SOL    HW2 8886   4.488   0.141   5.181
 2663SOL     OW 8887   2.713   4.095   0.654
 2663SOL    HW1 8888   2.734   4.176   0.709
 2663SOL    HW2 8889   2.642   4.041   0.700
 2664SOL     OW 8890   4.021   3.768   4.992
 2664SOL    HW1 8891   3.932   3.724   4.979
 2664SOL    HW2 8892   4.050   3.754   5.087
 2665SOL     OW 8893   2.673   2.385   4.965
 2665SOL    HW1 8894   2.631   2.303   5.002
 2665SOL    HW2 8895   2.726   2.431   5.037
 2666SOL     OW 8896   5.326   3.898   1.540
 2666SOL    HW1 8897   5.309   3.953   1.622
 2666SOL    HW2 8898   5.351   3.805   1.567
 2667SOL     OW 8899   1.736   6.232   4.175
 2667SOL    HW1 8900   1.794   6.152   4.188
 2667SOL    HW2 8901   1.648   6.216   4.221
 2668SOL     OW 8902   6.014   3.449   4.115
 2668SOL    HW1 8903   6.021   3.539   4.158
 2668SOL    HW2 8904   6.079   3.443   4.039
 2669SOL     OW 8905   2.995   4.783   5.254
 2669SOL    HW1 8906   3.077   4.739   5.291
 2669SOL    HW2 8907   2.932   4.714   5.218
 2670SOL     OW 8908   5.321   2.405   6.671
 2670SOL    HW1 8909   5.412   2.377   6.643
 2670SOL    HW2 8910   5.327   2.488   6.726
 2671SOL     OW 8911   3.604   5.345   6.780
 2671SOL    HW1 8912   3.506   5.338   6.797
 2671SOL    HW2 8913   3.630   5.282   6.706
 2672SOL     OW 8914   0.099   4.768   0.707
 2672SOL    HW1 8915   0.075   4.789   0.802
 2672SOL    HW2 8916   0.198   4.772   0.696
 2673SOL     OW 8917   6.240   1.815   3.864
 2673SOL    HW1 8918   6.162   1.754   3.845
 2673SOL    HW2 8919   6.290   1.832   3.779
 2674SOL     OW 8920   1.584   3.935   3.691
 2674SOL    HW1 8921   1.659   3.988   3.653
 2674SOL    HW2 8922   1.596   3.928   3.790
 2675SOL     OW 8923   6.414   5.116   4.871
 2675SOL    HW1 8924   6.441   5.020   4.874
 2675SOL    HW2 8925   6.326   5.128   4.918
 2676SOL     OW 8926   4.666   1.728   1.682
 2676SOL    HW1 8927   4.592   1.704   1.745
 2676SOL    HW2 8928   4.640   1.810   1.630
 2677SOL     OW 8929   3.076   4.133   0.074
 2677SOL    HW1 8930   3.113   4.179   7.009
 2677SOL    HW2 8931   3.034   4.201   0.135
 2678SOL     OW 8932   6.489   4.028   1.157
 2678SOL    HW1 8933   6.431   4.109   1.168
 2678SOL    HW2 8934   6.582   4.055   1.133
 2679SOL     OW 8935   3.070   5.444   0.860
 2679SOL    HW1 8936   3.156   5.415   0.902
 2679SOL    HW2 8937   2.993   5.405   0.911
 2680SOL     OW 8938   0.614   1.605   0.490
 2680SOL    HW1 8939   0.617   1.686   0.433
 2680SOL    HW2 8940   0.521   1.569   0.492
 2681SOL     OW 8941   1.559   2.395   4.640
 2681SOL    HW1 8942   1.614   2.475   4.614
 2681SOL    HW2 8943   1.609   2.311   4.620
 2682SOL     OW 8944   5.575   4.120   2.634
 2682SOL    HW1 8945   5.642   4.078   2.695
 2682SOL    HW2 8946   5.602   4.106   2.539
 2683SOL     OW 8947   2.576   3.669   0.496
 2683SOL    HW1 8948   2.528   3.634   0.416
 2683SOL    HW2 8949   2.530   3.752   0.529
 2684SOL     OW 8950   4.528   6.035   1.409
 2684SOL    HW1 8951   4.443   5.982   1.400
 2684SOL    HW2 8952   4.577   6.006   1.492
 2685SOL     OW 8953   6.039   5.917   6.807
 2685SOL    HW1 8954   5.988   5.833   6.827
 2685SOL    HW2 8955   5.993   5.968   6.735
 2686SOL     OW 8956   1.784   1.787   5.458
 2686SOL    HW1 8957   1.784   1.689   5.438
 2686SOL    HW2 8958   1.733   1.803   5.542
 2687SOL     OW 8959   4.370   4.594   2.228
 2687SOL    HW1 8960   4.345   4.500   2.206
 2687SOL    HW2 8961   4.460   4.614   2.189
 2688SOL     OW 8962   4.777   5.279   6.998
 2688SOL    HW1 8963   4.747   5.367   6.962
 2688SOL    HW2 8964   4.734   5.262   0.071
 2689SOL     OW 8965   1.252   3.217   3.540
 2689SOL    HW1 8966   1.339   3.260   3.560
 2689SOL    HW2 8967   1.182   3.252   3.603
 2690SOL     OW 8968   3.384   3.449   4.185
 2690SOL    HW1 8969   3.352   3.540   4.210
 2690SOL    HW2 8970   3.466   3.457   4.128
 2691SOL     OW 8971   1.316   5.293   2.421
 2691SOL    HW1 8972   1.281   5.375   2.467
 2691SOL    HW2 8973   1.252   5.263   2.351
 2692SOL     OW 8974   3.540   4.983   3.254
 2692SOL    HW1 8975   3.549   5.080   3.276
 2692SOL    HW2 8976   3.604   4.959   3.181
 2693SOL     OW 8977   0.947   4.097   3.105
 2693SOL    HW1 8978   0.859   4.115   3.061
 2693SOL    HW2 8979   0.956   4.152   3.188
 2694SOL     OW 8980   4.671   6.590   2.814
 2694SOL    HW1 8981   4.671   6.531   2.895
 2694SOL    HW2 8982   4.691   6.535   2.733
 2695SOL     OW 8983   4.630   0.562   2.706
 2695SOL    HW1 8984   4.728   0.561   2.726
 2695SOL    HW2 8985   4.603   0.475   2.666
 2696SOL     OW 8986   3.816   3.634   5.235
 2696SOL    HW1 8987   3.737   3.670   5.187
 2696SOL    HW2 8988   3.792   3.613   5.330
 2697SOL     OW 8989   3.382   1.292   2.578
 2697SOL    HW1 8990   3.327   1.209   2.575
 2697SOL    HW2 8991   3.403   1.322   2.485
 2698SOL     OW 8992   1.580   6.062   0.524
 2698SOL    HW1 8993   1.678   6.042   0.524
 2698SOL    HW2 8994   1.558   6.120   0.446
 2699SOL     OW 8995   3.184   6.523   0.318
 2699SOL    HW1 8996   3.207   6.571   0.402
 2699SOL    HW2 8997   3.206   6.426   0.327
 2700SOL     OW 8998   1.974   3.872   0.524
 2700SOL    HW1 8999   1.946   3.950   0.469
 2700SOL    HW2 9000   1.897   3.840   0.579
 2701SOL     OW 9001   3.871   0.816   6.504
 2701SOL    HW1 9002   3.891   0.885   6.574
 2701SOL    HW2 9003   3.793   0.847   6.450
 2702SOL     OW 9004   0.538   2.719   3.661
 2702SOL    HW1 9005   0.497   2.805   3.688
 2702SOL    HW2 9006   0.519   2.702   3.564
 2703SOL     OW 9007   1.663   0.660   2.417
 2703SOL    HW1 9008   1.673   0.590   2.488
 2703SOL    HW2 9009   1.753   0.689   2.386
 2704SOL     OW 9010   0.004   6.257   0.913
 2704SOL    HW1 9011   0.045   6.199   0.984
 2704SOL    HW2 9012   0.069   6.328   0.887
 2705SOL     OW 9013   0.901   4.611   4.224
 2705SOL    HW1 9014   0.861   4.595   4.134
 2705SOL    HW2 9015   0.835   4.658   4.283
 2706SOL     OW 9016   0.806   0.565   1.471
 2706SOL    HW1 9017   0.905   0.578   1.477
 2706SOL    HW2 9018   0.784   0.521   1.384
 2707SOL     OW 9019   2.395   0.851   4.952
 2707SOL    HW1 9020   2.442   0.789   5.015
 2707SOL    HW2 9021   2.307   0.879   4.991
 2708SOL     OW 9022   0.566   2.362   0.519
 2708SOL    HW1 9023   0.594   2.329   0.429
 2708SOL    HW2 9024   0.644   2.407   0.563
 2709SOL     OW 9025   5.752   6.148   0.554
 2709SOL    HW1 9026   5.729   6.172   0.460
 2709SOL    HW2 9027   5.714   6.217   0.616
 2710SOL     OW 9028   0.730   3.199   3.477
 2710SOL    HW1 9029   0.791   3.209   3.398
 2710SOL    HW2 9030   0.708   3.289   3.513
 2711SOL     OW 9031   2.247   1.307   3.865
 2711SOL    HW1 9032   2.205   1.220   3.839
 2711SOL    HW2 9033   2.308   1.293   3.943
 2712SOL     OW 9034   3.180   4.840   0.832
 2712SOL    HW1 9035   3.176   4.856   0.930
 2712SOL    HW2 9036   3.259   4.783   0.810
 2713SOL     OW 9037   2.253   2.011   5.328
 2713SOL    HW1 9038   2.267   1.929   5.271
 2713SOL    HW2 9039   2.227   2.087   5.269
 2714SOL     OW 9040   4.717   2.287   0.404
 2714SOL    HW1 9041   4.745   2.307   0.310
 2714SOL    HW2 9042   4.795   2.253   0.456
 2715SOL     OW 9043   4.867   1.460   0.567
 2715SOL    HW1 9044   4.888   1.379   0.513
 2715SOL    HW2 9045   4.777   1.448   0.610
 2716SOL     OW 9046   5.396   4.549   2.768
 2716SOL    HW1 9047   5.297   4.541   2.762
 2716SOL    HW2 9048   5.420   4.611   2.843
 2717SOL     OW 9049   2.360   4.841   2.140
 2717SOL    HW1 9050   2.432   4.773   2.126
 2717SOL    HW2 9051   2.370   4.914   2.073
 2718SOL     OW 9052   1.437   3.248   5.922
 2718SOL    HW1 9053   1.449   3.317   5.851
 2718SOL    HW2 9054   1.524   3.204   5.941
 2719SOL     OW 9055   6.673   5.614   1.233
 2719SOL    HW1 9056   6.706   5.706   1.214
 2719SOL    HW2 9057   6.614   5.583   1.159
 2720SOL     OW 9058   2.184   6.141   2.472
 2720SOL    HW1 9059   2.247   6.064   2.469
 2720SOL    HW2 9060   2.115   6.131   2.400
 2721SOL     OW 9061   2.918   0.587   4.467
 2721SOL    HW1 9062   2.840   0.650   4.462
 2721SOL    HW2 9063   2.907   0.528   4.547
 2722SOL     OW 9064   6.959   5.605   1.786
 2722SOL    HW1 9065   6.986   5.510   1.799
 2722SOL    HW2 9066   6.954   5.625   1.688
 2723SOL     OW 9067   0.750   6.529   5.698
 2723SOL    HW1 9068   0.759   6.476   5.614
 2723SOL    HW2 9069   0.698   6.476   5.765
 2724SOL     OW 9070   2.234   6.746   6.571
 2724SOL    HW1 9071   2.309   6.732   6.507
 2724SOL    HW2 9072   2.268   6.731   6.664
 2725SOL     OW 9073   6.069   4.646   4.336
 2725SOL    HW1 9074   6.015   4.730   4.338
 2725SOL    HW2 9075   6.049   4.590   4.416
 2726SOL     OW 9076   0.031   3.417   1.012
 2726SOL    HW1 9077   7.012   3.508   0.987
 2726SOL    HW2 9078   0.076   3.376   0.933
 2727SOL     OW 9079   0.528   5.430   3.971
 2727SOL    HW1 9080   0.609   5.407   4.024
 2727SOL    HW2 9081   0.496   5.521   3.998
 2728SOL     OW 9082   3.890   6.648   5.898
 2728SOL    HW1 9083   3.899   6.663   5.997
 2728SOL    HW2 9084   3.940   6.566   5.872
 2729SOL     OW 9085   6.702   5.606   1.574
 2729SOL    HW1 9086   6.796   5.579   1.552
 2729SOL    HW2 9087   6.688   5.702   1.550
 2730SOL     OW 9088   1.948   5.111   1.441
 2730SOL    HW1 9089   1.972   5.014   1.444
 2730SOL    HW2 9090   1.884   5.128   1.366
 2731SOL     OW 9091   4.098   3.661   1.973
 2731SOL    HW1 9092   4.032   3.731   1.945
 2731SOL    HW2 9093   4.153   3.695   2.050
 2732SOL     OW 9094   5.350   2.803   2.314
 2732SOL    HW1 9095   5.263   2.831   2.273
 2732SOL    HW2 9096   5.426   2.841   2.260
 2733SOL     OW 9097   0.468   0.159   5.297
 2733SOL    HW1 9098   0.530   0.125   5.226
 2733SOL    HW2 9099   0.455   0.089   5.367
 2734SOL     OW 9100   2.475   5.756   1.760
 2734SOL    HW1 9101   2.408   5.776   1.832
 2734SOL    HW2 9102   2.493   5.658   1.757
 2735SOL     OW 9103   1.136   3.026   2.715
 2735SOL    HW1 9104   1.165   3.002   2.808
 2735SOL    HW2 9105   1.150   2.948   2.654
 2736SOL     OW 9106   4.247   6.740   5.125
 2736SOL    HW1 9107   4.320   6.711   5.063
 2736SOL    HW2 9108   4.161   6.697   5.099
 2737SOL     OW 9109   3.470   3.667   5.888
 2737SOL    HW1 9110   3.400   3.598   5.908
 2737SOL    HW2 9111   3.448   3.751   5.937
 2738SOL     OW 9112   5.550   4.725   4.153
 2738SOL    HW1 9113   5.512   4.791   4.218
 2738SOL    HW2 9114   5.492   4.721   4.072
 2739SOL     OW 9115   6.698   4.776   0.902
 2739SOL    HW1 9116   6.633   4.710   0.939
 2739SOL    HW2 9117   6.737   4.740   0.817
 2740SOL     OW 9118   6.047   3.791   2.623
 2740SOL    HW1 9119   6.068   3.697   2.598
 2740SOL    HW2 9120   6.132   3.838   2.649
 2741SOL     OW 9121   6.329   0.834   5.358
 2741SOL    HW1 9122   6.312   0.838   5.457
 2741SOL    HW2 9123   6.427   0.826   5.341
 2742SOL     OW 9124   2.200   4.800   6.660
 2742SOL    HW1 9125   2.222   4.812   6.757
 2742SOL    HW2 9126   2.251   4.867   6.607
 2743SOL     OW 9127   0.053   5.505   2.484
 2743SOL    HW1 9128   0.148   5.477   2.472
 2743SOL    HW2 9129   0.037   5.527   2.581
 2744SOL     OW 9130   5.188   1.489   0.010
 2744SOL    HW1 9131   5.167   1.573   0.060
 2744SOL    HW2 9132   5.104   1.435   0.001
 2745SOL     OW 9133   1.101   6.994   6.492
 2745SOL    HW1 9134   1.063   0.061   6.450
 2745SOL    HW2 9135   1.056   6.977   6.580
 2746SOL     OW 9136   1.898   2.186   3.852
 2746SOL    HW1 9137   1.822   2.185   3.917
 2746SOL    HW2 9138   1.868   2.231   3.767
 2747SOL     OW 9139   5.763   3.676   5.627
 2747SOL    HW1 9140   5.833   3.645   5.563
 2747SOL    HW2 9141   5.762   3.616   5.707
 2748SOL     OW 9142   4.450   2.180   0.955
 2748SOL    HW1 9143   4.523   2.121   0.988
 2748SOL    HW2 9144   4.379   2.125   0.912
 2749SOL     OW 9145   6.331   4.636   3.596
 2749SOL    HW1 9146   6.316   4.651   3.693
 2749SOL    HW2 9147   6.276   4.701   3.543
 2750SOL     OW 9148   1.140   4.663   1.247
 2750SOL    HW1 9149   1.080   4.688   1.322
 2750SOL    HW2 9150   1.205   4.593   1.278
 2751SOL     OW 9151   0.254   6.317   0.781
 2751SOL    HW1 9152   0.217   6.303   0.689
 2751SOL    HW2 9153   0.299   6.233   0.812
 2752SOL     OW 9154   4.761   4.645   5.518
 2752SOL    HW1 9155   4.761   4.545   5.516
 2752SOL    HW2 9156   4.850   4.678   5.550
 2753SOL     OW 9157   0.956   6.766   5.881
 2753SOL    HW1 9158   0.907   6.852   5.878
 2753SOL    HW2 9159   0.931   6.710   5.802
 2754SOL     OW 9160   6.764   0.775   3.428
 2754SOL    HW1 9161   6.694   0.703   3.433
 2754SOL    HW2 9162   6.849   0.740   3.469
 2755SOL     OW 9163   2.816   6.933   3.819
 2755SOL    HW1 9164   2.914   6.948   3.808
 2755SOL    HW2 9165   2.784   6.984   3.899
 2756SOL     OW 9166   5.603   4.325   5.849
 2756SOL    HW1 9167   5.600   4.410   5.796
 2756SOL    HW2 9168   5.688   4.276   5.828
 2757SOL     OW 9169   2.235   1.604   6.294
 2757SOL    HW1 9170   2.177   1.535   6.250
 2757SOL    HW2 9171   2.203   1.695   6.269
 2758SOL     OW 9172   5.077   6.304   3.235
 2758SOL    HW1 9173   5.014   6.378   3.213
 2758SOL    HW2 9174   5.036   6.245   3.304
 2759SOL     OW 9175   4.458   5.697   5.721
 2759SOL    HW1 9176   4.370   5.736   5.697
 2759SOL    HW2 9177   4.514   5.766   5.768
 2760SOL     OW 9178   0.155   5.604   2.872
 2760SOL    HW1 9179   0.226   5.659   2.829
 2760SOL    HW2 9180   0.188   5.569   2.960
 2761SOL     OW 9181   2.057   4.450   4.669
 2761SOL    HW1 9182   2.021   4.399   4.591
 2761SOL    HW2 9183   2.135   4.400   4.708
 2762SOL     OW 9184   2.028   2.008   6.664
 2762SOL    HW1 9185   1.979   2.066   6.729
 2762SOL    HW2 9186   2.058   1.925   6.709
 2763SOL     OW 9187   4.875   1.929   4.685
 2763SOL    HW1 9188   4.871   1.957   4.781
 2763SOL    HW2 9189   4.784   1.903   4.654
 2764SOL     OW 9190   6.875   0.393   2.136
 2764SOL    HW1 9191   6.924   0.450   2.202
 2764SOL    HW2 9192   6.813   0.331   2.184
 2765SOL     OW 9193   6.497   6.936   0.940
 2765SOL    HW1 9194   6.463   6.854   0.893
 2765SOL    HW2 9195   6.594   6.925   0.960
 2766SOL     OW 9196   4.439   2.511   6.906
 2766SOL    HW1 9197   4.436   2.448   6.828
 2766SOL    HW2 9198   4.533   2.540   6.922
 2767SOL     OW 9199   6.691   5.425   6.687
 2767SOL    HW1 9200   6.619   5.420   6.618
 2767SOL    HW2 9201   6.683   5.511   6.737
 2768SOL     OW 9202   4.670   0.569   1.254
 2768SOL    HW1 9203   4.677   0.627   1.174
 2768SOL    HW2 9204   4.592   0.598   1.310
 2769SOL     OW 9205   2.192   4.162   6.349
 2769SOL    HW1 9206   2.291   4.155   6.340
 2769SOL    HW2 9207   2.161   4.247   6.305
 2770SOL     OW 9208   4.578   5.853   5.275
 2770SOL    HW1 9209   4.659   5.855   5.333
 2770SOL    HW2 9210   4.572   5.764   5.229
 2771SOL     OW 9211   5.676   1.600   4.485
 2771SOL    HW1 9212   5.648   1.568   4.576
 2771SOL    HW2 9213   5.738   1.533   4.444
 2772SOL     OW 9214   3.181   0.875   1.261
 2772SOL    HW1 9215   3.092   0.830   1.251
 2772SOL    HW2 9216   3.200   0.928   1.178
 2773SOL     OW 9217   6.490   2.799   3.877
 2773SOL    HW1 9218   6.568   2.853   3.846
 2773SOL    HW2 9219   6.509   2.702   3.865
 2774SOL     OW 9220   5.140   3.196   2.892
 2774SOL    HW1 9221   5.197   3.126   2.848
 2774SOL    HW2 9222   5.169   3.208   2.987
 2775SOL     OW 9223   6.260   3.559   5.116
 2775SOL    HW1 9224   6.308   3.507   5.186
 2775SOL    HW2 9225   6.240   3.500   5.038
 2776SOL     OW 9226   5.123   4.253   6.226
 2776SOL    HW1 9227   5.151   4.268   6.132
 2776SOL    HW2 9228   5.202   4.262   6.286
 2777SOL     OW 9229   2.891   2.226   1.041
 2777SOL    HW1 9230   2.957   2.294   1.072
 2777SOL    HW2 9231   2.925   2.134   1.062
 2778SOL     OW 9232   1.003   6.277   6.487
 2778SOL    HW1 9233   0.933   6.313   6.548
 2778SOL    HW2 9234   0.971   6.191   6.446
 2779SOL     OW 9235   5.645   6.548   2.014
 2779SOL    HW1 9236   5.641   6.453   1.983
 2779SOL    HW2 9237   5.552   6.580   2.033
 2780SOL     OW 9238   6.948   0.050   5.743
 2780SOL    HW1 9239   6.865   0.106   5.741
 2780SOL    HW2 9240   6.928   6.975   5.706
 2781SOL     OW 9241   5.741   0.785   2.713
 2781SOL    HW1 9242   5.810   0.735   2.765
 2781SOL    HW2 9243   5.713   0.866   2.764
 2782SOL     OW 9244   4.513   1.302   5.034
 2782SOL    HW1 9245   4.504   1.401   5.045
 2782SOL    HW2 9246   4.489   1.256   5.119
 2783SOL     OW 9247   6.524   3.951   2.074
 2783SOL    HW1 9248   6.587   4.025   2.054
 2783SOL    HW2 9249   6.441   3.987   2.116
 2784SOL     OW 9250   3.397   1.385   2.295
 2784SOL    HW1 9251   3.345   1.457   2.249
 2784SOL    HW2 9252   3.479   1.424   2.336
 2785SOL     OW 9253   5.338   2.201   0.797
 2785SOL    HW1 9254   5.307   2.111   0.827
 2785SOL    HW2 9255   5.343   2.263   0.875
 2786SOL     OW 9256   6.331   6.690   1.863
 2786SOL    HW1 9257   6.296   6.615   1.807
 2786SOL    HW2 9258   6.395   6.653   1.931
 2787SOL     OW 9259   5.950   6.871   5.701
 2787SOL    HW1 9260   5.989   6.873   5.609
 2787SOL    HW2 9261   5.920   6.778   5.723
 2788SOL     OW 9262   2.723   6.421   5.835
 2788SOL    HW1 9263   2.627   6.439   5.815
 2788SOL    HW2 9264   2.775   6.506   5.835
 2789SOL     OW 9265   1.940   1.944   3.613
 2789SOL    HW1 9266   1.972   2.014   3.677
 2789SOL    HW2 9267   2.013   1.923   3.548
 2790SOL     OW 9268   3.281   5.554   1.441
 2790SOL    HW1 9269   3.272   5.498   1.523
 2790SOL    HW2 9270   3.322   5.643   1.465
 2791SOL     OW 9271   0.668   3.324   2.335
 2791SOL    HW1 9272   0.639   3.419   2.326
 2791SOL    HW2 9273   0.587   3.265   2.337
 2792SOL     OW 9274   2.271   0.546   4.342
 2792SOL    HW1 9275   2.175   0.548   4.313
 2792SOL    HW2 9276   2.285   0.467   4.403
 2793SOL     OW 9277   5.233   3.668   1.865
 2793SOL    HW1 9278   5.229   3.679   1.765
 2793SOL    HW2 9279   5.225   3.571   1.887
 2794SOL     OW 9280   6.730   2.194   5.870
 2794SOL    HW1 9281   6.798   2.126   5.843
 2794SOL    HW2 9282   6.653   2.191   5.806
 2795SOL     OW 9283   0.681   3.474   0.944
 2795SOL    HW1 9284   0.632   3.514   1.021
 2795SOL    HW2 9285   0.700   3.378   0.963
 2796SOL     OW 9286   0.056   6.063   3.472
 2796SOL    HW1 9287   0.087   6.104   3.558
 2796SOL    HW2 9288   0.028   6.135   3.409
 2797SOL     OW 9289   5.118   5.335   5.303
 2797SOL    HW1 9290   5.138   5.338   5.401
 2797SOL    HW2 9291   5.041   5.395   5.282
 2798SOL     OW 9292   6.376   5.676   2.652
 2798SOL    HW1 9293   6.391   5.625   2.737
 2798SOL    HW2 9294   6.417   5.767   2.661
 2799SOL     OW 9295   5.619   6.076   6.105
 2799SOL    HW1 9296   5.626   6.166   6.062
 2799SOL    HW2 9297   5.525   6.062   6.137
 2800SOL     OW 9298   5.545   6.341   5.626
 2800SOL    HW1 9299   5.487   6.271   5.584
 2800SOL    HW2 9300   5.520   6.431   5.590
 2801SOL     OW 9301   0.406   5.790   5.904
 2801SOL    HW1 9302   0.324   5.848   5.913
 2801SOL    HW2 9303   0.473   5.837   5.847
 2802SOL     OW 9304   5.430   6.590   5.515
 2802SOL    HW1 9305   5.353   6.632   5.562
 2802SOL    HW2 9306   5.421   6.602   5.416
 2803SOL     OW 9307   3.813   5.180   5.665
 2803SOL    HW1 9308   3.787   5.084   5.651
 2803SOL    HW2 9309   3.736   5.230   5.703
 2804SOL     OW 9310   0.753   3.828   5.108
 2804SOL    HW1 9311   0.799   3.745   5.076
 2804SOL    HW2 9312   0.821   3.891   5.147
 2805SOL     OW 9313   5.737   3.293   3.078
 2805SOL    HW1 9314   5.722   3.285   2.979
 2805SOL    HW2 9315   5.803   3.224   3.107
 2806SOL     OW 9316   2.207   3.917   5.922
 2806SOL    HW1 9317   2.151   3.835   5.907
 2806SOL    HW2 9318   2.302   3.890   5.937
 2807SOL     OW 9319   4.415   6.891   3.139
 2807SOL    HW1 9320   4.385   6.822   3.073
 2807SOL    HW2 9321   4.336   6.941   3.173
 2808SOL     OW 9322   6.498   5.229   1.452
 2808SOL    HW1 9323   6.485   5.304   1.387
 2808SOL    HW2 9324   6.416   5.172   1.454
 2809SOL     OW 9325   5.092   2.648   1.249
 2809SOL    HW1 9326   5.049   2.648   1.158
 2809SOL    HW2 9327   5.025   2.680   1.316
 2810SOL     OW 9328   2.617   6.071   2.817
 2810SOL    HW1 9329   2.646   6.153   2.865
 2810SOL    HW2 9330   2.640   5.990   2.872
 2811SOL     OW 9331   1.041   1.771   2.842
 2811SOL    HW1 9332   1.040   1.773   2.942
 2811SOL    HW2 9333   1.009   1.859   2.807
 2812SOL     OW 9334   6.063   3.601   0.589
 2812SOL    HW1 9335   5.978   3.648   0.613
 2812SOL    HW2 9336   6.135   3.669   0.571
 2813SOL     OW 9337   0.450   1.879   6.839
 2813SOL    HW1 9338   0.474   1.946   6.909
 2813SOL    HW2 9339   0.533   1.845   6.795
 2814SOL     OW 9340   3.263   4.103   5.634
 2814SOL    HW1 9341   3.320   4.184   5.641
 2814SOL    HW2 9342   3.257   4.058   5.724
 2815SOL     OW 9343   6.712   5.053   6.216
 2815SOL    HW1 9344   6.790   5.110   6.243
 2815SOL    HW2 9345   6.698   4.981   6.284
 2816SOL     OW 9346   6.514   6.385   4.252
 2816SOL    HW1 9347   6.475   6.424   4.336
 2816SOL    HW2 9348   6.510   6.286   4.256
 2817SOL     OW 9349   3.158   0.486   2.954
 2817SOL    HW1 9350   3.060   0.505   2.950
 2817SOL    HW2 9351   3.203   0.552   3.014
 2818SOL     OW 9352   0.421   1.094   2.322
 2818SOL    HW1 9353   0.345   1.065   2.263
 2818SOL    HW2 9354   0.392   1.089   2.417
 2819SOL     OW 9355   1.564   0.106   1.854
 2819SOL    HW1 9356   1.627   0.182   1.867
 2819SOL    HW2 9357   1.477   0.128   1.898
 2820SOL     OW 9358   1.401   1.937   2.489
 2820SOL    HW1 9359   1.451   1.884   2.558
 2820SOL    HW2 9360   1.385   1.880   2.408
 2821SOL     OW 9361   2.851   5.092   6.042
 2821SOL    HW1 9362   2.844   5.001   6.085
 2821SOL    HW2 9363   2.797   5.093   5.958
 2822SOL     OW 9364   4.615   1.941   0.292
 2822SOL    HW1 9365   4.573   1.861   0.248
 2822SOL    HW2 9366   4.557   1.972   0.367
 2823SOL     OW 9367   6.133   1.204   0.179
 2823SOL    HW1 9368   6.226   1.184   0.211
 2823SOL    HW2 9369   6.115   1.302   0.188
 2824SOL     OW 9370   2.152   2.005   5.599
 2824SOL    HW1 9371   2.161   2.102   5.624
 2824SOL    HW2 9372   2.216   1.984   5.525
 2825SOL     OW 9373   5.622   0.156   5.749
 2825SOL    HW1 9374   5.566   0.222   5.800
 2825SOL    HW2 9375   5.688   0.114   5.812
 2826SOL     OW 9376   3.714   2.906   6.269
 2826SOL    HW1 9377   3.688   2.984   6.212
 2826SOL    HW2 9378   3.665   2.825   6.238
 2827SOL     OW 9379   0.218   0.458   6.399
 2827SOL    HW1 9380   0.308   0.499   6.387
 2827SOL    HW2 9381   0.149   0.531   6.405
 2828SOL     OW 9382   2.017   2.879   0.555
 2828SOL    HW1 9383   2.008   2.839   0.464
 2828SOL    HW2 9384   1.975   2.818   0.622
 2829SOL     OW 9385   3.056   3.074   3.298
 2829SOL    HW1 9386   3.082   3.033   3.210
 2829SOL    HW2 9387   3.121   3.046   3.368
 2830SOL     OW 9388   3.306   3.918   5.381
 2830SOL    HW1 9389   3.315   3.992   5.314
 2830SOL    HW2 9390   3.393   3.906   5.429
 2831SOL     OW 9391   1.181   3.297   2.780
 2831SOL    HW1 9392   1.180   3.309   2.880
 2831SOL    HW2 9393   1.168   3.201   2.758
 2832SOL     OW 9394   1.049   2.793   1.689
 2832SOL    HW1 9395   0.970   2.845   1.655
 2832SOL    HW2 9396   1.024   2.696   1.694
 2833SOL     OW 9397   3.118   1.321   2.327
 2833SOL    HW1 9398   3.074   1.390   2.268
 2833SOL    HW2 9399   3.203   1.359   2.364
 2834SOL     OW 9400   4.036   6.655   4.683
 2834SOL    HW1 9401   4.123   6.608   4.692
 2834SOL    HW2 9402   3.974   6.601   4.626
 2835SOL     OW 9403   0.431   6.578   0.678
 2835SOL    HW1 9404   0.374   6.656   0.705
 2835SOL    HW2 9405   0.373   6.502   0.650
 2836SOL     OW 9406   1.422   6.412   1.459
 2836SOL    HW1 9407   1.375   6.494   1.425
 2836SOL    HW2 9408   1.415   6.339   1.391
 2837SOL     OW 9409   5.231   5.001   2.505
 2837SOL    HW1 9410   5.303   5.047   2.557
 2837SOL    HW2 9411   5.169   5.069   2.466
 2838SOL     OW 9412   4.416   3.428   1.085
 2838SOL    HW1 9413   4.428   3.486   1.166
 2838SOL    HW2 9414   4.363   3.348   1.110
 2839SOL     OW 9415   0.039   2.532   2.298
 2839SOL    HW1 9416   7.015   2.471   2.367
 2839SOL    HW2 9417   0.133   2.554   2.322
 2840SOL     OW 9418   1.742   6.037   2.137
 2840SOL    HW1 9419   1.722   6.038   2.235
 2840SOL    HW2 9420   1.663   6.072   2.086
 2841SOL     OW 9421   6.401   2.605   6.468
 2841SOL    HW1 9422   6.500   2.618   6.464
 2841SOL    HW2 9423   6.372   2.549   6.390
 2842SOL     OW 9424   0.666   5.436   4.568
 2842SOL    HW1 9425   0.575   5.435   4.611
 2842SOL    HW2 9426   0.692   5.343   4.544
 2843SOL     OW 9427   2.677   1.485   2.314
 2843SOL    HW1 9428   2.685   1.418   2.388
 2843SOL    HW2 9429   2.601   1.547   2.333
 2844SOL     OW 9430   6.325   5.380   0.628
 2844SOL    HW1 9431   6.392   5.403   0.698
 2844SOL    HW2 9432   6.246   5.441   0.636
 2845SOL     OW 9433   5.185   3.018   2.655
 2845SOL    HW1 9434   5.202   2.920   2.647
 2845SOL    HW2 9435   5.098   3.041   2.611
 2846SOL     OW 9436   3.632   0.455   0.604
 2846SOL    HW1 9437   3.611   0.519   0.679
 2846SOL    HW2 9438   3.672   0.372   0.643
 2847SOL     OW 9439   4.939   4.027   3.126
 2847SOL    HW1 9440   5.003   4.031   3.203
 2847SOL    HW2 9441   4.987   4.045   3.041
 2848SOL     OW 9442   2.454   2.770   5.726
 2848SOL    HW1 9443   2.443   2.692   5.665
 2848SOL    HW2 9444   2.379   2.834   5.713
 2849SOL     OW 9445   3.534   0.516   1.610
 2849SOL    HW1 9446   3.607   0.577   1.641
 2849SOL    HW2 9447   3.449   0.569   1.600
 2850SOL     OW 9448   2.213   0.491   3.201
 2850SOL    HW1 9449   2.287   0.433   3.236
 2850SOL    HW2 9450   2.189   0.462   3.109
 2851SOL     OW 9451   4.998   3.128   6.668
 2851SOL    HW1 9452   5.060   3.193   6.714
 2851SOL    HW2 9453   4.944   3.177   6.600
 2852SOL     OW 9454   6.084   4.537   6.439
 2852SOL    HW1 9455   6.170   4.567   6.478
 2852SOL    HW2 9456   6.099   4.507   6.344
 2853SOL     OW 9457   1.249   2.533   6.940
 2853SOL    HW1 9458   1.163   2.501   6.978
 2853SOL    HW2 9459   1.326   2.495   6.992
 2854SOL     OW 9460   3.910   0.306   5.832
 2854SOL    HW1 9461   4.000   0.277   5.798
 2854SOL    HW2 9462   3.858   0.348   5.758
 2855SOL     OW 9463   1.392   2.171   5.400
 2855SOL    HW1 9464   1.438   2.233   5.464
 2855SOL    HW2 9465   1.457   2.102   5.369
 2856SOL     OW 9466   1.254   3.258   4.285
 2856SOL    HW1 9467   1.204   3.243   4.370
 2856SOL    HW2 9468   1.345   3.293   4.305
 2857SOL     OW 9469   0.566   2.599   1.589
 2857SOL    HW1 9470   0.553   2.559   1.498
 2857SOL    HW2 9471   0.540   2.695   1.587
 2858SOL     OW 9472   4.828   5.227   2.126
 2858SOL    HW1 9473   4.760   5.234   2.198
 2858SOL    HW2 9474   4.818   5.304   2.063
 2859SOL     OW 9475   6.350   6.507   0.338
 2859SOL    HW1 9476   6.266   6.545   0.376
 2859SOL    HW2 9477   6.396   6.576   0.283
 2860SOL     OW 9478   2.346   0.520   2.472
 2860SOL    HW1 9479   2.279   0.450   2.445
 2860SOL    HW2 9480   2.322   0.607   2.430
 2861SOL     OW 9481   3.619   5.506   5.584
 2861SOL    HW1 9482   3.664   5.590   5.554
 2861SOL    HW2 9483   3.520   5.519   5.581
 2862SOL     OW 9484   4.258   2.368   1.844
 2862SOL    HW1 9485   4.169   2.370   1.799
 2862SOL    HW2 9486   4.309   2.451   1.821
 2863SOL     OW 9487   4.906   1.530   6.219
 2863SOL    HW1 9488   4.845   1.451   6.226
 2863SOL    HW2 9489   4.951   1.529   6.129
 2864SOL     OW 9490   4.521   2.446   0.790
 2864SOL    HW1 9491   4.533   2.484   0.882
 2864SOL    HW2 9492   4.470   2.360   0.796
 2865SOL     OW 9493   4.244   6.618   3.815
 2865SOL    HW1 9494   4.182   6.563   3.871
 2865SOL    HW2 9495   4.218   6.609   3.719
 2866SOL     OW 9496   5.470   3.956   0.244
 2866SOL    HW1 9497   5.463   3.921   0.151
 2866SOL    HW2 9498   5.465   3.880   0.309
 2867SOL     OW 9499   6.272   6.206   3.338
 2867SOL    HW1 9500   6.203   6.169   3.401
 2867SOL    HW2 9501   6.232   6.279   3.284
 2868SOL     OW 9502   1.523   1.400   5.404
 2868SOL    HW1 9503   1.508   1.341   5.483
 2868SOL    HW2 9504   1.437   1.416   5.356
 2869SOL     OW 9505   6.268   0.946   3.316
 2869SOL    HW1 9506   6.350   0.953   3.261
 2869SOL    HW2 9507   6.187   0.953   3.257
 2870SOL     OW 9508   0.603   1.757   5.926
 2870SOL    HW1 9509   0.564   1.812   6.000
 2870SOL    HW2 9510   0.697   1.787   5.908
 2871SOL     OW 9511   6.037   0.837   0.722
 2871SOL    HW1 9512   6.046   0.934   0.747
 2871SOL    HW2 9513   5.988   0.830   0.635
 2872SOL     OW 9514   2.587   2.064   1.085
 2872SOL    HW1 9515   2.621   2.024   1.170
 2872SOL    HW2 9516   2.663   2.108   1.037
 2873SOL     OW 9517   6.744   6.781   2.607
 2873SOL    HW1 9518   6.712   6.873   2.586
 2873SOL    HW2 9519   6.835   6.785   2.649
 2874SOL     OW 9520   3.787   6.422   2.819
 2874SOL    HW1 9521   3.776   6.520   2.802
 2874SOL    HW2 9522   3.780   6.372   2.733
 2875SOL     OW 9523   4.459   0.187   2.028
 2875SOL    HW1 9524   4.544   0.166   1.980
 2875SOL    HW2 9525   4.393   0.224   1.963
 2876SOL     OW 9526   1.748   0.277   2.997
 2876SOL    HW1 9527   1.739   0.284   2.898
 2876SOL    HW2 9528   1.681   0.335   3.042
 2877SOL     OW 9529   2.649   0.815   6.291
 2877SOL    HW1 9530   2.587   0.871   6.237
 2877SOL    HW2 9531   2.741   0.854   6.287
 2878SOL     OW 9532   2.983   3.708   5.087
 2878SOL    HW1 9533   3.067   3.697   5.141
 2878SOL    HW2 9534   2.939   3.619   5.075
 2879SOL     OW 9535   5.699   5.723   5.517
 2879SOL    HW1 9536   5.706   5.769   5.605
 2879SOL    HW2 9537   5.632   5.770   5.460
 2880SOL     OW 9538   0.496   1.153   3.402
 2880SOL    HW1 9539   0.410   1.191   3.366
 2880SOL    HW2 9540   0.477   1.102   3.485
 2881SOL     OW 9541   3.635   5.712   0.269
 2881SOL    HW1 9542   3.579   5.673   0.196
 2881SOL    HW2 9543   3.581   5.721   0.352
 2882SOL     OW 9544   6.974   5.559   1.510
 2882SOL    HW1 9545   0.039   5.514   1.550
 2882SOL    HW2 9546   6.989   5.573   1.412
 2883SOL     OW 9547   5.673   0.122   3.504
 2883SOL    HW1 9548   5.767   0.111   3.472
 2883SOL    HW2 9549   5.654   0.218   3.522
 2884SOL     OW 9550   0.594   6.319   2.630
 2884SOL    HW1 9551   0.677   6.367   2.657
 2884SOL    HW2 9552   0.515   6.377   2.647
 2885SOL     OW 9553   1.864   2.212   4.718
 2885SOL    HW1 9554   1.832   2.256   4.801
 2885SOL    HW2 9555   1.938   2.149   4.739
 2886SOL     OW 9556   1.896   3.463   6.499
 2886SOL    HW1 9557   1.833   3.498   6.568
 2886SOL    HW2 9558   1.909   3.365   6.513
 2887SOL     OW 9559   0.696   6.398   4.959
 2887SOL    HW1 9560   0.684   6.342   4.877
 2887SOL    HW2 9561   0.792   6.424   4.967
 2888SOL     OW 9562   0.130   4.582   0.274
 2888SOL    HW1 9563   0.093   4.565   0.182
 2888SOL    HW2 9564   0.214   4.635   0.267
 2889SOL     OW 9565   3.265   5.679   2.923
 2889SOL    HW1 9566   3.232   5.773   2.936
 2889SOL    HW2 9567   3.344   5.663   2.982
 2890SOL     OW 9568   1.369   6.248   0.599
 2890SOL    HW1 9569   1.451   6.194   0.581
 2890SOL    HW2 9570   1.393   6.332   0.647
 2891SOL     OW 9571   0.863   3.765   3.415
 2891SOL    HW1 9572   0.792   3.825   3.451
 2891SOL    HW2 9573   0.948   3.780   3.466
 2892SOL     OW 9574   6.146   2.675   1.652
 2892SOL    HW1 9575   6.088   2.655   1.573
 2892SOL    HW2 9576   6.242   2.676   1.623
 2893SOL     OW 9577   0.738   4.703   4.421
 2893SOL    HW1 9578   0.751   4.605   4.429
 2893SOL    HW2 9579   0.668   4.733   4.487
 2894SOL     OW 9580   1.389   3.675   1.491
 2894SOL    HW1 9581   1.488   3.691   1.488
 2894SOL    HW2 9582   1.365   3.603   1.426
 2895SOL     OW 9583   5.375   0.891   5.872
 2895SOL    HW1 9584   5.406   0.902   5.777
 2895SOL    HW2 9585   5.455   0.885   5.932
 2896SOL     OW 9586   4.096   0.052   5.461
 2896SOL    HW1 9587   4.092   6.967   5.460
 2896SOL    HW2 9588   4.007   0.089   5.485
 2897SOL     OW 9589   3.896   4.803   2.235
 2897SOL    HW1 9590   3.834   4.875   2.265
 2897SOL    HW2 9591   3.846   4.737   2.178
 2898SOL     OW 9592   4.351   4.774   4.307
 2898SOL    HW1 9593   4.351   4.854   4.247
 2898SOL    HW2 9594   4.436   4.773   4.361
 2899SOL     OW 9595   0.275   1.782   0.603
 2899SOL    HW1 9596   0.175   1.779   0.609
 2899SOL    HW2 9597   0.302   1.840   0.527
 2900SOL     OW 9598   3.719   4.660   6.792
 2900SOL    HW1 9599   3.656   4.714   6.736
 2900SOL    HW2 9600   3.675   4.637   6.878
 2901SOL     OW 9601   2.176   4.703   3.450
 2901SOL    HW1 9602   2.087   4.690   3.494
 2901SOL    HW2 9603   2.194   4.801   3.441
 2902SOL     OW 9604   6.324   5.238   3.208
 2902SOL    HW1 9605   6.398   5.265   3.145
 2902SOL    HW2 9606   6.342   5.146   3.243
 2903SOL     OW 9607   4.193   6.497   0.728
 2903SOL    HW1 9608   4.130   6.500   0.805
 2903SOL    HW2 9609   4.143   6.506   0.642
 2904SOL     OW 9610   2.833   4.991   5.299
 2904SOL    HW1 9611   2.864   5.072   5.250
 2904SOL    HW2 9612   2.901   4.919   5.292
 2905SOL     OW 9613   1.524   3.757   4.150
 2905SOL    HW1 9614   1.483   3.748   4.241
 2905SOL    HW2 9615   1.558   3.667   4.120
 2906SOL     OW 9616   4.796   5.704   2.892
 2906SOL    HW1 9617   4.885   5.690   2.934
 2906SOL    HW2 9618   4.808   5.750   2.804
 2907SOL     OW 9619   0.407   1.752   3.633
 2907SOL    HW1 9620   0.394   1.654   3.644
 2907SOL    HW2 9621   0.490   1.781   3.680
 2908SOL     OW 9622   4.987   6.763   3.075
 2908SOL    HW1 9623   4.888   6.751   3.074
 2908SOL    HW2 9624   5.021   6.774   2.982
 2909SOL     OW 9625   2.442   5.461   4.424
 2909SOL    HW1 9626   2.355   5.440   4.469
 2909SOL    HW2 9627   2.518   5.437   4.484
 2910SOL     OW 9628   5.864   0.001   4.054
 2910SOL    HW1 9629   5.792   0.054   4.100
 2910SOL    HW2 9630   5.895   0.050   3.972
 2911SOL     OW 9631   1.730   4.872   3.775
 2911SOL    HW1 9632   1.705   4.799   3.839
 2911SOL    HW2 9633   1.647   4.923   3.750
 2912SOL     OW 9634   6.554   6.408   0.500
 2912SOL    HW1 9635   6.591   6.486   0.550
 2912SOL    HW2 9636   6.494   6.441   0.427
 2913SOL     OW 9637   3.632   5.215   1.964
 2913SOL    HW1 9638   3.540   5.227   1.927
 2913SOL    HW2 9639   3.660   5.120   1.953
 2914SOL     OW 9640   6.223   5.858   0.076
 2914SOL    HW1 9641   6.167   5.849   7.009
 2914SOL    HW2 9642   6.181   5.923   0.138
 2915SOL     OW 9643   2.932   1.950   3.463
 2915SOL    HW1 9644   2.893   1.944   3.371
 2915SOL    HW2 9645   2.872   1.904   3.528
 2916SOL     OW 9646   1.062   5.331   0.467
 2916SOL    HW1 9647   1.088   5.417   0.511
 2916SOL    HW2 9648   1.056   5.344   0.369
 2917SOL     OW 9649   2.894   0.093   4.462
 2917SOL    HW1 9650   2.800   0.068   4.443
 2917SOL    HW2 9651   2.917   0.178   4.415
 2918SOL     OW 9652   6.092   3.977   5.483
 2918SOL    HW1 9653   6.141   3.970   5.570
 2918SOL    HW2 9654   6.157   3.974   5.407
 2919SOL     OW 9655   5.911   0.651   2.841
 2919SOL    HW1 9656   5.907   0.552   2.827
 2919SOL    HW2 9657   5.934   0.670   2.937
 2920SOL     OW 9658   3.372   0.706   1.188
 2920SOL    HW1 9659   3.300   0.768   1.220
 2920SOL    HW2 9660   3.332   0.617   1.167
 2921SOL     OW 9661   0.524   0.314   5.522
 2921SOL    HW1 9662   0.604   0.370   5.503
 2921SOL    HW2 9663   0.489   0.276   5.437
 2922SOL     OW 9664   4.921   6.425   1.788
 2922SOL    HW1 9665   4.903   6.473   1.874
 2922SOL    HW2 9666   4.895   6.483   1.711
 2923SOL     OW 9667   6.822   5.795   4.309
 2923SOL    HW1 9668   6.769   5.800   4.224
 2923SOL    HW2 9669   6.773   5.737   4.374
 2924SOL     OW 9670   0.035   2.468   5.063
 2924SOL    HW1 9671   0.090   2.386   5.048
 2924SOL    HW2 9672   6.962   2.442   5.102
 2925SOL     OW 9673   5.698   2.415   0.722
 2925SOL    HW1 9674   5.617   2.377   0.677
 2925SOL    HW2 9675   5.769   2.433   0.654
 2926SOL     OW 9676   5.546   2.245   6.612
 2926SOL    HW1 9677   5.573   2.236   6.516
 2926SOL    HW2 9678   5.625   2.274   6.666
 2927SOL     OW 9679   1.870   3.845   1.073
 2927SOL    HW1 9680   1.936   3.788   1.120
 2927SOL    HW2 9681   1.777   3.814   1.094
 2928SOL     OW 9682   0.106   0.526   6.856
 2928SOL    HW1 9683   0.020   0.510   6.905
 2928SOL    HW2 9684   0.087   0.563   6.765
 2929SOL     OW 9685   1.273   3.010   5.894
 2929SOL    HW1 9686   1.213   3.065   5.836
 2929SOL    HW2 9687   1.332   3.070   5.948
 2930SOL     OW 9688   5.248   6.780   5.355
 2930SOL    HW1 9689   5.217   6.875   5.354
 2930SOL    HW2 9690   5.347   6.778   5.372
 2931SOL     OW 9691   5.020   5.172   6.641
 2931SOL    HW1 9692   5.008   5.076   6.618
 2931SOL    HW2 9693   5.037   5.182   6.739
 2932SOL     OW 9694   0.883   5.563   1.968
 2932SOL    HW1 9695   0.946   5.586   1.895
 2932SOL    HW2 9696   0.858   5.467   1.963
 2933SOL     OW 9697   1.767   6.576   2.184
 2933SOL    HW1 9698   1.670   6.594   2.172
 2933SOL    HW2 9699   1.792   6.491   2.137
 2934SOL     OW 9700   5.903   2.780   0.223
 2934SOL    HW1 9701   5.913   2.856   0.287
 2934SOL    HW2 9702   5.844   2.807   0.147
 2935SOL     OW 9703   6.883   2.588   6.187
 2935SOL    HW1 9704   6.925   2.675   6.159
 2935SOL    HW2 9705   6.940   2.544   6.256
 2936SOL     OW 9706   4.593   6.051   0.307
 2936SOL    HW1 9707   4.576   6.108   0.227
 2936SOL    HW2 9708   4.578   6.105   0.390
 2937SOL     OW 9709   5.380   4.782   1.144
 2937SOL    HW1 9710   5.409   4.868   1.185
 2937SOL    HW2 9711   5.286   4.790   1.110
 2938SOL     OW 9712   5.557   4.670   0.131
 2938SOL    HW1 9713   5.618   4.630   0.064
 2938SOL    HW2 9714   5.467   4.687   0.089
 2939SOL     OW 9715   2.244   0.680   1.818
 2939SOL    HW1 9716   2.270   0.618   1.745
 2939SOL    HW2 9717   2.320   0.689   1.883
 2940SOL     OW 9718   5.445   5.057   5.392
 2940SOL    HW1 9719   5.477   5.152   5.396
 2940SOL    HW2 9720   5.387   5.046   5.311
 2941SOL     OW 9721   1.607   2.322   4.293
 2941SOL    HW1 9722   1.632   2.236   4.337
 2941SOL    HW2 9723   1.569   2.385   4.361
 2942SOL     OW 9724   3.797   1.559   0.988
 2942SOL    HW1 9725   3.814   1.572   0.890
 2942SOL    HW2 9726   3.797   1.648   1.034
 2943SOL     OW 9727   5.842   4.219   3.836
 2943SOL    HW1 9728   5.836   4.173   3.924
 2943SOL    HW2 9729   5.937   4.219   3.805
 2944SOL     OW 9730   3.144   6.273   4.162
 2944SOL    HW1 9731   3.122   6.371   4.168
 2944SOL    HW2 9732   3.115   6.239   4.072
 2945SOL     OW 9733   4.369   3.010   1.472
 2945SOL    HW1 9734   4.404   3.058   1.552
 2945SOL    HW2 9735   4.444   2.995   1.407
 2946SOL     OW 9736   1.910   4.689   5.951
 2946SOL    HW1 9737   1.841   4.751   5.989
 2946SOL    HW2 9738   1.918   4.706   5.853
 2947SOL     OW 9739   1.220   5.787   1.442
 2947SOL    HW1 9740   1.206   5.693   1.474
 2947SOL    HW2 9741   1.307   5.822   1.477
 2948SOL     OW 9742   0.122   4.456   4.667
 2948SOL    HW1 9743   0.034   4.461   4.714
 2948SOL    HW2 9744   0.137   4.363   4.633
 2949SOL     OW 9745   0.927   5.436   1.067
 2949SOL    HW1 9746   0.892   5.463   0.977
 2949SOL    HW2 9747   0.850   5.418   1.128
 2950SOL     OW 9748   5.903   5.849   4.538
 2950SOL    HW1 9749   5.906   5.939   4.495
 2950SOL    HW2 9750   5.808   5.817   4.542
 2951SOL     OW 9751   5.604   2.243   1.915
 2951SOL    HW1 9752   5.674   2.189   1.868
 2951SOL    HW2 9753   5.615   2.234   2.014
 2952SOL     OW 9754   0.134   6.375   5.720
 2952SOL    HW1 9755   0.217   6.397   5.773
 2952SOL    HW2 9756   0.056   6.367   5.782
 2953SOL     OW 9757   6.451   4.314   2.938
 2953SOL    HW1 9758   6.479   4.383   2.872
 2953SOL    HW2 9759   6.361   4.337   2.975
 2954SOL     OW 9760   0.886   4.965   1.596
 2954SOL    HW1 9761   0.825   4.964   1.675
 2954SOL    HW2 9762   0.874   4.880   1.544
 2955SOL     OW 9763   0.970   4.277   1.390
 2955SOL    HW1 9764   0.906   4.300   1.316
 2955SOL    HW2 9765   1.014   4.190   1.371
 2956SOL     OW 9766   5.798   5.520   2.955
 2956SOL    HW1 9767   5.883   5.571   2.946
 2956SOL    HW2 9768   5.780   5.470   2.870
 2957SOL     OW 9769   5.014   4.061   1.731
 2957SOL    HW1 9770   5.006   4.004   1.813
 2957SOL    HW2 9771   4.969   4.015   1.655
 2958SOL     OW 9772   1.840   4.302   3.436
 2958SOL    HW1 9773   1.834   4.220   3.494
 2958SOL    HW2 9774   1.932   4.341   3.444
 2959SOL     OW 9775   5.263   3.400   1.932
 2959SOL    HW1 9776   5.285   3.393   2.030
 2959SOL    HW2 9777   5.193   3.333   1.909
 2960SOL     OW 9778   3.359   0.167   0.073
 2960SOL    HW1 9779   3.369   0.069   0.091
 2960SOL    HW2 9780   3.386   0.187   6.995
 2961SOL     OW 9781   5.782   4.813   3.276
 2961SOL    HW1 9782   5.817   4.771   3.193
 2961SOL    HW2 9783   5.793   4.750   3.353
 2962SOL     OW 9784   4.484   5.759   3.549
 2962SOL    HW1 9785   4.564   5.796   3.596
 2962SOL    HW2 9786   4.490   5.780   3.451
 2963SOL     OW 9787   0.876   1.009   6.983
 2963SOL    HW1 9788   0.857   1.098   0.010
 2963SOL    HW2 9789   0.857   1.015   6.885
 2964SOL     OW 9790   0.369   1.726   5.537
 2964SOL    HW1 9791   0.355   1.683   5.626
 2964SOL    HW2 9792   0.336   1.665   5.465
 2965SOL     OW 9793   0.624   0.968   4.701
 2965SOL    HW1 9794   0.654   0.874   4.686
 2965SOL    HW2 9795   0.575   0.974   4.789
 2966SOL     OW 9796   4.786   4.998   3.018
 2966SOL    HW1 9797   4.884   4.978   3.010
 2966SOL    HW2 9798   4.770   5.053   3.100
 2967SOL     OW 9799   5.823   1.177   5.710
 2967SOL    HW1 9800   5.775   1.160   5.623
 2967SOL    HW2 9801   5.893   1.246   5.696
 2968SOL     OW 9802   0.803   2.438   0.612
 2968SOL    HW1 9803   0.839   2.419   0.703
 2968SOL    HW2 9804   0.850   2.516   0.572
 2969SOL     OW 9805   4.738   2.449   4.317
 2969SOL    HW1 9806   4.694   2.493   4.239
 2969SOL    HW2 9807   4.836   2.468   4.316
 2970SOL     OW 9808   2.668   3.013   5.371
 2970SOL    HW1 9809   2.608   3.044   5.297
 2970SOL    HW2 9810   2.652   2.916   5.388
 2971SOL     OW 9811   4.922   3.846   1.185
 2971SOL    HW1 9812   5.020   3.864   1.190
 2971SOL    HW2 9813   4.901   3.803   1.097
 2972SOL     OW 9814   6.412   4.956   6.678
 2972SOL    HW1 9815   6.500   4.961   6.631
 2972SOL    HW2 9816   6.354   5.032   6.648
 2973SOL     OW 9817   5.303   6.048   2.106
 2973SOL    HW1 9818   5.277   6.024   2.199
 2973SOL    HW2 9819   5.292   6.147   2.093
 2974SOL     OW 9820   0.096   4.451   3.744
 2974SOL    HW1 9821   0.027   4.408   3.802
 2974SOL    HW2 9822   0.180   4.464   3.796
 2975SOL     OW 9823   5.086   4.403   4.139
 2975SOL    HW1 9824   5.004   4.445   4.101
 2975SOL    HW2 9825   5.073   4.304   4.144
 2976SOL     OW 9826   4.555   1.810   2.430
 2976SOL    HW1 9827   4.511   1.773   2.512
 2976SOL    HW2 9828   4.492   1.804   2.353
 2977SOL     OW 9829   0.897   0.553   2.881
 2977SOL    HW1 9830   0.852   0.464   2.874
 2977SOL    HW2 9831   0.898   0.581   2.977
 2978SOL     OW 9832   3.635   4.680   0.105
 2978SOL    HW1 9833   3.680   4.769   0.109
 2978SOL    HW2 9834   3.680   4.617   0.168
 2979SOL     OW 9835   3.408   1.289   3.952
 2979SOL    HW1 9836   3.326   1.344   3.936
 2979SOL    HW2 9837   3.409   1.257   4.047
 2980SOL     OW 9838   1.993   5.449   5.580
 2980SOL    HW1 9839   1.914   5.510   5.570
 2980SOL    HW2 9840   2.054   5.459   5.501
 2981SOL     OW 9841   2.540   0.589   6.667
 2981SOL    HW1 9842   2.474   0.663   6.659
 2981SOL    HW2 9843   2.615   0.604   6.602
 2982SOL     OW 9844   2.633   5.944   1.336
 2982SOL    HW1 9845   2.558   5.985   1.387
 2982SOL    HW2 9846   2.717   5.997   1.349
 2983SOL     OW 9847   6.287   2.353   1.916
 2983SOL    HW1 9848   6.281   2.452   1.904
 2983SOL    HW2 9849   6.365   2.331   1.975
 2984SOL     OW 9850   6.110   5.060   0.106
 2984SOL    HW1 9851   6.082   5.038   0.013
 2984SOL    HW2 9852   6.151   5.152   0.108
 2985SOL     OW 9853   2.080   2.074   4.728
 2985SOL    HW1 9854   2.066   2.021   4.644
 2985SOL    HW2 9855   2.175   2.105   4.732
 2986SOL     OW 9856   3.611   3.904   2.578
 2986SOL    HW1 9857   3.614   3.810   2.543
 2986SOL    HW2 9858   3.648   3.906   2.671
 2987SOL     OW 9859   1.394   1.237   4.541
 2987SOL    HW1 9860   1.406   1.246   4.442
 2987SOL    HW2 9861   1.362   1.324   4.579
 2988SOL     OW 9862   1.515   6.757   2.481
 2988SOL    HW1 9863   1.486   6.822   2.410
 2988SOL    HW2 9864   1.534   6.669   2.439
 2989SOL     OW 9865   5.069   4.919   5.874
 2989SOL    HW1 9866   5.072   4.972   5.959
 2989SOL    HW2 9867   5.157   4.872   5.862
 2990SOL     OW 9868   4.331   1.937   4.298
 2990SOL    HW1 9869   4.278   2.021   4.309
 2990SOL    HW2 9870   4.323   1.905   4.203
 2991SOL     OW 9871   6.241   3.174   5.802
 2991SOL    HW1 9872   6.208   3.244   5.739
 2991SOL    HW2 9873   6.341   3.172   5.801
 2992SOL     OW 9874   1.315   4.810   4.542
 2992SOL    HW1 9875   1.329   4.777   4.635
 2992SOL    HW2 9876   1.293   4.907   4.544
 2993SOL     OW 9877   0.984   5.246   1.596
 2993SOL    HW1 9878   0.953   5.152   1.581
 2993SOL    HW2 9879   0.918   5.310   1.558
 2994SOL     OW 9880   4.073   6.514   0.452
 2994SOL    HW1 9881   4.157   6.560   0.423
 2994SOL    HW2 9882   3.996   6.577   0.442
 2995SOL     OW 9883   3.777   1.081   6.599
 2995SOL    HW1 9884   3.859   1.138   6.600
 2995SOL    HW2 9885   3.714   1.113   6.670
 2996SOL     OW 9886   0.661   1.243   5.221
 2996SOL    HW1 9887   0.738   1.265   5.282
 2996SOL    HW2 9888   0.583   1.302   5.244
 2997SOL     OW 9889   4.799   0.419   2.952
 2997SOL    HW1 9890   4.828   0.332   2.993
 2997SOL    HW2 9891   4.701   0.414   2.931
 2998SOL     OW 9892   5.170   6.630   3.673
 2998SOL    HW1 9893   5.174   6.550   3.733
 2998SOL    HW2 9894   5.233   6.700   3.707
 2999SOL     OW 9895   2.336   5.265   5.380
 2999SOL    HW1 9896   2.426   5.289   5.341
 2999SOL    HW2 9897   2.265   5.284   5.312
 3000SOL     OW 9898   3.124   4.033   6.358
 3000SOL    HW1 9899   3.192   3.960   6.347
 3000SOL    HW2 9900   3.057   4.027   6.284
 3001SOL     OW 9901   6.490   1.445   6.716
 3001SOL    HW1 9902   6.440   1.358   6.722
 3001SOL    HW2 9903   6.430   1.519   6.745
 3002SOL     OW 9904   3.754   2.558   0.361
 3002SOL    HW1 9905   3.706   2.471   0.372
 3002SOL    HW2 9906   3.697   2.632   0.397
 3003SOL     OW 9907   0.695   6.729   0.708
 3003SOL    HW1 9908   0.704   6.815   0.659
 3003SOL    HW2 9909   0.611   6.683   0.680
 3004SOL     OW 9910   1.150   4.153   2.401
 3004SOL    HW1 9911   1.160   4.230   2.463
 3004SOL    HW2 9912   1.054   4.142   2.376
 3005SOL     OW 9913   1.419   2.399   0.095
 3005SOL    HW1 9914   1.510   2.381   0.133
 3005SOL    HW2 9915   1.351   2.392   0.168
 3006SOL     OW 9916   5.574   2.470   4.699
 3006SOL    HW1 9917   5.589   2.422   4.612
 3006SOL    HW2 9918   5.476   2.487   4.711
 3007SOL     OW 9919   5.199   4.217   1.012
 3007SOL    HW1 9920   5.239   4.305   0.985
 3007SOL    HW2 9921   5.249   4.181   1.092
 3008SOL     OW 9922   3.034   2.497   6.480
 3008SOL    HW1 9923   3.045   2.586   6.524
 3008SOL    HW2 9924   2.940   2.487   6.448
 3009SOL     OW 9925   6.401   2.571   2.652
 3009SOL    HW1 9926   6.374   2.604   2.562
 3009SOL    HW2 9927   6.492   2.604   2.674
 3010SOL     OW 9928   2.858   5.640   3.724
 3010SOL    HW1 9929   2.950   5.679   3.721
 3010SOL    HW2 9930   2.852   5.565   3.658
 3011SOL     OW 9931   5.908   0.695   2.238
 3011SOL    HW1 9932   5.861   0.665   2.322
 3011SOL    HW2 9933   6.000   0.727   2.261
 3012SOL     OW 9934   2.367   3.061   6.892
 3012SOL    HW1 9935   2.417   2.987   6.848
 3012SOL    HW2 9936   2.429   3.111   6.953
 3013SOL     OW 9937   5.672   5.243   4.133
 3013SOL    HW1 9938   5.656   5.161   4.079
 3013SOL    HW2 9939   5.702   5.217   4.225
 3014SOL     OW 9940   4.656   2.157   5.546
 3014SOL    HW1 9941   4.724   2.165   5.473
 3014SOL    HW2 9942   4.590   2.085   5.522
 3015SOL     OW 9943   1.724   1.851   0.286
 3015SOL    HW1 9944   1.664   1.791   0.339
 3015SOL    HW2 9945   1.669   1.924   0.244
 3016SOL     OW 9946   3.282   6.329   4.388
 3016SOL    HW1 9947   3.304   6.272   4.468
 3016SOL    HW2 9948   3.247   6.272   4.315
 3017SOL     OW 9949   6.473   5.699   2.382
 3017SOL    HW1 9950   6.552   5.638   2.378
 3017SOL    HW2 9951   6.431   5.694   2.472
 3018SOL     OW 9952   2.804   0.204   6.543
 3018SOL    HW1 9953   2.777   0.276   6.607
 3018SOL    HW2 9954   2.902   0.211   6.524
 3019SOL     OW 9955   0.504   6.925   6.681
 3019SOL    HW1 9956   0.413   6.886   6.692
 3019SOL    HW2 9957   0.534   6.914   6.586
 3020SOL     OW 9958   3.938   3.136   0.798
 3020SOL    HW1 9959   4.000   3.174   0.729
 3020SOL    HW2 9960   3.991   3.082   0.864
 3021SOL     OW 9961   3.082   0.234   4.969
 3021SOL    HW1 9962   3.038   0.169   5.031
 3021SOL    HW2 9963   3.055   0.214   4.875
 3022SOL     OW 9964   4.157   5.046   4.320
 3022SOL    HW1 9965   4.222   5.001   4.382
 3022SOL    HW2 9966   4.118   5.125   4.366
 3023SOL     OW 9967   4.255   6.262   3.067
 3023SOL    HW1 9968   4.188   6.324   3.107
 3023SOL    HW2 9969   4.310   6.220   3.139
 3024SOL     OW 9970   5.672   6.723   4.474
 3024SOL    HW1 9971   5.665   6.717   4.374
 3024SOL    HW2 9972   5.639   6.637   4.514
 3025SOL     OW 9973   4.414   6.088   1.865
 3025SOL    HW1 9974   4.458   6.177   1.874
 3025SOL    HW2 9975   4.320   6.095   1.899
 3026SOL     OW 9976   0.187   1.247   5.779
 3026SOL    HW1 9977   0.133   1.244   5.863
 3026SOL    HW2 9978   0.232   1.158   5.766
 3027SOL     OW 9979   3.791   1.897   2.726
 3027SOL    HW1 9980   3.830   1.834   2.660
 3027SOL    HW2 9981   3.764   1.847   2.808
 3028SOL     OW 9982   1.711   3.343   5.497
 3028SOL    HW1 9983   1.637   3.276   5.487
 3028SOL    HW2 9984   1.672   3.433   5.515
 3029SOL     OW 9985   1.316   3.166   4.653
 3029SOL    HW1 9986   1.280   3.077   4.683
 3029SOL    HW2 9987   1.385   3.151   4.582
 3030SOL     OW 9988   1.258   3.054   0.954
 3030SOL    HW1 9989   1.324   3.050   1.029
 3030SOL    HW2 9990   1.254   2.964   0.909
 3031SOL     OW 9991   0.074   5.017   1.158
 3031SOL    HW1 9992   0.133   5.077   1.103
 3031SOL    HW2 9993   0.040   5.067   1.237
 3032SOL     OW 9994   2.149   6.906   1.736
 3032SOL    HW1 9995   2.084   6.949   1.674
 3032SOL    HW2 9996   2.116   6.915   1.830
 3033SOL     OW 9997   5.416   0.927   2.152
 3033SOL    HW1 9998   5.507   0.888   2.140
 3033SOL    HW2 9999   5.390   0.976   2.069
 3034SOL     OW10000   0.903   0.026   3.575
 3034SOL    HW110001   0.913   0.114   3.528
 3034SOL    HW210002   0.822   6.994   3.539
 3035SOL     OW10003   0.772   3.074   6.288
 3035SOL    HW110004   0.706   3.135   6.245
 3035SOL    HW210005   0.832   3.035   6.218
 3036SOL     OW10006   1.370   2.365   4.966
 3036SOL    HW110007   1.394   2.270   4.944
 3036SOL    HW210008   1.316   2.367   5.050
 3037SOL     OW10009   6.302   5.275   6.039
 3037SOL    HW110010   6.226   5.318   6.088
 3037SOL    HW210011   6.337   5.199   6.093
 3038SOL     OW10012   4.910   4.886   5.663
 3038SOL    HW110013   4.978   4.891   5.736
 3038SOL    HW210014   4.825   4.929   5.693
 3039SOL     OW10015   0.811   2.866   0.977
 3039SOL    HW110016   0.893   2.919   0.998
 3039SOL    HW210017   0.814   2.780   1.028
 3040SOL     OW10018   3.609   4.088   6.073
 3040SOL    HW110019   3.645   4.166   6.023
 3040SOL    HW210020   3.684   4.028   6.101
 3041SOL     OW10021   2.265   4.235   5.485
 3041SOL    HW110022   2.283   4.275   5.396
 3041SOL    HW210023   2.295   4.140   5.486
 3042SOL     OW10024   6.112   6.385   3.199
 3042SOL    HW110025   6.141   6.460   3.139
 3042SOL    HW210026   6.013   6.373   3.190
 3043SOL     OW10027   2.974   3.893   1.813
 3043SOL    HW110028   3.028   3.919   1.893
 3043SOL    HW210029   3.019   3.925   1.730
 3044SOL     OW10030   3.385   6.176   5.333
 3044SOL    HW110031   3.358   6.110   5.263
 3044SOL    HW210032   3.317   6.177   5.406
 3045SOL     OW10033   5.218   6.686   3.158
 3045SOL    HW110034   5.251   6.714   3.068
 3045SOL    HW210035   5.120   6.704   3.164
 3046SOL     OW10036   3.744   0.583   6.647
 3046SOL    HW110037   3.840   0.610   6.640
 3046SOL    HW210038   3.689   0.662   6.674
 3047SOL     OW10039   6.115   0.346   1.546
 3047SOL    HW110040   6.020   0.371   1.561
 3047SOL    HW210041   6.142   0.367   1.452
 3048SOL     OW10042   4.022   2.491   0.751
 3048SOL    HW110043   4.041   2.422   0.822
 3048SOL    HW210044   3.925   2.485   0.724
 3049SOL     OW10045   1.520   0.216   3.262
 3049SOL    HW110046   1.446   0.201   3.328
 3049SOL    HW210047   1.606   0.232   3.312
 3050SOL     OW10048   2.916   1.952   1.699
 3050SOL    HW110049   2.915   2.004   1.614
 3050SOL    HW210050   3.007   1.913   1.714
 3051SOL     OW10051   1.736   6.679   6.638
 3051SOL    HW110052   1.761   6.644   6.728
 3051SOL    HW210053   1.818   6.709   6.590
 3052SOL     OW10054   5.285   5.605   1.833
 3052SOL    HW110055   5.286   5.505   1.833
 3052SOL    HW210056   5.340   5.639   1.757
 3053SOL     OW10057   6.723   3.585   1.338
 3053SOL    HW110058   6.810   3.633   1.351
 3053SOL    HW210059   6.649   3.652   1.328
 3054SOL     OW10060   5.822   2.059   1.939
 3054SOL    HW110061   5.876   2.005   2.003
 3054SOL    HW210062   5.873   2.141   1.913
 3055SOL     OW10063   5.175   0.034   5.034
 3055SOL    HW110064   5.232   0.113   5.056
 3055SOL    HW210065   5.079   0.056   5.054
 3056SOL     OW10066   6.139   1.094   5.901
 3056SOL    HW110067   6.181   1.004   5.907
 3056SOL    HW210068   6.119   1.115   5.805
 3057SOL     OW10069   4.475   4.953   4.093
 3057SOL    HW110070   4.569   4.980   4.075
 3057SOL    HW210071   4.417   5.035   4.101
 3058SOL     OW10072   6.902   4.517   1.064
 3058SOL    HW110073   6.861   4.543   1.151
 3058SOL    HW210074   6.835   4.530   0.990
 3059SOL     OW10075   2.708   1.473   3.974
 3059SOL    HW110076   2.801   1.506   3.989
 3059SOL    HW210077   2.647   1.550   3.955
 3060SOL     OW10078   1.768   5.503   0.209
 3060SOL    HW110079   1.678   5.505   0.252
 3060SOL    HW210080   1.780   5.416   0.161
 3061SOL     OW10081   6.416   5.936   5.735
 3061SOL    HW110082   6.497   5.901   5.782
 3061SOL    HW210083   6.440   6.015   5.680
 3062SOL     OW10084   1.781   0.077   0.883
 3062SOL    HW110085   1.735   0.049   0.798
 3062SOL    HW210086   1.722   0.140   0.934
 3063SOL     OW10087   2.346   4.722   1.395
 3063SOL    HW110088   2.430   4.749   1.443
 3063SOL    HW210089   2.370   4.676   1.310
 3064SOL     OW10090   5.041   3.488   0.760
 3064SOL    HW110091   4.987   3.473   0.676
 3064SOL    HW210092   5.131   3.524   0.735
 3065SOL     OW10093   1.425   2.386   6.453
 3065SOL    HW110094   1.448   2.435   6.537
 3065SOL    HW210095   1.372   2.304   6.475
 3066SOL     OW10096   5.103   5.187   0.566
 3066SOL    HW110097   5.014   5.187   0.612
 3066SOL    HW210098   5.155   5.267   0.595
 3067SOL     OW10099   3.624   0.939   6.399
 3067SOL    HW110100   3.660   1.007   6.462
 3067SOL    HW210101   3.618   0.978   6.307
 3068SOL     OW10102   0.132   6.142   1.384
 3068SOL    HW110103   0.150   6.218   1.321
 3068SOL    HW210104   0.197   6.146   1.459
 3069SOL     OW10105   6.745   6.341   2.411
 3069SOL    HW110106   6.653   6.369   2.437
 3069SOL    HW210107   6.752   6.341   2.311
 3070SOL     OW10108   2.718   0.595   6.455
 3070SOL    HW110109   2.810   0.583   6.416
 3070SOL    HW210110   2.684   0.686   6.433
 3071SOL     OW10111   6.757   6.482   4.558
 3071SOL    HW110112   6.788   6.412   4.494
 3071SOL    HW210113   6.667   6.515   4.531
 3072SOL     OW10114   2.028   5.408   6.050
 3072SOL    HW110115   1.939   5.454   6.042
 3072SOL    HW210116   2.100   5.477   6.060
 3073SOL     OW10117   6.928   3.575   3.265
 3073SOL    HW110118   0.001   3.597   3.223
 3073SOL    HW210119   6.942   3.512   3.341
 3074SOL     OW10120   0.310   4.147   1.069
 3074SOL    HW110121   0.321   4.100   1.156
 3074SOL    HW210122   0.354   4.237   1.074
 3075SOL     OW10123   2.517   5.630   2.920
 3075SOL    HW110124   2.584   5.627   2.846
 3075SOL    HW210125   2.477   5.539   2.932
 3076SOL     OW10126   6.929   1.574   3.846
 3076SOL    HW110127   6.872   1.648   3.880
 3076SOL    HW210128   6.876   1.517   3.783
 3077SOL     OW10129   5.466   4.675   1.940
 3077SOL    HW110130   5.439   4.671   1.844
 3077SOL    HW210131   5.560   4.707   1.947
 3078SOL     OW10132   0.023   3.390   2.768
 3078SOL    HW110133   0.095   3.457   2.751
 3078SOL    HW210134   6.979   3.383   2.688
 3079SOL     OW10135   2.715   2.307   2.939
 3079SOL    HW110136   2.676   2.392   2.974
 3079SOL    HW210137   2.729   2.315   2.840
 3080SOL     OW10138   6.350   5.162   2.315
 3080SOL    HW110139   6.409   5.201   2.386
 3080SOL    HW210140   6.384   5.190   2.225
 3081SOL     OW10141   0.949   4.076   5.921
 3081SOL    HW110142   0.924   3.995   5.973
 3081SOL    HW210143   1.022   4.053   5.856
 3082SOL     OW10144   1.898   6.004   4.235
 3082SOL    HW110145   1.920   6.004   4.138
 3082SOL    HW210146   1.982   6.010   4.289
 3083SOL     OW10147   3.285   6.382   3.590
 3083SOL    HW110148   3.308   6.413   3.498
 3083SOL    HW210149   3.274   6.462   3.650
 3084SOL     OW10150   6.270   4.442   3.278
 3084SOL    HW110151   6.289   4.354   3.321
 3084SOL    HW210152   6.255   4.428   3.180
 3085SOL     OW10153   6.534   4.369   0.654
 3085SOL    HW110154   6.528   4.306   0.577
 3085SOL    HW210155   6.532   4.463   0.621
 3086SOL     OW10156   4.974   1.695   0.656
 3086SOL    HW110157   4.974   1.603   0.616
 3086SOL    HW210158   4.946   1.690   0.752
 3087SOL     OW10159   2.017   7.014   3.302
 3087SOL    HW110160   1.963   0.043   3.373
 3087SOL    HW210161   2.011   6.915   3.312
 3088SOL     OW10162   2.123   3.873   4.818
 3088SOL    HW110163   2.185   3.914   4.885
 3088SOL    HW210164   2.128   3.922   4.732
 3089SOL     OW10165   4.103   1.938   4.579
 3089SOL    HW110166   4.112   1.839   4.581
 3089SOL    HW210167   4.192   1.979   4.559
 3090SOL     OW10168   2.483   1.476   1.662
 3090SOL    HW110169   2.446   1.449   1.751
 3090SOL    HW210170   2.419   1.448   1.590
 3091SOL     OW10171   1.649   1.352   0.724
 3091SOL    HW110172   1.562   1.312   0.752
 3091SOL    HW210173   1.650   1.364   0.625
 3092SOL     OW10174   5.545   6.955   0.586
 3092SOL    HW110175   5.579   6.897   0.511
 3092SOL    HW210176   5.445   6.959   0.582
 3093SOL     OW10177   5.361   5.803   6.531
 3093SOL    HW110178   5.381   5.816   6.434
 3093SOL    HW210179   5.264   5.782   6.544
 3094SOL     OW10180   2.450   0.162   4.049
 3094SOL    HW110181   2.509   0.081   4.044
 3094SOL    HW210182   2.369   0.142   4.104
 3095SOL     OW10183   2.391   4.231   5.238
 3095SOL    HW110184   2.383   4.264   5.144
 3095SOL    HW210185   2.405   4.132   5.237
 3096SOL     OW10186   0.981   5.212   5.406
 3096SOL    HW110187   1.070   5.230   5.449
 3096SOL    HW210188   0.973   5.114   5.389
 3097SOL     OW10189   5.980   3.621   6.796
 3097SOL    HW110190   6.017   3.660   6.880
 3097SOL    HW210191   5.901   3.564   6.817
 3098SOL     OW10192   1.861   2.979   1.794
 3098SOL    HW110193   1.866   2.886   1.831
 3098SOL    HW210194   1.935   2.993   1.729
 3099SOL     OW10195   1.311   6.205   3.908
 3099SOL    HW110196   1.345   6.298   3.891
 3099SOL    HW210197   1.249   6.206   3.987
 3100SOL     OW10198   6.827   6.021   3.996
 3100SOL    HW110199   6.822   6.059   3.903
 3100SOL    HW210200   6.737   6.025   4.038
 3101SOL     OW10201   5.802   5.708   5.969
 3101SOL    HW110202   5.781   5.777   6.038
 3101SOL    HW210203   5.804   5.617   6.010
 3102SOL     OW10204   6.137   6.706   1.244
 3102SOL    HW110205   6.068   6.776   1.264
 3102SOL    HW210206   6.092   6.618   1.230
 3103SOL     OW10207   4.586   1.413   1.652
 3103SOL    HW110208   4.521   1.422   1.577
 3103SOL    HW210209   4.599   1.502   1.695
 3104SOL     OW10210   4.410   0.683   6.324
 3104SOL    HW110211   4.493   0.627   6.319
 3104SOL    HW210212   4.388   0.700   6.420
 3105SOL     OW10213   5.876   4.020   1.168
 3105SOL    HW110214   5.851   4.108   1.209
 3105SOL    HW210215   5.848   4.020   1.072
 3106SOL     OW10216   4.699   6.625   4.521
 3106SOL    HW110217   4.629   6.630   4.449
 3106SOL    HW210218   4.788   6.650   4.482
 3107SOL     OW10219   3.402   0.663   4.721
 3107SOL    HW110220   3.378   0.760   4.713
 3107SOL    HW210221   3.400   0.622   4.630
 3108SOL     OW10222   2.036   5.525   4.839
 3108SOL    HW110223   2.119   5.560   4.795
 3108SOL    HW210224   2.053   5.433   4.875
 3109SOL     OW10225   5.663   6.993   3.747
 3109SOL    HW110226   5.750   6.948   3.768
 3109SOL    HW210227   5.674   0.033   3.664
 3110SOL     OW10228   1.442   3.809   3.048
 3110SOL    HW110229   1.463   3.726   2.996
 3110SOL    HW210230   1.343   3.823   3.050
 3111SOL     OW10231   6.932   5.090   3.576
 3111SOL    HW110232   6.901   5.094   3.671
 3111SOL    HW210233   6.928   4.996   3.544
 3112SOL     OW10234   3.048   3.300   0.082
 3112SOL    HW110235   3.134   3.269   0.124
 3112SOL    HW210236   2.998   3.357   0.148
 3113SOL     OW10237   3.360   5.159   2.919
 3113SOL    HW110238   3.330   5.096   2.991
 3113SOL    HW210239   3.299   5.238   2.917
 3114SOL     OW10240   3.649   1.832   0.443
 3114SOL    HW110241   3.635   1.931   0.438
 3114SOL    HW210242   3.617   1.790   0.357
 3115SOL     OW10243   3.934   4.722   6.315
 3115SOL    HW110244   3.918   4.626   6.293
 3115SOL    HW210245   4.020   4.752   6.272
 3116SOL     OW10246   6.519   1.920   6.710
 3116SOL    HW110247   6.496   2.008   6.752
 3116SOL    HW210248   6.604   1.929   6.658
 3117SOL     OW10249   4.587   4.029   5.358
 3117SOL    HW110250   4.594   3.930   5.360
 3117SOL    HW210251   4.675   4.070   5.381
 3118SOL     OW10252   0.906   4.987   2.059
 3118SOL    HW110253   0.825   5.005   2.115
 3118SOL    HW210254   0.913   4.889   2.040
 3119SOL     OW10255   2.480   2.383   0.327
 3119SOL    HW110256   2.394   2.336   0.309
 3119SOL    HW210257   2.531   2.394   0.242
 3120SOL     OW10258   2.561   0.673   5.666
 3120SOL    HW110259   2.641   0.650   5.609
 3120SOL    HW210260   2.577   0.759   5.713
 3121SOL     OW10261   6.003   1.717   4.396
 3121SOL    HW110262   6.046   1.672   4.317
 3121SOL    HW210263   6.061   1.704   4.476
 3122SOL     OW10264   4.830   5.850   5.398
 3122SOL    HW110265   4.906   5.805   5.352
 3122SOL    HW210266   4.858   5.942   5.427
 3123SOL     OW10267   2.290   1.420   2.516
 3123SOL    HW110268   2.198   1.381   2.511
 3123SOL    HW210269   2.285   1.519   2.500
 3124SOL     OW10270   4.716   0.005   4.493
 3124SOL    HW110271   4.671   0.094   4.482
 3124SOL    HW210272   4.741   6.984   4.403
 3125SOL     OW10273   1.216   3.243   5.102
 3125SOL    HW110274   1.262   3.296   5.030
 3125SOL    HW210275   1.117   3.243   5.085
 3126SOL     OW10276   5.619   4.284   5.394
 3126SOL    HW110277   5.716   4.271   5.412
 3126SOL    HW210278   5.570   4.198   5.407
 3127SOL     OW10279   2.056   2.443   6.531
 3127SOL    HW110280   2.115   2.451   6.612
 3127SOL    HW210281   2.106   2.398   6.457
 3128SOL     OW10282   3.588   1.472   6.484
 3128SOL    HW110283   3.642   1.458   6.401
 3128SOL    HW210284   3.523   1.546   6.469
 3129SOL     OW10285   6.414   3.568   0.271
 3129SOL    HW110286   6.321   3.599   0.251
 3129SOL    HW210287   6.474   3.590   0.194
 3130SOL     OW10288   2.144   4.416   2.244
 3130SOL    HW110289   2.115   4.348   2.177
 3130SOL    HW210290   2.086   4.410   2.325
 3131SOL     OW10291   0.792   3.204   1.659
 3131SOL    HW110292   0.880   3.229   1.699
 3131SOL    HW210293   0.724   3.192   1.732
 3132SOL     OW10294   5.126   5.360   6.439
 3132SOL    HW110295   5.089   5.273   6.471
 3132SOL    HW210296   5.151   5.417   6.518
 3133SOL     OW10297   3.021   1.214   3.193
 3133SOL    HW110298   3.102   1.255   3.235
 3133SOL    HW210299   3.002   1.126   3.237
 3134SOL     OW10300   4.010   4.427   1.193
 3134SOL    HW110301   3.986   4.514   1.150
 3134SOL    HW210302   3.969   4.352   1.140
 3135SOL     OW10303   4.622   0.343   5.449
 3135SOL    HW110304   4.720   0.325   5.440
 3135SOL    HW210305   4.571   0.271   5.402
 3136SOL     OW10306   5.192   0.094   2.554
 3136SOL    HW110307   5.109   0.039   2.545
 3136SOL    HW210308   5.168   0.191   2.549
 3137SOL     OW10309   6.484   6.951   2.845
 3137SOL    HW110310   6.554   6.956   2.773
 3137SOL    HW210311   6.472   0.026   2.886
 3138SOL     OW10312   0.141   6.136   3.719
 3138SOL    HW110313   0.153   6.037   3.725
 3138SOL    HW210314   0.090   6.168   3.799
 3139SOL     OW10315   3.605   5.181   0.209
 3139SOL    HW110316   3.616   5.276   0.182
 3139SOL    HW210317   3.656   5.164   0.293
 3140SOL     OW10318   6.214   6.295   6.333
 3140SOL    HW110319   6.207   6.266   6.428
 3140SOL    HW210320   6.165   6.231   6.274
 3141SOL     OW10321   0.831   0.593   6.556
 3141SOL    HW110322   0.754   0.544   6.598
 3141SOL    HW210323   0.897   0.527   6.521
 3142SOL     OW10324   2.875   6.960   2.594
 3142SOL    HW110325   2.779   6.951   2.621
 3142SOL    HW210326   2.930   6.893   2.645
 3143SOL     OW10327   6.335   1.656   0.020
 3143SOL    HW110328   6.303   1.746   0.050
 3143SOL    HW210329   6.407   1.667   6.967
 3144SOL     OW10330   4.359   3.739   0.843
 3144SOL    HW110331   4.276   3.703   0.802
 3144SOL    HW210332   4.431   3.670   0.838
 3145SOL     OW10333   2.081   6.586   2.085
 3145SOL    HW110334   2.038   6.655   2.027
 3145SOL    HW210335   2.026   6.502   2.084
 3146SOL     OW10336   0.796   1.562   4.374
 3146SOL    HW110337   0.864   1.578   4.445
 3146SOL    HW210338   0.823   1.483   4.319
 3147SOL     OW10339   2.908   5.205   0.353
 3147SOL    HW110340   2.897   5.127   0.414
 3147SOL    HW210341   2.917   5.289   0.407
 3148SOL     OW10342   6.885   6.729   3.738
 3148SOL    HW110343   6.981   6.723   3.710
 3148SOL    HW210344   6.835   6.784   3.671
 3149SOL     OW10345   3.364   0.913   6.512
 3149SOL    HW110346   3.337   0.819   6.490
 3149SOL    HW210347   3.440   0.940   6.453
 3150SOL     OW10348   6.566   5.645   5.469
 3150SOL    HW110349   6.659   5.681   5.467
 3150SOL    HW210350   6.557   5.572   5.402
 3151SOL     OW10351   0.625   1.034   5.038
 3151SOL    HW110352   0.647   1.100   5.109
 3151SOL    HW210353   0.702   0.972   5.024
 3152SOL     OW10354   0.829   5.015   0.671
 3152SOL    HW110355   0.862   4.951   0.602
 3152SOL    HW210356   0.888   5.013   0.751
 3153SOL     OW10357   6.405   5.688   0.270
 3153SOL    HW110358   6.432   5.594   0.287
 3153SOL    HW210359   6.316   5.690   0.224
 3154SOL     OW10360   6.993   2.277   6.757
 3154SOL    HW110361   0.006   2.213   6.829
 3154SOL    HW210362   0.054   2.336   6.733
 3155SOL     OW10363   6.627   4.940   0.607
 3155SOL    HW110364   6.650   4.843   0.601
 3155SOL    HW210365   6.531   4.953   0.581
 3156SOL     OW10366   3.199   2.874   2.003
 3156SOL    HW110367   3.105   2.858   2.035
 3156SOL    HW210368   3.201   2.958   1.948
 3157SOL     OW10369   2.410   1.757   6.053
 3157SOL    HW110370   2.398   1.693   5.977
 3157SOL    HW210371   2.508   1.774   6.067
 3158SOL     OW10372   3.460   1.263   4.232
 3158SOL    HW110373   3.505   1.353   4.230
 3158SOL    HW210374   3.388   1.264   4.301
 3159SOL     OW10375   5.674   0.136   6.795
 3159SOL    HW110376   5.636   0.190   6.871
 3159SOL    HW210377   5.731   0.195   6.738
 3160SOL     OW10378   1.328   5.960   5.608
 3160SOL    HW110379   1.239   5.933   5.646
 3160SOL    HW210380   1.312   6.021   5.530
 3161SOL     OW10381   2.137   2.988   2.945
 3161SOL    HW110382   2.086   3.001   2.860
 3161SOL    HW210383   2.124   3.068   3.004
 3162SOL     OW10384   1.844   5.336   1.568
 3162SOL    HW110385   1.753   5.297   1.582
 3162SOL    HW210386   1.908   5.263   1.541
 3163SOL     OW10387   4.361   3.978   6.460
 3163SOL    HW110388   4.403   3.943   6.544
 3163SOL    HW210389   4.386   3.919   6.383
 3164SOL     OW10390   4.002   5.708   1.014
 3164SOL    HW110391   4.026   5.612   0.996
 3164SOL    HW210392   3.985   5.754   0.927
 3165SOL     OW10393   1.181   6.867   1.650
 3165SOL    HW110394   1.121   6.800   1.605
 3165SOL    HW210395   1.235   6.821   1.721
 3166SOL     OW10396   4.163   1.952   3.472
 3166SOL    HW110397   4.090   2.017   3.494
 3166SOL    HW210398   4.251   1.999   3.473
 3167SOL     OW10399   5.656   4.221   1.056
 3167SOL    HW110400   5.661   4.129   1.016
 3167SOL    HW210401   5.649   4.289   0.983
 3168SOL     OW10402   5.244   2.519   0.306
 3168SOL    HW110403   5.338   2.523   0.338
 3168SOL    HW210404   5.240   2.472   0.219
 3169SOL     OW10405   2.429   4.339   4.122
 3169SOL    HW110406   2.528   4.345   4.117
 3169SOL    HW210407   2.395   4.392   4.199
 3170SOL     OW10408   3.873   6.029   1.632
 3170SOL    HW110409   3.879   6.114   1.684
 3170SOL    HW210410   3.950   6.022   1.569
 3171SOL     OW10411   6.929   1.229   2.313
 3171SOL    HW110412   6.933   1.324   2.345
 3171SOL    HW210413   6.960   1.224   2.218
 3172SOL     OW10414   0.291   5.817   0.044
 3172SOL    HW110415   0.382   5.835   0.007
 3172SOL    HW210416   0.222   5.834   6.989
 3173SOL     OW10417   3.576   2.860   0.153
 3173SOL    HW110418   3.581   2.792   0.226
 3173SOL    HW210419   3.481   2.882   0.134
 3174SOL     OW10420   3.275   2.814   0.411
 3174SOL    HW110421   3.198   2.788   0.354
 3174SOL    HW210422   3.251   2.801   0.507
 3175SOL     OW10423   5.897   0.883   1.590
 3175SOL    HW110424   5.944   0.859   1.505
 3175SOL    HW210425   5.953   0.947   1.642
 3176SOL     OW10426   1.118   3.992   5.595
 3176SOL    HW110427   1.182   3.962   5.666
 3176SOL    HW210428   1.157   3.974   5.505
 3177SOL     OW10429   4.497   4.564   3.814
 3177SOL    HW110430   4.422   4.628   3.794
 3177SOL    HW210431   4.575   4.615   3.850
 3178SOL     OW10432   6.547   2.100   1.007
 3178SOL    HW110433   6.492   2.051   0.939
 3178SOL    HW210434   6.512   2.193   1.018
 3179SOL     OW10435   1.193   2.270   1.886
 3179SOL    HW110436   1.107   2.308   1.921
 3179SOL    HW210437   1.177   2.177   1.854
 3180SOL     OW10438   5.795   0.567   0.331
 3180SOL    HW110439   5.823   0.479   0.370
 3180SOL    HW210440   5.704   0.590   0.365
 3181SOL     OW10441   6.386   1.961   2.927
 3181SOL    HW110442   6.422   1.945   2.835
 3181SOL    HW210443   6.322   2.038   2.925
 3182SOL     OW10444   2.433   0.138   6.710
 3182SOL    HW110445   2.385   0.190   6.639
 3182SOL    HW210446   2.374   0.129   6.791
 3183SOL     OW10447   4.787   4.125   1.994
 3183SOL    HW110448   4.766   4.223   1.989
 3183SOL    HW210449   4.805   4.100   2.089
 3184SOL     OW10450   0.708   2.652   2.804
 3184SOL    HW110451   0.807   2.657   2.817
 3184SOL    HW210452   0.667   2.740   2.827
 3185SOL     OW10453   4.886   5.865   6.777
 3185SOL    HW110454   4.850   5.885   6.686
 3185SOL    HW210455   4.884   5.947   6.833
 3186SOL     OW10456   3.268   1.985   0.996
 3186SOL    HW110457   3.265   2.085   1.008
 3186SOL    HW210458   3.211   1.943   1.066
 3187SOL     OW10459   4.653   5.241   0.230
 3187SOL    HW110460   4.565   5.196   0.219
 3187SOL    HW210461   4.684   5.232   0.325
 3188SOL     OW10462   1.266   0.010   4.403
 3188SOL    HW110463   1.360   0.024   4.372
 3188SOL    HW210464   1.235   6.935   4.375
 3189SOL     OW10465   1.191   1.793   1.148
 3189SOL    HW110466   1.175   1.871   1.088
 3189SOL    HW210467   1.286   1.793   1.179
 3190SOL     OW10468   0.658   5.409   0.393
 3190SOL    HW110469   0.612   5.469   0.458
 3190SOL    HW210470   0.698   5.331   0.441
 3191SOL     OW10471   5.121   5.591   0.914
 3191SOL    HW110472   5.069   5.566   0.832
 3191SOL    HW210473   5.218   5.569   0.901
 3192SOL     OW10474   0.166   3.386   1.524
 3192SOL    HW110475   0.090   3.321   1.526
 3192SOL    HW210476   0.158   3.444   1.443
 3193SOL     OW10477   4.475   0.838   6.592
 3193SOL    HW110478   4.529   0.853   6.510
 3193SOL    HW210479   4.378   0.838   6.569
 3194SOL     OW10480   1.186   1.852   6.686
 3194SOL    HW110481   1.177   1.847   6.586
 3194SOL    HW210482   1.123   1.922   6.721
 3195SOL     OW10483   2.266   1.303   3.539
 3195SOL    HW110484   2.335   1.289   3.610
 3195SOL    HW210485   2.275   1.396   3.503
 3196SOL     OW10486   0.549   0.846   6.651
 3196SOL    HW110487   0.489   0.925   6.660
 3196SOL    HW210488   0.590   0.845   6.560
 3197SOL     OW10489   3.114   6.539   4.170
 3197SOL    HW110490   3.041   6.608   4.175
 3197SOL    HW210491   3.192   6.570   4.223
 3198SOL     OW10492   6.025   3.172   3.605
 3198SOL    HW110493   5.930   3.164   3.573
 3198SOL    HW210494   6.027   3.161   3.704
 3199SOL     OW10495   5.078   4.079   2.906
 3199SOL    HW110496   5.168   4.079   2.865
 3199SOL    HW210497   5.059   4.168   2.946
 3200SOL     OW10498   5.745   3.322   2.817
 3200SOL    HW110499   5.825   3.263   2.829
 3200SOL    HW210500   5.760   3.382   2.739
 3201SOL     OW10501   6.408   4.399   3.915
 3201SOL    HW110502   6.438   4.494   3.921
 3201SOL    HW210503   6.391   4.376   3.819
 3202SOL     OW10504   1.546   4.572   1.622
 3202SOL    HW110505   1.534   4.475   1.599
 3202SOL    HW210506   1.521   4.587   1.717
 3203SOL     OW10507   6.264   2.431   0.500
 3203SOL    HW110508   6.260   2.368   0.577
 3203SOL    HW210509   6.279   2.524   0.534
 3204SOL     OW10510   4.820   6.135   3.140
 3204SOL    HW110511   4.882   6.072   3.187
 3204SOL    HW210512   4.759   6.083   3.081
 3205SOL     OW10513   5.243   2.444   5.803
 3205SOL    HW110514   5.228   2.402   5.892
 3205SOL    HW210515   5.339   2.436   5.777
 3206SOL     OW10516   2.039   4.780   6.929
 3206SOL    HW110517   2.054   4.703   6.990
 3206SOL    HW210518   2.123   4.834   6.922
 3207SOL     OW10519   0.975   1.184   6.274
 3207SOL    HW110520   1.039   1.108   6.286
 3207SOL    HW210521   1.024   1.265   6.244
 3208SOL     OW10522   4.739   6.573   5.925
 3208SOL    HW110523   4.692   6.485   5.919
 3208SOL    HW210524   4.721   6.626   5.843
 3209SOL     OW10525   4.101   5.244   3.746
 3209SOL    HW110526   4.190   5.249   3.791
 3209SOL    HW210527   4.114   5.233   3.648
 3210SOL     OW10528   1.200   3.889   0.632
 3210SOL    HW110529   1.163   3.817   0.690
 3210SOL    HW210530   1.150   3.974   0.648
 3211SOL     OW10531   1.635   3.537   0.732
 3211SOL    HW110532   1.690   3.469   0.781
 3211SOL    HW210533   1.580   3.491   0.662
 3212SOL     OW10534   3.176   0.037   1.539
 3212SOL    HW110535   3.146   6.959   1.555
 3212SOL    HW210536   3.274   0.039   1.521
 3213SOL     OW10537   1.213   0.348   0.380
 3213SOL    HW110538   1.179   0.411   0.450
 3213SOL    HW210539   1.170   0.369   0.293
 3214SOL     OW10540   4.171   5.585   0.531
 3214SOL    HW110541   4.084   5.583   0.580
 3214SOL    HW210542   4.164   5.529   0.449
 3215SOL     OW10543   0.177   3.514   1.228
 3215SOL    HW110544   0.274   3.527   1.212
 3215SOL    HW210545   0.134   3.477   1.145
 3216SOL     OW10546   6.254   5.605   6.735
 3216SOL    HW110547   6.289   5.540   6.802
 3216SOL    HW210548   6.290   5.696   6.756
 3217SOL     OW10549   0.061   5.060   2.187
 3217SOL    HW110550   0.127   5.133   2.204
 3217SOL    HW210551   0.081   5.018   2.098
 3218SOL     OW10552   4.708   2.634   3.826
 3218SOL    HW110553   4.790   2.585   3.853
 3218SOL    HW210554   4.726   2.733   3.829
 3219SOL     OW10555   0.805   1.996   3.612
 3219SOL    HW110556   0.824   1.952   3.524
 3219SOL    HW210557   0.828   2.093   3.607
 3220SOL     OW10558   0.005   5.676   6.373
 3220SOL    HW110559   0.064   5.726   6.436
 3220SOL    HW210560   6.982   5.596   6.418
 3221SOL     OW10561   4.330   0.292   1.780
 3221SOL    HW110562   4.293   0.381   1.755
 3221SOL    HW210563   4.318   0.228   1.704
 3222SOL     OW10564   3.098   0.766   3.117
 3222SOL    HW110565   3.186   0.805   3.144
 3222SOL    HW210566   3.049   0.831   3.059
 3223SOL     OW10567   2.356   6.617   6.360
 3223SOL    HW110568   2.273   6.606   6.306
 3223SOL    HW210569   2.405   6.530   6.364
 3224SOL     OW10570   5.102   3.596   5.917
 3224SOL    HW110571   5.009   3.628   5.939
 3224SOL    HW210572   5.107   3.577   5.819
 3225SOL     OW10573   5.135   2.642   5.626
 3225SOL    HW110574   5.072   2.692   5.685
 3225SOL    HW210575   5.198   2.588   5.682
 3226SOL     OW10576   2.690   1.552   2.783
 3226SOL    HW110577   2.757   1.499   2.732
 3226SOL    HW210578   2.598   1.535   2.746
 3227SOL     OW10579   3.299   2.829   0.031
 3227SOL    HW110580   3.328   2.740   0.065
 3227SOL    HW210581   3.264   2.819   6.953
 3228SOL     OW10582   0.199   4.038   1.561
 3228SOL    HW110583   0.206   4.080   1.651
 3228SOL    HW210584   0.221   3.940   1.569
 3229SOL     OW10585   3.937   0.376   4.623
 3229SOL    HW110586   3.846   0.373   4.582
 3229SOL    HW210587   4.003   0.332   4.562
 3230SOL     OW10588   2.654   4.244   5.326
 3230SOL    HW110589   2.678   4.322   5.384
 3230SOL    HW210590   2.558   4.250   5.300
 3231SOL     OW10591   2.785   6.863   1.186
 3231SOL    HW110592   2.749   6.857   1.280
 3231SOL    HW210593   2.780   6.957   1.155
 3232SOL     OW10594   5.069   6.528   4.524
 3232SOL    HW110595   5.042   6.600   4.589
 3232SOL    HW210596   4.987   6.484   4.489
 3233SOL     OW10597   0.458   2.769   1.307
 3233SOL    HW110598   0.556   2.789   1.318
 3233SOL    HW210599   0.404   2.846   1.340
 3234SOL     OW10600   0.541   2.277   6.836
 3234SOL    HW110601   0.551   2.195   6.891
 3234SOL    HW210602   0.479   2.341   6.882
 3235SOL     OW10603   6.334   0.549   2.544
 3235SOL    HW110604   6.244   0.512   2.568
 3235SOL    HW210605   6.389   0.558   2.627
 3236SOL     OW10606   1.647   3.019   0.529
 3236SOL    HW110607   1.739   3.037   0.564
 3236SOL    HW210608   1.609   2.939   0.575
 3237SOL     OW10609   5.552   1.330   3.542
 3237SOL    HW110610   5.555   1.324   3.642
 3237SOL    HW210611   5.505   1.414   3.515
 3238SOL     OW10612   0.228   5.097   0.666
 3238SOL    HW110613   0.150   5.081   0.606
 3238SOL    HW210614   0.292   5.020   0.658
 3239SOL     OW10615   6.743   1.441   2.106
 3239SOL    HW110616   6.744   1.427   2.007
 3239SOL    HW210617   6.758   1.354   2.152
 3240SOL     OW10618   6.875   6.737   6.163
 3240SOL    HW110619   6.959   6.689   6.137
 3240SOL    HW210620   6.891   6.788   6.247
 3241SOL     OW10621   4.765   1.080   4.666
 3241SOL    HW110622   4.775   1.101   4.763
 3241SOL    HW210623   4.735   0.984   4.656
 3242SOL     OW10624   4.489   3.940   0.136
 3242SOL    HW110625   4.511   3.934   0.038
 3242SOL    HW210626   4.423   3.869   0.160
 3243SOL     OW10627   4.456   4.589   0.417
 3243SOL    HW110628   4.527   4.615   0.350
 3243SOL    HW210629   4.464   4.492   0.438
 3244SOL     OW10630   4.435   5.848   0.159
 3244SOL    HW110631   4.480   5.918   0.214
 3244SOL    HW210632   4.351   5.884   0.120
 3245SOL     OW10633   5.336   3.536   4.717
 3245SOL    HW110634   5.237   3.540   4.728
 3245SOL    HW210635   5.375   3.474   4.786
 3246SOL     OW10636   5.582   0.566   2.781
 3246SOL    HW110637   5.625   0.643   2.734
 3246SOL    HW210638   5.525   0.515   2.717
 3247SOL     OW10639   6.611   4.482   2.453
 3247SOL    HW110640   6.539   4.486   2.523
 3247SOL    HW210641   6.699   4.468   2.497
 3248SOL     OW10642   5.842   3.755   1.582
 3248SOL    HW110643   5.897   3.708   1.513
 3248SOL    HW210644   5.824   3.693   1.658
 3249SOL     OW10645   3.959   3.958   4.050
 3249SOL    HW110646   3.939   3.969   3.952
 3249SOL    HW210647   3.879   3.985   4.103
 3250SOL     OW10648   5.777   6.938   2.257
 3250SOL    HW110649   5.703   6.931   2.190
 3250SOL    HW210650   5.769   6.863   2.323
 3251SOL     OW10651   2.965   0.931   3.875
 3251SOL    HW110652   2.880   0.878   3.882
 3251SOL    HW210653   3.019   0.919   3.959
 3252SOL     OW10654   2.293   1.023   2.716
 3252SOL    HW110655   2.260   1.047   2.807
 3252SOL    HW210656   2.319   0.926   2.715
 3253SOL     OW10657   4.640   4.022   1.761
 3253SOL    HW110658   4.563   4.079   1.789
 3253SOL    HW210659   4.708   4.020   1.834
 3254SOL     OW10660   5.371   6.045   5.640
 3254SOL    HW110661   5.382   6.010   5.732
 3254SOL    HW210662   5.375   5.970   5.574
 3255SOL     OW10663   5.043   6.318   0.429
 3255SOL    HW110664   5.061   6.240   0.488
 3255SOL    HW210665   5.130   6.359   0.400
 3256SOL     OW10666   3.429   1.014   0.560
 3256SOL    HW110667   3.495   1.017   0.635
 3256SOL    HW210668   3.466   1.063   0.481
 3257SOL     OW10669   1.405   1.828   1.854
 3257SOL    HW110670   1.362   1.784   1.933
 3257SOL    HW210671   1.504   1.824   1.864
 3258SOL     OW10672   4.895   5.658   2.504
 3258SOL    HW110673   4.821   5.724   2.518
 3258SOL    HW210674   4.916   5.652   2.407
 3259SOL     OW10675   4.927   5.146   4.838
 3259SOL    HW110676   4.911   5.072   4.773
 3259SOL    HW210677   4.839   5.179   4.872
 3260SOL     OW10678   1.133   2.017   1.001
 3260SOL    HW110679   1.168   2.111   1.000
 3260SOL    HW210680   1.137   1.979   0.909
 3261SOL     OW10681   5.483   0.433   1.816
 3261SOL    HW110682   5.547   0.509   1.821
 3261SOL    HW210683   5.490   0.377   1.898
 3262SOL     OW10684   3.196   2.110   2.481
 3262SOL    HW110685   3.144   2.172   2.539
 3262SOL    HW210686   3.137   2.075   2.408
 3263SOL     OW10687   2.375   1.182   3.136
 3263SOL    HW110688   2.466   1.207   3.103
 3263SOL    HW210689   2.383   1.140   3.226
 3264SOL     OW10690   1.339   4.347   0.780
 3264SOL    HW110691   1.264   4.282   0.793
 3264SOL    HW210692   1.402   4.341   0.857
 3265SOL     OW10693   5.350   0.655   6.652
 3265SOL    HW110694   5.360   0.711   6.570
 3265SOL    HW210695   5.255   0.658   6.683
 3266SOL     OW10696   1.776   4.071   6.915
 3266SOL    HW110697   1.766   4.161   6.957
 3266SOL    HW210698   1.861   4.028   6.946
 3267SOL     OW10699   3.480   6.561   1.129
 3267SOL    HW110700   3.488   6.520   1.219
 3267SOL    HW210701   3.384   6.556   1.099
 3268SOL     OW10702   1.782   3.699   1.600
 3268SOL    HW110703   1.881   3.709   1.593
 3268SOL    HW210704   1.750   3.737   1.687
 3269SOL     OW10705   4.813   5.429   1.948
 3269SOL    HW110706   4.890   5.381   1.907
 3269SOL    HW210707   4.770   5.488   1.880
 3270SOL     OW10708   1.421   4.380   5.968
 3270SOL    HW110709   1.342   4.365   5.909
 3270SOL    HW210710   1.480   4.451   5.929
 3271SOL     OW10711   5.783   3.801   2.543
 3271SOL    HW110712   5.703   3.749   2.572
 3271SOL    HW210713   5.856   3.790   2.610
 3272SOL     OW10714   3.322   4.508   6.089
 3272SOL    HW110715   3.243   4.448   6.089
 3272SOL    HW210716   3.296   4.598   6.124
 3273SOL     OW10717   6.958   6.035   0.753
 3273SOL    HW110718   6.877   6.069   0.705
 3273SOL    HW210719   7.004   6.111   0.798
 3274SOL     OW10720   5.376   1.056   0.816
 3274SOL    HW110721   5.308   1.097   0.755
 3274SOL    HW210722   5.457   1.032   0.763
 3275SOL     OW10723   5.779   1.426   6.727
 3275SOL    HW110724   5.766   1.355   6.796
 3275SOL    HW210725   5.705   1.493   6.734
 3276SOL     OW10726   2.882   5.967   6.704
 3276SOL    HW110727   2.849   6.047   6.654
 3276SOL    HW210728   2.831   5.958   6.790
 3277SOL     OW10729   3.801   6.819   0.039
 3277SOL    HW110730   3.819   6.730   0.081
 3277SOL    HW210731   3.847   6.825   6.966
 3278SOL     OW10732   0.742   0.918   5.487
 3278SOL    HW110733   0.808   0.868   5.544
 3278SOL    HW210734   0.675   0.854   5.450
 3279SOL     OW10735   5.160   0.222   0.544
 3279SOL    HW110736   5.098   0.254   0.616
 3279SOL    HW210737   5.201   0.135   0.571
 3280SOL     OW10738   4.067   4.861   4.170
 3280SOL    HW110739   4.100   4.927   4.238
 3280SOL    HW210740   4.140   4.840   4.106
 3281SOL     OW10741   1.972   5.173   2.153
 3281SOL    HW110742   1.975   5.073   2.156
 3281SOL    HW210743   1.877   5.203   2.144
 3282SOL     OW10744   6.925   5.202   5.474
 3282SOL    HW110745   0.003   5.172   5.495
 3282SOL    HW210746   6.872   5.207   5.559
 3283SOL     OW10747   3.601   0.415   0.990
 3283SOL    HW110748   3.651   0.415   1.077
 3283SOL    HW210749   3.594   0.508   0.956
 3284SOL     OW10750   0.253   4.792   0.101
 3284SOL    HW110751   0.256   4.775   0.003
 3284SOL    HW210752   0.159   4.809   0.129
 3285SOL     OW10753   4.177   2.296   3.309
 3285SOL    HW110754   4.248   2.232   3.280
 3285SOL    HW210755   4.180   2.378   3.250
 3286SOL     OW10756   3.394   2.819   2.421
 3286SOL    HW110757   3.375   2.723   2.440
 3286SOL    HW210758   3.389   2.835   2.322
 3287SOL     OW10759   0.724   0.346   7.005
 3287SOL    HW110760   0.680   0.318   0.075
 3287SOL    HW210761   0.707   0.443   6.989
 3288SOL     OW10762   0.791   5.687   6.246
 3288SOL    HW110763   0.830   5.603   6.285
 3288SOL    HW210764   0.816   5.694   6.150
 3289SOL     OW10765   2.563   0.275   5.271
 3289SOL    HW110766   2.494   0.313   5.333
 3289SOL    HW210767   2.517   0.221   5.200
 3290SOL     OW10768   7.010   6.661   1.400
 3290SOL    HW110769   0.071   6.689   1.343
 3290SOL    HW210770   0.016   6.678   1.496
 3291SOL     OW10771   1.738   0.262   0.290
 3291SOL    HW110772   1.750   0.274   0.388
 3291SOL    HW210773   1.827   0.265   0.245
 3292SOL     OW10774   0.400   1.241   0.402
 3292SOL    HW110775   0.398   1.333   0.443
 3292SOL    HW210776   0.334   1.183   0.450
 3293SOL     OW10777   0.449   3.890   1.902
 3293SOL    HW110778   0.384   3.826   1.863
 3293SOL    HW210779   0.539   3.875   1.862
 3294SOL     OW10780   5.860   1.962   6.323
 3294SOL    HW110781   5.839   2.040   6.264
 3294SOL    HW210782   5.777   1.909   6.340
 3295SOL     OW10783   1.441   2.397   1.937
 3295SOL    HW110784   1.345   2.372   1.924
 3295SOL    HW210785   1.498   2.316   1.924
 3296SOL     OW10786   1.373   6.912   2.683
 3296SOL    HW110787   1.346   6.852   2.607
 3296SOL    HW210788   1.348   6.870   2.770
 3297SOL     OW10789   3.255   1.035   5.475
 3297SOL    HW110790   3.344   1.057   5.514
 3297SOL    HW210791   3.183   1.075   5.533
 3298SOL     OW10792   5.925   1.951   5.379
 3298SOL    HW110793   5.962   2.044   5.365
 3298SOL    HW210794   5.848   1.954   5.442
 3299SOL     OW10795   3.302   5.619   3.279
 3299SOL    HW110796   3.245   5.700   3.296
 3299SOL    HW210797   3.284   5.550   3.349
 3300SOL     OW10798   6.660   1.033   4.859
 3300SOL    HW110799   6.569   1.016   4.897
 3300SOL    HW210800   6.730   1.010   4.927
 3301SOL     OW10801   1.716   3.247   3.059
 3301SOL    HW110802   1.708   3.160   3.108
 3301SOL    HW210803   1.653   3.313   3.100
 3302SOL     OW10804   0.813   4.860   5.553
 3302SOL    HW110805   0.848   4.949   5.526
 3302SOL    HW210806   0.888   4.795   5.560
 3303SOL     OW10807   3.729   4.083   0.979
 3303SOL    HW110808   3.771   4.015   1.038
 3303SOL    HW210809   3.631   4.085   0.995
 3304SOL     OW10810   1.106   5.636   4.183
 3304SOL    HW110811   1.121   5.734   4.190
 3304SOL    HW210812   1.183   5.594   4.135
 3305SOL     OW10813   2.009   1.152   2.336
 3305SOL    HW110814   1.912   1.153   2.314
 3305SOL    HW210815   2.061   1.186   2.258
 3306SOL     OW10816   2.473   5.325   5.049
 3306SOL    HW110817   2.519   5.246   5.090
 3306SOL    HW210818   2.405   5.293   4.983
 3307SOL     OW10819   0.179   5.542   6.945
 3307SOL    HW110820   0.166   5.444   6.927
 3307SOL    HW210821   0.094   5.591   6.924
 3308SOL     OW10822   2.732   6.253   0.923
 3308SOL    HW110823   2.758   6.234   0.828
 3308SOL    HW210824   2.634   6.236   0.934
 3309SOL     OW10825   0.088   5.785   3.402
 3309SOL    HW110826   0.094   5.716   3.474
 3309SOL    HW210827   0.085   5.876   3.444
 3310SOL     OW10828   0.166   3.258   6.486
 3310SOL    HW110829   0.132   3.184   6.545
 3310SOL    HW210830   0.119   3.253   6.398
 3311SOL     OW10831   2.634   3.858   1.230
 3311SOL    HW110832   2.677   3.875   1.141
 3311SOL    HW210833   2.700   3.812   1.290
 3312SOL     OW10834   4.235   4.786   6.008
 3312SOL    HW110835   4.175   4.843   5.952
 3312SOL    HW210836   4.329   4.795   5.976
 3313SOL     OW10837   0.877   5.989   3.645
 3313SOL    HW110838   0.786   6.013   3.680
 3313SOL    HW210839   0.893   5.891   3.656
 3314SOL     OW10840   2.910   1.382   2.736
 3314SOL    HW110841   2.928   1.322   2.813
 3314SOL    HW210842   2.996   1.398   2.686
 3315SOL     OW10843   6.354   3.961   3.869
 3315SOL    HW110844   6.398   4.018   3.937
 3315SOL    HW210845   6.406   3.964   3.784
 3316SOL     OW10846   4.701   1.340   5.639
 3316SOL    HW110847   4.617   1.300   5.676
 3316SOL    HW210848   4.775   1.332   5.705
 3317SOL     OW10849   4.338   3.128   1.708
 3317SOL    HW110850   4.306   3.192   1.777
 3317SOL    HW210851   4.396   3.059   1.751
 3318SOL     OW10852   2.045   1.410   0.911
 3318SOL    HW110853   2.106   1.364   0.847
 3318SOL    HW210854   2.097   1.479   0.962
 3319SOL     OW10855   6.592   1.595   4.076
 3319SOL    HW110856   6.686   1.617   4.103
 3319SOL    HW210857   6.585   1.597   3.976
 3320SOL     OW10858   6.850   0.719   4.714
 3320SOL    HW110859   6.812   0.627   4.709
 3320SOL    HW210860   6.779   0.786   4.690
 3321SOL     OW10861   5.108   1.736   0.153
 3321SOL    HW110862   5.104   1.667   0.225
 3321SOL    HW210863   5.031   1.799   0.163
 3322SOL     OW10864   6.410   3.028   1.390
 3322SOL    HW110865   6.464   3.110   1.406
 3322SOL    HW210866   6.467   2.958   1.347
 3323SOL     OW10867   3.075   2.730   0.238
 3323SOL    HW110868   3.014   2.790   0.187
 3323SOL    HW210869   3.098   2.651   0.182
 3324SOL     OW10870   3.773   5.141   6.840
 3324SOL    HW110871   3.719   5.215   6.881
 3324SOL    HW210872   3.789   5.162   6.743
 3325SOL     OW10873   0.883   3.276   0.243
 3325SOL    HW110874   0.892   3.190   0.295
 3325SOL    HW210875   0.949   3.276   0.168
 3326SOL     OW10876   4.831   2.153   1.604
 3326SOL    HW110877   4.780   2.078   1.562
 3326SOL    HW210878   4.885   2.117   1.681
 3327SOL     OW10879   3.063   5.751   1.623
 3327SOL    HW110880   3.039   5.730   1.528
 3327SOL    HW210881   2.991   5.716   1.684
 3328SOL     OW10882   4.422   2.036   0.677
 3328SOL    HW110883   4.497   1.977   0.708
 3328SOL    HW210884   4.443   2.071   0.586
 3329SOL     OW10885   4.925   0.252   4.797
 3329SOL    HW110886   4.836   0.252   4.842
 3329SOL    HW210887   4.924   0.186   4.722
 3330SOL     OW10888   6.344   4.798   1.308
 3330SOL    HW110889   6.425   4.850   1.278
 3330SOL    HW210890   6.373   4.722   1.366
 3331SOL     OW10891   2.367   2.728   1.451
 3331SOL    HW110892   2.321   2.769   1.529
 3331SOL    HW210893   2.466   2.727   1.468
 3332SOL     OW10894   5.924   5.241   6.814
 3332SOL    HW110895   5.901   5.262   6.719
 3332SOL    HW210896   5.944   5.144   6.823
 3333SOL     OW10897   4.310   4.521   6.400
 3333SOL    HW110898   4.276   4.536   6.307
 3333SOL    HW210899   4.337   4.426   6.411
 3334SOL     OW10900   3.049   3.617   1.809
 3334SOL    HW110901   3.005   3.703   1.786
 3334SOL    HW210902   3.135   3.610   1.759
 3335SOL     OW10903   5.324   0.293   5.480
 3335SOL    HW110904   5.287   0.281   5.572
 3335SOL    HW210905   5.350   0.204   5.442
 3336SOL     OW10906   2.584   6.181   4.808
 3336SOL    HW110907   2.531   6.096   4.807
 3336SOL    HW210908   2.602   6.211   4.715
 3337SOL     OW10909   3.268   3.841   2.562
 3337SOL    HW110910   3.271   3.773   2.489
 3337SOL    HW210911   3.358   3.851   2.602
 3338SOL     OW10912   5.450   2.991   2.086
 3338SOL    HW110913   5.479   2.925   2.016
 3338SOL    HW210914   5.376   3.048   2.050
 3339SOL     OW10915   6.725   0.365   6.649
 3339SOL    HW110916   6.757   0.382   6.555
 3339SOL    HW210917   6.630   0.393   6.658
 3340SOL     OW10918   3.590   1.555   2.411
 3340SOL    HW110919   3.654   1.542   2.487
 3340SOL    HW210920   3.541   1.641   2.423
 3341SOL     OW10921   1.531   5.247   3.314
 3341SOL    HW110922   1.509   5.265   3.218
 3341SOL    HW210923   1.515   5.329   3.368
 3342SOL     OW10924   2.260   0.111   4.241
 3342SOL    HW110925   2.220   0.021   4.229
 3342SOL    HW210926   2.187   0.180   4.245
 3343SOL     OW10927   5.726   3.338   0.811
 3343SOL    HW110928   5.652   3.405   0.826
 3343SOL    HW210929   5.691   3.262   0.757
 3344SOL     OW10930   5.351   3.064   4.348
 3344SOL    HW110931   5.405   3.063   4.264
 3344SOL    HW210932   5.272   3.125   4.336
 3345SOL     OW10933   1.695   3.660   5.690
 3345SOL    HW110934   1.765   3.699   5.749
 3345SOL    HW210935   1.627   3.730   5.668
 3346SOL     OW10936   1.529   0.685   1.148
 3346SOL    HW110937   1.563   0.779   1.151
 3346SOL    HW210938   1.540   0.649   1.055
 3347SOL     OW10939   0.834   3.559   5.001
 3347SOL    HW110940   0.766   3.580   4.931
 3347SOL    HW210941   0.908   3.506   4.959
 3348SOL     OW10942   3.240   3.509   3.923
 3348SOL    HW110943   3.259   3.499   3.826
 3348SOL    HW210944   3.303   3.451   3.976
 3349SOL     OW10945   1.041   5.863   2.855
 3349SOL    HW110946   1.133   5.901   2.845
 3349SOL    HW210947   1.037   5.807   2.938
 3350SOL     OW10948   0.967   2.439   5.889
 3350SOL    HW110949   0.980   2.528   5.932
 3350SOL    HW210950   1.011   2.439   5.799
 3351SOL     OW10951   4.725   0.960   2.003
 3351SOL    HW110952   4.744   1.009   1.918
 3351SOL    HW210953   4.811   0.947   2.053
 3352SOL     OW10954   6.625   2.186   0.607
 3352SOL    HW110955   6.615   2.173   0.508
 3352SOL    HW210956   6.551   2.139   0.655
 3353SOL     OW10957   1.837   5.662   1.847
 3353SOL    HW110958   1.918   5.606   1.865
 3353SOL    HW210959   1.844   5.747   1.900
 3354SOL     OW10960   4.745   2.862   5.300
 3354SOL    HW110961   4.804   2.822   5.230
 3354SOL    HW210962   4.799   2.918   5.363
 3355SOL     OW10963   2.218   1.575   0.205
 3355SOL    HW110964   2.251   1.665   0.233
 3355SOL    HW210965   2.209   1.516   0.285
 3356SOL     OW10966   1.226   4.343   5.792
 3356SOL    HW110967   1.130   4.344   5.764
 3356SOL    HW210968   1.284   4.361   5.712
 3357SOL     OW10969   2.541   4.558   1.808
 3357SOL    HW110970   2.550   4.607   1.721
 3357SOL    HW210971   2.629   4.557   1.855
 3358SOL     OW10972   4.573   1.341   1.021
 3358SOL    HW110973   4.659   1.331   1.070
 3358SOL    HW210974   4.522   1.419   1.057
 3359SOL     OW10975   0.148   0.219   3.159
 3359SOL    HW110976   0.210   0.261   3.225
 3359SOL    HW210977   0.112   0.134   3.196
 3360SOL     OW10978   0.423   1.412   6.961
 3360SOL    HW110979   0.485   1.489   6.945
 3360SOL    HW210980   0.462   1.352   0.015
 3361SOL     OW10981   1.186   4.365   3.887
 3361SOL    HW110982   1.149   4.455   3.908
 3361SOL    HW210983   1.195   4.312   3.971
 3362SOL     OW10984   3.515   1.222   3.245
 3362SOL    HW110985   3.578   1.153   3.211
 3362SOL    HW210986   3.460   1.257   3.169
 3363SOL     OW10987   6.580   6.526   1.513
 3363SOL    HW110988   6.496   6.575   1.537
 3363SOL    HW210989   6.623   6.570   1.434
 3364SOL     OW10990   1.482   4.508   4.026
 3364SOL    HW110991   1.413   4.579   4.037
 3364SOL    HW210992   1.496   4.489   3.929
 3365SOL     OW10993   6.840   2.006   5.282
 3365SOL    HW110994   6.931   1.983   5.316
 3365SOL    HW210995   6.781   1.926   5.288
 3366SOL     OW10996   5.838   6.273   4.887
 3366SOL    HW110997   5.769   6.285   4.958
 3366SOL    HW210998   5.850   6.176   4.868
 3367SOL     OW10999   3.721   2.665   1.450
 3367SOL    HW111000   3.655   2.727   1.492
 3367SOL    HW211001   3.795   2.646   1.516
 3368SOL     OW11002   0.271   4.835   5.689
 3368SOL    HW111003   0.305   4.928   5.706
 3368SOL    HW211004   0.328   4.791   5.620
 3369SOL     OW11005   3.606   2.640   5.989
 3369SOL    HW111006   3.559   2.693   6.059
 3369SOL    HW211007   3.578   2.672   5.898
 3370SOL     OW11008   0.128   5.818   6.564
 3370SOL    HW111009   0.052   5.856   6.617
 3370SOL    HW211010   0.184   5.893   6.528
 3371SOL     OW11011   2.028   2.851   2.054
 3371SOL    HW111012   2.061   2.944   2.034
 3371SOL    HW211013   2.077   2.786   1.996
 3372SOL     OW11014   0.713   2.013   0.743
 3372SOL    HW111015   0.617   2.020   0.714
 3372SOL    HW211016   0.747   1.921   0.724
 3373SOL     OW11017   6.814   1.533   2.825
 3373SOL    HW111018   6.900   1.548   2.776
 3373SOL    HW211019   6.801   1.607   2.891
 3374SOL     OW11020   1.501   6.152   4.564
 3374SOL    HW111021   1.569   6.172   4.634
 3374SOL    HW211022   1.415   6.127   4.607
 3375SOL     OW11023   6.650   5.767   6.499
 3375SOL    HW111024   6.596   5.840   6.541
 3375SOL    HW211025   6.594   5.684   6.491
 3376SOL     OW11026   3.830   2.967   3.208
 3376SOL    HW111027   3.871   3.047   3.163
 3376SOL    HW211028   3.884   2.943   3.288
 3377SOL     OW11029   6.724   6.330   5.690
 3377SOL    HW111030   6.730   6.237   5.729
 3377SOL    HW211031   6.778   6.393   5.746
 3378SOL     OW11032   0.247   1.062   0.546
 3378SOL    HW111033   0.163   1.041   0.596
 3378SOL    HW211034   0.324   1.016   0.590
 3379SOL     OW11035   6.879   6.937   6.385
 3379SOL    HW111036   6.789   6.905   6.355
 3379SOL    HW211037   6.869   0.000   6.445
 3380SOL     OW11038   5.717   6.708   5.195
 3380SOL    HW111039   5.791   6.642   5.205
 3380SOL    HW211040   5.693   6.717   5.098
 3381SOL     OW11041   0.848   2.668   1.352
 3381SOL    HW111042   0.919   2.658   1.422
 3381SOL    HW211043   0.809   2.760   1.357
 3382SOL     OW11044   0.340   2.303   0.720
 3382SOL    HW111045   0.313   2.236   0.789
 3382SOL    HW211046   0.439   2.302   0.710
 3383SOL     OW11047   4.594   5.912   1.649
 3383SOL    HW111048   4.690   5.885   1.660
 3383SOL    HW211049   4.571   5.982   1.716
 3384SOL     OW11050   3.053   3.445   6.125
 3384SOL    HW111051   3.133   3.384   6.133
 3384SOL    HW211052   2.986   3.402   6.065
 3385SOL     OW11053   6.899   2.967   4.571
 3385SOL    HW111054   6.973   2.995   4.632
 3385SOL    HW211055   6.933   2.899   4.506
 3386SOL     OW11056   5.854   4.444   6.546
 3386SOL    HW111057   5.948   4.454   6.514
 3386SOL    HW211058   5.852   4.382   6.625
 3387SOL     OW11059   3.220   0.732   3.436
 3387SOL    HW111060   3.143   0.724   3.499
 3387SOL    HW211061   3.226   0.648   3.381
 3388SOL     OW11062   5.233   3.116   1.970
 3388SOL    HW111063   5.153   3.067   1.937
 3388SOL    HW211064   5.216   3.149   2.063
 3389SOL     OW11065   5.510   5.183   5.778
 3389SOL    HW111066   5.452   5.137   5.711
 3389SOL    HW211067   5.605   5.177   5.749
 3390SOL     OW11068   4.963   6.155   5.989
 3390SOL    HW111069   5.037   6.108   5.941
 3390SOL    HW211070   5.000   6.207   6.066
 3391SOL     OW11071   5.096   3.123   5.251
 3391SOL    HW111072   5.001   3.154   5.252
 3391SOL    HW211073   5.115   3.077   5.165
 3392SOL     OW11074   3.004   6.656   3.739
 3392SOL    HW111075   3.020   6.755   3.740
 3392SOL    HW211076   2.934   6.633   3.806
 3393SOL     OW11077   0.488   6.284   6.715
 3393SOL    HW111078   0.581   6.247   6.710
 3393SOL    HW211079   0.452   6.297   6.623
 3394SOL     OW11080   5.559   3.743   2.169
 3394SOL    HW111081   5.652   3.768   2.144
 3394SOL    HW211082   5.561   3.659   2.224
 3395SOL     OW11083   5.218   3.199   3.165
 3395SOL    HW111084   5.261   3.109   3.174
 3395SOL    HW211085   5.148   3.210   3.235
 3396SOL     OW11086   4.486   1.967   3.488
 3396SOL    HW111087   4.469   2.014   3.574
 3396SOL    HW211088   4.497   1.869   3.504
 3397SOL     OW11089   2.311   0.513   5.702
 3397SOL    HW111090   2.377   0.588   5.693
 3397SOL    HW211091   2.302   0.488   5.798
 3398SOL     OW11092   0.562   6.994   4.559
 3398SOL    HW111093   0.638   0.003   4.619
 3398SOL    HW211094   0.483   6.967   4.615
 3399SOL     OW11095   5.401   4.431   4.025
 3399SOL    HW111096   5.442   4.380   4.101
 3399SOL    HW211097   5.305   4.404   4.016
 3400SOL     OW11098   4.780   3.007   5.536
 3400SOL    HW111099   4.824   3.096   5.527
 3400SOL    HW211100   4.817   2.960   5.616
 3401SOL     OW11101   6.952   3.227   1.180
 3401SOL    HW111102   6.976   3.260   1.271
 3401SOL    HW211103   6.976   3.295   1.111
 3402SOL     OW11104   4.138   6.121   6.800
 3402SOL    HW111105   4.057   6.140   6.855
 3402SOL    HW211106   4.211   6.185   6.825
 3403SOL     OW11107   3.836   5.650   4.908
 3403SOL    HW111108   3.873   5.648   5.001
 3403SOL    HW211109   3.754   5.593   4.904
 3404SOL     OW11110   4.928   1.411   6.996
 3404SOL    HW111111   4.891   1.345   6.931
 3404SOL    HW211112   4.881   1.402   0.068
 3405SOL     OW11113   6.845   3.750   4.571
 3405SOL    HW111114   6.791   3.822   4.615
 3405SOL    HW211115   6.797   3.715   4.491
 3406SOL     OW11116   0.634   4.237   1.614
 3406SOL    HW111117   0.627   4.142   1.644
 3406SOL    HW211118   0.726   4.272   1.635
 3407SOL     OW11119   1.016   5.187   5.984
 3407SOL    HW111120   0.930   5.221   5.948
 3407SOL    HW211121   1.034   5.095   5.947
 3408SOL     OW11122   4.836   3.873   5.146
 3408SOL    HW111123   4.819   3.785   5.103
 3408SOL    HW211124   4.879   3.860   5.235
 3409SOL     OW11125   3.327   6.368   6.770
 3409SOL    HW111126   3.320   6.347   6.868
 3409SOL    HW211127   3.247   6.331   6.723
 3410SOL     OW11128   0.132   6.285   0.542
 3410SOL    HW111129   0.082   6.359   0.497
 3410SOL    HW211130   0.097   6.197   0.509
 3411SOL     OW11131   0.271   2.980   1.753
 3411SOL    HW111132   0.283   2.894   1.803
 3411SOL    HW211133   0.342   2.987   1.683
 3412SOL     OW11134   4.327   2.770   7.010
 3412SOL    HW111135   4.228   2.765   7.014
 3412SOL    HW211136   4.364   2.679   6.989
 3413SOL     OW11137   5.752   1.353   0.815
 3413SOL    HW111138   5.658   1.320   0.817
 3413SOL    HW211139   5.814   1.276   0.833
 3414SOL     OW11140   2.612   0.528   5.911
 3414SOL    HW111141   2.604   0.564   5.818
 3414SOL    HW211142   2.623   0.428   5.907
 3415SOL     OW11143   1.763   3.784   4.848
 3415SOL    HW111144   1.823   3.721   4.799
 3415SOL    HW211145   1.675   3.740   4.865
 3416SOL     OW11146   0.209   5.713   0.867
 3416SOL    HW111147   0.203   5.780   0.793
 3416SOL    HW211148   0.286   5.734   0.926
 3417SOL     OW11149   0.905   6.151   2.886
 3417SOL    HW111150   0.983   6.096   2.855
 3417SOL    HW211151   0.820   6.103   2.865
 3418SOL     OW11152   3.448   0.494   4.222
 3418SOL    HW111153   3.514   0.565   4.247
 3418SOL    HW211154   3.479   0.406   4.256
 3419SOL     OW11155   2.800   5.817   5.095
 3419SOL    HW111156   2.891   5.789   5.125
 3419SOL    HW211157   2.806   5.905   5.048
 3420SOL     OW11158   5.386   2.909   4.611
 3420SOL    HW111159   5.456   2.910   4.539
 3420SOL    HW211160   5.295   2.915   4.569
 3421SOL     OW11161   5.346   0.853   5.197
 3421SOL    HW111162   5.360   0.781   5.129
 3421SOL    HW211163   5.258   0.898   5.181
 3422SOL     OW11164   1.950   0.244   0.512
 3422SOL    HW111165   2.033   0.294   0.486
 3422SOL    HW211166   1.964   0.146   0.499
 3423SOL     OW11167   0.723   4.641   6.661
 3423SOL    HW111168   0.714   4.546   6.629
 3423SOL    HW211169   0.780   4.643   6.743
 3424SOL     OW11170   2.951   6.424   1.403
 3424SOL    HW111171   3.051   6.426   1.413
 3424SOL    HW211172   2.909   6.406   1.492
 3425SOL     OW11173   5.547   5.116   2.458
 3425SOL    HW111174   5.636   5.124   2.503
 3425SOL    HW211175   5.489   5.193   2.486
 3426SOL     OW11176   4.278   2.937   0.227
 3426SOL    HW111177   4.303   2.891   0.312
 3426SOL    HW211178   4.323   2.892   0.150
 3427SOL     OW11179   6.336   0.184   0.234
 3427SOL    HW111180   6.352   0.225   0.324
 3427SOL    HW211181   6.332   0.257   0.166
 3428SOL     OW11182   2.197   5.159   0.425
 3428SOL    HW111183   2.182   5.219   0.346
 3428SOL    HW211184   2.282   5.185   0.470
 3429SOL     OW11185   0.354   2.102   0.199
 3429SOL    HW111186   0.317   2.150   0.278
 3429SOL    HW211187   0.319   2.008   0.198
 3430SOL     OW11188   0.945   6.514   5.036
 3430SOL    HW111189   0.937   6.470   5.125
 3430SOL    HW211190   1.026   6.479   4.989
 3431SOL     OW11191   1.001   0.038   1.485
 3431SOL    HW111192   0.953   6.990   1.424
 3431SOL    HW211193   1.061   7.001   1.546
 3432SOL     OW11194   1.830   2.453   7.004
 3432SOL    HW111195   1.850   2.541   6.960
 3432SOL    HW211196   1.860   2.456   0.083
 3433SOL     OW11197   1.034   0.498   6.139
 3433SOL    HW111198   1.004   0.444   6.060
 3433SOL    HW211199   0.957   0.514   6.200
 3434SOL     OW11200   4.471   1.564   1.158
 3434SOL    HW111201   4.530   1.580   1.237
 3434SOL    HW211202   4.375   1.577   1.185
 3435SOL     OW11203   0.429   1.810   0.845
 3435SOL    HW111204   0.393   1.798   0.753
 3435SOL    HW211205   0.515   1.759   0.855
 3436SOL     OW11206   3.889   5.696   6.689
 3436SOL    HW111207   3.966   5.703   6.626
 3436SOL    HW211208   3.918   5.721   6.781
 3437SOL     OW11209   2.103   0.852   6.052
 3437SOL    HW111210   2.176   0.847   5.983
 3437SOL    HW211211   2.065   0.944   6.054
 3438SOL     OW11212   1.114   2.837   0.027
 3438SOL    HW111213   1.188   2.903   0.041
 3438SOL    HW211214   1.073   2.851   6.952
 3439SOL     OW11215   2.114   6.219   4.839
 3439SOL    HW111216   2.182   6.158   4.881
 3439SOL    HW211217   2.156   6.308   4.823
 3440SOL     OW11218   3.371   3.748   1.364
 3440SOL    HW111219   3.460   3.735   1.408
 3440SOL    HW211220   3.364   3.691   1.283
 3441SOL     OW11221   5.171   6.888   4.354
 3441SOL    HW111222   5.176   6.973   4.406
 3441SOL    HW211223   5.158   6.908   4.257
 3442SOL     OW11224   2.650   5.151   2.193
 3442SOL    HW111225   2.606   5.083   2.253
 3442SOL    HW211226   2.579   5.204   2.146
 3443SOL     OW11227   5.402   5.762   1.186
 3443SOL    HW111228   5.374   5.856   1.203
 3443SOL    HW211229   5.435   5.720   1.271
 3444SOL     OW11230   4.913   5.409   0.295
 3444SOL    HW111231   4.891   5.447   0.385
 3444SOL    HW211232   4.829   5.397   0.243
 3445SOL     OW11233   6.987   5.536   4.159
 3445SOL    HW111234   0.009   5.466   4.099
 3445SOL    HW211235   6.953   5.612   4.105
 3446SOL     OW11236   6.056   0.743   2.602
 3446SOL    HW111237   5.967   0.740   2.557
 3446SOL    HW211238   6.053   0.686   2.684
 3447SOL     OW11239   5.980   5.685   0.820
 3447SOL    HW111240   5.897   5.699   0.766
 3447SOL    HW211241   6.056   5.735   0.778
 3448SOL     OW11242   3.559   0.618   0.801
 3448SOL    HW111243   3.615   0.700   0.792
 3448SOL    HW211244   3.463   0.644   0.806
 3449SOL     OW11245   6.284   6.407   4.058
 3449SOL    HW111246   6.194   6.411   4.100
 3449SOL    HW211247   6.354   6.417   4.129
 3450SOL     OW11248   0.003   2.388   6.414
 3450SOL    HW111249   6.955   2.404   6.490
 3450SOL    HW211250   6.973   2.332   6.344
 3451SOL     OW11251   1.876   6.016   1.488
 3451SOL    HW111252   1.974   6.005   1.472
 3451SOL    HW211253   1.830   6.034   1.401
 3452SOL     OW11254   6.214   0.506   6.096
 3452SOL    HW111255   6.192   0.565   6.018
 3452SOL    HW211256   6.223   0.412   6.065
 3453SOL     OW11257   6.579   6.096   6.368
 3453SOL    HW111258   6.632   6.017   6.339
 3453SOL    HW211259   6.519   6.125   6.294
 3454SOL     OW11260   1.188   2.179   5.793
 3454SOL    HW111261   1.102   2.163   5.841
 3454SOL    HW211262   1.171   2.235   5.712
 3455SOL     OW11263   2.871   2.227   4.154
 3455SOL    HW111264   2.891   2.184   4.242
 3455SOL    HW211265   2.783   2.274   4.159
 3456SOL     OW11266   6.074   5.594   2.615
 3456SOL    HW111267   6.059   5.505   2.572
 3456SOL    HW211268   6.172   5.609   2.628
 3457SOL     OW11269   2.754   5.110   3.166
 3457SOL    HW111270   2.797   5.037   3.219
 3457SOL    HW211271   2.814   5.136   3.090
 3458SOL     OW11272   4.823   0.455   1.717
 3458SOL    HW111273   4.885   0.420   1.788
 3458SOL    HW211274   4.734   0.411   1.726
 3459SOL     OW11275   5.662   3.754   3.143
 3459SOL    HW111276   5.701   3.671   3.183
 3459SOL    HW211277   5.597   3.730   3.072
 3460SOL     OW11278   2.129   3.178   6.802
 3460SOL    HW111279   2.066   3.100   6.801
 3460SOL    HW211280   2.219   3.147   6.834
 3461SOL     OW11281   4.199   5.925   4.909
 3461SOL    HW111282   4.162   5.942   5.000
 3461SOL    HW211283   4.151   5.849   4.866
 3462SOL     OW11284   0.216   3.831   2.614
 3462SOL    HW111285   0.288   3.900   2.621
 3462SOL    HW211286   0.197   3.812   2.518
 3463SOL     OW11287   0.979   3.763   2.562
 3463SOL    HW111288   0.996   3.671   2.596
 3463SOL    HW211289   1.066   3.813   2.557
 3464SOL     OW11290   6.487   3.926   6.400
 3464SOL    HW111291   6.526   3.990   6.333
 3464SOL    HW211292   6.403   3.887   6.363
 3465SOL     OW11293   1.650   2.217   2.291
 3465SOL    HW111294   1.710   2.226   2.370
 3465SOL    HW211295   1.671   2.290   2.225
 3466SOL     OW11296   0.426   4.751   0.334
 3466SOL    HW111297   0.374   4.769   0.251
 3466SOL    HW211298   0.420   4.830   0.395
 3467SOL     OW11299   1.553   2.421   0.810
 3467SOL    HW111300   1.607   2.340   0.832
 3467SOL    HW211301   1.468   2.393   0.764
 3468SOL     OW11302   5.073   6.732   2.656
 3468SOL    HW111303   5.138   6.790   2.705
 3468SOL    HW211304   5.093   6.636   2.677
 3469SOL     OW11305   4.905   0.179   2.649
 3469SOL    HW111306   4.880   0.126   2.568
 3469SOL    HW211307   4.916   0.117   2.727
 3470SOL     OW11308   5.962   3.370   1.439
 3470SOL    HW111309   5.872   3.348   1.476
 3470SOL    HW211310   6.015   3.285   1.429
 3471SOL     OW11311   4.343   5.183   4.136
 3471SOL    HW111312   4.291   5.126   4.199
 3471SOL    HW211313   4.304   5.275   4.135
 3472SOL     OW11314   2.688   0.682   2.989
 3472SOL    HW111315   2.650   0.721   2.905
 3472SOL    HW211316   2.618   0.682   3.060
 3473SOL     OW11317   6.955   2.158   1.536
 3473SOL    HW111318   0.019   2.104   1.563
 3473SOL    HW211319   6.875   2.126   1.587
 3474SOL     OW11320   1.029   4.827   1.844
 3474SOL    HW111321   1.026   4.756   1.774
 3474SOL    HW211322   0.960   4.896   1.824
 3475SOL     OW11323   1.135   4.769   4.272
 3475SOL    HW111324   1.168   4.806   4.359
 3475SOL    HW211325   1.085   4.684   4.289
 3476SOL     OW11326   2.530   1.433   3.394
 3476SOL    HW111327   2.610   1.480   3.358
 3476SOL    HW211328   2.449   1.459   3.342
 3477SOL     OW11329   1.802   5.279   1.282
 3477SOL    HW111330   1.781   5.300   1.377
 3477SOL    HW211331   1.802   5.363   1.228
 3478SOL     OW11332   2.495   5.581   5.460
 3478SOL    HW111333   2.547   5.523   5.398
 3478SOL    HW211334   2.553   5.611   5.535
 3479SOL     OW11335   1.216   0.551   3.346
 3479SOL    HW111336   1.308   0.578   3.318
 3479SOL    HW211337   1.159   0.540   3.264
 3480SOL     OW11338   0.571   6.655   4.972
 3480SOL    HW111339   0.552   6.685   5.065
 3480SOL    HW211340   0.585   6.556   4.971
 3481SOL     OW11341   4.752   0.215   0.485
 3481SOL    HW111342   4.777   0.255   0.573
 3481SOL    HW211343   4.734   0.117   0.496
 3482SOL     OW11344   5.440   1.119   1.938
 3482SOL    HW111345   5.502   1.148   2.012
 3482SOL    HW211346   5.383   1.196   1.910
 3483SOL     OW11347   4.756   2.310   1.877
 3483SOL    HW111348   4.852   2.328   1.899
 3483SOL    HW211349   4.738   2.336   1.782
 3484SOL     OW11350   1.082   3.320   0.033
 3484SOL    HW111351   1.033   3.354   6.968
 3484SOL    HW211352   1.166   3.372   0.045
 3485SOL     OW11353   2.035   1.395   4.485
 3485SOL    HW111354   2.027   1.411   4.584
 3485SOL    HW211355   2.060   1.299   4.469
 3486SOL     OW11356   2.723   0.894   3.534
 3486SOL    HW111357   2.759   0.981   3.499
 3486SOL    HW211358   2.799   0.830   3.548
 3487SOL     OW11359   5.480   2.517   5.336
 3487SOL    HW111360   5.381   2.503   5.333
 3487SOL    HW211361   5.515   2.487   5.424
 3488SOL     OW11362   5.862   1.452   4.318
 3488SOL    HW111363   5.932   1.522   4.307
 3488SOL    HW211364   5.904   1.367   4.348
 3489SOL     OW11365   3.937   0.255   1.363
 3489SOL    HW111366   3.927   0.246   1.264
 3489SOL    HW211367   3.846   0.252   1.406
 3490SOL     OW11368   4.216   4.162   0.187
 3490SOL    HW111369   4.299   4.126   0.230
 3490SOL    HW211370   4.219   4.262   0.189
 3491SOL     OW11371   4.473   2.841   5.237
 3491SOL    HW111372   4.455   2.832   5.139
 3491SOL    HW211373   4.572   2.843   5.253
 3492SOL     OW11374   0.401   5.355   1.270
 3492SOL    HW111375   0.418   5.328   1.175
 3492SOL    HW211376   0.385   5.453   1.274
 3493SOL     OW11377   5.647   4.490   6.359
 3493SOL    HW111378   5.727   4.468   6.414
 3493SOL    HW211379   5.632   4.417   6.292
 3494SOL     OW11380   3.601   0.794   1.064
 3494SOL    HW111381   3.537   0.740   1.119
 3494SOL    HW211382   3.686   0.743   1.052
 3495SOL     OW11383   5.638   4.840   2.402
 3495SOL    HW111384   5.578   4.771   2.363
 3495SOL    HW211385   5.583   4.906   2.454
 3496SOL     OW11386   6.297   4.625   0.690
 3496SOL    HW111387   6.222   4.566   0.659
 3496SOL    HW211388   6.260   4.712   0.722
 3497SOL     OW11389   3.607   1.075   3.933
 3497SOL    HW111390   3.546   1.153   3.944
 3497SOL    HW211391   3.694   1.106   3.896
 3498SOL     OW11392   2.742   2.331   0.876
 3498SOL    HW111393   2.789   2.351   0.790
 3498SOL    HW211394   2.803   2.281   0.936
 3499SOL     OW11395   4.838   3.242   4.333
 3499SOL    HW111396   4.760   3.267   4.390
 3499SOL    HW211397   4.833   3.144   4.311
 3500SOL     OW11398   1.614   3.269   4.945
 3500SOL    HW111399   1.675   3.252   4.867
 3500SOL    HW211400   1.659   3.331   5.009
 3501SOL     OW11401   1.844   5.911   4.716
 3501SOL    HW111402   1.799   5.840   4.662
 3501SOL    HW211403   1.912   5.958   4.659
 3502SOL     OW11404   6.192   2.962   2.608
 3502SOL    HW111405   6.175   2.880   2.555
 3502SOL    HW211406   6.171   2.945   2.705
 3503SOL     OW11407   6.289   6.891   4.421
 3503SOL    HW111408   6.190   6.905   4.416
 3503SOL    HW211409   6.319   6.897   4.516
 3504SOL     OW11410   2.003   2.007   1.562
 3504SOL    HW111411   1.917   2.057   1.553
 3504SOL    HW211412   1.984   1.910   1.578
 3505SOL     OW11413   5.570   4.848   5.251
 3505SOL    HW111414   5.496   4.827   5.187
 3505SOL    HW211415   5.536   4.906   5.324
 3506SOL     OW11416   5.027   5.229   5.735
 3506SOL    HW111417   4.928   5.232   5.723
 3506SOL    HW211418   5.057   5.135   5.746
 3507SOL     OW11419   1.490   1.048   0.355
 3507SOL    HW111420   1.585   1.060   0.384
 3507SOL    HW211421   1.479   1.082   0.261
 3508SOL     OW11422   3.000   2.580   5.959
 3508SOL    HW111423   2.997   2.674   5.992
 3508SOL    HW211424   3.027   2.579   5.863
 3509SOL     OW11425   5.879   0.624   5.663
 3509SOL    HW111426   5.962   0.674   5.639
 3509SOL    HW211427   5.803   0.688   5.671
 3510SOL     OW11428   1.374   2.650   1.871
 3510SOL    HW111429   1.420   2.670   1.784
 3510SOL    HW211430   1.404   2.561   1.905
 3511SOL     OW11431   3.326   5.334   0.417
 3511SOL    HW111432   3.259   5.321   0.491
 3511SOL    HW211433   3.418   5.334   0.455
 3512SOL     OW11434   0.403   4.863   0.805
 3512SOL    HW111435   0.367   4.820   0.888
 3512SOL    HW211436   0.455   4.944   0.829
 3513SOL     OW11437   6.431   3.003   0.603
 3513SOL    HW111438   6.501   3.037   0.666
 3513SOL    HW211439   6.420   2.904   0.616
 3514SOL     OW11440   0.899   1.461   2.061
 3514SOL    HW111441   0.913   1.559   2.048
 3514SOL    HW211442   0.819   1.431   2.009
 3515SOL     OW11443   4.707   5.894   3.324
 3515SOL    HW111444   4.645   5.971   3.310
 3515SOL    HW211445   4.679   5.817   3.265
 3516SOL     OW11446   4.762   0.286   1.041
 3516SOL    HW111447   4.733   0.290   1.137
 3516SOL    HW211448   4.831   0.214   1.031
 3517SOL     OW11449   1.198   1.881   0.766
 3517SOL    HW111450   1.184   1.924   0.676
 3517SOL    HW211451   1.290   1.843   0.771
 3518SOL     OW11452   5.707   2.840   4.315
 3518SOL    HW111453   5.718   2.741   4.305
 3518SOL    HW211454   5.644   2.873   4.245
 3519SOL     OW11455   1.279   1.124   6.305
 3519SOL    HW111456   1.340   1.131   6.384
 3519SOL    HW211457   1.261   1.027   6.285
 3520SOL     OW11458   2.809   4.825   6.108
 3520SOL    HW111459   2.734   4.875   6.152
 3520SOL    HW211460   2.781   4.799   6.015
 3521SOL     OW11461   4.810   2.774   0.203
 3521SOL    HW111462   4.812   2.756   0.302
 3521SOL    HW211463   4.723   2.815   0.178
 3522SOL     OW11464   6.531   4.413   2.017
 3522SOL    HW111465   6.523   4.390   1.920
 3522SOL    HW211466   6.525   4.512   2.029
 3523SOL     OW11467   2.601   5.294   6.273
 3523SOL    HW111468   2.593   5.197   6.251
 3523SOL    HW211469   2.594   5.348   6.189
 3524SOL     OW11470   3.722   1.625   1.633
 3524SOL    HW111471   3.671   1.556   1.686
 3524SOL    HW211472   3.725   1.596   1.537
 3525SOL     OW11473   1.544   3.884   2.317
 3525SOL    HW111474   1.577   3.833   2.396
 3525SOL    HW211475   1.549   3.827   2.236
 3526SOL     OW11476   2.328   6.270   3.944
 3526SOL    HW111477   2.325   6.337   4.018
 3526SOL    HW211478   2.416   6.276   3.897
 3527SOL     OW11479   5.747   2.449   6.403
 3527SOL    HW111480   5.755   2.537   6.449
 3527SOL    HW211481   5.831   2.397   6.415
 3528SOL     OW11482   0.657   5.344   4.230
 3528SOL    HW111483   0.610   5.381   4.310
 3528SOL    HW211484   0.749   5.383   4.225
 3529SOL     OW11485   3.769   0.175   0.404
 3529SOL    HW111486   3.737   0.269   0.387
 3529SOL    HW211487   3.839   0.152   0.337
 3530SOL     OW11488   0.849   5.182   3.274
 3530SOL    HW111489   0.897   5.146   3.193
 3530SOL    HW211490   0.813   5.273   3.254
 3531SOL     OW11491   5.122   2.999   0.832
 3531SOL    HW111492   5.038   2.979   0.782
 3531SOL    HW211493   5.132   3.098   0.840
 3532SOL     OW11494   2.751   0.870   1.562
 3532SOL    HW111495   2.813   0.812   1.510
 3532SOL    HW211496   2.771   0.966   1.544
 3533SOL     OW11497   1.808   1.783   2.578
 3533SOL    HW111498   1.721   1.803   2.624
 3533SOL    HW211499   1.799   1.803   2.480
 3534SOL     OW11500   5.697   1.063   5.938
 3534SOL    HW111501   5.742   1.119   5.868
 3534SOL    HW211502   5.766   1.032   6.004
 3535SOL     OW11503   1.147   5.050   0.451
 3535SOL    HW111504   1.130   5.145   0.479
 3535SOL    HW211505   1.060   5.001   0.448
 3536SOL     OW11506   1.900   2.321   3.625
 3536SOL    HW111507   1.980   2.356   3.577
 3536SOL    HW211508   1.836   2.282   3.559
 3537SOL     OW11509   2.989   5.782   0.996
 3537SOL    HW111510   3.086   5.778   1.022
 3537SOL    HW211511   2.971   5.870   0.951
 3538SOL     OW11512   1.078   0.710   5.959
 3538SOL    HW111513   0.978   0.716   5.960
 3538SOL    HW211514   1.107   0.628   6.009
 3539SOL     OW11515   6.033   3.676   5.881
 3539SOL    HW111516   5.961   3.706   5.944
 3539SOL    HW211517   6.026   3.728   5.796
 3540SOL     OW11518   1.983   2.730   6.392
 3540SOL    HW111519   2.061   2.674   6.364
 3540SOL    HW211520   1.956   2.704   6.485
 3541SOL     OW11521   1.727   2.658   6.550
 3541SOL    HW111522   1.766   2.590   6.487
 3541SOL    HW211523   1.632   2.634   6.571
 3542SOL     OW11524   1.285   4.418   1.764
 3542SOL    HW111525   1.335   4.378   1.842
 3542SOL    HW211526   1.323   4.508   1.744
 3543SOL     OW11527   0.853   2.888   4.863
 3543SOL    HW111528   0.757   2.871   4.885
 3543SOL    HW211529   0.860   2.917   4.767
 3544SOL     OW11530   2.697   4.365   6.265
 3544SOL    HW111531   2.686   4.465   6.265
 3544SOL    HW211532   2.741   4.336   6.180
 3545SOL     OW11533   3.981   5.103   7.012
 3545SOL    HW111534   3.895   5.099   6.961
 3545SOL    HW211535   4.019   5.011   0.004
 3546SOL     OW11536   0.418   4.592   3.426
 3546SOL    HW111537   0.375   4.550   3.347
 3546SOL    HW211538   0.357   4.661   3.465
 3547SOL     OW11539   6.543   5.115   5.352
 3547SOL    HW111540   6.478   5.046   5.321
 3547SOL    HW211541   6.606   5.137   5.278
 3548SOL     OW11542   5.479   0.675   5.629
 3548SOL    HW111543   5.540   0.747   5.663
 3548SOL    HW211544   5.528   0.617   5.564
 3549SOL     OW11545   6.977   4.955   5.854
 3549SOL    HW111546   6.919   5.016   5.799
 3549SOL    HW211547   6.929   4.932   5.938
 3550SOL     OW11548   5.945   3.109   3.168
 3550SOL    HW111549   5.948   3.036   3.235
 3550SOL    HW211550   6.005   3.184   3.198
 3551SOL     OW11551   3.402   2.013   2.761
 3551SOL    HW111552   3.429   1.921   2.792
 3551SOL    HW211553   3.443   2.031   2.671
 3552SOL     OW11554   6.814   6.515   1.642
 3552SOL    HW111555   6.725   6.513   1.597
 3552SOL    HW211556   6.860   6.602   1.622
 3553SOL     OW11557   4.647   5.231   0.512
 3553SOL    HW111558   4.630   5.276   0.600
 3553SOL    HW211559   4.672   5.136   0.527
 3554SOL     OW11560   4.572   1.823   1.099
 3554SOL    HW111561   4.571   1.724   1.107
 3554SOL    HW211562   4.518   1.863   1.173
 3555SOL     OW11563   0.557   4.168   4.171
 3555SOL    HW111564   0.469   4.201   4.137
 3555SOL    HW211565   0.616   4.246   4.192
 3556SOL     OW11566   3.931   1.656   4.400
 3556SOL    HW111567   3.862   1.710   4.447
 3556SOL    HW211568   3.889   1.574   4.361
 3557SOL     OW11569   0.743   0.917   4.345
 3557SOL    HW111570   0.714   1.005   4.383
 3557SOL    HW211571   0.797   0.867   4.413
 3558SOL     OW11572   1.696   6.059   2.401
 3558SOL    HW111573   1.674   5.973   2.447
 3558SOL    HW211574   1.725   6.127   2.469
 3559SOL     OW11575   0.606   6.095   5.459
 3559SOL    HW111576   0.588   5.998   5.474
 3559SOL    HW211577   0.678   6.126   5.521
 3560SOL     OW11578   1.221   5.307   2.787
 3560SOL    HW111579   1.319   5.294   2.775
 3560SOL    HW211580   1.204   5.364   2.868
 3561SOL     OW11581   4.640   4.365   5.007
 3561SOL    HW111582   4.551   4.403   4.979
 3561SOL    HW211583   4.654   4.277   4.962
 3562SOL     OW11584   3.420   1.351   2.987
 3562SOL    HW111585   3.472   1.390   2.911
 3562SOL    HW211586   3.352   1.417   3.019
 3563SOL     OW11587   6.370   2.019   0.506
 3563SOL    HW111588   6.279   1.982   0.521
 3563SOL    HW211589   6.433   1.946   0.480
 3564SOL     OW11590   0.835   4.486   3.218
 3564SOL    HW111591   0.773   4.552   3.261
 3564SOL    HW211592   0.801   4.393   3.234
 3565SOL     OW11593   3.115   5.679   5.151
 3565SOL    HW111594   3.146   5.655   5.059
 3565SOL    HW211595   3.176   5.637   5.218
 3566SOL     OW11596   6.970   3.863   5.955
 3566SOL    HW111597   0.039   3.872   5.901
 3566SOL    HW211598   6.906   3.936   5.928
 3567SOL     OW11599   0.245   2.712   6.469
 3567SOL    HW111600   0.159   2.755   6.495
 3567SOL    HW211601   0.317   2.740   6.532
 3568SOL     OW11602   4.286   4.713   3.688
 3568SOL    HW111603   4.284   4.812   3.671
 3568SOL    HW211604   4.317   4.666   3.605
 3569SOL     OW11605   2.680   1.552   6.098
 3569SOL    HW111606   2.778   1.567   6.087
 3569SOL    HW211607   2.640   1.629   6.148
 3570SOL     OW11608   5.549   0.861   5.356
 3570SOL    HW111609   5.623   0.906   5.306
 3570SOL    HW211610   5.468   0.856   5.298
 3571SOL     OW11611   0.574   5.197   4.803
 3571SOL    HW111612   0.492   5.232   4.848
 3571SOL    HW211613   0.655   5.230   4.851
 3572SOL     OW11614   6.043   3.906   2.972
 3572SOL    HW111615   6.104   3.859   3.037
 3572SOL    HW211616   5.964   3.849   2.953
 3573SOL     OW11617   0.657   5.897   3.299
 3573SOL    HW111618   0.591   5.879   3.227
 3573SOL    HW211619   0.666   5.817   3.359
 3574SOL     OW11620   0.775   3.555   0.291
 3574SOL    HW111621   0.801   3.618   0.217
 3574SOL    HW211622   0.813   3.464   0.272
 3575SOL     OW11623   5.165   5.044   2.141
 3575SOL    HW111624   5.254   5.084   2.162
 3575SOL    HW211625   5.148   4.967   2.203
 3576SOL     OW11626   0.262   2.302   6.306
 3576SOL    HW111627   0.203   2.382   6.313
 3576SOL    HW211628   0.248   2.257   6.218
 3577SOL     OW11629   1.368   1.855   6.255
 3577SOL    HW111630   1.292   1.920   6.261
 3577SOL    HW211631   1.453   1.901   6.279
 3578SOL     OW11632   4.120   1.790   0.732
 3578SOL    HW111633   4.112   1.889   0.716
 3578SOL    HW211634   4.142   1.744   0.645
 3579SOL     OW11635   6.901   2.238   3.664
 3579SOL    HW111636   6.990   2.275   3.690
 3579SOL    HW211637   6.854   2.205   3.746
 3580SOL     OW11638   5.874   3.024   1.471
 3580SOL    HW111639   5.973   3.032   1.459
 3580SOL    HW211640   5.828   3.091   1.412
 3581SOL     OW11641   1.477   5.780   3.794
 3581SOL    HW111642   1.420   5.858   3.767
 3581SOL    HW211643   1.542   5.809   3.864
 3582SOL     OW11644   0.646   3.474   6.303
 3582SOL    HW111645   0.559   3.522   6.310
 3582SOL    HW211646   0.721   3.539   6.316
 3583SOL     OW11647   0.556   4.119   6.251
 3583SOL    HW111648   0.582   4.149   6.159
 3583SOL    HW211649   0.475   4.171   6.281
 3584SOL     OW11650   6.169   5.423   6.551
 3584SOL    HW111651   6.071   5.407   6.558
 3584SOL    HW211652   6.199   5.481   6.626
 3585SOL     OW11653   3.115   0.579   4.846
 3585SOL    HW111654   3.179   0.656   4.856
 3585SOL    HW211655   3.028   0.603   4.888
 3586SOL     OW11656   6.451   2.212   4.978
 3586SOL    HW111657   6.390   2.154   5.032
 3586SOL    HW211658   6.407   2.237   4.892
 3587SOL     OW11659   2.140   4.513   5.833
 3587SOL    HW111660   2.205   4.522   5.756
 3587SOL    HW211661   2.100   4.422   5.832
 3588SOL     OW11662   1.299   2.800   5.724
 3588SOL    HW111663   1.274   2.856   5.803
 3588SOL    HW211664   1.297   2.857   5.641
 3589SOL     OW11665   4.688   1.419   4.730
 3589SOL    HW111666   4.636   1.423   4.645
 3589SOL    HW211667   4.649   1.483   4.796
 3590SOL     OW11668   0.736   2.920   0.727
 3590SOL    HW111669   0.781   2.906   0.816
 3590SOL    HW211670   0.806   2.929   0.656
 3591SOL     OW11671   5.094   4.331   6.792
 3591SOL    HW111672   5.142   4.275   6.724
 3591SOL    HW211673   5.143   4.327   6.879
 3592SOL     OW11674   0.707   5.016   1.800
 3592SOL    HW111675   0.729   5.105   1.839
 3592SOL    HW211676   0.657   4.961   1.868
 3593SOL     OW11677   0.567   5.663   5.121
 3593SOL    HW111678   0.501   5.658   5.046
 3593SOL    HW211679   0.642   5.723   5.096
 3594SOL     OW11680   4.634   6.511   3.278
 3594SOL    HW111681   4.606   6.607   3.286
 3594SOL    HW211682   4.597   6.473   3.194
 3595SOL     OW11683   4.055   5.518   6.167
 3595SOL    HW111684   4.008   5.600   6.199
 3595SOL    HW211685   4.118   5.541   6.093
 3596SOL     OW11686   6.102   3.330   3.194
 3596SOL    HW111687   6.128   3.399   3.262
 3596SOL    HW211688   6.123   3.365   3.103
 3597SOL     OW11689   2.151   2.299   5.562
 3597SOL    HW111690   2.121   2.339   5.476
 3597SOL    HW211691   2.074   2.292   5.625
 3598SOL     OW11692   1.289   5.555   6.517
 3598SOL    HW111693   1.319   5.517   6.429
 3598SOL    HW211694   1.226   5.491   6.561
 3599SOL     OW11695   6.177   2.676   6.872
 3599SOL    HW111696   6.140   2.701   6.782
 3599SOL    HW211697   6.257   2.732   6.891
 3600SOL     OW11698   0.534   3.010   1.670
 3600SOL    HW111699   0.532   3.103   1.635
 3600SOL    HW211700   0.629   2.983   1.688
 3601SOL     OW11701   5.400   3.582   6.569
 3601SOL    HW111702   5.478   3.529   6.535
 3601SOL    HW211703   5.434   3.653   6.631
 3602SOL     OW11704   1.804   2.754   0.728
 3602SOL    HW111705   1.741   2.773   0.803
 3602SOL    HW211706   1.752   2.731   0.645
 3603SOL     OW11707   3.352   0.875   4.261
 3603SOL    HW111708   3.353   0.960   4.313
 3603SOL    HW211709   3.280   0.815   4.296
 3604SOL     OW11710   6.457   5.798   3.229
 3604SOL    HW111711   6.426   5.859   3.157
 3604SOL    HW211712   6.493   5.852   3.305
 3605SOL     OW11713   6.714   3.963   4.724
 3605SOL    HW111714   6.780   3.945   4.797
 3605SOL    HW211715   6.622   3.936   4.754
 3606SOL     OW11716   0.415   0.360   4.602
 3606SOL    HW111717   0.317   0.348   4.592
 3606SOL    HW211718   0.437   0.458   4.604
 3607SOL     OW11719   5.871   5.013   1.668
 3607SOL    HW111720   5.970   5.001   1.677
 3607SOL    HW211721   5.844   5.100   1.708
 3608SOL     OW11722   4.979   2.761   4.445
 3608SOL    HW111723   4.886   2.795   4.458
 3608SOL    HW211724   5.043   2.816   4.497
 3609SOL     OW11725   1.479   0.182   4.308
 3609SOL    HW111726   1.472   0.261   4.370
 3609SOL    HW211727   1.574   0.151   4.304
 3610SOL     OW11728   1.887   6.886   5.492
 3610SOL    HW111729   1.904   6.966   5.435
 3610SOL    HW211730   1.932   6.898   5.581
 3611SOL     OW11731   4.407   5.029   4.465
 3611SOL    HW111732   4.498   5.016   4.504
 3611SOL    HW211733   4.414   5.041   4.366
 3612SOL     OW11734   6.754   6.785   0.797
 3612SOL    HW111735   6.826   6.847   0.765
 3612SOL    HW211736   6.768   6.765   0.894
 3613SOL     OW11737   4.712   4.382   1.835
 3613SOL    HW111738   4.655   4.349   1.910
 3613SOL    HW211739   4.713   4.313   1.762
 3614SOL     OW11740   4.123   3.536   1.321
 3614SOL    HW111741   4.221   3.525   1.339
 3614SOL    HW211742   4.109   3.612   1.258
 3615SOL     OW11743   5.177   4.743   6.501
 3615SOL    HW111744   5.166   4.647   6.476
 3615SOL    HW211745   5.260   4.779   6.459
 3616SOL     OW11746   0.515   1.850   6.303
 3616SOL    HW111747   0.423   1.890   6.299
 3616SOL    HW211748   0.566   1.891   6.379
 3617SOL     OW11749   4.212   0.847   6.509
 3617SOL    HW111750   4.222   0.862   6.411
 3617SOL    HW211751   4.192   0.933   6.555
 3618SOL     OW11752   2.644   2.789   5.896
 3618SOL    HW111753   2.738   2.794   5.862
 3618SOL    HW211754   2.583   2.764   5.820
 3619SOL     OW11755   5.426   2.992   4.941
 3619SOL    HW111756   5.517   3.001   4.900
 3619SOL    HW211757   5.365   2.944   4.878
 3620SOL     OW11758   6.015   6.428   5.752
 3620SOL    HW111759   6.004   6.369   5.832
 3620SOL    HW211760   6.108   6.421   5.717
 3621SOL     OW11761   3.182   2.837   5.262
 3621SOL    HW111762   3.169   2.739   5.254
 3621SOL    HW211763   3.093   2.883   5.252
 3622SOL     OW11764   1.011   1.436   6.159
 3622SOL    HW111765   1.050   1.419   6.068
 3622SOL    HW211766   0.945   1.510   6.153
 3623SOL     OW11767   0.230   6.535   4.299
 3623SOL    HW111768   0.164   6.607   4.274
 3623SOL    HW211769   0.322   6.573   4.297
 3624SOL     OW11770   1.676   7.007   2.649
 3624SOL    HW111771   1.596   6.983   2.705
 3624SOL    HW211772   1.647   0.005   2.554
 3625SOL     OW11773   6.943   2.858   6.894
 3625SOL    HW111774   6.945   2.926   6.967
 3625SOL    HW211775   6.852   2.819   6.887
 3626SOL     OW11776   1.627   1.975   6.303
 3626SOL    HW111777   1.638   2.073   6.319
 3626SOL    HW211778   1.673   1.950   6.218
 3627SOL     OW11779   3.121   2.987   2.302
 3627SOL    HW111780   3.182   2.914   2.271
 3627SOL    HW211781   3.176   3.061   2.342
 3628SOL     OW11782   1.916   0.884   2.052
 3628SOL    HW111783   1.829   0.842   2.077
 3628SOL    HW211784   1.990   0.820   2.068
 3629SOL     OW11785   6.663   0.980   5.420
 3629SOL    HW111786   6.638   0.939   5.332
 3629SOL    HW211787   6.581   1.009   5.468
 3630SOL     OW11788   4.872   2.268   3.946
 3630SOL    HW111789   4.960   2.316   3.950
 3630SOL    HW211790   4.843   2.245   4.039
 3631SOL     OW11791   2.336   1.450   3.178
 3631SOL    HW111792   2.310   1.353   3.181
 3631SOL    HW211793   2.422   1.459   3.127
 3632SOL     OW11794   5.211   5.038   1.187
 3632SOL    HW111795   5.292   5.046   1.245
 3632SOL    HW211796   5.142   4.981   1.234
 3633SOL     OW11797   4.470   1.969   5.557
 3633SOL    HW111798   4.397   2.006   5.499
 3633SOL    HW211799   4.499   1.880   5.521
 3634SOL     OW11800   1.716   5.084   5.190
 3634SOL    HW111801   1.765   5.163   5.229
 3634SOL    HW211802   1.782   5.020   5.151
 3635SOL     OW11803   3.040   0.088   1.032
 3635SOL    HW111804   2.941   0.079   1.027
 3635SOL    HW211805   3.080   0.005   1.071
 3636SOL     OW11806   0.044   5.444   0.548
 3636SOL    HW111807   0.024   5.352   0.515
 3636SOL    HW211808   0.012   5.454   0.642
 3637SOL     OW11809   0.207   2.510   2.050
 3637SOL    HW111810   0.146   2.585   2.076
 3637SOL    HW211811   0.153   2.435   2.011
 3638SOL     OW11812   0.595   4.397   3.496
 3638SOL    HW111813   0.650   4.360   3.422
 3638SOL    HW211814   0.539   4.473   3.462
 3639SOL     OW11815   3.343   5.531   0.985
 3639SOL    HW111816   3.289   5.599   1.035
 3639SOL    HW211817   3.376   5.462   1.049
 3640SOL     OW11818   4.379   0.751   0.382
 3640SOL    HW111819   4.430   0.799   0.311
 3640SOL    HW211820   4.382   0.804   0.467
 3641SOL     OW11821   6.166   4.287   2.531
 3641SOL    HW111822   6.173   4.373   2.481
 3641SOL    HW211823   6.139   4.214   2.468
 3642SOL     OW11824   5.255   1.927   0.532
 3642SOL    HW111825   5.260   1.956   0.628
 3642SOL    HW211826   5.322   1.855   0.516
 3643SOL     OW11827   3.206   5.673   4.206
 3643SOL    HW111828   3.146   5.690   4.127
 3643SOL    HW211829   3.268   5.598   4.185
 3644SOL     OW11830   0.748   0.759   1.999
 3644SOL    HW111831   0.785   0.696   1.931
 3644SOL    HW211832   0.798   0.846   1.996
 3645SOL     OW11833   1.568   2.594   4.152
 3645SOL    HW111834   1.628   2.563   4.078
 3645SOL    HW211835   1.476   2.609   4.116
 3646SOL     OW11836   1.573   3.819   6.146
 3646SOL    HW111837   1.601   3.751   6.078
 3646SOL    HW211838   1.639   3.819   6.221
 3647SOL     OW11839   2.209   6.254   6.625
 3647SOL    HW111840   2.209   6.181   6.694
 3647SOL    HW211841   2.287   6.314   6.640
 3648SOL     OW11842   4.579   5.903   2.026
 3648SOL    HW111843   4.528   5.984   1.997
 3648SOL    HW211844   4.551   5.878   2.119
 3649SOL     OW11845   6.464   2.667   1.273
 3649SOL    HW111846   6.398   2.689   1.201
 3649SOL    HW211847   6.555   2.657   1.233
 3650SOL     OW11848   6.701   5.553   2.368
 3650SOL    HW111849   6.773   5.618   2.346
 3650SOL    HW211850   6.671   5.506   2.285
 3651SOL     OW11851   0.672   0.289   4.446
 3651SOL    HW111852   0.595   0.289   4.509
 3651SOL    HW211853   0.659   0.217   4.377
 3652SOL     OW11854   6.208   0.401   3.482
 3652SOL    HW111855   6.199   0.500   3.479
 3652SOL    HW211856   6.220   0.371   3.577
 3653SOL     OW11857   1.374   1.387   3.824
 3653SOL    HW111858   1.298   1.348   3.876
 3653SOL    HW211859   1.429   1.314   3.785
 3654SOL     OW11860   3.922   4.512   0.449
 3654SOL    HW111861   3.887   4.438   0.392
 3654SOL    HW211862   3.858   4.529   0.524
 3655SOL     OW11863   3.260   0.131   4.115
 3655SOL    HW111864   3.171   0.086   4.106
 3655SOL    HW211865   3.288   0.131   4.211
 3656SOL     OW11866   0.594   5.124   1.558
 3656SOL    HW111867   0.622   5.066   1.634
 3656SOL    HW211868   0.507   5.092   1.520
 3657SOL     OW11869   5.431   5.758   5.061
 3657SOL    HW111870   5.503   5.707   5.014
 3657SOL    HW211871   5.349   5.701   5.068
 3658SOL     OW11872   2.530   4.529   6.754
 3658SOL    HW111873   2.442   4.577   6.761
 3658SOL    HW211874   2.523   4.457   6.685
 3659SOL     OW11875   1.990   3.086   5.727
 3659SOL    HW111876   1.952   3.164   5.677
 3659SOL    HW211877   1.926   3.058   5.798
 3660SOL     OW11878   5.696   5.773   4.209
 3660SOL    HW111879   5.761   5.701   4.183
 3660SOL    HW211880   5.616   5.768   4.150
 3661SOL     OW11881   6.415   1.002   4.985
 3661SOL    HW111882   6.353   0.955   4.921
 3661SOL    HW211883   6.379   1.093   5.005
 3662SOL     OW11884   4.054   1.074   4.102
 3662SOL    HW111885   4.044   1.004   4.031
 3662SOL    HW211886   4.127   1.138   4.076
 3663SOL     OW11887   1.489   2.048   0.646
 3663SOL    HW111888   1.574   2.040   0.594
 3663SOL    HW211889   1.478   1.967   0.704
 3664SOL     OW11890   4.725   2.346   1.457
 3664SOL    HW111891   4.636   2.386   1.483
 3664SOL    HW211892   4.748   2.273   1.521
 3665SOL     OW11893   0.873   6.210   4.842
 3665SOL    HW111894   0.886   6.112   4.829
 3665SOL    HW211895   0.845   6.229   4.936
 3666SOL     OW11896   0.974   3.488   2.655
 3666SOL    HW111897   1.039   3.422   2.692
 3666SOL    HW211898   0.923   3.447   2.579
 3667SOL     OW11899   0.447   1.291   3.835
 3667SOL    HW111900   0.393   1.258   3.913
 3667SOL    HW211901   0.417   1.245   3.752
 3668SOL     OW11902   1.281   1.320   0.564
 3668SOL    HW111903   1.269   1.324   0.663
 3668SOL    HW211904   1.308   1.227   0.537
 3669SOL     OW11905   5.262   1.657   3.963
 3669SOL    HW111906   5.307   1.609   4.038
 3669SOL    HW211907   5.215   1.591   3.905
 3670SOL     OW11908   1.766   5.660   6.581
 3670SOL    HW111909   1.748   5.758   6.575
 3670SOL    HW211910   1.718   5.613   6.507
 3671SOL     OW11911   0.032   1.963   4.017
 3671SOL    HW111912   0.106   2.022   4.047
 3671SOL    HW211913   0.063   1.906   3.940
 3672SOL     OW11914   4.800   2.104   2.240
 3672SOL    HW111915   4.896   2.129   2.228
 3672SOL    HW211916   4.767   2.059   2.157
 3673SOL     OW11917   4.301   6.321   0.238
 3673SOL    HW111918   4.324   6.398   0.297
 3673SOL    HW211919   4.293   6.238   0.294
 3674SOL     OW11920   1.429   5.776   5.426
 3674SOL    HW111921   1.427   5.853   5.363
 3674SOL    HW211922   1.394   5.805   5.515
 3675SOL     OW11923   1.887   2.791   3.804
 3675SOL    HW111924   1.943   2.719   3.764
 3675SOL    HW211925   1.911   2.802   3.901
 3676SOL     OW11926   6.482   4.509   2.698
 3676SOL    HW111927   6.575   4.477   2.718
 3676SOL    HW211928   6.486   4.602   2.662
 3677SOL     OW11929   2.825   6.297   4.383
 3677SOL    HW111930   2.816   6.382   4.435
 3677SOL    HW211931   2.794   6.312   4.289
 3678SOL     OW11932   1.274   1.429   4.202
 3678SOL    HW111933   1.188   1.435   4.151
 3678SOL    HW211934   1.281   1.339   4.245
 3679SOL     OW11935   6.607   0.209   3.410
 3679SOL    HW111936   6.637   0.115   3.427
 3679SOL    HW211937   6.683   0.262   3.373
 3680SOL     OW11938   5.127   3.215   4.418
 3680SOL    HW111939   5.170   3.302   4.394
 3680SOL    HW211940   5.028   3.224   4.412
 3681SOL     OW11941   0.100   1.231   6.352
 3681SOL    HW111942   0.119   1.329   6.365
 3681SOL    HW211943   0.121   1.205   6.258
 3682SOL     OW11944   5.701   3.300   0.136
 3682SOL    HW111945   5.700   3.200   0.147
 3682SOL    HW211946   5.782   3.337   0.180
 3683SOL     OW11947   0.048   1.735   4.481
 3683SOL    HW111948   0.047   1.635   4.488
 3683SOL    HW211949   0.068   1.762   4.386
 3684SOL     OW11950   1.166   5.388   6.702
 3684SOL    HW111951   1.088   5.451   6.708
 3684SOL    HW211952   1.171   5.334   6.786
 3685SOL     OW11953   1.739   5.922   6.468
 3685SOL    HW111954   1.747   5.907   6.370
 3685SOL    HW211955   1.775   6.013   6.490
 3686SOL     OW11956   6.159   5.129   4.998
 3686SOL    HW111957   6.135   5.080   5.082
 3686SOL    HW211958   6.079   5.178   4.965
 3687SOL     OW11959   3.784   6.485   3.913
 3687SOL    HW111960   3.758   6.389   3.906
 3687SOL    HW211961   3.706   6.539   3.946
 3688SOL     OW11962   0.371   3.061   6.829
 3688SOL    HW111963   0.453   3.047   6.884
 3688SOL    HW211964   0.366   3.157   6.801
 3689SOL     OW11965   1.980   0.244   5.903
 3689SOL    HW111966   2.033   0.329   5.911
 3689SOL    HW211967   2.005   0.197   5.818
 3690SOL     OW11968   4.055   5.862   0.272
 3690SOL    HW111969   3.988   5.895   0.340
 3690SOL    HW211970   4.134   5.824   0.320
 3691SOL     OW11971   2.490   1.829   6.889
 3691SOL    HW111972   2.439   1.847   6.805
 3691SOL    HW211973   2.529   1.737   6.886
 3692SOL     OW11974   6.650   5.309   5.510
 3692SOL    HW111975   6.577   5.241   5.506
 3692SOL    HW211976   6.713   5.295   5.434
 3693SOL     OW11977   2.050   3.455   2.904
 3693SOL    HW111978   2.107   3.530   2.939
 3693SOL    HW211979   2.095   3.414   2.825
 3694SOL     OW11980   0.613   6.281   2.130
 3694SOL    HW111981   0.528   6.285   2.077
 3694SOL    HW211982   0.659   6.194   2.111
 3695SOL     OW11983   5.179   2.923   1.438
 3695SOL    HW111984   5.137   2.833   1.448
 3695SOL    HW211985   5.198   2.940   1.341
 3696SOL     OW11986   3.907   0.257   3.978
 3696SOL    HW111987   3.895   0.167   3.936
 3696SOL    HW211988   3.853   0.262   4.062
 3697SOL     OW11989   0.385   6.421   2.825
 3697SOL    HW111990   0.383   6.497   2.760
 3697SOL    HW211991   0.299   6.371   2.820
 3698SOL     OW11992   2.652   1.264   3.772
 3698SOL    HW111993   2.684   1.318   3.849
 3698SOL    HW211994   2.717   1.273   3.696
 3699SOL     OW11995   1.746   1.731   3.687
 3699SOL    HW111996   1.762   1.647   3.636
 3699SOL    HW211997   1.805   1.804   3.651
 3700SOL     OW11998   1.218   5.220   5.078
 3700SOL    HW111999   1.248   5.291   5.014
 3700SOL    HW212000   1.297   5.170   5.113
 3701SOL     OW12001   1.471   0.958   3.742
 3701SOL    HW112002   1.498   1.045   3.783
 3701SOL    HW212003   1.549   0.917   3.694
 3702SOL     OW12004   5.569   6.335   3.222
 3702SOL    HW112005   5.476   6.346   3.187
 3702SOL    HW212006   5.590   6.411   3.284
 3703SOL     OW12007   6.685   0.750   6.409
 3703SOL    HW112008   6.652   0.660   6.439
 3703SOL    HW212009   6.660   0.819   6.477
 3704SOL     OW12010   3.887   1.981   1.068
 3704SOL    HW112011   3.900   2.070   1.025
 3704SOL    HW212012   3.798   1.977   1.112
 3705SOL     OW12013   5.152   4.105   4.821
 3705SOL    HW112014   5.251   4.103   4.836
 3705SOL    HW212015   5.106   4.055   4.894
 3706SOL     OW12016   0.858   3.927   6.794
 3706SOL    HW112017   0.899   3.894   6.878
 3706SOL    HW212018   0.912   4.003   6.758
 3707SOL     OW12019   5.226   4.953   4.636
 3707SOL    HW112020   5.289   4.960   4.713
 3707SOL    HW212021   5.207   5.045   4.600
 3708SOL     OW12022   6.404   0.742   0.644
 3708SOL    HW112023   6.387   0.710   0.737
 3708SOL    HW212024   6.345   0.820   0.624
 3709SOL     OW12025   3.708   0.327   1.493
 3709SOL    HW112026   3.697   0.420   1.529
 3709SOL    HW212027   3.676   0.261   1.560
 3710SOL     OW12028   6.574   5.474   5.253
 3710SOL    HW112029   6.570   5.556   5.196
 3710SOL    HW212030   6.667   5.436   5.251
 3711SOL     OW12031   1.294   5.396   4.890
 3711SOL    HW112032   1.357   5.474   4.887
 3711SOL    HW212033   1.277   5.364   4.797
 3712SOL     OW12034   1.025   5.024   6.213
 3712SOL    HW112035   0.950   4.958   6.215
 3712SOL    HW212036   0.995   5.107   6.164
 3713SOL     OW12037   0.538   6.677   5.275
 3713SOL    HW112038   0.624   6.721   5.302
 3713SOL    HW212039   0.483   6.659   5.356
 3714SOL     OW12040   5.644   5.922   6.444
 3714SOL    HW112041   5.733   5.965   6.431
 3714SOL    HW212042   5.636   5.841   6.386
 3715SOL     OW12043   0.722   3.733   2.656
 3715SOL    HW112044   0.803   3.732   2.597
 3715SOL    HW212045   0.653   3.793   2.616
 3716SOL     OW12046   6.022   6.655   3.765
 3716SOL    HW112047   6.031   6.558   3.788
 3716SOL    HW212048   6.101   6.706   3.799
 3717SOL     OW12049   6.016   0.059   6.936
 3717SOL    HW112050   6.002   7.012   6.859
 3717SOL    HW212051   6.105   0.041   6.979
 3718SOL     OW12052   0.400   0.886   0.107
 3718SOL    HW112053   0.365   0.799   0.074
 3718SOL    HW212054   0.361   0.905   0.198
 3719SOL     OW12055   5.083   3.254   1.494
 3719SOL    HW112056   5.057   3.235   1.400
 3719SOL    HW212057   5.181   3.276   1.498
 3720SOL     OW12058   5.924   3.349   0.259
 3720SOL    HW112059   6.014   3.384   0.231
 3720SOL    HW212060   5.922   3.337   0.358
 3721SOL     OW12061   6.771   4.963   1.983
 3721SOL    HW112062   6.720   4.939   2.065
 3721SOL    HW212063   6.846   4.897   1.970
 3722SOL     OW12064   5.432   5.983   0.875
 3722SOL    HW112065   5.370   5.919   0.920
 3722SOL    HW212066   5.504   5.933   0.827
 3723SOL     OW12067   5.681   4.412   0.866
 3723SOL    HW112068   5.635   4.496   0.895
 3723SOL    HW212069   5.779   4.418   0.888
 3724SOL     OW12070   1.675   4.740   4.702
 3724SOL    HW112071   1.720   4.664   4.747
 3724SOL    HW212072   1.742   4.789   4.645
 3725SOL     OW12073   0.389   5.203   0.039
 3725SOL    HW112074   0.439   5.267   0.098
 3725SOL    HW212075   0.424   5.111   0.053
 3726SOL     OW12076   5.856   3.158   6.247
 3726SOL    HW112077   5.809   3.070   6.249
 3726SOL    HW212078   5.791   3.231   6.229
 3727SOL     OW12079   6.574   2.054   5.544
 3727SOL    HW112080   6.550   2.129   5.606
 3727SOL    HW212081   6.657   2.009   5.577
 3728SOL     OW12082   0.977   3.650   6.567
 3728SOL    HW112083   1.052   3.668   6.631
 3728SOL    HW212084   1.015   3.631   6.477
 3729SOL     OW12085   2.063   2.018   4.218
 3729SOL    HW112086   2.044   1.969   4.133
 3729SOL    HW212087   2.053   2.116   4.204
 3730SOL     OW12088   2.996   6.018   5.281
 3730SOL    HW112089   3.083   6.066   5.296
 3730SOL    HW212090   2.928   6.083   5.247
 3731SOL     OW12091   0.326   1.486   0.561
 3731SOL    HW112092   0.292   1.579   0.573
 3731SOL    HW212093   0.375   1.457   0.643
 3732SOL     OW12094   2.933   2.152   0.297
 3732SOL    HW112095   2.924   2.172   0.199
 3732SOL    HW212096   2.910   2.056   0.314
 3733SOL     OW12097   1.787   3.572   2.827
 3733SOL    HW112098   1.809   3.661   2.785
 3733SOL    HW212099   1.869   3.536   2.871
 3734SOL     OW12100   4.951   0.097   1.035
 3734SOL    HW112101   5.045   0.110   1.067
 3734SOL    HW212102   4.952   0.079   0.936
 3735SOL     OW12103   2.911   0.863   2.948
 3735SOL    HW112104   2.898   0.895   2.854
 3735SOL    HW212105   2.857   0.780   2.962
 3736SOL     OW12106   0.223   1.536   1.212
 3736SOL    HW112107   0.234   1.609   1.144
 3736SOL    HW212108   0.129   1.536   1.246
 3737SOL     OW12109   5.129   0.587   4.393
 3737SOL    HW112110   5.074   0.663   4.428
 3737SOL    HW212111   5.211   0.623   4.347
 3738SOL     OW12112   6.513   0.430   1.662
 3738SOL    HW112113   6.567   0.366   1.607
 3738SOL    HW212114   6.447   0.378   1.717
 3739SOL     OW12115   2.592   5.269   0.890
 3739SOL    HW112116   2.504   5.316   0.903
 3739SOL    HW212117   2.581   5.193   0.827
 3740SOL     OW12118   6.530   0.084   0.687
 3740SOL    HW112119   6.587   0.008   0.719
 3740SOL    HW212120   6.436   0.072   0.719
 3741SOL     OW12121   4.960   2.539   6.037
 3741SOL    HW112122   5.010   2.625   6.034
 3741SOL    HW212123   4.978   2.494   6.125
 3742SOL     OW12124   3.072   1.704   6.822
 3742SOL    HW112125   3.116   1.790   6.848
 3742SOL    HW212126   3.137   1.647   6.772
 3743SOL     OW12127   5.751   2.843   0.652
 3743SOL    HW112128   5.718   2.848   0.746
 3743SOL    HW212129   5.831   2.902   0.641
 3744SOL     OW12130   1.736   6.606   1.749
 3744SOL    HW112131   1.660   6.640   1.694
 3744SOL    HW212132   1.807   6.569   1.690
 3745SOL     OW12133   4.436   4.488   2.590
 3745SOL    HW112134   4.507   4.475   2.522
 3745SOL    HW212135   4.352   4.519   2.546
 3746SOL     OW12136   6.387   0.737   3.938
 3746SOL    HW112137   6.356   0.649   3.976
 3746SOL    HW212138   6.317   0.807   3.955
 3747SOL     OW12139   3.576   5.953   5.075
 3747SOL    HW112140   3.608   5.873   5.126
 3747SOL    HW212141   3.479   5.943   5.054
 3748SOL     OW12142   5.861   0.677   1.766
 3748SOL    HW112143   5.775   0.664   1.815
 3748SOL    HW212144   5.858   0.764   1.717
 3749SOL     OW12145   1.668   4.917   3.013
 3749SOL    HW112146   1.747   4.978   3.006
 3749SOL    HW212147   1.698   4.822   3.007
 3750SOL     OW12148   6.653   4.987   1.484
 3750SOL    HW112149   6.576   5.044   1.514
 3750SOL    HW212150   6.707   5.036   1.416
 3751SOL     OW12151   6.443   3.636   1.520
 3751SOL    HW112152   6.494   3.627   1.606
 3751SOL    HW212153   6.378   3.560   1.511
 3752SOL     OW12154   0.013   6.709   0.851
 3752SOL    HW112155   6.996   6.669   0.765
 3752SOL    HW212156   0.073   6.786   0.831
 3753SOL     OW12157   0.118   1.033   3.879
 3753SOL    HW112158   0.110   1.132   3.891
 3753SOL    HW212159   0.181   0.996   3.948
 3754SOL     OW12160   4.142   6.784   1.219
 3754SOL    HW112161   4.073   6.727   1.264
 3754SOL    HW212162   4.097   6.853   1.163
 3755SOL     OW12163   5.339   5.671   4.519
 3755SOL    HW112164   5.345   5.769   4.535
 3755SOL    HW212165   5.315   5.625   4.604
 3756SOL     OW12166   2.173   5.507   6.519
 3756SOL    HW112167   2.254   5.488   6.464
 3756SOL    HW212168   2.092   5.476   6.469
 3757SOL     OW12169   4.089   6.331   6.538
 3757SOL    HW112170   4.086   6.232   6.547
 3757SOL    HW212171   4.012   6.372   6.589
 3758SOL     OW12172   2.160   1.231   5.345
 3758SOL    HW112173   2.236   1.265   5.289
 3758SOL    HW212174   2.097   1.179   5.287
 3759SOL     OW12175   4.672   5.750   5.992
 3759SOL    HW112176   4.666   5.753   6.092
 3759SOL    HW212177   4.668   5.843   5.955
 3760SOL     OW12178   2.051   1.664   5.227
 3760SOL    HW112179   2.048   1.749   5.279
 3760SOL    HW212180   2.129   1.666   5.164
 3761SOL     OW12181   1.109   0.953   4.762
 3761SOL    HW112182   1.137   1.000   4.845
 3761SOL    HW212183   1.185   0.900   4.726
 3762SOL     OW12184   1.068   4.084   0.002
 3762SOL    HW112185   1.052   4.116   6.924
 3762SOL    HW212186   1.156   4.037   0.006
 3763SOL     OW12187   0.425   4.350   1.220
 3763SOL    HW112188   0.485   4.373   1.143
 3763SOL    HW212189   0.468   4.378   1.305
 3764SOL     OW12190   2.027   0.001   3.900
 3764SOL    HW112191   1.988   0.091   3.920
 3764SOL    HW212192   1.954   6.953   3.877
 3765SOL     OW12193   4.338   1.016   1.092
 3765SOL    HW112194   4.341   0.960   1.009
 3765SOL    HW212195   4.360   1.111   1.069
 3766SOL     OW12196   1.149   1.246   3.715
 3766SOL    HW112197   1.154   1.225   3.812
 3766SOL    HW212198   1.057   1.277   3.692
 3767SOL     OW12199   2.192   4.316   0.451
 3767SOL    HW112200   2.266   4.276   0.398
 3767SOL    HW212201   2.194   4.416   0.442
 3768SOL     OW12202   1.860   6.113   4.888
 3768SOL    HW112203   1.868   6.025   4.840
 3768SOL    HW212204   1.948   6.161   4.883
 3769SOL     OW12205   5.949   6.598   5.244
 3769SOL    HW112206   6.023   6.663   5.228
 3769SOL    HW212207   5.929   6.594   5.342
 3770SOL     OW12208   2.306   0.570   0.011
 3770SOL    HW112209   2.257   0.509   6.964
 3770SOL    HW212210   2.298   0.536   0.104
 3771SOL     OW12211   6.189   3.350   0.243
 3771SOL    HW112212   6.253   3.330   0.317
 3771SOL    HW212213   6.221   3.307   0.158
 3772SOL     OW12214   0.063   0.936   6.771
 3772SOL    HW112215   0.066   0.935   6.871
 3772SOL    HW212216   0.051   1.029   6.739
 3773SOL     OW12217   6.189   2.630   6.193
 3773SOL    HW112218   6.216   2.537   6.218
 3773SOL    HW212219   6.133   2.627   6.110
 3774SOL     OW12220   0.267   6.043   0.411
 3774SOL    HW112221   0.335   5.973   0.390
 3774SOL    HW212222   0.213   6.064   0.330
 3775SOL     OW12223   5.269   5.405   2.317
 3775SOL    HW112224   5.294   5.464   2.241
 3775SOL    HW212225   5.229   5.459   2.390
 3776SOL     OW12226   4.109   1.118   0.696
 3776SOL    HW112227   4.126   1.211   0.727
 3776SOL    HW212228   4.195   1.074   0.670
 3777SOL     OW12229   3.428   5.000   4.227
 3777SOL    HW112230   3.359   5.061   4.188
 3777SOL    HW212231   3.393   4.959   4.311
 3778SOL     OW12232   3.743   5.010   2.321
 3778SOL    HW112233   3.669   4.993   2.256
 3778SOL    HW212234   3.743   5.106   2.348
 3779SOL     OW12235   1.821   4.885   0.675
 3779SOL    HW112236   1.908   4.927   0.647
 3779SOL    HW212237   1.831   4.844   0.766
 3780SOL     OW12238   5.507   6.009   5.006
 3780SOL    HW112239   5.480   5.916   5.031
 3780SOL    HW212240   5.428   6.057   4.967
 3781SOL     OW12241   1.058   0.052   4.598
 3781SOL    HW112242   1.117   0.069   4.519
 3781SOL    HW212243   1.035   6.970   4.601
 3782SOL     OW12244   2.556   0.649   4.047
 3782SOL    HW112245   2.570   0.618   4.141
 3782SOL    HW212246   2.479   0.599   4.007
 3783SOL     OW12247   5.838   5.524   4.133
 3783SOL    HW112248   5.873   5.468   4.058
 3783SOL    HW212249   5.764   5.474   4.180
 3784SOL     OW12250   4.853   2.851   2.143
 3784SOL    HW112251   4.806   2.910   2.077
 3784SOL    HW212252   4.808   2.762   2.145
 3785SOL     OW12253   1.735   1.692   6.382
 3785SOL    HW112254   1.698   1.773   6.427
 3785SOL    HW212255   1.705   1.610   6.430
 3786SOL     OW12256   2.370   6.144   2.721
 3786SOL    HW112257   2.361   6.174   2.626
 3786SOL    HW212258   2.463   6.110   2.737
 3787SOL     OW12259   6.170   0.718   2.336
 3787SOL    HW112260   6.216   0.698   2.422
 3787SOL    HW212261   6.166   0.636   2.280
 3788SOL     OW12262   0.811   3.929   4.448
 3788SOL    HW112263   0.736   3.887   4.499
 3788SOL    HW212264   0.883   3.955   4.512
 3789SOL     OW12265   0.298   2.998   5.245
 3789SOL    HW112266   0.210   3.009   5.290
 3789SOL    HW212267   0.326   2.902   5.250
 3790SOL     OW12268   1.299   4.884   5.108
 3790SOL    HW112269   1.207   4.904   5.074
 3790SOL    HW212270   1.335   4.963   5.157
 3791SOL     OW12271   5.209   0.511   0.418
 3791SOL    HW112272   5.206   0.421   0.462
 3791SOL    HW212273   5.304   0.535   0.398
 3792SOL     OW12274   1.063   1.906   5.149
 3792SOL    HW112275   0.982   1.901   5.090
 3792SOL    HW212276   1.106   1.995   5.138
 3793SOL     OW12277   4.525   6.819   2.759
 3793SOL    HW112278   4.569   6.731   2.777
 3793SOL    HW212279   4.462   6.840   2.833
 3794SOL     OW12280   2.803   4.200   0.216
 3794SOL    HW112281   2.740   4.158   0.281
 3794SOL    HW212282   2.787   4.163   0.125
 3795SOL     OW12283   4.738   6.516   6.287
 3795SOL    HW112284   4.676   6.442   6.260
 3795SOL    HW212285   4.820   6.512   6.229
 3796SOL     OW12286   3.031   1.765   2.035
 3796SOL    HW112287   3.059   1.669   2.044
 3796SOL    HW212288   3.109   1.824   2.054
 3797SOL     OW12289   0.224   3.891   2.319
 3797SOL    HW112290   0.154   3.820   2.311
 3797SOL    HW212291   0.181   3.981   2.315
 3798SOL     OW12292   2.691   5.678   2.731
 3798SOL    HW112293   2.651   5.716   2.648
 3798SOL    HW212294   2.774   5.730   2.754
 3799SOL     OW12295   0.667   2.759   4.357
 3799SOL    HW112296   0.639   2.777   4.263
 3799SOL    HW212297   0.610   2.687   4.396
 3800SOL     OW12298   5.531   2.997   4.143
 3800SOL    HW112299   5.568   3.090   4.139
 3800SOL    HW212300   5.461   2.985   4.073
 3801SOL     OW12301   6.362   6.781   3.051
 3801SOL    HW112302   6.384   6.686   3.031
 3801SOL    HW212303   6.402   6.840   2.982
 3802SOL     OW12304   1.355   2.188   2.589
 3802SOL    HW112305   1.388   2.105   2.544
 3802SOL    HW212306   1.364   2.179   2.688
 3803SOL     OW12307   3.231   2.269   1.026
 3803SOL    HW112308   3.301   2.327   0.986
 3803SOL    HW212309   3.177   2.322   1.091
 3804SOL     OW12310   5.074   0.981   4.098
 3804SOL    HW112311   5.102   1.077   4.088
 3804SOL    HW212312   5.156   0.925   4.110
 3805SOL     OW12313   2.399   3.039   1.661
 3805SOL    HW112314   2.344   3.106   1.711
 3805SOL    HW212315   2.496   3.059   1.673
 3806SOL     OW12316   3.824   4.034   6.518
 3806SOL    HW112317   3.754   4.087   6.469
 3806SOL    HW212318   3.812   4.048   6.617
 3807SOL     OW12319   1.970   5.576   3.257
 3807SOL    HW112320   1.894   5.513   3.246
 3807SOL    HW212321   2.040   5.556   3.188
 3808SOL     OW12322   4.384   0.507   0.809
 3808SOL    HW112323   4.464   0.553   0.772
 3808SOL    HW212324   4.388   0.508   0.909
 3809SOL     OW12325   6.007   3.161   0.918
 3809SOL    HW112326   6.063   3.227   0.868
 3809SOL    HW212327   5.953   3.208   0.987
 3810SOL     OW12328   4.603   2.314   4.099
 3810SOL    HW112329   4.639   2.293   4.190
 3810SOL    HW212330   4.595   2.230   4.046
 3811SOL     OW12331   1.168   3.871   4.290
 3811SOL    HW112332   1.109   3.923   4.229
 3811SOL    HW212333   1.197   3.787   4.244
 3812SOL     OW12334   5.184   0.534   4.670
 3812SOL    HW112335   5.189   0.435   4.682
 3812SOL    HW212336   5.192   0.556   4.572
 3813SOL     OW12337   4.855   4.725   0.480
 3813SOL    HW112338   4.887   4.798   0.421
 3813SOL    HW212339   4.876   4.636   0.438
 3814SOL     OW12340   0.115   6.936   0.621
 3814SOL    HW112341   0.062   6.889   0.550
 3814SOL    HW212342   0.192   6.984   0.579
 3815SOL     OW12343   4.795   3.218   6.860
 3815SOL    HW112344   4.752   3.139   6.818
 3815SOL    HW212345   4.895   3.213   6.849
 3816SOL     OW12346   0.714   5.740   6.646
 3816SOL    HW112347   0.668   5.670   6.592
 3816SOL    HW212348   0.732   5.820   6.589
 3817SOL     OW12349   4.813   3.990   2.238
 3817SOL    HW112350   4.756   3.911   2.215
 3817SOL    HW212351   4.872   3.968   2.316
 3818SOL     OW12352   5.574   0.620   0.463
 3818SOL    HW112353   5.501   0.595   0.527
 3818SOL    HW212354   5.624   0.699   0.500
 3819SOL     OW12355   5.822   5.600   1.437
 3819SOL    HW112356   5.888   5.532   1.406
 3819SOL    HW212357   5.850   5.635   1.527
 3820SOL     OW12358   5.556   6.901   3.080
 3820SOL    HW112359   5.535   6.989   3.036
 3820SOL    HW212360   5.551   6.911   3.179
 3821SOL     OW12361   2.330   1.496   0.730
 3821SOL    HW112362   2.424   1.529   0.741
 3821SOL    HW212363   2.312   1.425   0.797
 3822SOL     OW12364   1.222   6.790   2.407
 3822SOL    HW112365   1.220   6.691   2.425
 3822SOL    HW212366   1.155   6.835   2.466
 3823SOL     OW12367   2.801   2.773   6.164
 3823SOL    HW112368   2.810   2.696   6.228
 3823SOL    HW212369   2.713   2.767   6.118
 3824SOL     OW12370   5.895   2.452   0.539
 3824SOL    HW112371   5.953   2.392   0.484
 3824SOL    HW212372   5.868   2.532   0.485
 3825SOL     OW12373   0.943   6.196   0.626
 3825SOL    HW112374   0.966   6.098   0.621
 3825SOL    HW212375   0.963   6.239   0.538
 3826SOL     OW12376   0.864   2.629   6.825
 3826SOL    HW112377   0.916   2.715   6.827
 3826SOL    HW212378   0.767   2.649   6.816
 3827SOL     OW12379   2.593   2.536   1.279
 3827SOL    HW112380   2.589   2.636   1.285
 3827SOL    HW212381   2.635   2.509   1.192
 3828SOL     OW12382   3.716   2.376   1.603
 3828SOL    HW112383   3.702   2.356   1.700
 3828SOL    HW212384   3.627   2.383   1.557
 3829SOL     OW12385   1.878   4.679   4.392
 3829SOL    HW112386   1.871   4.763   4.445
 3829SOL    HW212387   1.903   4.701   4.297
 3830SOL     OW12388   1.029   0.476   4.168
 3830SOL    HW112389   1.069   0.564   4.194
 3830SOL    HW212390   0.939   0.467   4.210
 3831SOL     OW12391   4.318   2.270   2.425
 3831SOL    HW112392   4.249   2.216   2.473
 3831SOL    HW212393   4.274   2.338   2.367
 3832SOL     OW12394   5.516   0.847   3.095
 3832SOL    HW112395   5.561   0.902   3.026
 3832SOL    HW212396   5.425   0.818   3.062
 3833SOL     OW12397   0.788   5.841   5.967
 3833SOL    HW112398   0.744   5.919   6.011
 3833SOL    HW212399   0.878   5.868   5.934
 3834SOL     OW12400   4.549   3.403   1.560
 3834SOL    HW112401   4.641   3.436   1.580
 3834SOL    HW212402   4.552   3.304   1.546
 3835SOL     OW12403   3.016   5.336   5.367
 3835SOL    HW112404   2.975   5.381   5.446
 3835SOL    HW212405   2.948   5.331   5.293
 3836SOL     OW12406   2.081   4.230   5.724
 3836SOL    HW112407   2.120   4.217   5.633
 3836SOL    HW212408   2.035   4.145   5.753
 3837SOL     OW12409   4.838   3.916   6.814
 3837SOL    HW112410   4.787   3.961   6.740
 3837SOL    HW212411   4.802   3.947   6.903
 3838SOL     OW12412   6.833   3.518   4.701
 3838SOL    HW112413   6.823   3.434   4.647
 3838SOL    HW212414   6.838   3.596   4.639
 3839SOL     OW12415   4.010   0.896   3.900
 3839SOL    HW112416   4.052   0.879   3.811
 3839SOL    HW212417   3.952   0.818   3.925
 3840SOL     OW12418   1.963   1.468   5.629
 3840SOL    HW112419   1.932   1.372   5.633
 3840SOL    HW212420   1.908   1.517   5.561
 3841SOL     OW12421   0.341   2.916   5.566
 3841SOL    HW112422   0.332   2.960   5.655
 3841SOL    HW212423   0.256   2.925   5.515
 3842SOL     OW12424   0.970   4.095   6.501
 3842SOL    HW112425   0.976   4.181   6.450
 3842SOL    HW212426   0.922   4.026   6.446
 3843SOL     OW12427   0.226   4.254   2.582
 3843SOL    HW112428   0.155   4.261   2.652
 3843SOL    HW212429   0.201   4.182   2.517
 3844SOL     OW12430   0.419   2.833   6.635
 3844SOL    HW112431   0.455   2.900   6.570
 3844SOL    HW212432   0.375   2.880   6.711
 3845SOL     OW12433   3.631   2.914   3.014
 3845SOL    HW112434   3.699   2.899   3.085
 3845SOL    HW212435   3.579   2.997   3.035
 3846SOL     OW12436   0.953   4.833   4.056
 3846SOL    HW112437   0.953   4.921   4.008
 3846SOL    HW212438   1.028   4.831   4.122
 3847SOL     OW12439   6.336   0.761   4.755
 3847SOL    HW112440   6.387   0.712   4.685
 3847SOL    HW212441   6.323   0.703   4.835
 3848SOL     OW12442   3.069   5.443   2.739
 3848SOL    HW112443   3.140   5.513   2.732
 3848SOL    HW212444   3.007   5.465   2.814
 3849SOL     OW12445   0.650   1.484   4.923
 3849SOL    HW112446   0.643   1.551   4.849
 3849SOL    HW212447   0.702   1.405   4.892
 3850SOL     OW12448   2.409   3.689   1.482
 3850SOL    HW112449   2.503   3.654   1.486
 3850SOL    HW212450   2.405   3.779   1.526
 3851SOL     OW12451   1.523   4.495   3.002
 3851SOL    HW112452   1.548   4.465   3.094
 3851SOL    HW212453   1.475   4.420   2.954
 3852SOL     OW12454   4.672   6.638   3.924
 3852SOL    HW112455   4.688   6.642   4.023
 3852SOL    HW212456   4.748   6.681   3.876
 3853SOL     OW12457   1.432   2.734   2.757
 3853SOL    HW112458   1.501   2.790   2.710
 3853SOL    HW212459   1.422   2.647   2.709
 3854SOL     OW12460   1.100   3.127   2.299
 3854SOL    HW112461   1.047   3.058   2.249
 3854SOL    HW212462   1.038   3.193   2.341
 3855SOL     OW12463   5.105   6.021   6.269
 3855SOL    HW112464   5.069   6.111   6.245
 3855SOL    HW212465   5.109   6.013   6.369
 3856SOL     OW12466   6.269   6.332   5.620
 3856SOL    HW112467   6.349   6.272   5.620
 3856SOL    HW212468   6.273   6.393   5.541
 3857SOL     OW12469   1.061   5.870   5.866
 3857SOL    HW112470   1.124   5.926   5.920
 3857SOL    HW212471   1.050   5.910   5.775
 3858SOL     OW12472   1.337   6.116   5.335
 3858SOL    HW112473   1.365   6.050   5.265
 3858SOL    HW212474   1.344   6.209   5.299
 3859SOL     OW12475   6.809   2.130   3.188
 3859SOL    HW112476   6.816   2.089   3.279
 3859SOL    HW212477   6.767   2.065   3.125
 3860SOL     OW12478   1.737   0.458   5.683
 3860SOL    HW112479   1.665   0.527   5.672
 3860SOL    HW212480   1.699   0.367   5.667
 3861SOL     OW12481   5.203   4.750   2.392
 3861SOL    HW112482   5.223   4.835   2.441
 3861SOL    HW212483   5.281   4.726   2.335
 3862SOL     OW12484   0.317   6.747   5.135
 3862SOL    HW112485   0.386   6.694   5.186
 3862SOL    HW212486   0.356   6.835   5.109
 3863SOL     OW12487   4.384   2.912   6.350
 3863SOL    HW112488   4.383   2.843   6.277
 3863SOL    HW212489   4.478   2.939   6.370
 3864SOL     OW12490   3.263   1.364   5.246
 3864SOL    HW112491   3.223   1.450   5.278
 3864SOL    HW212492   3.213   1.332   5.165
 3865SOL     OW12493   3.742   0.279   0.812
 3865SOL    HW112494   3.838   0.299   0.796
 3865SOL    HW212495   3.710   0.327   0.893
 3866SOL     OW12496   3.958   1.115   0.943
 3866SOL    HW112497   3.996   1.130   0.852
 3866SOL    HW212498   3.874   1.167   0.954
 3867SOL     OW12499   2.044   3.326   3.588
 3867SOL    HW112500   2.003   3.237   3.607
 3867SOL    HW212501   2.055   3.338   3.489
 3868SOL     OW12502   2.858   6.488   0.829
 3868SOL    HW112503   2.834   6.545   0.908
 3868SOL    HW212504   2.839   6.392   0.849
 3869SOL     OW12505   6.699   3.111   4.646
 3869SOL    HW112506   6.722   3.194   4.595
 3869SOL    HW212507   6.760   3.037   4.618
 3870SOL     OW12508   4.863   5.280   0.694
 3870SOL    HW112509   4.779   5.334   0.699
 3870SOL    HW212510   4.864   5.214   0.769
 3871SOL     OW12511   4.062   0.510   2.644
 3871SOL    HW112512   3.972   0.515   2.601
 3871SOL    HW212513   4.114   0.435   2.605
 3872SOL     OW12514   3.414   2.887   2.160
 3872SOL    HW112515   3.339   2.894   2.094
 3872SOL    HW212516   3.494   2.849   2.115
 3873SOL     OW12517   6.914   5.296   1.243
 3873SOL    HW112518   6.834   5.356   1.239
 3873SOL    HW212519   6.988   5.344   1.291
 3874SOL     OW12520   3.925   5.827   0.035
 3874SOL    HW112521   3.864   5.749   0.022
 3874SOL    HW212522   3.966   5.822   0.126
 3875SOL     OW12523   0.758   2.719   2.230
 3875SOL    HW112524   0.708   2.681   2.308
 3875SOL    HW212525   0.850   2.680   2.227
 3876SOL     OW12526   6.327   5.388   6.834
 3876SOL    HW112527   6.279   5.349   6.912
 3876SOL    HW212528   6.394   5.322   6.799
 3877SOL     OW12529   0.125   2.565   0.184
 3877SOL    HW112530   0.073   2.587   0.267
 3877SOL    HW212531   0.211   2.615   0.184
 3878SOL     OW12532   2.346   6.350   5.404
 3878SOL    HW112533   2.348   6.338   5.305
 3878SOL    HW212534   2.252   6.367   5.433
 3879SOL     OW12535   4.778   6.649   0.958
 3879SOL    HW112536   4.817   6.649   1.051
 3879SOL    HW212537   4.791   6.739   0.917
 3880SOL     OW12538   5.799   4.621   3.472
 3880SOL    HW112539   5.774   4.633   3.568
 3880SOL    HW212540   5.896   4.598   3.465
 3881SOL     OW12541   1.440   5.267   0.436
 3881SOL    HW112542   1.363   5.221   0.393
 3881SOL    HW212543   1.501   5.200   0.478
 3882SOL     OW12544   6.198   1.420   4.565
 3882SOL    HW112545   6.186   1.520   4.569
 3882SOL    HW212546   6.140   1.383   4.493
 3883SOL     OW12547   4.277   1.129   3.416
 3883SOL    HW112548   4.371   1.108   3.388
 3883SOL    HW212549   4.221   1.143   3.335
 3884SOL     OW12550   1.560   5.596   4.282
 3884SOL    HW112551   1.632   5.541   4.241
 3884SOL    HW212552   1.482   5.602   4.220
 3885SOL     OW12553   6.417   1.528   4.287
 3885SOL    HW112554   6.450   1.531   4.382
 3885SOL    HW212555   6.487   1.564   4.226
 3886SOL     OW12556   6.518   0.183   5.007
 3886SOL    HW112557   6.462   0.158   5.086
 3886SOL    HW212558   6.593   0.118   4.997
 3887SOL     OW12559   5.210   1.902   5.757
 3887SOL    HW112560   5.222   1.882   5.854
 3887SOL    HW212561   5.248   1.828   5.702
 3888SOL     OW12562   0.745   0.809   6.401
 3888SOL    HW112563   0.767   0.743   6.473
 3888SOL    HW212564   0.822   0.870   6.386
 3889SOL     OW12565   0.404   3.161   6.366
 3889SOL    HW112566   0.465   3.114   6.430
 3889SOL    HW212567   0.323   3.192   6.415
 3890SOL     OW12568   5.646   6.338   2.895
 3890SOL    HW112569   5.554   6.369   2.919
 3890SOL    HW212570   5.706   6.347   2.974
 3891SOL     OW12571   5.213   4.405   4.827
 3891SOL    HW112572   5.226   4.436   4.921
 3891SOL    HW212573   5.196   4.307   4.825
 3892SOL     OW12574   0.777   0.230   2.420
 3892SOL    HW112575   0.777   0.198   2.326
 3892SOL    HW212576   0.773   0.330   2.421
 3893SOL     OW12577   3.018   5.562   2.254
 3893SOL    HW112578   2.936   5.571   2.197
 3893SOL    HW212579   2.992   5.529   2.345
 3894SOL     OW12580   3.312   2.282   0.644
 3894SOL    HW112581   3.343   2.191   0.671
 3894SOL    HW212582   3.293   2.282   0.545
 3895SOL     OW12583   1.172   1.218   5.350
 3895SOL    HW112584   1.215   1.308   5.346
 3895SOL    HW212585   1.108   1.208   5.274
 3896SOL     OW12586   0.440   2.542   6.090
 3896SOL    HW112587   0.446   2.568   5.994
 3896SOL    HW212588   0.349   2.564   6.125
 3897SOL     OW12589   3.332   6.826   1.917
 3897SOL    HW112590   3.266   6.799   1.987
 3897SOL    HW212591   3.336   6.925   1.911
 3898SOL     OW12592   3.301   2.998   3.404
 3898SOL    HW112593   3.307   2.978   3.306
 3898SOL    HW212594   3.386   2.971   3.449
 3899SOL     OW12595   4.796   1.214   4.407
 3899SOL    HW112596   4.838   1.132   4.368
 3899SOL    HW212597   4.785   1.203   4.506
 3900SOL     OW12598   5.359   3.550   3.490
 3900SOL    HW112599   5.296   3.480   3.522
 3900SOL    HW212600   5.317   3.640   3.502
 3901SOL     OW12601   2.468   6.508   5.829
 3901SOL    HW112602   2.382   6.527   5.877
 3901SOL    HW212603   2.496   6.589   5.778
 3902SOL     OW12604   4.644   4.382   2.249
 3902SOL    HW112605   4.698   4.316   2.301
 3902SOL    HW212606   4.577   4.335   2.193
 3903SOL     OW12607   3.995   3.275   6.911
 3903SOL    HW112608   3.970   3.369   6.933
 3903SOL    HW212609   3.944   3.212   6.968
 3904SOL     OW12610   0.988   0.932   6.486
 3904SOL    HW112611   1.048   1.010   6.466
 3904SOL    HW212612   1.010   0.857   6.424
 3905SOL     OW12613   6.085   6.555   6.276
 3905SOL    HW112614   6.145   6.482   6.310
 3905SOL    HW212615   6.139   6.623   6.227
 3906SOL     OW12616   2.098   5.342   5.216
 3906SOL    HW112617   2.119   5.315   5.121
 3906SOL    HW212618   2.061   5.263   5.265
 3907SOL     OW12619   0.282   1.232   4.613
 3907SOL    HW112620   0.321   1.163   4.552
 3907SOL    HW212621   0.315   1.216   4.706
 3908SOL     OW12622   0.578   1.408   6.688
 3908SOL    HW112623   0.498   1.392   6.745
 3908SOL    HW212624   0.627   1.322   6.675
 3909SOL     OW12625   5.721   4.131   6.465
 3909SOL    HW112626   5.715   4.181   6.552
 3909SOL    HW212627   5.744   4.036   6.484
 3910SOL     OW12628   3.622   4.073   2.205
 3910SOL    HW112629   3.609   4.157   2.152
 3910SOL    HW212630   3.563   4.074   2.285
 3911SOL     OW12631   5.179   1.177   0.664
 3911SOL    HW112632   5.121   1.225   0.730
 3911SOL    HW212633   5.156   1.208   0.571
 3912SOL     OW12634   3.821   0.402   6.334
 3912SOL    HW112635   3.751   0.373   6.400
 3912SOL    HW212636   3.912   0.385   6.372
 3913SOL     OW12637   3.693   5.702   6.987
 3913SOL    HW112638   3.637   5.776   0.007
 3913SOL    HW212639   3.654   5.667   6.902
 3914SOL     OW12640   4.722   1.165   1.808
 3914SOL    HW112641   4.636   1.211   1.830
 3914SOL    HW212642   4.786   1.232   1.770
 3915SOL     OW12643   3.795   6.555   0.161
 3915SOL    HW112644   3.728   6.538   0.089
 3915SOL    HW212645   3.868   6.487   0.155
 3916SOL     OW12646   2.285   6.874   3.113
 3916SOL    HW112647   2.378   6.911   3.114
 3916SOL    HW212648   2.281   6.793   3.170
 3917SOL     OW12649   2.638   4.959   0.474
 3917SOL    HW112650   2.543   4.961   0.442
 3917SOL    HW212651   2.698   4.935   0.397
 3918SOL     OW12652   4.560   0.700   0.694
 3918SOL    HW112653   4.496   0.773   0.668
 3918SOL    HW212654   4.549   0.622   0.632
 3919SOL     OW12655   4.134   0.647   0.341
 3919SOL    HW112656   4.229   0.678   0.345
 3919SOL    HW212657   4.124   0.563   0.395
 3920SOL     OW12658   2.028   0.768   6.951
 3920SOL    HW112659   2.116   0.727   6.974
 3920SOL    HW212660   2.006   0.839   0.003
 3921SOL     OW12661   7.008   2.428   0.008
 3921SOL    HW112662   0.057   2.484   0.060
 3921SOL    HW212663   0.041   2.348   6.986
 3922SOL     OW12664   4.853   5.363   1.418
 3922SOL    HW112665   4.814   5.383   1.328
 3922SOL    HW212666   4.833   5.269   1.443
 3923SOL     OW12667   5.678   1.880   1.344
 3923SOL    HW112668   5.647   1.794   1.303
 3923SOL    HW212669   5.740   1.860   1.420
 3924SOL     OW12670   0.525   4.440   3.000
 3924SOL    HW112671   0.454   4.450   3.070
 3924SOL    HW212672   0.499   4.493   2.919
 3925SOL     OW12673   4.654   4.782   1.621
 3925SOL    HW112674   4.691   4.738   1.539
 3925SOL    HW212675   4.711   4.760   1.700
 3926SOL     OW12676   0.743   0.143   5.682
 3926SOL    HW112677   0.707   0.086   5.608
 3926SOL    HW212678   0.809   0.208   5.645
 3927SOL     OW12679   0.756   3.097   3.723
 3927SOL    HW112680   0.698   3.156   3.779
 3927SOL    HW212681   0.734   3.112   3.626
 3928SOL     OW12682   2.877   6.647   2.086
 3928SOL    HW112683   2.858   6.726   2.029
 3928SOL    HW212684   2.809   6.576   2.070
 3929SOL     OW12685   0.100   0.942   0.060
 3929SOL    HW112686   0.104   1.039   0.083
 3929SOL    HW212687   0.166   0.892   0.115
 3930SOL     OW12688   0.886   1.996   3.886
 3930SOL    HW112689   0.864   2.019   3.792
 3930SOL    HW212690   0.984   1.976   3.894
 3931SOL     OW12691   1.819   2.036   1.838
 3931SOL    HW112692   1.796   2.052   1.742
 3931SOL    HW212693   1.916   2.058   1.854
 3932SOL     OW12694   2.348   5.189   4.252
 3932SOL    HW112695   2.296   5.267   4.217
 3932SOL    HW212696   2.302   5.104   4.227
 3933SOL     OW12697   0.912   6.242   0.147
 3933SOL    HW112698   0.904   6.286   0.057
 3933SOL    HW212699   0.898   6.144   0.137
 3934SOL     OW12700   7.000   1.486   3.110
 3934SOL    HW112701   6.978   1.397   3.151
 3934SOL    HW212702   6.985   1.482   3.011
 3935SOL     OW12703   6.702   2.194   6.123
 3935SOL    HW112704   6.726   2.189   6.026
 3935SOL    HW212705   6.784   2.181   6.179
 3936SOL     OW12706   6.511   6.186   5.577
 3936SOL    HW112707   6.545   6.110   5.521
 3936SOL    HW212708   6.588   6.237   5.615
 3937SOL     OW12709   0.775   5.853   2.681
 3937SOL    HW112710   0.772   5.952   2.667
 3937SOL    HW212711   0.850   5.831   2.745
 3938SOL     OW12712   6.850   3.126   4.282
 3938SOL    HW112713   6.934   3.073   4.297
 3938SOL    HW212714   6.781   3.067   4.240
 3939SOL     OW12715   2.250   1.829   3.823
 3939SOL    HW112716   2.228   1.881   3.906
 3939SOL    HW212717   2.192   1.749   3.817
 3940SOL     OW12718   2.945   4.782   2.116
 3940SOL    HW112719   2.891   4.721   2.058
 3940SOL    HW212720   3.012   4.830   2.060
 3941SOL     OW12721   5.804   6.741   3.976
 3941SOL    HW112722   5.851   6.817   4.020
 3941SOL    HW212723   5.843   6.727   3.885
 3942SOL     OW12724   0.815   6.163   5.633
 3942SOL    HW112725   0.811   6.219   5.716
 3942SOL    HW212726   0.892   6.100   5.638
 3943SOL     OW12727   0.770   3.504   1.588
 3943SOL    HW112728   0.842   3.555   1.635
 3943SOL    HW212729   0.769   3.409   1.621
 3944SOL     OW12730   5.705   3.430   5.858
 3944SOL    HW112731   5.761   3.457   5.936
 3944SOL    HW212732   5.689   3.331   5.861
 3945SOL     OW12733   0.815   2.424   3.266
 3945SOL    HW112734   0.890   2.488   3.281
 3945SOL    HW212735   0.755   2.423   3.346
 3946SOL     OW12736   0.178   3.713   6.957
 3946SOL    HW112737   0.192   3.797   7.009
 3946SOL    HW212738   0.090   3.673   6.981
 3947SOL     OW12739   6.231   5.314   0.091
 3947SOL    HW112740   6.166   5.387   0.072
 3947SOL    HW212741   6.273   5.328   0.180
 3948SOL     OW12742   1.332   3.411   6.980
 3948SOL    HW112743   1.398   3.422   0.039
 3948SOL    HW212744   1.369   3.453   6.897
 3949SOL     OW12745   6.199   0.161   3.065
 3949SOL    HW112746   6.258   0.158   3.146
 3949SOL    HW212747   6.162   0.253   3.054
 3950SOL     OW12748   4.216   4.187   1.690
 3950SOL    HW112749   4.145   4.118   1.706
 3950SOL    HW212750   4.297   4.164   1.744
 3951SOL     OW12751   0.414   1.998   6.569
 3951SOL    HW112752   0.340   2.064   6.556
 3951SOL    HW212753   0.387   1.932   6.639
 3952SOL     OW12754   6.073   3.149   3.876
 3952SOL    HW112755   6.038   3.078   3.936
 3952SOL    HW212756   6.168   3.170   3.900
 3953SOL     OW12757   3.077   4.771   6.028
 3953SOL    HW112758   3.062   4.737   5.935
 3953SOL    HW212759   2.988   4.781   6.074
 3954SOL     OW12760   6.343   4.237   5.575
 3954SOL    HW112761   6.247   4.215   5.591
 3954SOL    HW212762   6.397   4.210   5.654
 3955SOL     OW12763   4.779   6.463   0.229
 3955SOL    HW112764   4.691   6.502   0.200
 3955SOL    HW212765   4.765   6.403   0.307
 3956SOL     OW12766   0.764   2.909   5.570
 3956SOL    HW112767   0.684   2.947   5.522
 3956SOL    HW212768   0.826   2.868   5.503
 3957SOL     OW12769   3.340   5.942   4.041
 3957SOL    HW112770   3.283   5.900   3.970
 3957SOL    HW212771   3.353   6.039   4.019
 3958SOL     OW12772   5.572   6.452   0.381
 3958SOL    HW112773   5.640   6.429   0.450
 3958SOL    HW212774   5.544   6.369   0.332
 3959SOL     OW12775   3.527   6.122   1.299
 3959SOL    HW112776   3.548   6.150   1.205
 3959SOL    HW212777   3.446   6.063   1.299
 3960SOL     OW12778   4.869   2.723   6.762
 3960SOL    HW112779   4.949   2.775   6.790
 3960SOL    HW212780   4.853   2.736   6.664
 3961SOL     OW12781   5.114   1.942   2.097
 3961SOL    HW112782   5.070   2.031   2.087
 3961SOL    HW212783   5.201   1.942   2.048
 3962SOL     OW12784   0.696   6.152   6.908
 3962SOL    HW112785   0.646   6.125   6.990
 3962SOL    HW212786   0.758   6.077   6.881
 3963SOL     OW12787   6.068   5.765   3.287
 3963SOL    HW112788   6.145   5.792   3.346
 3963SOL    HW212789   5.984   5.763   3.340
 3964SOL     OW12790   4.256   5.653   5.069
 3964SOL    HW112791   4.343   5.694   5.095
 3964SOL    HW212792   4.273   5.576   5.007
 3965SOL     OW12793   3.480   4.732   6.444
 3965SOL    HW112794   3.398   4.761   6.395
 3965SOL    HW212795   3.532   4.812   6.474
 3966SOL     OW12796   6.336   4.705   6.560
 3966SOL    HW112797   6.387   4.687   6.476
 3966SOL    HW212798   6.385   4.773   6.614
 3967SOL     OW12799   0.661   5.256   3.567
 3967SOL    HW112800   0.563   5.267   3.583
 3967SOL    HW212801   0.676   5.184   3.499
 3968SOL     OW12802   5.407   0.438   2.577
 3968SOL    HW112803   5.359   0.467   2.494
 3968SOL    HW212804   5.358   0.363   2.619
 3969SOL     OW12805   1.162   4.372   2.534
 3969SOL    HW112806   1.183   4.462   2.496
 3969SOL    HW212807   1.096   4.382   2.609
 3970SOL     OW12808   4.795   5.052   3.468
 3970SOL    HW112809   4.873   5.104   3.504
 3970SOL    HW212810   4.714   5.112   3.465
 3971SOL     OW12811   2.710   5.379   2.819
 3971SOL    HW112812   2.747   5.287   2.828
 3971SOL    HW212813   2.770   5.444   2.865
 3972SOL     OW12814   0.217   5.898   0.662
 3972SOL    HW112815   0.249   5.969   0.599
 3972SOL    HW212816   0.119   5.886   0.652
 3973SOL     OW12817   3.179   3.215   5.390
 3973SOL    HW112818   3.153   3.125   5.353
 3973SOL    HW212819   3.279   3.219   5.400
 3974SOL     OW12820   0.471   0.895   6.114
 3974SOL    HW112821   0.507   0.951   6.040
 3974SOL    HW212822   0.499   0.933   6.202
 3975SOL     OW12823   6.580   0.695   5.804
 3975SOL    HW112824   6.671   0.667   5.772
 3975SOL    HW212825   6.571   0.794   5.794
 3976SOL     OW12826   1.058   5.076   1.388
 3976SOL    HW112827   1.015   4.994   1.425
 3976SOL    HW212828   0.996   5.154   1.400
 3977SOL     OW12829   2.873   5.330   6.178
 3977SOL    HW112830   2.878   5.244   6.127
 3977SOL    HW212831   2.777   5.356   6.189
 3978SOL     OW12832   5.649   1.069   4.968
 3978SOL    HW112833   5.612   0.995   4.912
 3978SOL    HW212834   5.702   1.131   4.909
 3979SOL     OW12835   1.712   6.983   1.585
 3979SOL    HW112836   1.649   6.907   1.599
 3979SOL    HW212837   1.666   0.054   1.606
 3980SOL     OW12838   6.475   3.701   5.381
 3980SOL    HW112839   6.499   3.714   5.477
 3980SOL    HW212840   6.417   3.620   5.372
 3981SOL     OW12841   0.192   1.612   6.102
 3981SOL    HW112842   0.170   1.669   6.023
 3981SOL    HW212843   0.291   1.603   6.110
 3982SOL     OW12844   2.640   0.648   4.800
 3982SOL    HW112845   2.582   0.581   4.754
 3982SOL    HW212846   2.622   0.739   4.761
 3983SOL     OW12847   3.093   5.884   4.609
 3983SOL    HW112848   3.105   5.983   4.610
 3983SOL    HW212849   3.176   5.840   4.574
 3984SOL     OW12850   1.979   0.003   1.537
 3984SOL    HW112851   2.009   6.970   1.455
 3984SOL    HW212852   1.885   6.993   1.558
 3985SOL     OW12853   2.189   3.581   7.008
 3985SOL    HW112854   2.206   3.514   0.065
 3985SOL    HW212855   2.213   3.672   0.024
 3986SOL     OW12856   0.025   1.860   2.748
 3986SOL    HW112857   6.948   1.843   2.716
 3986SOL    HW212858   0.082   1.887   2.670
 3987SOL     OW12859   1.648   5.182   4.907
 3987SOL    HW112860   1.627   5.133   4.991
 3987SOL    HW212861   1.747   5.185   4.894
 3988SOL     OW12862   3.552   1.773   5.693
 3988SOL    HW112863   3.567   1.751   5.597
 3988SOL    HW212864   3.455   1.794   5.708
 3989SOL     OW12865   5.875   0.441   5.870
 3989SOL    HW112866   5.863   0.519   5.809
 3989SOL    HW212867   5.936   0.374   5.827
 3990SOL     OW12868   5.631   2.497   4.988
 3990SOL    HW112869   5.709   2.551   5.019
 3990SOL    HW212870   5.624   2.501   4.889
 3991SOL     OW12871   6.669   2.571   3.158
 3991SOL    HW112872   6.675   2.653   3.215
 3991SOL    HW212873   6.729   2.582   3.078
 3992SOL     OW12874   4.642   3.008   6.765
 3992SOL    HW112875   4.568   3.068   6.735
 3992SOL    HW212876   4.614   2.913   6.753
 3993SOL     OW12877   2.561   2.144   3.397
 3993SOL    HW112878   2.527   2.050   3.404
 3993SOL    HW212879   2.484   2.208   3.405
 3994SOL     OW12880   2.216   2.854   4.889
 3994SOL    HW112881   2.143   2.803   4.936
 3994SOL    HW212882   2.265   2.910   4.956
 3995SOL     OW12883   2.430   4.760   3.944
 3995SOL    HW112884   2.359   4.735   3.879
 3995SOL    HW212885   2.498   4.686   3.949
 3996SOL     OW12886   1.988   1.434   4.762
 3996SOL    HW112887   1.896   1.396   4.770
 3996SOL    HW212888   2.009   1.488   4.844
 3997SOL     OW12889   4.857   3.654   3.478
 3997SOL    HW112890   4.852   3.689   3.384
 3997SOL    HW212891   4.825   3.724   3.541
 3998SOL     OW12892   5.744   2.357   2.321
 3998SOL    HW112893   5.819   2.297   2.293
 3998SOL    HW212894   5.687   2.379   2.242
 3999SOL     OW12895   6.206   3.982   3.497
 3999SOL    HW112896   6.255   4.049   3.442
 3999SOL    HW212897   6.107   3.999   3.491
 4000SOL     OW12898   3.018   5.149   2.986
 4000SOL    HW112899   2.965   5.173   2.905
 4000SOL    HW212900   3.062   5.232   3.023
 4001SOL     OW12901   2.315   3.697   5.266
 4001SOL    HW112902   2.412   3.716   5.256
 4001SOL    HW212903   2.263   3.782   5.252
 4002SOL     OW12904   3.597   3.553   4.570
 4002SOL    HW112905   3.598   3.487   4.495
 4002SOL    HW212906   3.583   3.645   4.534
 4003SOL     OW12907   2.314   1.290   6.514
 4003SOL    HW112908   2.370   1.333   6.444
 4003SOL    HW212909   2.223   1.271   6.477
 4004SOL     OW12910   6.416   3.156   4.705
 4004SOL    HW112911   6.368   3.071   4.681
 4004SOL    HW212912   6.514   3.138   4.713
 4005SOL     OW12913   4.764   4.689   1.394
 4005SOL    HW112914   4.702   4.755   1.353
 4005SOL    HW212915   4.771   4.608   1.335
 4006SOL     OW12916   5.848   4.668   2.446
 4006SOL    HW112917   5.769   4.717   2.409
 4006SOL    HW212918   5.816   4.586   2.493
 4007SOL     OW12919   0.170   2.424   2.791
 4007SOL    HW112920   0.218   2.368   2.858
 4007SOL    HW212921   0.117   2.364   2.730
 4008SOL     OW12922   3.220   0.880   6.140
 4008SOL    HW112923   3.276   0.921   6.069
 4008SOL    HW212924   3.128   0.862   6.105
 4009SOL     OW12925   4.403   2.008   1.236
 4009SOL    HW112926   4.328   2.066   1.203
 4009SOL    HW212927   4.485   2.064   1.249
 4010SOL     OW12928   2.864   3.436   1.803
 4010SOL    HW112929   2.859   3.397   1.711
 4010SOL    HW212930   2.957   3.467   1.821
 4011SOL     OW12931   0.130   6.600   1.960
 4011SOL    HW112932   0.110   6.691   1.998
 4011SOL    HW212933   0.200   6.608   1.889
 4012SOL     OW12934   4.300   6.404   2.163
 4012SOL    HW112935   4.384   6.405   2.217
 4012SOL    HW212936   4.246   6.324   2.187
 4013SOL     OW12937   2.222   0.469   1.249
 4013SOL    HW112938   2.250   0.491   1.156
 4013SOL    HW212939   2.294   0.498   1.313
 4014SOL     OW12940   3.540   5.599   3.720
 4014SOL    HW112941   3.554   5.694   3.745
 4014SOL    HW212942   3.554   5.541   3.800
 4015SOL     OW12943   4.585   4.774   6.942
 4015SOL    HW112944   4.508   4.778   7.005
 4015SOL    HW212945   4.621   4.866   6.926
 4016SOL     OW12946   2.403   5.896   6.926
 4016SOL    HW112947   2.470   5.931   6.861
 4016SOL    HW212948   2.449   5.867   7.010
 4017SOL     OW12949   0.967   6.113   6.091
 4017SOL    HW112950   1.000   6.025   6.125
 4017SOL    HW212951   0.936   6.169   6.169
 4018SOL     OW12952   4.880   6.347   1.297
 4018SOL    HW112953   4.912   6.311   1.385
 4018SOL    HW212954   4.957   6.387   1.248
 4019SOL     OW12955   5.900   4.619   2.822
 4019SOL    HW112956   5.900   4.537   2.765
 4019SOL    HW212957   5.816   4.623   2.875
 4020SOL     OW12958   6.886   3.136   5.857
 4020SOL    HW112959   6.981   3.159   5.836
 4020SOL    HW212960   6.828   3.158   5.778
 4021SOL     OW12961   3.378   4.114   5.176
 4021SOL    HW112962   3.315   4.115   5.098
 4021SOL    HW212963   3.466   4.151   5.147
 4022SOL     OW12964   4.049   6.728   6.869
 4022SOL    HW112965   4.076   6.702   6.962
 4022SOL    HW212966   4.126   6.716   6.808
 4023SOL     OW12967   0.179   0.237   5.211
 4023SOL    HW112968   0.273   0.231   5.245
 4023SOL    HW212969   0.167   0.174   5.135
 4024SOL     OW12970   2.397   5.346   4.719
 4024SOL    HW112971   2.323   5.281   4.702
 4024SOL    HW212972   2.457   5.310   4.790
 4025SOL     OW12973   0.984   6.044   3.980
 4025SOL    HW112974   0.981   6.081   3.887
 4025SOL    HW212975   0.902   6.074   4.030
 4026SOL     OW12976   5.881   6.852   3.663
 4026SOL    HW112977   5.867   6.855   3.564
 4026SOL    HW212978   5.926   6.766   3.687
 4027SOL     OW12979   3.319   2.275   0.122
 4027SOL    HW112980   3.283   2.183   0.139
 4027SOL    HW212981   3.374   2.274   0.038
 4028SOL     OW12982   3.934   1.761   3.675
 4028SOL    HW112983   3.842   1.745   3.712
 4028SOL    HW212984   3.990   1.807   3.744
 4029SOL     OW12985   2.780   4.697   5.868
 4029SOL    HW112986   2.775   4.599   5.887
 4029SOL    HW212987   2.798   4.711   5.771
 4030SOL     OW12988   0.028   1.263   2.041
 4030SOL    HW112989   0.071   1.175   2.019
 4030SOL    HW212990   0.049   1.329   1.969
 4031SOL     OW12991   5.288   5.812   3.586
 4031SOL    HW112992   5.230   5.755   3.644
 4031SOL    HW212993   5.353   5.863   3.643
 4032SOL     OW12994   6.851   0.130   1.708
 4032SOL    HW112995   6.804   0.043   1.722
 4032SOL    HW212996   6.793   0.190   1.652
 4033SOL     OW12997   2.311   3.012   1.345
 4033SOL    HW112998   2.352   2.921   1.345
 4033SOL    HW212999   2.333   3.059   1.431
 4034SOL     OW13000   6.137   1.686   4.630
 4034SOL    HW113001   6.193   1.768   4.642
 4034SOL    HW213002   6.065   1.684   4.700
 4035SOL     OW13003   6.394   1.733   1.003
 4035SOL    HW113004   6.308   1.773   1.034
 4035SOL    HW213005   6.392   1.721   0.904
 4036SOL     OW13006   4.285   5.568   2.206
 4036SOL    HW113007   4.278   5.650   2.149
 4036SOL    HW213008   4.312   5.490   2.149
 4037SOL     OW13009   2.063   1.699   0.012
 4037SOL    HW113010   2.124   1.672   0.086
 4037SOL    HW213011   1.968   1.693   0.044
 4038SOL     OW13012   4.577   2.902   1.345
 4038SOL    HW113013   4.657   2.963   1.348
 4038SOL    HW213014   4.598   2.818   1.394
 4039SOL     OW13015   5.936   5.555   1.177
 4039SOL    HW113016   6.013   5.502   1.214
 4039SOL    HW213017   5.937   5.646   1.217
 4040SOL     OW13018   3.533   0.296   5.985
 4040SOL    HW113019   3.454   0.285   6.046
 4040SOL    HW213020   3.612   0.249   6.024
 4041SOL     OW13021   1.159   5.489   1.522
 4041SOL    HW113022   1.159   5.456   1.427
 4041SOL    HW213023   1.069   5.475   1.562
 4042SOL     OW13024   6.082   5.586   3.055
 4042SOL    HW113025   6.073   5.652   3.130
 4042SOL    HW213026   6.057   5.495   3.088
 4043SOL     OW13027   6.578   2.658   5.206
 4043SOL    HW113028   6.529   2.577   5.238
 4043SOL    HW213029   6.524   2.704   5.136
 4044SOL     OW13030   4.318   6.987   3.476
 4044SOL    HW113031   4.245   6.983   3.545
 4044SOL    HW213032   4.277   6.985   3.384
 4045SOL     OW13033   3.843   6.354   5.254
 4045SOL    HW113034   3.837   6.318   5.161
 4045SOL    HW213035   3.772   6.314   5.311
 4046SOL     OW13036   1.512   1.958   3.969
 4046SOL    HW113037   1.603   1.986   3.936
 4046SOL    HW213038   1.518   1.932   4.065
 4047SOL     OW13039   1.837   2.314   0.530
 4047SOL    HW113040   1.793   2.287   0.616
 4047SOL    HW213041   1.936   2.309   0.541
 4048SOL     OW13042   4.988   1.658   2.010
 4048SOL    HW113043   4.996   1.663   1.910
 4048SOL    HW213044   4.985   1.751   2.048
 4049SOL     OW13045   5.669   5.161   6.256
 4049SOL    HW113046   5.605   5.084   6.249
 4049SOL    HW213047   5.621   5.246   6.235
 4050SOL     OW13048   1.166   6.894   1.961
 4050SOL    HW113049   1.125   6.807   1.987
 4050SOL    HW213050   1.155   6.961   2.035
 4051SOL     OW13051   4.509   2.062   6.642
 4051SOL    HW113052   4.453   2.020   6.570
 4051SOL    HW213053   4.529   1.993   6.712
 4052SOL     OW13054   6.624   1.408   2.453
 4052SOL    HW113055   6.635   1.397   2.551
 4052SOL    HW213056   6.622   1.318   2.409
 4053SOL     OW13057   3.063   5.762   3.982
 4053SOL    HW113058   3.053   5.764   3.882
 4053SOL    HW213059   3.006   5.833   4.022
 4054SOL     OW13060   6.638   4.270   1.449
 4054SOL    HW113061   6.622   4.235   1.542
 4054SOL    HW213062   6.732   4.251   1.423
 4055SOL     OW13063   2.702   3.478   0.179
 4055SOL    HW113064   2.686   3.446   0.086
 4055SOL    HW213065   2.799   3.495   0.193
 4056SOL     OW13066   4.185   3.910   0.432
 4056SOL    HW113067   4.170   3.995   0.482
 4056SOL    HW213068   4.159   3.833   0.489
 4057SOL     OW13069   6.671   2.922   1.377
 4057SOL    HW113070   6.710   2.837   1.342
 4057SOL    HW213071   6.708   2.999   1.325
 4058SOL     OW13072   1.898   0.170   4.700
 4058SOL    HW113073   1.972   0.238   4.708
 4058SOL    HW213074   1.824   0.195   4.763
 4059SOL     OW13075   0.899   1.996   2.800
 4059SOL    HW113076   0.897   2.078   2.743
 4059SOL    HW213077   0.805   1.966   2.818
 4060SOL     OW13078   5.241   5.585   5.134
 4060SOL    HW113079   5.183   5.621   5.207
 4060SOL    HW213080   5.268   5.491   5.156
 4061SOL     OW13081   2.722   4.861   2.302
 4061SOL    HW113082   2.718   4.827   2.396
 4061SOL    HW213083   2.816   4.853   2.269
 4062SOL     OW13084   2.153   1.528   2.245
 4062SOL    HW113085   2.142   1.431   2.224
 4062SOL    HW213086   2.158   1.579   2.159
 4063SOL     OW13087   6.030   6.575   6.708
 4063SOL    HW113088   6.119   6.545   6.675
 4063SOL    HW213089   6.020   6.550   6.805
 4064SOL     OW13090   2.666   0.308   4.181
 4064SOL    HW113091   2.592   0.248   4.152
 4064SOL    HW213092   2.629   0.385   4.233
 4065SOL     OW13093   0.996   6.801   1.302
 4065SOL    HW113094   0.952   6.732   1.245
 4065SOL    HW213095   1.004   6.886   1.250
 4066SOL     OW13096   5.488   5.027   3.618
 4066SOL    HW113097   5.558   5.079   3.569
 4066SOL    HW213098   5.526   4.941   3.651
 4067SOL     OW13099   6.338   3.187   2.919
 4067SOL    HW113100   6.262   3.245   2.890
 4067SOL    HW213101   6.312   3.134   2.999
 4068SOL     OW13102   2.088   1.138   4.335
 4068SOL    HW113103   2.131   1.198   4.268
 4068SOL    HW213104   2.159   1.088   4.385
 4069SOL     OW13105   2.059   5.101   6.476
 4069SOL    HW113106   2.024   5.155   6.399
 4069SOL    HW213107   1.983   5.061   6.526
 4070SOL     OW13108   0.254   3.560   2.178
 4070SOL    HW113109   0.302   3.515   2.253
 4070SOL    HW213110   0.160   3.580   2.206
 4071SOL     OW13111   1.655   0.732   5.361
 4071SOL    HW113112   1.603   0.800   5.412
 4071SOL    HW213113   1.739   0.710   5.410
 4072SOL     OW13114   0.434   5.465   4.698
 4072SOL    HW113115   0.399   5.514   4.618
 4072SOL    HW213116   0.360   5.415   4.742
 4073SOL     OW13117   2.445   6.354   6.338
 4073SOL    HW113118   2.466   6.284   6.406
 4073SOL    HW213119   2.347   6.355   6.321
 4074SOL     OW13120   6.932   3.604   1.892
 4074SOL    HW113121   6.958   3.681   1.950
 4074SOL    HW213122   7.014   3.559   1.857
 4075SOL     OW13123   4.387   2.129   1.923
 4075SOL    HW113124   4.361   2.105   2.017
 4075SOL    HW213125   4.370   2.226   1.908
 4076SOL     OW13126   2.659   2.626   5.462
 4076SOL    HW113127   2.628   2.545   5.412
 4076SOL    HW213128   2.597   2.703   5.442
 4077SOL     OW13129   3.135   0.889   0.204
 4077SOL    HW113130   3.166   0.809   0.152
 4077SOL    HW213131   3.203   0.914   0.272
 4078SOL     OW13132   0.525   5.841   1.696
 4078SOL    HW113133   0.608   5.853   1.640
 4078SOL    HW213134   0.456   5.907   1.666
 4079SOL     OW13135   1.271   1.583   3.678
 4079SOL    HW113136   1.293   1.498   3.725
 4079SOL    HW213137   1.353   1.639   3.671
 4080SOL     OW13138   3.404   4.572   6.810
 4080SOL    HW113139   3.360   4.654   6.773
 4080SOL    HW213140   3.449   4.523   6.736
 4081SOL     OW13141   1.893   2.593   4.950
 4081SOL    HW113142   1.815   2.542   4.914
 4081SOL    HW213143   1.910   2.673   4.893
 4082SOL     OW13144   1.561   3.108   0.863
 4082SOL    HW113145   1.651   3.149   0.877
 4082SOL    HW213146   1.559   3.017   0.906
 4083SOL     OW13147   0.082   4.411   1.986
 4083SOL    HW113148   0.082   4.509   2.007
 4083SOL    HW213149   0.170   4.371   2.012
 4084SOL     OW13150   4.961   2.454   3.732
 4084SOL    HW113151   4.989   2.412   3.818
 4084SOL    HW213152   4.902   2.391   3.682
 4085SOL     OW13153   2.031   5.972   1.138
 4085SOL    HW113154   1.932   5.982   1.127
 4085SOL    HW213155   2.066   5.911   1.067
 4086SOL     OW13156   1.426   5.476   1.849
 4086SOL    HW113157   1.418   5.535   1.930
 4086SOL    HW213158   1.364   5.398   1.859
 4087SOL     OW13159   1.857   1.530   3.122
 4087SOL    HW113160   1.945   1.568   3.095
 4087SOL    HW213161   1.807   1.596   3.178
 4088SOL     OW13162   6.620   1.143   6.546
 4088SOL    HW113163   6.575   1.205   6.481
 4088SOL    HW213164   6.719   1.158   6.544
 4089SOL     OW13165   6.068   5.478   4.346
 4089SOL    HW113166   6.046   5.393   4.395
 4089SOL    HW213167   6.098   5.456   4.253
 4090SOL     OW13168   1.433   5.527   5.294
 4090SOL    HW113169   1.344   5.499   5.257
 4090SOL    HW213170   1.425   5.619   5.332
 4091SOL     OW13171   6.541   6.453   6.547
 4091SOL    HW113172   6.587   6.542   6.541
 4091SOL    HW213173   6.456   6.456   6.496
 4092SOL     OW13174   6.036   2.478   5.391
 4092SOL    HW113175   5.952   2.530   5.404
 4092SOL    HW213176   6.045   2.451   5.295
 4093SOL     OW13177   4.851   5.878   2.029
 4093SOL    HW113178   4.878   5.972   2.009
 4093SOL    HW213179   4.752   5.869   2.019
 4094SOL     OW13180   1.805   5.724   5.473
 4094SOL    HW113181   1.803   5.736   5.374
 4094SOL    HW213182   1.731   5.777   5.514
 4095SOL     OW13183   1.081   3.200   0.454
 4095SOL    HW113184   1.176   3.182   0.428
 4095SOL    HW213185   1.040   3.265   0.391
 4096SOL     OW13186   4.779   6.899   6.121
 4096SOL    HW113187   4.712   6.841   6.074
 4096SOL    HW213188   4.793   6.865   6.214
 4097SOL     OW13189   4.272   4.758   5.114
 4097SOL    HW113190   4.206   4.687   5.140
 4097SOL    HW213191   4.270   4.772   5.015
 4098SOL     OW13192   6.578   2.474   1.616
 4098SOL    HW113193   6.597   2.382   1.580
 4098SOL    HW213194   6.656   2.506   1.669
 4099SOL     OW13195   3.006   5.176   1.254
 4099SOL    HW113196   2.914   5.160   1.288
 4099SOL    HW213197   3.012   5.147   1.158
 4100SOL     OW13198   6.716   0.014   4.955
 4100SOL    HW113199   6.789   0.082   4.945
 4100SOL    HW213200   6.753   6.948   5.001
 4101SOL     OW13201   6.346   1.230   6.778
 4101SOL    HW113202   6.429   1.181   6.805
 4101SOL    HW213203   6.273   1.164   6.758
 4102SOL     OW13204   0.457   0.915   0.661
 4102SOL    HW113205   0.497   0.906   0.752
 4102SOL    HW213206   0.510   0.862   0.595
 4103SOL     OW13207   6.817   6.875   0.181
 4103SOL    HW113208   6.767   6.868   0.267
 4103SOL    HW213209   6.755   6.854   0.105
 4104SOL     OW13210   0.256   4.776   2.986
 4104SOL    HW113211   0.351   4.805   2.975
 4104SOL    HW213212   0.195   4.843   2.942
 4105SOL     OW13213   5.228   7.013   1.342
 4105SOL    HW113214   5.306   6.987   1.399
 4105SOL    HW213215   5.253   0.077   1.287
 4106SOL     OW13216   6.162   3.434   2.954
 4106SOL    HW113217   6.203   3.522   2.933
 4106SOL    HW213218   6.122   3.395   2.871
 4107SOL     OW13219   1.121   4.887   1.077
 4107SOL    HW113220   1.112   4.798   1.120
 4107SOL    HW213221   1.180   4.946   1.133
 4108SOL     OW13222   5.823   4.568   5.441
 4108SOL    HW113223   5.873   4.605   5.520
 4108SOL    HW213224   5.738   4.527   5.473
 4109SOL     OW13225   5.908   0.114   4.798
 4109SOL    HW113226   5.882   0.191   4.740
 4109SOL    HW213227   5.829   0.084   4.851
 4110SOL     OW13228   4.357   3.584   6.144
 4110SOL    HW113229   4.387   3.496   6.182
 4110SOL    HW213230   4.261   3.578   6.117
 4111SOL     OW13231   5.128   3.394   0.312
 4111SOL    HW113232   5.053   3.408   0.378
 4111SOL    HW213233   5.211   3.371   0.362
 4112SOL     OW13234   5.120   6.054   4.498
 4112SOL    HW113235   5.035   6.030   4.544
 4112SOL    HW213236   5.100   6.100   4.411
 4113SOL     OW13237   5.068   6.282   4.706
 4113SOL    HW113238   5.064   6.359   4.643
 4113SOL    HW213239   5.130   6.213   4.670
 4114SOL     OW13240   3.473   2.046   4.275
 4114SOL    HW113241   3.417   1.963   4.273
 4114SOL    HW213242   3.470   2.089   4.185
 4115SOL     OW13243   3.372   5.198   1.870
 4115SOL    HW113244   3.393   5.145   1.788
 4115SOL    HW213245   3.310   5.146   1.929
 4116SOL     OW13246   2.993   0.892   2.500
 4116SOL    HW113247   2.985   0.988   2.528
 4116SOL    HW213248   2.938   0.835   2.560
 4117SOL     OW13249   1.599   4.110   2.216
 4117SOL    HW113250   1.568   4.023   2.253
 4117SOL    HW213251   1.555   4.126   2.127
 4118SOL     OW13252   3.517   6.554   0.165
 4118SOL    HW113253   3.463   6.514   0.090
 4118SOL    HW213254   3.519   6.490   0.242
 4119SOL     OW13255   2.747   1.806   3.610
 4119SOL    HW113256   2.813   1.799   3.684
 4119SOL    HW213257   2.668   1.860   3.640
 4120SOL     OW13258   3.554   1.036   6.810
 4120SOL    HW113259   3.460   1.064   6.790
 4120SOL    HW213260   3.585   1.081   6.893
 4121SOL     OW13261   6.071   1.219   4.359
 4121SOL    HW113262   6.146   1.164   4.324
 4121SOL    HW213263   6.013   1.162   4.418
 4122SOL     OW13264   1.286   5.293   4.635
 4122SOL    HW113265   1.200   5.277   4.585
 4122SOL    HW213266   1.318   5.206   4.673
 4123SOL     OW13267   4.372   4.567   5.457
 4123SOL    HW113268   4.298   4.622   5.494
 4123SOL    HW213269   4.405   4.504   5.528
 4124SOL     OW13270   6.896   6.092   0.409
 4124SOL    HW113271   6.843   6.039   0.474
 4124SOL    HW213272   6.845   6.176   0.385
 4125SOL     OW13273   5.172   1.804   2.343
 4125SOL    HW113274   5.124   1.863   2.278
 4125SOL    HW213275   5.158   1.709   2.318
 4126SOL     OW13276   1.547   3.354   4.326
 4126SOL    HW113277   1.519   3.445   4.355
 4126SOL    HW213278   1.565   3.354   4.228
 4127SOL     OW13279   4.702   4.942   5.052
 4127SOL    HW113280   4.722   4.879   4.977
 4127SOL    HW213281   4.785   4.990   5.078
 4128SOL     OW13282   1.164   3.074   1.382
 4128SOL    HW113283   1.220   3.088   1.464
 4128SOL    HW213284   1.193   3.139   1.311
 4129SOL     OW13285   3.876   1.565   6.048
 4129SOL    HW113286   3.787   1.535   6.082
 4129SOL    HW213287   3.888   1.662   6.066
 4130SOL     OW13288   6.344   3.396   6.759
 4130SOL    HW113289   6.416   3.435   6.701
 4130SOL    HW213290   6.386   3.353   6.839
 4131SOL     OW13291   0.730   1.038   3.810
 4131SOL    HW113292   0.806   0.979   3.836
 4131SOL    HW213293   0.645   1.001   3.848
 4132SOL     OW13294   4.996   4.389   3.512
 4132SOL    HW113295   5.096   4.383   3.517
 4132SOL    HW213296   4.956   4.316   3.568
 4133SOL     OW13297   2.629   5.695   0.766
 4133SOL    HW113298   2.610   5.668   0.861
 4133SOL    HW213299   2.651   5.793   0.763
 4134SOL     OW13300   2.366   3.619   0.749
 4134SOL    HW113301   2.361   3.620   0.649
 4134SOL    HW213302   2.462   3.620   0.778
 4135SOL     OW13303   0.911   1.628   2.465
 4135SOL    HW113304   0.867   1.599   2.550
 4135SOL    HW213305   0.995   1.576   2.451
 4136SOL     OW13306   1.341   2.390   3.502
 4136SOL    HW113307   1.241   2.396   3.508
 4136SOL    HW213308   1.381   2.479   3.523
 4137SOL     OW13309   1.095   4.144   0.720
 4137SOL    HW113310   1.075   4.164   0.816
 4137SOL    HW213311   1.023   4.184   0.663
 4138SOL     OW13312   4.952   5.368   2.841
 4138SOL    HW113313   4.986   5.275   2.837
 4138SOL    HW213314   4.898   5.387   2.759
 4139SOL     OW13315   1.774   1.731   5.911
 4139SOL    HW113316   1.757   1.797   5.984
 4139SOL    HW213317   1.849   1.764   5.853
 4140SOL     OW13318   3.435   0.256   5.306
 4140SOL    HW113319   3.384   0.266   5.220
 4140SOL    HW213320   3.482   0.168   5.306
 4141SOL     OW13321   6.159   6.273   1.042
 4141SOL    HW113322   6.142   6.214   0.964
 4141SOL    HW213323   6.209   6.354   1.013
 4142SOL     OW13324   6.786   5.082   1.257
 4142SOL    HW113325   6.843   5.162   1.240
 4142SOL    HW213326   6.830   5.000   1.220
 4143SOL     OW13327   5.623   1.082   0.400
 4143SOL    HW113328   5.579   1.167   0.428
 4143SOL    HW213329   5.719   1.100   0.377
 4144SOL     OW13330   4.971   3.281   0.094
 4144SOL    HW113331   4.944   3.186   0.113
 4144SOL    HW213332   5.020   3.319   0.172
 4145SOL     OW13333   6.840   5.955   1.521
 4145SOL    HW113334   6.917   5.899   1.552
 4145SOL    HW213335   6.849   6.047   1.559
 4146SOL     OW13336   6.456   0.867   3.694
 4146SOL    HW113337   6.439   0.833   3.787
 4146SOL    HW213338   6.380   0.926   3.666
 4147SOL     OW13339   5.260   3.948   6.512
 4147SOL    HW113340   5.330   3.890   6.470
 4147SOL    HW213341   5.179   3.951   6.453
 4148SOL     OW13342   1.568   0.686   5.679
 4148SOL    HW113343   1.547   0.768   5.626
 4148SOL    HW213344   1.485   0.655   5.726
 4149SOL     OW13345   0.021   3.308   0.423
 4149SOL    HW113346   0.010   3.402   0.392
 4149SOL    HW213347   0.119   3.284   0.423
 4150SOL     OW13348   1.246   0.920   6.003
 4150SOL    HW113349   1.263   0.986   5.930
 4150SOL    HW213350   1.194   0.843   5.967
 4151SOL     OW13351   2.158   5.846   6.220
 4151SOL    HW113352   2.161   5.905   6.300
 4151SOL    HW213353   2.223   5.878   6.152
 4152SOL     OW13354   4.762   5.608   0.924
 4152SOL    HW113355   4.731   5.703   0.916
 4152SOL    HW213356   4.822   5.599   1.004
 4153SOL     OW13357   4.388   5.561   6.785
 4153SOL    HW113358   4.298   5.589   6.817
 4153SOL    HW213359   4.457   5.624   6.822
 4154SOL     OW13360   6.884   5.235   3.815
 4154SOL    HW113361   6.938   5.266   3.893
 4154SOL    HW213362   6.885   5.306   3.744
 4155SOL     OW13363   1.148   0.908   2.564
 4155SOL    HW113364   1.080   0.844   2.601
 4155SOL    HW213365   1.109   1.000   2.561
 4156SOL     OW13366   5.040   5.992   4.892
 4156SOL    HW113367   4.968   6.054   4.865
 4156SOL    HW213368   5.109   6.041   4.946
 4157SOL     OW13369   4.763   5.199   4.373
 4157SOL    HW113370   4.848   5.224   4.325
 4157SOL    HW213371   4.689   5.258   4.342
 4158SOL     OW13372   0.822   4.003   1.775
 4158SOL    HW113373   0.863   3.987   1.686
 4158SOL    HW213374   0.894   4.025   1.841
 4159SOL     OW13375   2.098   3.475   3.801
 4159SOL    HW113376   2.097   3.416   3.882
 4159SOL    HW213377   2.089   3.418   3.718
 4160SOL     OW13378   6.035   1.080   1.137
 4160SOL    HW113379   5.971   1.101   1.211
 4160SOL    HW213380   6.128   1.104   1.166
 4161SOL     OW13381   0.988   1.309   0.713
 4161SOL    HW113382   0.921   1.376   0.682
 4161SOL    HW213383   1.075   1.354   0.734
 4162SOL     OW13384   6.948   6.574   6.433
 4162SOL    HW113385   6.913   6.524   6.354
 4162SOL    HW213386   6.988   6.510   6.499
 4163SOL     OW13387   5.324   6.430   3.168
 4163SOL    HW113388   5.277   6.517   3.183
 4163SOL    HW213389   5.257   6.356   3.169
 4164SOL     OW13390   1.778   6.623   6.067
 4164SOL    HW113391   1.809   6.574   6.148
 4164SOL    HW213392   1.767   6.720   6.089
 4165SOL     OW13393   4.277   6.423   6.723
 4165SOL    HW113394   4.214   6.390   6.793
 4165SOL    HW213395   4.232   6.418   6.633
 4166SOL     OW13396   6.199   3.432   1.009
 4166SOL    HW113397   6.184   3.346   1.058
 4166SOL    HW213398   6.156   3.426   0.919
 4167SOL     OW13399   1.491   3.933   0.961
 4167SOL    HW113400   1.571   3.954   0.905
 4167SOL    HW213401   1.453   3.845   0.935
 4168SOL     OW13402   6.779   4.651   1.291
 4168SOL    HW113403   6.816   4.670   1.382
 4168SOL    HW213404   6.686   4.616   1.299
 4169SOL     OW13405   5.868   4.147   4.118
 4169SOL    HW113406   5.962   4.112   4.124
 4169SOL    HW213407   5.869   4.247   4.122
 4170SOL     OW13408   4.921   4.245   5.645
 4170SOL    HW113409   4.856   4.180   5.686
 4170SOL    HW213410   4.877   4.334   5.635
 4171SOL     OW13411   6.763   5.188   0.366
 4171SOL    HW113412   6.797   5.162   0.456
 4171SOL    HW213413   6.717   5.277   0.372
 4172SOL     OW13414   0.412   2.022   6.055
 4172SOL    HW113415   0.469   2.103   6.047
 4172SOL    HW213416   0.363   2.023   6.142
 4173SOL     OW13417   5.350   3.607   5.521
 4173SOL    HW113418   5.378   3.554   5.600
 4173SOL    HW213419   5.430   3.632   5.467
 4174SOL     OW13420   5.071   0.597   3.069
 4174SOL    HW113421   5.116   0.531   3.009
 4174SOL    HW213422   4.972   0.594   3.053
 4175SOL     OW13423   2.546   6.001   4.128
 4175SOL    HW113424   2.628   5.998   4.070
 4175SOL    HW213425   2.476   5.942   4.088
 4176SOL     OW13426   3.047   6.227   1.857
 4176SOL    HW113427   3.145   6.243   1.846
 4176SOL    HW213428   2.997   6.311   1.833
 4177SOL     OW13429   5.934   4.441   4.809
 4177SOL    HW113430   5.943   4.389   4.894
 4177SOL    HW213431   5.852   4.498   4.813
 4178SOL     OW13432   4.816   0.585   4.188
 4178SOL    HW113433   4.867   0.499   4.193
 4178SOL    HW213434   4.859   0.645   4.122
 4179SOL     OW13435   5.057   2.679   3.651
 4179SOL    HW113436   5.001   2.629   3.717
 4179SOL    HW213437   5.153   2.656   3.664
 4180SOL     OW13438   4.965   4.136   1.298
 4180SOL    HW113439   4.891   4.105   1.238
 4180SOL    HW213440   4.929   4.202   1.364
 4181SOL     OW13441   2.553   1.550   1.024
 4181SOL    HW113442   2.539   1.566   0.927
 4181SOL    HW213443   2.519   1.628   1.077
 4182SOL     OW13444   0.603   6.751   3.398
 4182SOL    HW113445   0.687   6.731   3.348
 4182SOL    HW213446   0.617   6.830   3.457
 4183SOL     OW13447   4.281   0.883   0.027
 4183SOL    HW113448   4.356   0.890   0.093
 4183SOL    HW213449   4.271   0.788   7.013
 4184SOL     OW13450   4.855   5.036   1.070
 4184SOL    HW113451   4.905   5.109   1.116
 4184SOL    HW213452   4.858   5.050   0.971
 4185SOL     OW13453   0.692   5.465   2.368
 4185SOL    HW113454   0.654   5.411   2.443
 4185SOL    HW213455   0.666   5.561   2.379
 4186SOL     OW13456   2.423   5.252   0.589
 4186SOL    HW113457   2.497   5.227   0.526
 4186SOL    HW213458   2.449   5.332   0.642
 4187SOL     OW13459   3.509   3.726   6.246
 4187SOL    HW113460   3.520   3.635   6.205
 4187SOL    HW213461   3.573   3.736   6.322
 4188SOL     OW13462   4.392   0.173   4.606
 4188SOL    HW113463   4.406   0.177   4.705
 4188SOL    HW213464   4.478   0.196   4.560
 4189SOL     OW13465   3.846   0.130   5.541
 4189SOL    HW113466   3.806   0.076   5.615
 4189SOL    HW213467   3.875   0.219   5.576
 4190SOL     OW13468   0.713   0.627   0.010
 4190SOL    HW113469   0.794   0.684   7.013
 4190SOL    HW213470   0.713   0.591   0.104
 4191SOL     OW13471   5.278   3.889   3.169
 4191SOL    HW113472   5.226   3.884   3.254
 4191SOL    HW213473   5.326   3.977   3.164
 4192SOL     OW13474   0.553   1.116   4.203
 4192SOL    HW113475   0.516   1.208   4.217
 4192SOL    HW213476   0.644   1.123   4.163
 4193SOL     OW13477   1.410   0.543   2.382
 4193SOL    HW113478   1.440   0.448   2.387
 4193SOL    HW213479   1.491   0.603   2.376
 4194SOL     OW13480   5.707   0.504   4.841
 4194SOL    HW113481   5.703   0.553   4.929
 4194SOL    HW213482   5.781   0.438   4.843
 4195SOL     OW13483   4.105   6.625   2.186
 4195SOL    HW113484   4.100   6.688   2.263
 4195SOL    HW213485   4.178   6.558   2.202
 4196SOL     OW13486   5.499   1.995   3.541
 4196SOL    HW113487   5.412   1.998   3.491
 4196SOL    HW213488   5.500   1.915   3.602
 4197SOL     OW13489   4.840   6.114   5.456
 4197SOL    HW113490   4.921   6.173   5.453
 4197SOL    HW213491   4.759   6.170   5.470
 4198SOL     OW13492   5.891   3.693   0.269
 4198SOL    HW113493   5.844   3.667   0.353
 4198SOL    HW213494   5.835   3.758   0.218
 4199SOL     OW13495   2.029   3.199   6.517
 4199SOL    HW113496   2.070   3.169   6.603
 4199SOL    HW213497   2.038   3.127   6.449
 4200SOL     OW13498   3.127   6.449   6.008
 4200SOL    HW113499   3.190   6.371   6.001
 4200SOL    HW213500   3.134   6.505   5.925
 4201SOL     OW13501   6.500   6.199   3.840
 4201SOL    HW113502   6.442   6.252   3.778
 4201SOL    HW213503   6.443   6.155   3.909
 4202SOL     OW13504   4.040   5.242   5.810
 4202SOL    HW113505   3.984   5.182   5.752
 4202SOL    HW213506   4.133   5.207   5.814
 4203SOL     OW13507   5.077   5.194   0.277
 4203SOL    HW113508   5.102   5.171   0.370
 4203SOL    HW213509   5.016   5.274   0.278
 4204SOL     OW13510   4.056   3.259   2.538
 4204SOL    HW113511   4.077   3.353   2.511
 4204SOL    HW213512   4.054   3.252   2.637
 4205SOL     OW13513   4.154   5.204   3.488
 4205SOL    HW113514   4.086   5.199   3.416
 4205SOL    HW213515   4.227   5.267   3.461
 4206SOL     OW13516   6.324   0.715   5.642
 4206SOL    HW113517   6.408   0.705   5.694
 4206SOL    HW213518   6.300   0.628   5.599
 4207SOL     OW13519   1.502   1.278   1.475
 4207SOL    HW113520   1.484   1.252   1.380
 4207SOL    HW213521   1.542   1.369   1.478
 4208SOL     OW13522   0.757   3.852   6.560
 4208SOL    HW113523   0.824   3.785   6.528
 4208SOL    HW213524   0.785   3.887   6.650
 4209SOL     OW13525   0.516   1.077   5.559
 4209SOL    HW113526   0.545   1.142   5.630
 4209SOL    HW213527   0.594   1.019   5.534
 4210SOL     OW13528   3.008   3.433   2.190
 4210SOL    HW113529   3.029   3.403   2.283
 4210SOL    HW213530   2.985   3.353   2.134
 4211SOL     OW13531   3.611   5.369   5.821
 4211SOL    HW113532   3.599   5.417   5.734
 4211SOL    HW213533   3.658   5.429   5.886
 4212SOL     OW13534   6.041   2.712   2.635
 4212SOL    HW113535   5.968   2.700   2.703
 4212SOL    HW213536   6.118   2.653   2.657
 4213SOL     OW13537   2.367   0.641   2.062
 4213SOL    HW113538   2.436   0.571   2.044
 4213SOL    HW213539   2.408   0.715   2.115
 4214SOL     OW13540   1.689   4.444   5.052
 4214SOL    HW113541   1.654   4.351   5.068
 4214SOL    HW213542   1.742   4.473   5.132
 4215SOL     OW13543   6.878   6.274   4.774
 4215SOL    HW113544   6.944   6.206   4.741
 4215SOL    HW213545   6.891   6.360   4.725
 4216SOL     OW13546   1.055   1.787   3.228
 4216SOL    HW113547   1.044   1.715   3.297
 4216SOL    HW213548   1.145   1.777   3.184
 4217SOL     OW13549   6.743   0.255   2.894
 4217SOL    HW113550   6.841   0.246   2.909
 4217SOL    HW213551   6.726   0.288   2.801
 4218SOL     OW13552   4.585   0.917   1.574
 4218SOL    HW113553   4.527   0.964   1.507
 4218SOL    HW213554   4.528   0.885   1.650
 4219SOL     OW13555   2.619   5.305   3.590
 4219SOL    HW113556   2.539   5.327   3.646
 4219SOL    HW213557   2.589   5.278   3.499
 4220SOL     OW13558   5.535   2.989   3.393
 4220SOL    HW113559   5.501   3.073   3.352
 4220SOL    HW213560   5.563   2.925   3.321
 4221SOL     OW13561   6.160   5.682   6.186
 4221SOL    HW113562   6.151   5.689   6.087
 4221SOL    HW213563   6.170   5.586   6.212
 4222SOL     OW13564   5.928   2.413   2.921
 4222SOL    HW113565   5.914   2.418   3.020
 4222SOL    HW213566   5.998   2.345   2.901
 4223SOL     OW13567   3.042   3.292   5.611
 4223SOL    HW113568   2.968   3.226   5.626
 4223SOL    HW213569   3.085   3.275   5.523
 4224SOL     OW13570   4.785   2.973   3.395
 4224SOL    HW113571   4.874   2.947   3.430
 4224SOL    HW213572   4.782   2.960   3.296
 4225SOL     OW13573   3.892   0.409   5.563
 4225SOL    HW113574   3.855   0.484   5.508
 4225SOL    HW213575   3.986   0.431   5.588
 4226SOL     OW13576   0.612   0.551   2.643
 4226SOL    HW113577   0.652   0.643   2.650
 4226SOL    HW213578   0.631   0.514   2.552
 4227SOL     OW13579   3.614   4.890   6.660
 4227SOL    HW113580   3.554   4.940   6.723
 4227SOL    HW213581   3.678   4.955   6.617
 4228SOL     OW13582   0.645   3.515   3.979
 4228SOL    HW113583   0.670   3.491   4.073
 4228SOL    HW213584   0.560   3.566   3.979
 4229SOL     OW13585   4.927   5.185   5.167
 4229SOL    HW113586   4.934   5.087   5.186
 4229SOL    HW213587   4.997   5.234   5.219
 4230SOL     OW13588   2.059   0.374   4.026
 4230SOL    HW113589   2.015   0.459   3.997
 4230SOL    HW213590   2.141   0.358   3.972
 4231SOL     OW13591   5.709   5.967   4.798
 4231SOL    HW113592   5.791   6.005   4.841
 4231SOL    HW213593   5.628   5.994   4.851
 4232SOL     OW13594   0.329   4.409   2.382
 4232SOL    HW113595   0.279   4.348   2.443
 4232SOL    HW213596   0.296   4.502   2.394
 4233SOL     OW13597   6.810   0.573   6.822
 4233SOL    HW113598   6.787   0.494   6.765
 4233SOL    HW213599   6.885   0.624   6.780
 4234SOL     OW13600   1.338   0.247   5.799
 4234SOL    HW113601   1.293   0.176   5.852
 4234SOL    HW213602   1.371   0.319   5.861
 4235SOL     OW13603   5.020   3.898   5.637
 4235SOL    HW113604   5.119   3.908   5.649
 4235SOL    HW213605   4.975   3.908   5.726
 4236SOL     OW13606   0.209   3.586   2.742
 4236SOL    HW113607   0.155   3.630   2.814
 4236SOL    HW213608   0.243   3.655   2.678
 4237SOL     OW13609   6.446   5.308   3.442
 4237SOL    HW113610   6.372   5.242   3.452
 4237SOL    HW213611   6.466   5.320   3.344
 4238SOL     OW13612   3.396   5.124   2.660
 4238SOL    HW113613   3.377   5.129   2.758
 4238SOL    HW213614   3.428   5.213   2.627
 4239SOL     OW13615   5.794   1.216   3.626
 4239SOL    HW113616   5.894   1.213   3.620
 4239SOL    HW213617   5.760   1.296   3.578
 4240SOL     OW13618   2.494   6.805   0.142
 4240SOL    HW113619   2.536   6.739   0.205
 4240SOL    HW213620   2.415   6.762   0.097
 4241SOL     OW13621   6.448   0.714   1.350
 4241SOL    HW113622   6.394   0.680   1.427
 4241SOL    HW213623   6.391   0.722   1.269
 4242SOL     OW13624   2.042   0.989   3.311
 4242SOL    HW113625   2.085   1.075   3.284
 4242SOL    HW213626   2.109   0.915   3.303
 4243SOL     OW13627   0.181   3.856   3.800
 4243SOL    HW113628   0.281   3.857   3.807
 4243SOL    HW213629   0.154   3.813   3.714
 4244SOL     OW13630   5.313   5.363   0.698
 4244SOL    HW113631   5.345   5.351   0.792
 4244SOL    HW213632   5.232   5.421   0.697
 4245SOL     OW13633   6.045   1.168   6.233
 4245SOL    HW113634   6.000   1.233   6.173
 4245SOL    HW213635   6.144   1.173   6.219
 4246SOL     OW13636   5.734   2.978   3.581
 4246SOL    HW113637   5.761   3.047   3.649
 4246SOL    HW213638   5.661   3.015   3.523
 4247SOL     OW13639   2.073   5.270   3.442
 4247SOL    HW113640   2.127   5.344   3.481
 4247SOL    HW213641   2.065   5.282   3.343
 4248SOL     OW13642   1.598   1.396   3.489
 4248SOL    HW113643   1.512   1.446   3.494
 4248SOL    HW213644   1.672   1.460   3.469
 4249SOL     OW13645   5.078   1.236   4.122
 4249SOL    HW113646   5.106   1.273   4.210
 4249SOL    HW213647   5.013   1.298   4.078
 4250SOL     OW13648   5.967   6.346   4.550
 4250SOL    HW113649   5.968   6.426   4.490
 4250SOL    HW213650   5.877   6.303   4.546
 4251SOL     OW13651   6.205   3.233   1.180
 4251SOL    HW113652   6.191   3.275   1.269
 4251SOL    HW213653   6.204   3.133   1.189
 4252SOL     OW13654   5.349   6.061   6.167
 4252SOL    HW113655   5.257   6.029   6.187
 4252SOL    HW213656   5.347   6.119   6.085
 4253SOL     OW13657   3.423   6.867   1.450
 4253SOL    HW113658   3.520   6.893   1.447
 4253SOL    HW213659   3.407   6.813   1.532
 4254SOL     OW13660   1.806   4.008   1.816
 4254SOL    HW113661   1.853   4.005   1.728
 4254SOL    HW213662   1.844   3.938   1.877
 4255SOL     OW13663   6.995   4.077   3.693
 4255SOL    HW113664   0.031   4.009   3.745
 4255SOL    HW213665   0.005   4.168   3.723
 4256SOL     OW13666   0.994   6.102   0.967
 4256SOL    HW113667   0.921   6.035   0.954
 4256SOL    HW213668   1.070   6.082   0.905
 4257SOL     OW13669   3.449   1.321   4.628
 4257SOL    HW113670   3.389   1.322   4.548
 4257SOL    HW213671   3.401   1.358   4.707
 4258SOL     OW13672   3.150   6.148   0.653
 4258SOL    HW113673   3.102   6.201   0.583
 4258SOL    HW213674   3.230   6.198   0.684
 4259SOL     OW13675   1.344   6.690   0.992
 4259SOL    HW113676   1.254   6.717   1.025
 4259SOL    HW213677   1.404   6.770   0.990
 4260SOL     OW13678   5.863   0.751   3.099
 4260SOL    HW113679   5.785   0.689   3.106
 4260SOL    HW213680   5.830   0.845   3.096
 4261SOL     OW13681   1.957   0.450   2.898
 4261SOL    HW113682   1.983   0.385   2.827
 4261SOL    HW213683   1.898   0.405   2.965
 4262SOL     OW13684   0.817   3.694   6.289
 4262SOL    HW113685   0.805   3.792   6.270
 4262SOL    HW213686   0.914   3.676   6.308
 4263SOL     OW13687   2.449   0.315   3.318
 4263SOL    HW113688   2.371   0.258   3.343
 4263SOL    HW213689   2.476   0.295   3.224
 4264SOL     OW13690   0.207   2.319   4.710
 4264SOL    HW113691   0.191   2.263   4.629
 4264SOL    HW213692   0.126   2.315   4.769
 4265SOL     OW13693   3.869   1.050   0.585
 4265SOL    HW113694   3.850   0.957   0.553
 4265SOL    HW213695   3.963   1.055   0.618
 4266SOL     OW13696   2.051   6.340   6.418
 4266SOL    HW113697   2.115   6.317   6.492
 4266SOL    HW213698   2.102   6.347   6.332
 4267SOL     OW13699   2.275   4.283   4.418
 4267SOL    HW113700   2.331   4.361   4.390
 4267SOL    HW213701   2.196   4.316   4.469
 4268SOL     OW13702   1.108   5.552   7.000
 4268SOL    HW113703   1.145   5.633   0.030
 4268SOL    HW213704   1.037   5.580   6.936
 4269SOL     OW13705   2.784   0.001   3.229
 4269SOL    HW113706   2.766   6.918   3.228
 4269SOL    HW213707   2.743   0.044   3.149
 4270SOL     OW13708   3.667   2.843   2.082
 4270SOL    HW113709   3.735   2.903   2.123
 4270SOL    HW213710   3.700   2.748   2.085
 4271SOL     OW13711   0.283   0.655   0.792
 4271SOL    HW113712   0.199   0.699   0.821
 4271SOL    HW213713   0.280   0.639   0.693
 4272SOL     OW13714   6.506   2.772   4.520
 4272SOL    HW113715   6.425   2.718   4.543
 4272SOL    HW213716   6.548   2.736   4.436
 4273SOL     OW13717   4.647   6.364   4.330
 4273SOL    HW113718   4.573   6.432   4.321
 4273SOL    HW213719   4.676   6.335   4.239
 4274SOL     OW13720   1.438   6.713   2.054
 4274SOL    HW113721   1.379   6.766   2.114
 4274SOL    HW213722   1.510   6.772   2.017
 4275SOL     OW13723   6.815   2.038   4.141
 4275SOL    HW113724   6.818   2.108   4.213
 4275SOL    HW213725   6.905   1.997   4.131
 4276SOL     OW13726   2.514   5.312   3.905
 4276SOL    HW113727   2.500   5.214   3.920
 4276SOL    HW213728   2.595   5.342   3.954
 4277SOL     OW13729   6.838   4.722   3.016
 4277SOL    HW113730   6.817   4.692   2.923
 4277SOL    HW213731   6.855   4.820   3.017
 4278SOL     OW13732   6.992   6.695   4.782
 4278SOL    HW113733   0.052   6.754   4.810
 4278SOL    HW213734   6.987   6.615   4.842
 4279SOL     OW13735   1.937   1.293   3.267
 4279SOL    HW113736   1.936   1.389   3.236
 4279SOL    HW213737   1.947   1.290   3.366
 4280SOL     OW13738   5.786   6.928   5.346
 4280SOL    HW113739   5.885   6.915   5.338
 4280SOL    HW213740   5.739   6.850   5.305
 4281SOL     OW13741   5.752   5.108   3.134
 4281SOL    HW113742   5.818   5.034   3.139
 4281SOL    HW213743   5.775   5.179   3.201
 4282SOL     OW13744   3.326   4.658   0.458
 4282SOL    HW113745   3.307   4.742   0.407
 4282SOL    HW213746   3.240   4.617   0.487
 4283SOL     OW13747   2.401   1.095   3.394
 4283SOL    HW113748   2.413   1.007   3.440
 4283SOL    HW213749   2.357   1.160   3.456
 4284SOL     OW13750   3.937   4.520   0.902
 4284SOL    HW113751   3.915   4.439   0.849
 4284SOL    HW213752   4.002   4.577   0.852
 4285SOL     OW13753   2.541   1.004   6.125
 4285SOL    HW113754   2.477   0.997   6.049
 4285SOL    HW213755   2.603   1.081   6.110
 4286SOL     OW13756   5.878   6.540   6.095
 4286SOL    HW113757   5.854   6.637   6.098
 4286SOL    HW213758   5.938   6.518   6.172
 4287SOL     OW13759   4.779   1.316   5.940
 4287SOL    HW113760   4.745   1.223   5.928
 4287SOL    HW213761   4.711   1.370   5.989
 4288SOL     OW13762   0.793   5.574   3.941
 4288SOL    HW113763   0.779   5.651   4.003
 4288SOL    HW213764   0.837   5.499   3.990
 4289SOL     OW13765   0.936   2.176   5.904
 4289SOL    HW113766   0.936   2.157   6.003
 4289SOL    HW213767   0.925   2.274   5.889
 4290SOL     OW13768   1.106   6.316   4.718
 4290SOL    HW113769   1.073   6.394   4.664
 4290SOL    HW213770   1.029   6.271   4.762
 4291SOL     OW13771   5.083   3.670   0.033
 4291SOL    HW113772   4.991   3.682   0.072
 4291SOL    HW213773   5.099   3.740   6.979
 4292SOL     OW13774   6.550   3.173   0.195
 4292SOL    HW113775   6.632   3.198   0.245
 4292SOL    HW213776   6.513   3.087   0.232
 4293SOL     OW13777   3.561   4.482   0.360
 4293SOL    HW113778   3.507   4.563   0.383
 4293SOL    HW213779   3.525   4.402   0.409
 4294SOL     OW13780   1.908   1.189   6.603
 4294SOL    HW113781   1.906   1.286   6.579
 4294SOL    HW213782   2.003   1.156   6.599
 4295SOL     OW13783   5.477   5.424   4.189
 4295SOL    HW113784   5.537   5.353   4.153
 4295SOL    HW213785   5.525   5.478   4.258
 4296SOL     OW13786   3.093   6.726   0.114
 4296SOL    HW113787   3.128   6.638   0.147
 4296SOL    HW213788   3.155   6.799   0.142
 4297SOL     OW13789   5.657   0.365   1.615
 4297SOL    HW113790   5.569   0.375   1.662
 4297SOL    HW213791   5.677   0.449   1.566
 4298SOL     OW13792   3.726   5.733   1.115
 4298SOL    HW113793   3.685   5.781   1.038
 4298SOL    HW213794   3.767   5.800   1.178
 4299SOL     OW13795   1.589   2.386   6.888
 4299SOL    HW113796   1.508   2.378   6.947
 4299SOL    HW213797   1.670   2.394   6.945
 4300SOL     OW13798   2.769   0.112   0.151
 4300SOL    HW113799   2.792   0.067   0.237
 4300SOL    HW213800   2.836   0.184   0.132
 4301SOL     OW13801   4.844   6.720   1.234
 4301SOL    HW113802   4.764   6.678   1.277
 4301SOL    HW213803   4.885   6.787   1.296
 4302SOL     OW13804   6.778   0.499   6.110
 4302SOL    HW113805   6.719   0.503   6.030
 4302SOL    HW213806   6.722   0.503   6.193
 4303SOL     OW13807   0.211   4.383   4.291
 4303SOL    HW113808   0.268   4.451   4.337
 4303SOL    HW213809   0.135   4.428   4.245
 4304SOL     OW13810   3.287   3.183   2.451
 4304SOL    HW113811   3.295   3.108   2.517
 4304SOL    HW213812   3.371   3.236   2.450
 4305SOL     OW13813   0.835   6.990   5.863
 4305SOL    HW113814   0.794   0.047   5.809
 4305SOL    HW213815   0.863   0.010   5.952
 4306SOL     OW13816   4.603   4.761   4.441
 4306SOL    HW113817   4.584   4.706   4.522
 4306SOL    HW213818   4.646   4.848   4.468
 4307SOL     OW13819   6.067   3.743   5.199
 4307SOL    HW113820   6.111   3.825   5.236
 4307SOL    HW213821   6.135   3.689   5.148
 4308SOL     OW13822   6.227   5.807   1.324
 4308SOL    HW113823   6.292   5.738   1.356
 4308SOL    HW213824   6.243   5.826   1.227
 4309SOL     OW13825   1.222   1.449   0.810
 4309SOL    HW113826   1.263   1.400   0.886
 4309SOL    HW213827   1.200   1.543   0.839
 4310SOL     OW13828   1.511   2.782   1.489
 4310SOL    HW113829   1.467   2.821   1.569
 4310SOL    HW213830   1.485   2.686   1.479
 4311SOL     OW13831   0.179   6.011   2.856
 4311SOL    HW113832   0.166   6.099   2.810
 4311SOL    HW213833   0.126   6.010   2.941
 4312SOL     OW13834   1.483   5.556   2.475
 4312SOL    HW113835   1.474   5.577   2.378
 4312SOL    HW213836   1.391   5.545   2.515
 4313SOL     OW13837   4.819   2.240   0.769
 4313SOL    HW113838   4.863   2.227   0.680
 4313SOL    HW213839   4.783   2.334   0.774
 4314SOL     OW13840   5.613   1.854   5.238
 4314SOL    HW113841   5.646   1.774   5.288
 4314SOL    HW213842   5.528   1.831   5.190
 4315SOL     OW13843   1.909   0.792   3.458
 4315SOL    HW113844   1.939   0.868   3.401
 4315SOL    HW213845   1.948   0.707   3.422
 4316SOL     OW13846   4.579   0.415   1.574
 4316SOL    HW113847   4.561   0.317   1.563
 4316SOL    HW213848   4.656   0.441   1.515
 4317SOL     OW13849   5.301   1.621   5.518
 4317SOL    HW113850   5.303   1.538   5.574
 4317SOL    HW213851   5.206   1.652   5.510
 4318SOL     OW13852   1.276   1.845   4.787
 4318SOL    HW113853   1.330   1.764   4.809
 4318SOL    HW213854   1.183   1.834   4.822
 4319SOL     OW13855   2.313   1.888   0.889
 4319SOL    HW113856   2.279   1.973   0.930
 4319SOL    HW213857   2.412   1.894   0.878
 4320SOL     OW13858   3.422   5.241   1.014
 4320SOL    HW113859   3.456   5.149   0.996
 4320SOL    HW213860   3.390   5.246   1.109
 4321SOL     OW13861   6.885   4.586   4.481
 4321SOL    HW113862   6.934   4.629   4.558
 4321SOL    HW213863   6.888   4.487   4.491
 4322SOL     OW13864   6.117   3.028   0.003
 4322SOL    HW113865   6.152   3.026   0.096
 4322SOL    HW213866   6.193   3.028   6.954
 4323SOL     OW13867   4.671   4.571   0.263
 4323SOL    HW113868   4.760   4.543   0.299
 4323SOL    HW213869   4.668   4.558   0.164
 4324SOL     OW13870   5.931   4.479   6.138
 4324SOL    HW113871   5.884   4.395   6.161
 4324SOL    HW213872   5.954   4.529   6.222
 4325SOL     OW13873   3.069   1.163   2.094
 4325SOL    HW113874   3.089   1.211   2.180
 4325SOL    HW213875   3.004   1.218   2.040
 4326SOL     OW13876   4.832   4.645   1.874
 4326SOL    HW113877   4.762   4.634   1.946
 4326SOL    HW213878   4.920   4.666   1.916
 4327SOL     OW13879   5.466   5.662   1.438
 4327SOL    HW113880   5.500   5.568   1.440
 4327SOL    HW213881   5.467   5.700   1.531
 4328SOL     OW13882   5.545   4.697   5.631
 4328SOL    HW113883   5.619   4.746   5.585
 4328SOL    HW213884   5.579   4.660   5.718
 4329SOL     OW13885   4.322   2.830   5.677
 4329SOL    HW113886   4.368   2.890   5.612
 4329SOL    HW213887   4.227   2.858   5.687
 4330SOL     OW13888   2.163   6.381   4.257
 4330SOL    HW113889   2.199   6.371   4.349
 4330SOL    HW213890   2.084   6.321   4.245
 4331SOL     OW13891   5.627   0.651   1.918
 4331SOL    HW113892   5.552   0.695   1.968
 4331SOL    HW213893   5.684   0.600   1.983
 4332SOL     OW13894   5.337   3.477   2.458
 4332SOL    HW113895   5.272   3.550   2.481
 4332SOL    HW213896   5.382   3.445   2.541
 4333SOL     OW13897   4.402   1.550   5.089
 4333SOL    HW113898   4.371   1.640   5.058
 4333SOL    HW213899   4.417   1.551   5.188
 4334SOL     OW13900   2.365   2.654   2.434
 4334SOL    HW113901   2.318   2.708   2.364
 4334SOL    HW213902   2.414   2.579   2.391
 4335SOL     OW13903   3.619   3.411   1.506
 4335SOL    HW113904   3.646   3.327   1.460
 4335SOL    HW213905   3.671   3.422   1.591
 4336SOL     OW13906   2.639   6.417   6.142
 4336SOL    HW113907   2.658   6.400   6.045
 4336SOL    HW213908   2.557   6.368   6.170
 4337SOL     OW13909   2.235   4.531   1.760
 4337SOL    HW113910   2.322   4.498   1.796
 4337SOL    HW213911   2.235   4.631   1.758
 4338SOL     OW13912   6.347   6.753   5.774
 4338SOL    HW113913   6.353   6.847   5.740
 4338SOL    HW213914   6.354   6.690   5.696
 4339SOL     OW13915   3.975   2.796   6.228
 4339SOL    HW113916   3.884   2.834   6.249
 4339SOL    HW213917   4.025   2.860   6.170
 4340SOL     OW13918   6.154   3.651   1.594
 4340SOL    HW113919   6.168   3.749   1.579
 4340SOL    HW213920   6.098   3.614   1.521
 4341SOL     OW13921   1.301   5.058   1.224
 4341SOL    HW113922   1.375   5.022   1.281
 4341SOL    HW213923   1.223   5.081   1.283
 4342SOL     OW13924   5.441   4.111   3.134
 4342SOL    HW113925   5.531   4.074   3.110
 4342SOL    HW213926   5.434   4.119   3.233
 4343SOL     OW13927   3.047   5.877   4.889
 4343SOL    HW113928   2.990   5.946   4.934
 4343SOL    HW213929   3.032   5.881   4.790
 4344SOL     OW13930   0.833   3.864   2.857
 4344SOL    HW113931   0.898   3.911   2.797
 4344SOL    HW213932   0.762   3.821   2.801
 4345SOL     OW13933   3.435   4.168   4.716
 4345SOL    HW113934   3.347   4.140   4.677
 4345SOL    HW213935   3.433   4.266   4.734
 4346SOL     OW13936   2.125   3.283   2.698
 4346SOL    HW113937   2.075   3.197   2.693
 4346SOL    HW213938   2.139   3.320   2.606
 4347SOL     OW13939   5.453   6.536   2.965
 4347SOL    HW113940   5.396   6.489   3.032
 4347SOL    HW213941   5.400   6.606   2.918
 4348SOL     OW13942   0.276   5.674   3.988
 4348SOL    HW113943   0.238   5.602   3.930
 4348SOL    HW213944   0.220   5.685   4.069
 4349SOL     OW13945   6.462   1.923   3.179
 4349SOL    HW113946   6.428   1.903   3.087
 4349SOL    HW213947   6.551   1.879   3.192
 4350SOL     OW13948   4.112   2.052   3.992
 4350SOL    HW113949   4.111   2.076   4.089
 4350SOL    HW213950   4.111   2.135   3.937
 4351SOL     OW13951   1.076   6.168   1.635
 4351SOL    HW113952   1.159   6.126   1.670
 4351SOL    HW213953   1.098   6.254   1.590
 4352SOL     OW13954   6.453   4.328   2.282
 4352SOL    HW113955   6.487   4.353   2.191
 4352SOL    HW213956   6.504   4.379   2.351
 4353SOL     OW13957   3.442   3.048   6.773
 4353SOL    HW113958   3.360   3.054   6.831
 4353SOL    HW213959   3.418   3.071   6.679
 4354SOL     OW13960   1.931   1.136   6.235
 4354SOL    HW113961   1.995   1.202   6.195
 4354SOL    HW213962   1.980   1.075   6.296
 4355SOL     OW13963   2.203   6.472   3.026
 4355SOL    HW113964   2.253   6.523   2.956
 4355SOL    HW213965   2.161   6.536   3.091
 4356SOL     OW13966   4.745   3.678   6.274
 4356SOL    HW113967   4.822   3.717   6.325
 4356SOL    HW213968   4.680   3.751   6.253
 4357SOL     OW13969   0.269   0.911   1.345
 4357SOL    HW113970   0.340   0.954   1.289
 4357SOL    HW213971   0.295   0.917   1.441
 4358SOL     OW13972   6.367   1.123   0.768
 4358SOL    HW113973   6.272   1.099   0.786
 4358SOL    HW213974   6.396   1.082   0.681
 4359SOL     OW13975   1.374   1.356   6.757
 4359SOL    HW113976   1.344   1.334   6.850
 4359SOL    HW213977   1.473   1.342   6.749
 4360SOL     OW13978   0.343   3.294   3.670
 4360SOL    HW113979   0.386   3.329   3.587
 4360SOL    HW213980   0.293   3.367   3.716
 4361SOL     OW13981   2.371   4.060   1.494
 4361SOL    HW113982   2.348   4.025   1.403
 4361SOL    HW213983   2.304   4.129   1.521
 4362SOL     OW13984   0.017   5.965   4.308
 4362SOL    HW113985   6.955   5.903   4.319
 4362SOL    HW213986   7.011   6.032   4.237
 4363SOL     OW13987   4.631   1.637   1.388
 4363SOL    HW113988   4.581   1.722   1.403
 4363SOL    HW213989   4.689   1.618   1.466
 4364SOL     OW13990   3.328   4.186   3.815
 4364SOL    HW113991   3.279   4.144   3.739
 4364SOL    HW213992   3.353   4.279   3.791
 4365SOL     OW13993   2.513   0.354   1.953
 4365SOL    HW113994   2.567   0.291   1.896
 4365SOL    HW213995   2.497   0.313   2.042
 4366SOL     OW13996   6.148   6.850   6.519
 4366SOL    HW113997   6.082   6.877   6.589
 4366SOL    HW213998   6.228   6.809   6.562
 4367SOL     OW13999   2.576   5.026   3.965
 4367SOL    HW114000   2.656   4.969   3.945
 4367SOL    HW214001   2.492   4.973   3.946
 4368SOL     OW14002   3.596   5.693   1.942
 4368SOL    HW114003   3.526   5.623   1.954
 4368SOL    HW214004   3.551   5.782   1.931
 4369SOL     OW14005   4.528   4.744   2.744
 4369SOL    HW114006   4.623   4.726   2.772
 4369SOL    HW214007   4.476   4.659   2.750
 4370SOL     OW14008   3.769   4.687   1.465
 4370SOL    HW114009   3.745   4.779   1.435
 4370SOL    HW214010   3.832   4.693   1.543
 4371SOL     OW14011   2.026   1.971   2.634
 4371SOL    HW114012   1.998   2.005   2.724
 4371SOL    HW214013   1.955   1.910   2.598
 4372SOL     OW14014   2.405   2.416   4.319
 4372SOL    HW114015   2.351   2.501   4.318
 4372SOL    HW214016   2.352   2.344   4.363
 4373SOL     OW14017   4.342   1.243   0.203
 4373SOL    HW114018   4.402   1.264   0.280
 4373SOL    HW214019   4.288   1.162   0.224
 4374SOL     OW14020   1.241   1.570   1.723
 4374SOL    HW114021   1.209   1.629   1.648
 4374SOL    HW214022   1.241   1.475   1.692
 4375SOL     OW14023   4.200   5.883   2.804
 4375SOL    HW114024   4.139   5.907   2.879
 4375SOL    HW214025   4.168   5.799   2.760
 4376SOL     OW14026   6.110   0.433   2.637
 4376SOL    HW114027   6.108   0.363   2.566
 4376SOL    HW214028   6.088   0.392   2.725
 4377SOL     OW14029   5.634   5.322   6.882
 4377SOL    HW114030   5.729   5.353   6.880
 4377SOL    HW214031   5.573   5.399   6.863
 4378SOL     OW14032   1.921   2.848   2.415
 4378SOL    HW114033   2.019   2.840   2.432
 4378SOL    HW214034   1.893   2.944   2.425
 4379SOL     OW14035   2.352   1.360   1.872
 4379SOL    HW114036   2.312   1.272   1.846
 4379SOL    HW214037   2.402   1.350   1.958
 4380SOL     OW14038   2.133   6.615   3.913
 4380SOL    HW114039   2.095   6.546   3.851
 4380SOL    HW214040   2.065   6.639   3.982
 4381SOL     OW14041   2.242   4.308   4.796
 4381SOL    HW114042   2.320   4.345   4.847
 4381SOL    HW214043   2.168   4.286   4.860
 4382SOL     OW14044   6.063   3.257   6.436
 4382SOL    HW114045   6.065   3.269   6.535
 4382SOL    HW214046   5.979   3.210   6.409
 4383SOL     OW14047   0.921   3.200   5.429
 4383SOL    HW114048   0.897   3.295   5.448
 4383SOL    HW214049   0.838   3.143   5.432
 4384SOL     OW14050   5.414   1.316   6.716
 4384SOL    HW114051   5.494   1.256   6.720
 4384SOL    HW214052   5.441   1.410   6.735
 4385SOL     OW14053   6.974   2.792   4.368
 4385SOL    HW114054   6.984   2.698   4.399
 4385SOL    HW214055   0.008   2.804   4.282
 4386SOL     OW14056   1.805   3.804   6.626
 4386SOL    HW114057   1.884   3.856   6.596
 4386SOL    HW214058   1.721   3.849   6.594
 4387SOL     OW14059   0.458   1.151   1.457
 4387SOL    HW114060   0.401   1.086   1.508
 4387SOL    HW214061   0.402   1.230   1.430
 4388SOL     OW14062   4.863   1.014   6.445
 4388SOL    HW114063   4.867   1.048   6.539
 4388SOL    HW214064   4.920   1.071   6.386
 4389SOL     OW14065   5.873   2.015   0.626
 4389SOL    HW114066   5.802   2.062   0.574
 4389SOL    HW214067   5.961   2.060   0.608
 4390SOL     OW14068   3.978   1.617   1.893
 4390SOL    HW114069   4.000   1.526   1.857
 4390SOL    HW214070   3.885   1.616   1.930
 4391SOL     OW14071   1.773   5.933   5.675
 4391SOL    HW114072   1.842   5.960   5.742
 4391SOL    HW214073   1.717   5.859   5.712
 4392SOL     OW14074   6.629   3.419   5.554
 4392SOL    HW114075   6.597   3.373   5.472
 4392SOL    HW214076   6.728   3.405   5.563
 4393SOL     OW14077   5.376   6.991   2.696
 4393SOL    HW114078   5.450   6.951   2.640
 4393SOL    HW214079   5.317   0.030   2.637
 4394SOL     OW14080   5.966   5.755   2.825
 4394SOL    HW114081   5.989   5.699   2.745
 4394SOL    HW214082   6.024   5.728   2.902
 4395SOL     OW14083   3.960   0.797   1.935
 4395SOL    HW114084   3.863   0.820   1.933
 4395SOL    HW214085   3.988   0.763   1.845
 4396SOL     OW14086   2.609   2.352   4.126
 4396SOL    HW114087   2.548   2.390   4.196
 4396SOL    HW214088   2.567   2.271   4.085
 4397SOL     OW14089   0.383   1.365   4.940
 4397SOL    HW114090   0.378   1.265   4.935
 4397SOL    HW214091   0.477   1.394   4.925
 4398SOL     OW14092   0.813   4.204   4.838
 4398SOL    HW114093   0.834   4.218   4.742
 4398SOL    HW214094   0.727   4.153   4.847
 4399SOL     OW14095   1.618   0.788   1.729
 4399SOL    HW114096   1.642   0.814   1.823
 4399SOL    HW214097   1.615   0.870   1.672
 4400SOL     OW14098   2.369   0.206   5.072
 4400SOL    HW114099   2.286   0.158   5.100
 4400SOL    HW214100   2.361   0.232   4.976
 4401SOL     OW14101   4.672   0.191   6.649
 4401SOL    HW114102   4.749   0.146   6.693
 4401SOL    HW214103   4.703   0.274   6.603
 4402SOL     OW14104   2.261   6.674   1.826
 4402SOL    HW114105   2.209   6.602   1.781
 4402SOL    HW214106   2.222   6.763   1.802
 4403SOL     OW14107   0.604   6.799   4.051
 4403SOL    HW114108   0.596   6.753   3.962
 4403SOL    HW214109   0.585   6.896   4.039
 4404SOL     OW14110   0.435   4.386   5.885
 4404SOL    HW114111   0.428   4.449   5.963
 4404SOL    HW214112   0.475   4.300   5.915
 4405SOL     OW14113   3.110   4.637   1.052
 4405SOL    HW114114   3.104   4.546   1.011
 4405SOL    HW214115   3.024   4.660   1.097
 4406SOL     OW14116   6.422   4.270   1.008
 4406SOL    HW114117   6.412   4.354   0.954
 4406SOL    HW214118   6.519   4.254   1.027
 4407SOL     OW14119   0.684   4.065   0.654
 4407SOL    HW114120   0.605   4.006   0.671
 4407SOL    HW214121   0.715   4.052   0.560
 4408SOL     OW14122   3.957   1.240   1.485
 4408SOL    HW114123   4.051   1.206   1.485
 4408SOL    HW214124   3.957   1.339   1.503
 4409SOL     OW14125   4.344   6.885   1.667
 4409SOL    HW114126   4.314   6.806   1.612
 4409SOL    HW214127   4.306   6.877   1.759
 4410SOL     OW14128   1.492   5.787   0.304
 4410SOL    HW114129   1.586   5.819   0.309
 4410SOL    HW214130   1.489   5.700   0.255
 4411SOL     OW14131   3.323   2.886   3.777
 4411SOL    HW114132   3.266   2.963   3.749
 4411SOL    HW214133   3.272   2.801   3.767
 4412SOL     OW14134   3.417   0.502   4.990
 4412SOL    HW114135   3.398   0.470   4.897
 4412SOL    HW214136   3.350   0.463   5.053
 4413SOL     OW14137   4.844   5.731   4.742
 4413SOL    HW114138   4.921   5.761   4.799
 4413SOL    HW214139   4.838   5.791   4.662
 4414SOL     OW14140   3.960   5.049   1.718
 4414SOL    HW114141   3.874   5.033   1.767
 4414SOL    HW214142   3.949   5.024   1.622
 4415SOL     OW14143   4.139   3.679   6.487
 4415SOL    HW114144   4.228   3.634   6.492
 4415SOL    HW214145   4.140   3.747   6.413
 4416SOL     OW14146   2.401   0.275   4.417
 4416SOL    HW114147   2.381   0.200   4.355
 4416SOL    HW214148   2.361   0.256   4.507
 4417SOL     OW14149   5.890   4.534   3.133
 4417SOL    HW114150   5.815   4.479   3.169
 4417SOL    HW214151   5.963   4.474   3.101
 4418SOL     OW14152   5.275   0.806   2.972
 4418SOL    HW114153   5.217   0.732   3.007
 4418SOL    HW214154   5.276   0.802   2.872
 4419SOL     OW14155   5.416   5.921   0.358
 4419SOL    HW114156   5.407   5.865   0.276
 4419SOL    HW214157   5.325   5.947   0.391
 4420SOL     OW14158   5.392   1.380   1.439
 4420SOL    HW114159   5.353   1.444   1.506
 4420SOL    HW214160   5.441   1.307   1.486
 4421SOL     OW14161   2.035   1.541   4.154
 4421SOL    HW114162   1.999   1.550   4.247
 4421SOL    HW214163   1.979   1.596   4.092
 4422SOL     OW14164   2.633   4.329   5.782
 4422SOL    HW114165   2.623   4.321   5.881
 4422SOL    HW214166   2.683   4.250   5.747
 4423SOL     OW14167   1.021   2.824   5.445
 4423SOL    HW114168   1.071   2.875   5.515
 4423SOL    HW214169   1.052   2.852   5.355
 4424SOL     OW14170   5.151   6.867   4.065
 4424SOL    HW114171   5.079   6.800   4.077
 4424SOL    HW214172   5.133   6.922   3.984
 4425SOL     OW14173   3.660   5.728   6.374
 4425SOL    HW114174   3.607   5.722   6.290
 4425SOL    HW214175   3.614   5.789   6.439
 4426SOL     OW14176   0.478   2.187   4.584
 4426SOL    HW114177   0.446   2.152   4.672
 4426SOL    HW214178   0.541   2.264   4.599
 4427SOL     OW14179   6.738   6.168   2.612
 4427SOL    HW114180   6.664   6.196   2.674
 4427SOL    HW214181   6.732   6.221   2.527
 4428SOL     OW14182   3.239   5.667   2.083
 4428SOL    HW114183   3.277   5.737   2.143
 4428SOL    HW214184   3.153   5.632   2.122
 4429SOL     OW14185   2.984   0.182   3.003
 4429SOL    HW114186   3.005   0.279   3.013
 4429SOL    HW214187   2.886   0.167   3.013
 4430SOL     OW14188   4.998   3.567   4.814
 4430SOL    HW114189   5.066   3.636   4.839
 4430SOL    HW214190   4.921   3.572   4.878
 4431SOL     OW14191   1.643   0.507   1.708
 4431SOL    HW114192   1.567   0.449   1.738
 4431SOL    HW214193   1.615   0.603   1.710
 4432SOL     OW14194   3.315   4.159   4.375
 4432SOL    HW114195   3.319   4.148   4.276
 4432SOL    HW214196   3.380   4.230   4.403
 4433SOL     OW14197   5.832   0.313   4.656
 4433SOL    HW114198   5.795   0.258   4.581
 4433SOL    HW214199   5.808   0.409   4.641
 4434SOL     OW14200   3.444   1.795   3.516
 4434SOL    HW114201   3.486   1.865   3.459
 4434SOL    HW214202   3.482   1.800   3.609
 4435SOL     OW14203   4.189   4.090   1.129
 4435SOL    HW114204   4.255   4.051   1.065
 4435SOL    HW214205   4.124   4.147   1.079
 4436SOL     OW14206   3.727   1.532   1.374
 4436SOL    HW114207   3.786   1.558   1.297
 4436SOL    HW214208   3.692   1.440   1.360
 4437SOL     OW14209   5.408   1.560   4.178
 4437SOL    HW114210   5.498   1.532   4.145
 4437SOL    HW214211   5.418   1.622   4.256
 4438SOL     OW14212   4.872   0.861   0.410
 4438SOL    HW114213   4.801   0.797   0.384
 4438SOL    HW214214   4.962   0.817   0.400
 4439SOL     OW14215   0.402   6.100   1.548
 4439SOL    HW114216   0.365   6.192   1.563
 4439SOL    HW214217   0.492   6.107   1.506
 4440SOL     OW14218   2.079   4.908   0.483
 4440SOL    HW114219   2.085   5.008   0.483
 4440SOL    HW214220   1.995   4.880   0.436
 4441SOL     OW14221   6.760   1.752   2.682
 4441SOL    HW114222   6.732   1.671   2.732
 4441SOL    HW214223   6.695   1.769   2.607
 4442SOL     OW14224   2.435   5.922   5.410
 4442SOL    HW114225   2.517   5.975   5.387
 4442SOL    HW214226   2.462   5.838   5.458
 4443SOL     OW14227   6.558   3.254   1.397
 4443SOL    HW114228   6.596   3.264   1.304
 4443SOL    HW214229   6.632   3.262   1.464
 4444SOL     OW14230   3.945   5.245   6.105
 4444SOL    HW114231   3.954   5.228   6.007
 4444SOL    HW214232   3.973   5.338   6.125
 4445SOL     OW14233   6.402   0.157   1.060
 4445SOL    HW114234   6.456   0.086   1.015
 4445SOL    HW214235   6.306   0.129   1.063
 4446SOL     OW14236   6.078   1.267   1.924
 4446SOL    HW114237   6.102   1.202   1.852
 4446SOL    HW214238   5.983   1.295   1.914
 4447SOL     OW14239   5.879   3.750   6.106
 4447SOL    HW114240   5.917   3.819   6.167
 4447SOL    HW214241   5.779   3.753   6.110
 4448SOL     OW14242   3.042   3.953   1.328
 4448SOL    HW114243   3.067   4.021   1.259
 4448SOL    HW214244   2.958   3.982   1.375
 4449SOL     OW14245   4.840   0.776   6.311
 4449SOL    HW114246   4.862   0.806   6.219
 4449SOL    HW214247   4.837   0.855   6.373
 4450SOL     OW14248   3.842   3.554   4.275
 4450SOL    HW114249   3.751   3.544   4.316
 4450SOL    HW214250   3.906   3.584   4.346
 4451SOL     OW14251   6.108   4.046   4.062
 4451SOL    HW114252   6.156   3.976   4.113
 4451SOL    HW214253   6.099   4.019   3.966
 4452SOL     OW14254   5.780   6.493   4.035
 4452SOL    HW114255   5.805   6.586   4.006
 4452SOL    HW214256   5.832   6.427   3.981
 4453SOL     OW14257   0.335   2.987   1.374
 4453SOL    HW114258   0.267   3.014   1.306
 4453SOL    HW214259   0.292   2.928   1.443
 4454SOL     OW14260   6.809   1.984   0.164
 4454SOL    HW114261   6.832   1.941   0.076
 4454SOL    HW214262   6.879   2.052   0.186
 4455SOL     OW14263   3.923   6.525   6.698
 4455SOL    HW114264   3.890   6.445   6.748
 4455SOL    HW214265   3.977   6.584   6.759
 4456SOL     OW14266   2.845   5.258   2.378
 4456SOL    HW114267   2.778   5.311   2.430
 4456SOL    HW214268   2.801   5.216   2.299
 4457SOL     OW14269   4.153   2.712   0.644
 4457SOL    HW114270   4.108   2.627   0.674
 4457SOL    HW214271   4.102   2.753   0.569
 4458SOL     OW14272   1.151   3.792   6.758
 4458SOL    HW114273   1.172   3.844   6.675
 4458SOL    HW214274   1.194   3.835   6.836
 4459SOL     OW14275   4.693   0.752   3.619
 4459SOL    HW114276   4.646   0.758   3.707
 4459SOL    HW214277   4.740   0.664   3.612
 4460SOL     OW14278   2.946   3.015   5.254
 4460SOL    HW114279   2.852   3.031   5.281
 4460SOL    HW214280   2.970   3.075   5.178
 4461SOL     OW14281   1.198   0.647   2.185
 4461SOL    HW114282   1.191   0.741   2.219
 4461SOL    HW214283   1.238   0.588   2.256
 4462SOL     OW14284   6.747   3.753   1.725
 4462SOL    HW114285   6.779   3.821   1.659
 4462SOL    HW214286   6.793   3.767   1.813
 4463SOL     OW14287   4.628   2.919   0.045
 4463SOL    HW114288   4.641   2.978   6.981
 4463SOL    HW214289   4.544   2.866   0.033
 4464SOL     OW14290   0.016   4.867   0.228
 4464SOL    HW114291   6.942   4.874   0.184
 4464SOL    HW214292   0.005   4.861   0.327
 4465SOL     OW14293   2.439   5.461   2.434
 4465SOL    HW114294   2.398   5.392   2.493
 4465SOL    HW214295   2.386   5.545   2.439
 4466SOL     OW14296   1.873   1.191   3.011
 4466SOL    HW114297   1.911   1.242   3.089
 4466SOL    HW214298   1.813   1.251   2.958
 4467SOL     OW14299   1.782   0.251   3.358
 4467SOL    HW114300   1.792   0.187   3.434
 4467SOL    HW214301   1.857   0.317   3.360
 4468SOL     OW14302   1.969   3.178   1.098
 4468SOL    HW114303   1.878   3.140   1.113
 4468SOL    HW214304   1.990   3.243   1.172
 4469SOL     OW14305   4.180   0.361   1.282
 4469SOL    HW114306   4.119   0.297   1.329
 4469SOL    HW214307   4.263   0.313   1.254
 4470SOL     OW14308   5.771   3.184   1.814
 4470SOL    HW114309   5.759   3.248   1.890
 4470SOL    HW214310   5.732   3.095   1.839
 4471SOL     OW14311   6.857   1.883   6.697
 4471SOL    HW114312   6.828   1.833   6.615
 4471SOL    HW214313   6.874   1.978   6.673
 4472SOL     OW14314   1.625   2.847   3.842
 4472SOL    HW114315   1.720   2.831   3.814
 4472SOL    HW214316   1.624   2.901   3.927
 4473SOL     OW14317   6.879   2.623   3.839
 4473SOL    HW114318   6.975   2.630   3.812
 4473SOL    HW214319   6.864   2.677   3.923
 4474SOL     OW14320   3.929   0.422   1.943
 4474SOL    HW114321   3.843   0.470   1.964
 4474SOL    HW214322   3.988   0.422   2.024
 4475SOL     OW14323   1.863   3.735   2.231
 4475SOL    HW114324   1.938   3.669   2.236
 4475SOL    HW214325   1.806   3.725   2.313
 4476SOL     OW14326   4.667   6.699   4.198
 4476SOL    HW114327   4.638   6.787   4.160
 4476SOL    HW214328   4.594   6.662   4.255
 4477SOL     OW14329   1.286   0.603   5.736
 4477SOL    HW114330   1.288   0.510   5.773
 4477SOL    HW214331   1.229   0.661   5.795
 4478SOL     OW14332   3.363   6.514   2.804
 4478SOL    HW114333   3.281   6.528   2.858
 4478SOL    HW214334   3.443   6.549   2.853
 4479SOL     OW14335   1.214   1.032   1.322
 4479SOL    HW114336   1.130   0.987   1.290
 4479SOL    HW214337   1.264   0.968   1.381
 4480SOL     OW14338   2.181   3.241   5.832
 4480SOL    HW114339   2.106   3.175   5.820
 4480SOL    HW214340   2.217   3.267   5.742
 4481SOL     OW14341   2.737   6.308   5.541
 4481SOL    HW114342   2.724   6.395   5.494
 4481SOL    HW214343   2.786   6.323   5.627
 4482SOL     OW14344   0.779   4.233   4.364
 4482SOL    HW114345   0.735   4.145   4.379
 4482SOL    HW214346   0.819   4.235   4.273
 4483SOL     OW14347   4.878   3.530   2.113
 4483SOL    HW114348   4.962   3.582   2.097
 4483SOL    HW214349   4.818   3.537   2.034
 4484SOL     OW14350   3.280   2.969   5.497
 4484SOL    HW114351   3.354   3.036   5.489
 4484SOL    HW214352   3.262   2.929   5.408
 4485SOL     OW14353   4.970   1.566   5.026
 4485SOL    HW114354   5.041   1.635   5.037
 4485SOL    HW214355   4.981   1.496   5.096
 4486SOL     OW14356   4.905   4.283   4.633
 4486SOL    HW114357   4.955   4.227   4.567
 4486SOL    HW214358   4.962   4.299   4.713
 4487SOL     OW14359   2.550   2.832   6.403
 4487SOL    HW114360   2.548   2.834   6.303
 4487SOL    HW214361   2.578   2.922   6.437
 4488SOL     OW14362   6.592   3.543   5.871
 4488SOL    HW114363   6.498   3.563   5.897
 4488SOL    HW214364   6.598   3.449   5.836
 4489SOL     OW14365   6.413   5.352   4.721
 4489SOL    HW114366   6.330   5.397   4.752
 4489SOL    HW214367   6.412   5.256   4.747
 4490SOL     OW14368   6.255   2.716   3.044
 4490SOL    HW114369   6.308   2.636   3.071
 4490SOL    HW214370   6.168   2.716   3.093
 4491SOL     OW14371   0.280   2.668   4.461
 4491SOL    HW114372   0.215   2.625   4.524
 4491SOL    HW214373   0.259   2.639   4.368
 4492SOL     OW14374   5.254   4.443   1.707
 4492SOL    HW114375   5.316   4.393   1.769
 4492SOL    HW214376   5.159   4.421   1.731
 4493SOL     OW14377   4.838   6.638   5.265
 4493SOL    HW114378   4.832   6.734   5.293
 4493SOL    HW214379   4.929   6.602   5.288
 4494SOL     OW14380   6.547   1.501   5.706
 4494SOL    HW114381   6.522   1.575   5.768
 4494SOL    HW214382   6.606   1.436   5.754
 4495SOL     OW14383   4.109   6.462   4.427
 4495SOL    HW114384   4.029   6.432   4.479
 4495SOL    HW214385   4.104   6.562   4.414
 4496SOL     OW14386   5.361   5.305   1.022
 4496SOL    HW114387   5.436   5.251   0.982
 4496SOL    HW214388   5.298   5.244   1.070
 4497SOL     OW14389   4.736   0.823   6.736
 4497SOL    HW114390   4.669   0.865   6.797
 4497SOL    HW214391   4.696   0.812   6.645
 4498SOL     OW14392   6.601   3.306   6.267
 4498SOL    HW114393   6.562   3.390   6.304
 4498SOL    HW214394   6.684   3.328   6.215
 4499SOL     OW14395   6.852   3.306   4.081
 4499SOL    HW114396   6.825   3.269   3.992
 4499SOL    HW214397   6.850   3.234   4.149
 4500SOL     OW14398   3.019   3.310   3.659
 4500SOL    HW114399   2.985   3.310   3.753
 4500SOL    HW214400   3.065   3.396   3.640
 4501SOL     OW14401   0.081   2.914   5.442
 4501SOL    HW114402   0.044   2.822   5.434
 4501SOL    HW214403   0.028   2.966   5.509
 4502SOL     OW14404   1.033   2.071   6.749
 4502SOL    HW114405   0.981   2.082   6.834
 4502SOL    HW214406   1.093   2.150   6.736
 4503SOL     OW14407   3.236   0.153   2.410
 4503SOL    HW114408   3.248   0.074   2.470
 4503SOL    HW214409   3.318   0.210   2.412
 4504SOL     OW14410   6.667   1.860   4.679
 4504SOL    HW114411   6.704   1.873   4.771
 4504SOL    HW214412   6.612   1.777   4.677
 4505SOL     OW14413   6.236   5.902   2.823
 4505SOL    HW114414   6.244   5.934   2.917
 4505SOL    HW214415   6.288   5.817   2.812
 4506SOL     OW14416   4.321   2.339   3.579
 4506SOL    HW114417   4.396   2.278   3.605
 4506SOL    HW214418   4.292   2.318   3.486
 4507SOL     OW14419   5.818   5.027   2.309
 4507SOL    HW114420   5.838   5.112   2.357
 4507SOL    HW214421   5.759   4.969   2.366
 4508SOL     OW14422   1.080   4.697   6.010
 4508SOL    HW114423   1.163   4.750   5.991
 4508SOL    HW214424   1.055   4.644   5.928
 4509SOL     OW14425   5.183   2.757   2.519
 4509SOL    HW114426   5.223   2.682   2.572
 4509SOL    HW214427   5.247   2.784   2.446
 4510SOL     OW14428   4.725   0.804   4.656
 4510SOL    HW114429   4.776   0.764   4.732
 4510SOL    HW214430   4.713   0.735   4.584
 4511SOL     OW14431   6.828   3.150   6.394
 4511SOL    HW114432   6.753   3.208   6.362
 4511SOL    HW214433   6.790   3.065   6.431
 4512SOL     OW14434   2.571   0.039   5.639
 4512SOL    HW114435   2.638   0.061   5.568
 4512SOL    HW214436   2.479   0.056   5.604
 4513SOL     OW14437   5.554   6.279   0.702
 4513SOL    HW114438   5.476   6.286   0.640
 4513SOL    HW214439   5.522   6.248   0.792
 4514SOL     OW14440   4.453   1.269   5.721
 4514SOL    HW114441   4.404   1.343   5.674
 4514SOL    HW214442   4.394   1.228   5.790
 4515SOL     OW14443   0.622   3.009   5.964
 4515SOL    HW114444   0.709   3.058   5.970
 4515SOL    HW214445   0.552   3.061   6.013
 4516SOL     OW14446   1.650   0.042   0.152
 4516SOL    HW114447   1.677   0.125   0.201
 4516SOL    HW214448   1.613   0.066   0.063
 4517SOL     OW14449   2.963   0.893   6.519
 4517SOL    HW114450   2.870   0.897   6.556
 4517SOL    HW214451   3.028   0.921   6.589
 4518SOL     OW14452   6.657   1.101   3.234
 4518SOL    HW114453   6.685   1.119   3.329
 4518SOL    HW214454   6.591   1.026   3.232
 4519SOL     OW14455   5.446   0.310   2.188
 4519SOL    HW114456   5.375   0.361   2.139
 4519SOL    HW214457   5.408   0.224   2.222
 4520SOL     OW14458   4.937   6.028   3.733
 4520SOL    HW114459   5.006   6.008   3.803
 4520SOL    HW214460   4.939   6.126   3.711
 4521SOL     OW14461   5.873   1.937   3.376
 4521SOL    HW114462   5.947   1.890   3.327
 4521SOL    HW214463   5.901   1.952   3.471
 4522SOL     OW14464   5.950   0.016   3.241
 4522SOL    HW114465   5.981   0.107   3.216
 4522SOL    HW214466   5.995   6.963   3.185
 4523SOL     OW14467   1.808   4.278   0.153
 4523SOL    HW114468   1.797   4.343   0.229
 4523SOL    HW214469   1.899   4.289   0.113
 4524SOL     OW14470   5.424   2.734   3.834
 4524SOL    HW114471   5.427   2.687   3.922
 4524SOL    HW214472   5.426   2.666   3.760
 4525SOL     OW14473   5.058   1.021   3.104
 4525SOL    HW114474   4.964   1.018   3.071
 4525SOL    HW214475   5.063   0.980   3.195
 4526SOL     OW14476   5.882   0.535   1.517
 4526SOL    HW114477   5.894   0.593   1.436
 4526SOL    HW214478   5.875   0.593   1.598
 4527SOL     OW14479   3.840   1.417   3.573
 4527SOL    HW114480   3.923   1.469   3.554
 4527SOL    HW214481   3.856   1.320   3.552
 4528SOL     OW14482   4.533   6.775   0.215
 4528SOL    HW114483   4.563   6.811   0.127
 4528SOL    HW214484   4.579   6.824   0.289
 4529SOL     OW14485   3.954   1.502   5.030
 4529SOL    HW114486   3.922   1.512   4.936
 4529SOL    HW214487   3.887   1.540   5.093
 4530SOL     OW14488   0.837   3.402   6.504
 4530SOL    HW114489   0.878   3.480   6.553
 4530SOL    HW214490   0.752   3.431   6.461
 4531SOL     OW14491   0.407   3.622   3.936
 4531SOL    HW114492   0.397   3.710   3.983
 4531SOL    HW214493   0.317   3.582   3.920
 4532SOL     OW14494   5.977   2.226   3.322
 4532SOL    HW114495   6.064   2.196   3.360
 4532SOL    HW214496   5.902   2.193   3.380
 4533SOL     OW14497   1.480   0.631   2.006
 4533SOL    HW114498   1.445   0.561   1.944
 4533SOL    HW214499   1.405   0.667   2.062
 4534SOL     OW14500   4.916   4.357   4.896
 4534SOL    HW114501   4.898   4.292   4.969
 4534SOL    HW214502   4.855   4.436   4.905
 4535SOL     OW14503   4.917   1.499   2.324
 4535SOL    HW114504   5.014   1.474   2.328
 4535SOL    HW214505   4.863   1.418   2.301
 4536SOL     OW14506   3.817   1.784   3.984
 4536SOL    HW114507   3.781   1.877   3.981
 4536SOL    HW214508   3.903   1.783   4.036
 4537SOL     OW14509   3.678   3.366   5.779
 4537SOL    HW114510   3.592   3.416   5.787
 4537SOL    HW214511   3.740   3.394   5.852
 4538SOL     OW14512   2.598   0.578   4.309
 4538SOL    HW114513   2.638   0.652   4.362
 4538SOL    HW214514   2.502   0.567   4.335
 4539SOL     OW14515   2.297   0.981   4.437
 4539SOL    HW114516   2.329   0.891   4.407
 4539SOL    HW214517   2.311   0.991   4.535
 4540SOL     OW14518   2.974   3.424   4.839
 4540SOL    HW114519   2.965   3.335   4.793
 4540SOL    HW214520   3.053   3.472   4.801
 4541SOL     OW14521   5.911   1.770   0.769
 4541SOL    HW114522   5.863   1.829   0.704
 4541SOL    HW214523   5.893   1.802   0.862
 4542SOL     OW14524   6.279   0.774   2.961
 4542SOL    HW114525   6.205   0.841   2.957
 4542SOL    HW214526   6.309   0.751   2.868
 4543SOL     OW14527   5.071   1.973   1.757
 4543SOL    HW114528   5.055   1.881   1.795
 4543SOL    HW214529   5.169   1.993   1.760
 4544SOL     OW14530   3.335   6.214   6.350
 4544SOL    HW114531   3.310   6.307   6.374
 4544SOL    HW214532   3.392   6.215   6.268
 4545SOL     OW14533   5.586   3.851   5.064
 4545SOL    HW114534   5.680   3.835   5.035
 4545SOL    HW214535   5.583   3.929   5.127
 4546SOL     OW14536   2.325   1.656   6.542
 4546SOL    HW114537   2.291   1.625   6.454
 4546SOL    HW214538   2.283   1.602   6.615
 4547SOL     OW14539   6.003   2.724   3.112
 4547SOL    HW114540   6.007   2.764   3.203
 4547SOL    HW214541   5.948   2.640   3.114
 4548SOL     OW14542   1.345   4.155   4.781
 4548SOL    HW114543   1.344   4.232   4.845
 4548SOL    HW214544   1.359   4.189   4.688
 4549SOL     OW14545   6.198   4.500   2.380
 4549SOL    HW114546   6.288   4.496   2.338
 4549SOL    HW214547   6.179   4.593   2.412
 4550SOL     OW14548   1.655   6.121   3.198
 4550SOL    HW114549   1.713   6.118   3.280
 4550SOL    HW214550   1.705   6.081   3.121
 4551SOL     OW14551   5.962   1.589   6.011
 4551SOL    HW114552   6.061   1.592   6.026
 4551SOL    HW214553   5.941   1.526   5.937
 4552SOL     OW14554   6.393   2.662   1.543
 4552SOL    HW114555   6.417   2.659   1.446
 4552SOL    HW214556   6.453   2.600   1.594
 4553SOL     OW14557   4.012   4.372   6.545
 4553SOL    HW114558   4.068   4.453   6.523
 4553SOL    HW214559   3.941   4.398   6.610
 4554SOL     OW14560   4.731   0.308   1.330
 4554SOL    HW114561   4.824   0.327   1.362
 4554SOL    HW214562   4.694   0.390   1.287
 4555SOL     OW14563   3.375   1.364   5.903
 4555SOL    HW114564   3.384   1.388   5.806
 4555SOL    HW214565   3.374   1.264   5.912
 4556SOL     OW14566   4.524   2.554   3.990
 4556SOL    HW114567   4.577   2.580   3.910
 4556SOL    HW214568   4.546   2.460   4.016
 4557SOL     OW14569   4.502   6.791   4.615
 4557SOL    HW114570   4.477   6.795   4.711
 4557SOL    HW214571   4.588   6.741   4.605
 4558SOL     OW14572   0.433   3.483   5.550
 4558SOL    HW114573   0.396   3.576   5.550
 4558SOL    HW214574   0.516   3.480   5.605
 4559SOL     OW14575   1.102   4.055   1.293
 4559SOL    HW114576   1.137   3.986   1.356
 4559SOL    HW214577   1.072   4.010   1.208
 4560SOL     OW14578   5.346   5.131   2.737
 4560SOL    HW114579   5.295   5.159   2.818
 4560SOL    HW214580   5.421   5.194   2.721
 4561SOL     OW14581   2.441   0.552   1.394
 4561SOL    HW114582   2.465   0.563   1.298
 4561SOL    HW214583   2.439   0.642   1.438
 4562SOL     OW14584   3.421   6.209   5.058
 4562SOL    HW114585   3.367   6.233   5.138
 4562SOL    HW214586   3.488   6.139   5.081
 4563SOL     OW14587   0.978   4.212   0.977
 4563SOL    HW114588   0.950   4.277   1.046
 4563SOL    HW214589   0.908   4.142   0.966
 4564SOL     OW14590   0.117   6.979   0.996
 4564SOL    HW114591   0.048   7.002   0.927
 4564SOL    HW214592   0.206   6.969   0.952
 4565SOL     OW14593   6.853   1.055   5.703
 4565SOL    HW114594   6.902   1.108   5.772
 4565SOL    HW214595   6.902   0.969   5.686
 4566SOL     OW14596   6.657   1.490   0.357
 4566SOL    HW114597   6.573   1.493   0.303
 4566SOL    HW214598   6.655   1.562   0.426
 4567SOL     OW14599   6.955   0.654   0.349
 4567SOL    HW114600   6.891   0.703   0.408
 4567SOL    HW214601   6.956   0.698   0.259
 4568SOL     OW14602   1.459   4.305   5.427
 4568SOL    HW114603   1.557   4.306   5.404
 4568SOL    HW214604   1.411   4.248   5.361
 4569SOL     OW14605   1.772   1.016   3.218
 4569SOL    HW114606   1.863   1.009   3.260
 4569SOL    HW214607   1.779   1.067   3.133
 4570SOL     OW14608   1.159   6.518   3.151
 4570SOL    HW114609   1.173   6.453   3.226
 4570SOL    HW214610   1.247   6.542   3.110
 4571SOL     OW14611   3.633   3.098   6.074
 4571SOL    HW114612   3.554   3.134   6.024
 4571SOL    HW214613   3.700   3.064   6.009
 4572SOL     OW14614   1.198   6.543   0.222
 4572SOL    HW114615   1.237   6.456   0.192
 4572SOL    HW214616   1.139   6.528   0.302
 4573SOL     OW14617   6.727   6.300   0.332
 4573SOL    HW114618   6.684   6.237   0.267
 4573SOL    HW214619   6.663   6.317   0.407
 4574SOL     OW14620   6.582   3.799   1.340
 4574SOL    HW114621   6.542   3.878   1.293
 4574SOL    HW214622   6.516   3.762   1.405
 4575SOL     OW14623   5.828   2.167   6.137
 4575SOL    HW114624   5.903   2.196   6.078
 4575SOL    HW214625   5.759   2.119   6.082
 4576SOL     OW14626   2.202   5.710   6.889
 4576SOL    HW114627   2.259   5.792   6.889
 4576SOL    HW214628   2.134   5.717   6.816
 4577SOL     OW14629   1.106   2.060   4.268
 4577SOL    HW114630   1.187   2.003   4.284
 4577SOL    HW214631   1.123   2.152   4.302
 4578SOL     OW14632   0.728   3.521   4.278
 4578SOL    HW114633   0.668   3.468   4.339
 4578SOL    HW214634   0.821   3.485   4.283
 4579SOL     OW14635   4.837   2.175   3.262
 4579SOL    HW114636   4.858   2.163   3.165
 4579SOL    HW214637   4.772   2.251   3.273
 4580SOL     OW14638   4.758   5.000   6.860
 4580SOL    HW114639   4.848   4.976   6.896
 4580SOL    HW214640   4.729   5.088   6.898
 4581SOL     OW14641   3.106   4.936   3.099
 4581SOL    HW114642   3.073   5.018   3.052
 4581SOL    HW214643   3.053   4.922   3.182
 4582SOL     OW14644   5.638   6.509   4.624
 4582SOL    HW114645   5.671   6.414   4.622
 4582SOL    HW214646   5.600   6.529   4.714
 4583SOL     OW14647   2.904   1.974   5.578
 4583SOL    HW114648   2.873   1.903   5.514
 4583SOL    HW214649   2.849   2.056   5.566
 4584SOL     OW14650   0.477   5.214   5.958
 4584SOL    HW114651   0.489   5.311   5.937
 4584SOL    HW214652   0.543   5.188   6.029
 4585SOL     OW14653   2.710   6.510   3.466
 4585SOL    HW114654   2.792   6.491   3.521
 4585SOL    HW214655   2.687   6.607   3.473
 4586SOL     OW14656   3.796   4.883   0.228
 4586SOL    HW114657   3.770   4.894   0.324
 4586SOL    HW214658   3.757   4.958   0.174
 4587SOL     OW14659   4.032   3.952   1.869
 4587SOL    HW114660   3.951   4.006   1.846
 4587SOL    HW214661   4.049   3.958   1.968
 4588SOL     OW14662   3.917   4.051   5.508
 4588SOL    HW114663   3.935   3.987   5.583
 4588SOL    HW214664   3.834   4.103   5.529
 4589SOL     OW14665   5.443   1.157   2.706
 4589SOL    HW114666   5.362   1.206   2.737
 4589SOL    HW214667   5.433   1.133   2.609
 4590SOL     OW14668   4.590   5.633   0.140
 4590SOL    HW114669   4.518   5.702   0.142
 4590SOL    HW214670   4.549   5.544   0.120
 4591SOL     OW14671   0.833   6.175   4.467
 4591SOL    HW114672   0.781   6.241   4.520
 4591SOL    HW214673   0.773   6.128   4.403
 4592SOL     OW14674   3.371   1.629   1.791
 4592SOL    HW114675   3.410   1.573   1.718
 4592SOL    HW214676   3.327   1.709   1.751
 4593SOL     OW14677   4.288   5.589   3.636
 4593SOL    HW114678   4.216   5.605   3.568
 4593SOL    HW214679   4.370   5.639   3.611
 4594SOL     OW14680   2.979   0.433   1.889
 4594SOL    HW114681   2.961   0.521   1.933
 4594SOL    HW214682   2.995   0.363   1.958
 4595SOL     OW14683   3.615   2.207   6.018
 4595SOL    HW114684   3.695   2.209   6.079
 4595SOL    HW214685   3.558   2.288   6.034
 4596SOL     OW14686   5.854   6.445   3.058
 4596SOL    HW114687   5.934   6.501   3.036
 4596SOL    HW214688   5.773   6.503   3.064
 4597SOL     OW14689   4.605   4.356   6.593
 4597SOL    HW114690   4.682   4.399   6.546
 4597SOL    HW214691   4.536   4.329   6.525
 4598SOL     OW14692   2.213   5.359   0.232
 4598SOL    HW114693   2.153   5.396   0.161
 4598SOL    HW214694   2.279   5.428   0.259
 4599SOL     OW14695   1.293   5.128   0.213
 4599SOL    HW114696   1.361   5.063   0.248
 4599SOL    HW214697   1.207   5.117   0.263
 4600SOL     OW14698   0.963   4.671   5.222
 4600SOL    HW114699   0.995   4.593   5.168
 4600SOL    HW214700   0.877   4.705   5.184
 4601SOL     OW14701   1.406   6.842   5.670
 4601SOL    HW114702   1.425   6.938   5.692
 4601SOL    HW214703   1.486   6.802   5.625
 4602SOL     OW14704   1.082   5.602   1.784
 4602SOL    HW114705   1.134   5.543   1.723
 4602SOL    HW214706   1.143   5.672   1.823
 4603SOL     OW14707   3.182   6.252   1.016
 4603SOL    HW114708   3.102   6.225   1.069
 4603SOL    HW214709   3.208   6.346   1.040
 4604SOL     OW14710   4.616   0.160   1.772
 4604SOL    HW114711   4.640   0.136   1.678
 4604SOL    HW214712   4.520   0.187   1.777
 4605SOL     OW14713   3.168   1.026   3.511
 4605SOL    HW114714   3.265   1.046   3.522
 4605SOL    HW214715   3.150   0.997   3.417
 4606SOL     OW14716   0.818   0.234   1.569
 4606SOL    HW114717   0.874   0.163   1.526
 4606SOL    HW214718   0.761   0.277   1.499
 4607SOL     OW14719   2.398   2.428   0.942
 4607SOL    HW114720   2.369   2.446   1.036
 4607SOL    HW214721   2.486   2.473   0.926
 4608SOL     OW14722   1.295   5.980   3.742
 4608SOL    HW114723   1.258   6.024   3.660
 4608SOL    HW214724   1.290   6.043   3.819
 4609SOL     OW14725   4.793   4.769   5.948
 4609SOL    HW114726   4.792   4.868   5.957
 4609SOL    HW214727   4.857   4.730   6.014
 4610SOL     OW14728   5.073   2.457   0.842
 4610SOL    HW114729   5.054   2.519   0.766
 4610SOL    HW214730   5.169   2.431   0.841
 4611SOL     OW14731   0.059   6.196   6.011
 4611SOL    HW114732   7.010   6.263   5.976
 4611SOL    HW214733   0.018   6.147   6.088
 4612SOL     OW14734   0.844   5.574   0.307
 4612SOL    HW114735   0.767   5.515   0.329
 4612SOL    HW214736   0.928   5.520   0.307
 4613SOL     OW14737   2.307   5.686   2.475
 4613SOL    HW114738   2.231   5.719   2.419
 4613SOL    HW214739   2.288   5.703   2.571
 4614SOL     OW14740   0.073   3.802   4.478
 4614SOL    HW114741   6.999   3.796   4.522
 4614SOL    HW214742   0.140   3.840   4.542
 4615SOL     OW14743   2.057   0.989   0.119
 4615SOL    HW114744   1.963   0.988   0.151
 4615SOL    HW214745   2.113   1.041   0.184
 4616SOL     OW14746   6.069   0.824   5.668
 4616SOL    HW114747   6.162   0.788   5.654
 4616SOL    HW214748   6.047   0.888   5.595
 4617SOL     OW14749   0.767   2.912   1.800
 4617SOL    HW114750   0.740   2.824   1.840
 4617SOL    HW214751   0.865   2.926   1.816
 4618SOL     OW14752   2.192   2.724   5.431
 4618SOL    HW114753   2.203   2.809   5.380
 4618SOL    HW214754   2.148   2.743   5.518
 4619SOL     OW14755   3.189   5.940   3.083
 4619SOL    HW114756   3.126   5.965   3.009
 4619SOL    HW214757   3.267   6.003   3.082
 4620SOL     OW14758   3.049   4.833   0.362
 4620SOL    HW114759   3.138   4.871   0.337
 4620SOL    HW214760   2.976   4.890   0.323
 4621SOL     OW14761   4.714   1.484   2.606
 4621SOL    HW114762   4.754   1.495   2.515
 4621SOL    HW214763   4.787   1.464   2.672
 4622SOL     OW14764   2.435   4.269   0.345
 4622SOL    HW114765   2.492   4.195   0.381
 4622SOL    HW214766   2.493   4.346   0.318
 4623SOL     OW14767   6.423   6.116   0.844
 4623SOL    HW114768   6.472   6.151   0.923
 4623SOL    HW214769   6.412   6.188   0.776
 4624SOL     OW14770   5.419   0.360   3.067
 4624SOL    HW114771   5.452   0.455   3.067
 4624SOL    HW214772   5.400   0.332   3.161
 4625SOL     OW14773   1.407   4.015   0.318
 4625SOL    HW114774   1.440   4.106   0.344
 4625SOL    HW214775   1.468   3.976   0.248
 4626SOL     OW14776   5.943   5.769   2.395
 4626SOL    HW114777   6.027   5.772   2.340
 4626SOL    HW214778   5.925   5.674   2.423
 4627SOL     OW14779   2.925   5.128   3.970
 4627SOL    HW114780   2.873   5.137   3.885
 4627SOL    HW214781   2.922   5.213   4.021
 4628SOL     OW14782   5.756   3.927   4.262
 4628SOL    HW114783   5.659   3.908   4.244
 4628SOL    HW214784   5.790   3.992   4.195
 4629SOL     OW14785   2.281   5.201   5.643
 4629SOL    HW114786   2.192   5.160   5.661
 4629SOL    HW214787   2.285   5.232   5.548
 4630SOL     OW14788   3.871   5.541   2.201
 4630SOL    HW114789   3.783   5.583   2.223
 4630SOL    HW214790   3.928   5.540   2.283
 4631SOL     OW14791   2.308   6.636   3.484
 4631SOL    HW114792   2.320   6.599   3.392
 4631SOL    HW214793   2.222   6.687   3.488
 4632SOL     OW14794   3.694   5.206   2.679
 4632SOL    HW114795   3.674   5.108   2.674
 4632SOL    HW214796   3.678   5.248   2.590
 4633SOL     OW14797   5.503   1.263   3.811
 4633SOL    HW114798   5.556   1.180   3.796
 4633SOL    HW214799   5.431   1.245   3.878
 4634SOL     OW14800   2.601   4.996   6.200
 4634SOL    HW114801   2.528   5.002   6.132
 4634SOL    HW214802   2.571   4.938   6.276
 4635SOL     OW14803   5.522   4.069   1.452
 4635SOL    HW114804   5.600   4.009   1.434
 4635SOL    HW214805   5.441   4.015   1.473
 4636SOL     OW14806   2.058   4.610   0.145
 4636SOL    HW114807   2.139   4.622   0.202
 4636SOL    HW214808   2.038   4.512   0.136
 4637SOL     OW14809   0.945   0.278   6.860
 4637SOL    HW114810   1.015   0.347   6.877
 4637SOL    HW214811   0.863   0.300   6.914
 4638SOL     OW14812   5.043   3.160   0.519
 4638SOL    HW114813   5.108   3.134   0.447
 4638SOL    HW214814   5.002   3.078   0.558
 4639SOL     OW14815   2.359   4.418   5.023
 4639SOL    HW114816   2.434   4.448   5.082
 4639SOL    HW214817   2.274   4.458   5.055
 4640SOL     OW14818   4.929   4.862   3.344
 4640SOL    HW114819   4.996   4.889   3.275
 4640SOL    HW214820   4.878   4.943   3.374
 4641SOL     OW14821   2.576   6.338   5.035
 4641SOL    HW114822   2.570   6.276   4.957
 4641SOL    HW214823   2.595   6.431   5.001
 4642SOL     OW14824   0.172   5.734   4.236
 4642SOL    HW114825   0.099   5.666   4.227
 4642SOL    HW214826   0.133   5.821   4.269
 4643SOL     OW14827   5.902   2.778   1.296
 4643SOL    HW114828   5.886   2.866   1.342
 4643SOL    HW214829   5.926   2.709   1.364
 4644SOL     OW14830   0.500   4.391   5.178
 4644SOL    HW114831   0.568   4.427   5.114
 4644SOL    HW214832   0.409   4.422   5.150
 4645SOL     OW14833   0.963   1.464   4.701
 4645SOL    HW114834   0.969   1.522   4.620
 4645SOL    HW214835   0.916   1.379   4.678
 4646SOL     OW14836   2.418   5.778   3.767
 4646SOL    HW114837   2.410   5.684   3.802
 4646SOL    HW214838   2.509   5.813   3.788
 4647SOL     OW14839   1.588   1.213   3.866
 4647SOL    HW114840   1.670   1.169   3.828
 4647SOL    HW214841   1.599   1.223   3.965
 4648SOL     OW14842   4.312   0.894   2.043
 4648SOL    HW114843   4.232   0.945   2.075
 4648SOL    HW214844   4.395   0.944   2.066
 4649SOL     OW14845   5.561   0.672   6.358
 4649SOL    HW114846   5.580   0.635   6.449
 4649SOL    HW214847   5.467   0.650   6.332
 4650SOL     OW14848   4.932   5.495   3.715
 4650SOL    HW114849   4.941   5.429   3.790
 4650SOL    HW214850   4.836   5.523   3.706
 4651SOL     OW14851   6.781   1.370   1.090
 4651SOL    HW114852   6.792   1.271   1.097
 4651SOL    HW214853   6.817   1.402   1.002
 4652SOL     OW14854   0.317   0.154   4.238
 4652SOL    HW114855   0.335   0.210   4.157
 4652SOL    HW214856   0.404   0.118   4.273
 4653SOL     OW14857   6.008   4.983   6.878
 4653SOL    HW114858   5.923   4.936   6.900
 4653SOL    HW214859   6.078   4.916   6.855
 4654SOL     OW14860   0.616   6.291   0.290
 4654SOL    HW114861   0.535   6.310   0.235
 4654SOL    HW214862   0.662   6.377   0.313
 4655SOL     OW14863   6.491   5.110   1.750
 4655SOL    HW114864   6.473   5.111   1.848
 4655SOL    HW214865   6.414   5.154   1.702
 4656SOL     OW14866   1.085   0.432   3.841
 4656SOL    HW114867   1.149   0.399   3.910
 4656SOL    HW214868   1.107   0.390   3.753
 4657SOL     OW14869   5.426   6.185   1.526
 4657SOL    HW114870   5.395   6.281   1.526
 4657SOL    HW214871   5.355   6.128   1.567
 4658SOL     OW14872   4.220   1.561   2.789
 4658SOL    HW114873   4.219   1.495   2.715
 4658SOL    HW214874   4.127   1.573   2.824
 4659SOL     OW14875   3.100   4.419   5.329
 4659SOL    HW114876   3.044   4.415   5.246
 4659SOL    HW214877   3.107   4.328   5.369
 4660SOL     OW14878   1.103   3.621   5.385
 4660SOL    HW114879   1.063   3.687   5.448
 4660SOL    HW214880   1.116   3.664   5.295
 4661SOL     OW14881   3.422   3.899   6.040
 4661SOL    HW114882   3.487   3.975   6.025
 4661SOL    HW214883   3.449   3.849   6.122
 4662SOL     OW14884   3.868   6.765   4.863
 4662SOL    HW114885   3.776   6.757   4.825
 4662SOL    HW214886   3.935   6.733   4.796
 4663SOL     OW14887   0.229   1.507   2.958
 4663SOL    HW114888   0.154   1.509   3.025
 4663SOL    HW214889   0.295   1.436   2.984
 4664SOL     OW14890   1.659   1.396   0.468
 4664SOL    HW114891   1.658   1.358   0.376
 4664SOL    HW214892   1.652   1.496   0.463
 4665SOL     OW14893   3.328   6.942   0.265
 4665SOL    HW114894   3.280   6.931   0.352
 4665SOL    HW214895   3.425   6.925   0.278
 4666SOL     OW14896   1.428   2.122   1.143
 4666SOL    HW114897   1.447   2.027   1.116
 4666SOL    HW214898   1.513   2.165   1.173
 4667SOL     OW14899   6.245   4.228   1.953
 4667SOL    HW114900   6.247   4.242   1.854
 4667SOL    HW214901   6.225   4.315   1.998
 4668SOL     OW14902   5.220   1.800   3.233
 4668SOL    HW114903   5.240   1.848   3.319
 4668SOL    HW214904   5.269   1.713   3.231
 4669SOL     OW14905   4.524   6.608   6.553
 4669SOL    HW114906   4.513   6.592   6.651
 4669SOL    HW214907   4.563   6.699   6.538
 4670SOL     OW14908   3.038   2.288   5.360
 4670SOL    HW114909   3.093   2.321   5.283
 4670SOL    HW214910   3.093   2.224   5.414
 4671SOL     OW14911   6.520   2.439   2.313
 4671SOL    HW114912   6.606   2.459   2.360
 4671SOL    HW214913   6.511   2.340   2.302
 4672SOL     OW14914   2.629   4.061   6.077
 4672SOL    HW114915   2.721   4.097   6.091
 4672SOL    HW214916   2.565   4.137   6.062
 4673SOL     OW14917   5.072   6.752   1.515
 4673SOL    HW114918   4.997   6.689   1.534
 4673SOL    HW214919   5.042   6.820   1.448
 4674SOL     OW14920   5.009   6.940   6.399
 4674SOL    HW114921   4.993   0.023   6.392
 4674SOL    HW214922   4.923   6.891   6.385
 4675SOL     OW14923   0.132   1.772   6.332
 4675SOL    HW114924   0.038   1.738   6.333
 4675SOL    HW214925   0.178   1.738   6.250
 4676SOL     OW14926   6.892   6.248   3.817
 4676SOL    HW114927   6.820   6.296   3.867
 4676SOL    HW214928   6.958   6.314   3.781
 4677SOL     OW14929   2.759   1.176   0.159
 4677SOL    HW114930   2.681   1.192   0.220
 4677SOL    HW214931   2.732   1.112   0.087
 4678SOL     OW14932   1.746   4.664   2.992
 4678SOL    HW114933   1.655   4.624   2.995
 4678SOL    HW214934   1.803   4.623   3.063
 4679SOL     OW14935   3.489   0.332   1.309
 4679SOL    HW114936   3.458   0.244   1.275
 4679SOL    HW214937   3.566   0.319   1.372
 4680SOL     OW14938   3.388   1.689   6.809
 4680SOL    HW114939   3.436   1.760   6.757
 4680SOL    HW214940   3.326   1.639   6.749
 4681SOL     OW14941   5.755   4.870   6.952
 4681SOL    HW114942   5.705   4.784   6.950
 4681SOL    HW214943   5.691   4.946   6.940
 4682SOL     OW14944   4.895   4.665   5.238
 4682SOL    HW114945   4.927   4.730   5.169
 4682SOL    HW214946   4.804   4.631   5.213
 4683SOL     OW14947   5.067   5.219   2.437
 4683SOL    HW114948   5.116   5.257   2.358
 4683SOL    HW214949   5.021   5.294   2.485
 4684SOL     OW14950   5.709   0.623   5.083
 4684SOL    HW114951   5.660   0.708   5.104
 4684SOL    HW214952   5.766   0.596   5.160
 4685SOL     OW14953   1.677   5.163   5.566
 4685SOL    HW114954   1.705   5.158   5.662
 4685SOL    HW214955   1.697   5.077   5.520
 4686SOL     OW14956   4.839   5.402   6.558
 4686SOL    HW114957   4.838   5.361   6.649
 4686SOL    HW214958   4.928   5.384   6.515
 4687SOL     OW14959   5.081   3.503   4.353
 4687SOL    HW114960   5.024   3.516   4.434
 4687SOL    HW214961   5.023   3.502   4.271
 4688SOL     OW14962   5.894   4.144   5.373
 4688SOL    HW114963   5.968   4.096   5.420
 4688SOL    HW214964   5.932   4.222   5.322
 4689SOL     OW14965   4.674   1.123   0.211
 4689SOL    HW114966   4.643   1.171   0.128
 4689SOL    HW214967   4.748   1.061   0.187
 4690SOL     OW14968   0.742   0.482   0.243
 4690SOL    HW114969   0.735   0.573   0.283
 4690SOL    HW214970   0.734   0.413   0.315
 4691SOL     OW14971   3.099   4.384   0.984
 4691SOL    HW114972   3.032   4.379   0.910
 4691SOL    HW214973   3.191   4.390   0.946
 4692SOL     OW14974   5.694   5.541   2.254
 4692SOL    HW114975   5.613   5.598   2.271
 4692SOL    HW214976   5.672   5.471   2.187
 4693SOL     OW14977   1.286   1.786   3.097
 4693SOL    HW114978   1.309   1.840   3.178
 4693SOL    HW214979   1.370   1.760   3.049
 4694SOL     OW14980   2.272   1.155   0.028
 4694SOL    HW114981   2.275   1.248   7.007
 4694SOL    HW214982   2.253   1.158   0.126
 4695SOL     OW14983   1.423   4.354   2.130
 4695SOL    HW114984   1.495   4.420   2.154
 4695SOL    HW214985   1.453   4.298   2.053
 4696SOL     OW14986   0.287   3.802   0.272
 4696SOL    HW114987   0.279   3.852   0.185
 4696SOL    HW214988   0.304   3.705   0.253
 4697SOL     OW14989   1.583   3.951   1.463
 4697SOL    HW114990   1.678   3.982   1.474
 4697SOL    HW214991   1.554   3.903   1.546
 4698SOL     OW14992   4.383   5.807   2.625
 4698SOL    HW114993   4.389   5.708   2.637
 4698SOL    HW214994   4.344   5.848   2.707
 4699SOL     OW14995   1.260   6.471   2.473
 4699SOL    HW114996   1.289   6.432   2.386
 4699SOL    HW214997   1.160   6.470   2.478
 4700SOL     OW14998   6.832   0.833   2.951
 4700SOL    HW114999   6.826   0.741   2.990
 4700SOL    HW215000   6.918   0.843   2.901
 4701SOL     OW15001   3.045   2.173   0.604
 4701SOL    HW115002   3.113   2.227   0.654
 4701SOL    HW215003   2.997   2.232   0.539
 4702SOL     OW15004   4.924   4.924   0.288
 4702SOL    HW115005   5.008   4.899   0.238
 4702SOL    HW215006   4.931   5.019   0.318
 4703SOL     OW15007   0.100   0.948   2.466
 4703SOL    HW115008   0.095   0.864   2.519
 4703SOL    HW215009   0.075   0.929   2.371
 4704SOL     OW15010   6.444   6.574   6.254
 4704SOL    HW115011   6.485   6.640   6.191
 4704SOL    HW215012   6.470   6.481   6.227
 4705SOL     OW15013   3.928   2.676   1.053
 4705SOL    HW115014   3.944   2.584   1.018
 4705SOL    HW215015   3.833   2.685   1.083
 4706SOL     OW15016   2.533   0.423   0.462
 4706SOL    HW115017   2.610   0.482   0.437
 4706SOL    HW215018   2.461   0.478   0.505
 4707SOL     OW15019   1.083   0.142   0.186
 4707SOL    HW115020   0.992   0.174   0.159
 4707SOL    HW215021   1.142   0.136   0.106
 4708SOL     OW15022   1.374   2.594   6.250
 4708SOL    HW115023   1.386   2.514   6.308
 4708SOL    HW215024   1.410   2.575   6.159
 4709SOL     OW15025   4.265   5.666   5.398
 4709SOL    HW115026   4.287   5.642   5.303
 4709SOL    HW215027   4.167   5.653   5.414
 4710SOL     OW15028   4.618   0.410   5.738
 4710SOL    HW115029   4.680   0.487   5.756
 4710SOL    HW215030   4.602   0.403   5.640
 4711SOL     OW15031   6.045   1.283   1.500
 4711SOL    HW115032   5.965   1.228   1.475
 4711SOL    HW215033   6.111   1.282   1.425
 4712SOL     OW15034   2.802   5.327   6.475
 4712SOL    HW115035   2.879   5.300   6.418
 4712SOL    HW215036   2.716   5.304   6.428
 4713SOL     OW15037   3.577   4.600   1.114
 4713SOL    HW115038   3.667   4.635   1.085
 4713SOL    HW215039   3.573   4.502   1.098
 4714SOL     OW15040   0.817   1.614   6.090
 4714SOL    HW115041   0.841   1.667   6.008
 4714SOL    HW215042   0.831   1.670   6.171
 4715SOL     OW15043   5.636   3.517   2.341
 4715SOL    HW115044   5.733   3.494   2.342
 4715SOL    HW215045   5.583   3.436   2.316
 4716SOL     OW15046   4.562   6.698   6.086
 4716SOL    HW115047   4.629   6.648   6.031
 4716SOL    HW215048   4.521   6.636   6.152
 4717SOL     OW15049   0.644   6.002   3.796
 4717SOL    HW115050   0.615   5.922   3.849
 4717SOL    HW215051   0.575   6.024   3.728
 4718SOL     OW15052   6.191   2.197   1.192
 4718SOL    HW115053   6.166   2.219   1.098
 4718SOL    HW215054   6.241   2.275   1.232
 4719SOL     OW15055   4.634   3.138   1.593
 4719SOL    HW115056   4.623   3.103   1.685
 4719SOL    HW215057   4.727   3.119   1.560
 4720SOL     OW15058   1.916   5.202   6.254
 4720SOL    HW115059   1.946   5.245   6.169
 4720SOL    HW215060   1.833   5.148   6.237
 4721SOL     OW15061   6.684   1.666   2.386
 4721SOL    HW115062   6.685   1.574   2.426
 4721SOL    HW215063   6.608   1.673   2.321
 4722SOL     OW15064   1.166   6.161   6.796
 4722SOL    HW115065   1.191   6.176   6.700
 4722SOL    HW215066   1.210   6.077   6.829
 4723SOL     OW15067   2.603   3.306   5.922
 4723SOL    HW115068   2.571   3.214   5.946
 4723SOL    HW215069   2.649   3.347   6.001
 4724SOL     OW15070   6.148   6.948   3.656
 4724SOL    HW115071   6.059   6.935   3.700
 4724SOL    HW215072   6.167   6.871   3.595
 4725SOL     OW15073   6.835   4.853   1.129
 4725SOL    HW115074   6.825   4.788   1.205
 4725SOL    HW215075   6.790   4.816   1.048
 4726SOL     OW15076   1.273   3.282   6.167
 4726SOL    HW115077   1.257   3.368   6.217
 4726SOL    HW215078   1.348   3.295   6.103
 4727SOL     OW15079   1.058   6.406   1.457
 4727SOL    HW115080   0.958   6.411   1.455
 4727SOL    HW215081   1.093   6.406   1.363
 4728SOL     OW15082   5.770   1.530   1.516
 4728SOL    HW115083   5.799   1.482   1.433
 4728SOL    HW215084   5.731   1.466   1.581
 4729SOL     OW15085   4.320   1.492   0.634
 4729SOL    HW115086   4.401   1.531   0.679
 4729SOL    HW215087   4.280   1.560   0.573
 4730SOL     OW15088   3.266   5.938   5.223
 4730SOL    HW115089   3.286   5.877   5.147
 4730SOL    HW215090   3.200   5.895   5.285
 4731SOL     OW15091   2.920   0.327   0.113
 4731SOL    HW115092   2.861   0.402   0.084
 4731SOL    HW215093   3.003   0.364   0.155
 4732SOL     OW15094   1.326   4.138   5.190
 4732SOL    HW115095   1.280   4.221   5.158
 4732SOL    HW215096   1.408   4.121   5.135
 4733SOL     OW15097   1.591   4.326   3.550
 4733SOL    HW115098   1.679   4.302   3.509
 4733SOL    HW215099   1.580   4.426   3.550
 4734SOL     OW15100   4.769   3.478   0.120
 4734SOL    HW115101   4.853   3.428   0.097
 4734SOL    HW215102   4.690   3.421   0.099
 4735SOL     OW15103   0.263   5.280   4.847
 4735SOL    HW115104   0.222   5.354   4.900
 4735SOL    HW215105   0.225   5.193   4.877
 4736SOL     OW15106   5.959   1.897   5.730
 4736SOL    HW115107   5.957   1.869   5.826
 4736SOL    HW215108   6.052   1.923   5.704
 4737SOL     OW15109   3.015   4.194   1.672
 4737SOL    HW115110   2.994   4.275   1.727
 4737SOL    HW215111   2.931   4.150   1.642
 4738SOL     OW15112   2.008   6.262   2.995
 4738SOL    HW115113   2.048   6.186   3.046
 4738SOL    HW215114   2.069   6.341   2.998
 4739SOL     OW15115   4.900   1.494   2.835
 4739SOL    HW115116   4.891   1.506   2.934
 4739SOL    HW215117   4.941   1.576   2.795
 4740SOL     OW15118   0.274   2.063   0.826
 4740SOL    HW115119   0.348   1.999   0.805
 4740SOL    HW215120   0.248   2.056   0.922
 4741SOL     OW15121   5.532   4.029   0.634
 4741SOL    HW115122   5.606   4.087   0.668
 4741SOL    HW215123   5.560   3.933   0.641
 4742SOL     OW15124   3.306   6.818   6.758
 4742SOL    HW115125   3.219   6.823   6.710
 4742SOL    HW215126   3.367   6.889   6.723
 4743SOL     OW15127   1.763   3.463   5.100
 4743SOL    HW115128   1.805   3.411   5.174
 4743SOL    HW215129   1.827   3.470   5.024
 4744SOL     OW15130   2.558   3.945   6.304
 4744SOL    HW115131   2.503   3.865   6.281
 4744SOL    HW215132   2.592   3.988   6.220
 4745SOL     OW15133   3.394   5.315   6.032
 4745SOL    HW115134   3.390   5.216   6.021
 4745SOL    HW215135   3.323   5.345   6.095
 4746SOL     OW15136   5.485   6.267   2.313
 4746SOL    HW115137   5.456   6.231   2.402
 4746SOL    HW215138   5.579   6.238   2.295
 4747SOL     OW15139   1.863   3.936   6.042
 4747SOL    HW115140   1.879   4.035   6.046
 4747SOL    HW215141   1.849   3.901   6.134
 4748SOL     OW15142   0.970   4.793   0.741
 4748SOL    HW115143   0.971   4.727   0.666
 4748SOL    HW215144   1.049   4.854   0.733
 4749SOL     OW15145   2.969   6.376   5.320
 4749SOL    HW115146   2.963   6.474   5.342
 4749SOL    HW215147   2.996   6.325   5.401
 4750SOL     OW15148   0.383   3.640   3.658
 4750SOL    HW115149   0.284   3.637   3.647
 4750SOL    HW215150   0.408   3.614   3.751
 4751SOL     OW15151   3.090   2.426   1.219
 4751SOL    HW115152   3.000   2.464   1.242
 4751SOL    HW215153   3.151   2.437   1.297
 4752SOL     OW15154   3.683   0.513   6.925
 4752SOL    HW115155   3.706   0.541   6.832
 4752SOL    HW215156   3.690   0.413   6.932
 4753SOL     OW15157   5.262   0.145   3.501
 4753SOL    HW115158   5.317   0.073   3.543
 4753SOL    HW215159   5.181   0.104   3.458
 4754SOL     OW15160   6.002   6.922   4.646
 4754SOL    HW115161   5.947   6.929   4.562
 4754SOL    HW215162   5.994   7.008   4.697
 4755SOL     OW15163   2.297   0.554   0.894
 4755SOL    HW115164   2.321   0.643   0.932
 4755SOL    HW215165   2.368   0.487   0.915
 4756SOL     OW15166   6.226   3.614   1.231
 4756SOL    HW115167   6.216   3.582   1.137
 4756SOL    HW215168   6.272   3.544   1.285
 4757SOL     OW15169   2.441   2.070   0.559
 4757SOL    HW115170   2.517   2.073   0.624
 4757SOL    HW215171   2.388   1.987   0.572
 4758SOL     OW15172   2.365   6.687   4.502
 4758SOL    HW115173   2.419   6.604   4.488
 4758SOL    HW215174   2.282   6.682   4.446
 4759SOL     OW15175   5.482   4.869   4.860
 4759SOL    HW115176   5.417   4.890   4.933
 4759SOL    HW215177   5.469   4.774   4.830
 4760SOL     OW15178   3.299   2.024   0.202
 4760SOL    HW115179   3.269   2.007   0.296
 4760SOL    HW215180   3.317   1.937   0.157
 4761SOL     OW15181   0.667   6.028   0.225
 4761SOL    HW115182   0.594   5.969   0.257
 4761SOL    HW215183   0.661   6.117   0.271
 4762SOL     OW15184   1.492   5.565   2.810
 4762SOL    HW115185   1.401   5.582   2.847
 4762SOL    HW215186   1.484   5.517   2.722
 4763SOL     OW15187   6.528   6.431   3.347
 4763SOL    HW115188   6.517   6.418   3.445
 4763SOL    HW215189   6.535   6.341   3.302
 4764SOL     OW15190   4.925   3.854   4.854
 4764SOL    HW115191   4.868   3.912   4.796
 4764SOL    HW215192   4.866   3.799   4.914
 4765SOL     OW15193   4.369   0.963   4.044
 4765SOL    HW115194   4.379   0.932   3.950
 4765SOL    HW215195   4.312   1.045   4.047
 4766SOL     OW15196   5.199   5.192   4.487
 4766SOL    HW115197   5.177   5.144   4.402
 4766SOL    HW215198   5.152   5.280   4.490
 4767SOL     OW15199   3.673   5.113   5.951
 4767SOL    HW115200   3.623   5.194   5.921
 4767SOL    HW215201   3.684   5.117   6.051
 4768SOL     OW15202   4.118   1.085   5.075
 4768SOL    HW115203   4.213   1.054   5.072
 4768SOL    HW215204   4.116   1.185   5.077
 4769SOL     OW15205   4.878   4.241   0.217
 4769SOL    HW115206   4.844   4.272   0.128
 4769SOL    HW215207   4.933   4.158   0.205
 4770SOL     OW15208   1.075   0.619   4.528
 4770SOL    HW115209   1.159   0.666   4.502
 4770SOL    HW215210   1.085   0.521   4.512
 4771SOL     OW15211   3.476   5.105   5.672
 4771SOL    HW115212   3.548   5.050   5.713
 4771SOL    HW215213   3.461   5.187   5.728
 4772SOL     OW15214   3.239   4.461   1.258
 4772SOL    HW115215   3.179   4.426   1.187
 4772SOL    HW215216   3.217   4.557   1.276
 4773SOL     OW15217   0.316   5.604   4.523
 4773SOL    HW115218   0.353   5.677   4.465
 4773SOL    HW215219   0.220   5.590   4.501
 4774SOL     OW15220   1.122   2.644   1.973
 4774SOL    HW115221   1.215   2.642   1.937
 4774SOL    HW215222   1.058   2.616   1.902
 4775SOL     OW15223   5.159   6.388   2.360
 4775SOL    HW115224   5.195   6.331   2.286
 4775SOL    HW215225   5.126   6.329   2.434
 4776SOL     OW15226   1.304   6.386   5.324
 4776SOL    HW115227   1.295   6.434   5.411
 4776SOL    HW215228   1.312   6.453   5.250
 4777SOL     OW15229   2.560   4.884   1.010
 4777SOL    HW115230   2.573   4.844   1.101
 4777SOL    HW215231   2.646   4.924   0.979
 4778SOL     OW15232   6.733   2.822   3.303
 4778SOL    HW115233   6.753   2.907   3.351
 4778SOL    HW215234   6.718   2.841   3.206
 4779SOL     OW15235   6.270   6.558   2.746
 4779SOL    HW115236   6.271   6.550   2.845
 4779SOL    HW215237   6.181   6.591   2.716
 4780SOL     OW15238   5.814   0.725   0.099
 4780SOL    HW115239   5.831   0.672   0.182
 4780SOL    HW215240   5.717   0.748   0.092
 4781SOL     OW15241   2.291   5.925   2.231
 4781SOL    HW115242   2.201   5.891   2.259
 4781SOL    HW215243   2.290   5.946   2.133
 4782SOL     OW15244   4.138   5.696   6.889
 4782SOL    HW115245   4.130   5.756   6.968
 4782SOL    HW215246   4.105   5.604   6.912
 4783SOL     OW15247   4.713   4.501   7.012
 4783SOL    HW115248   4.669   4.546   6.935
 4783SOL    HW215249   4.721   4.403   6.994
 4784SOL     OW15250   5.843   4.275   6.754
 4784SOL    HW115251   5.770   4.295   6.819
 4784SOL    HW215252   5.857   4.177   6.748
 4785SOL     OW15253   0.327   6.336   2.281
 4785SOL    HW115254   0.375   6.389   2.210
 4785SOL    HW215255   0.278   6.399   2.341
 4786SOL     OW15256   2.546   1.640   0.411
 4786SOL    HW115257   2.529   1.617   0.316
 4786SOL    HW215258   2.639   1.676   0.422
 4787SOL     OW15259   4.191   1.802   2.531
 4787SOL    HW115260   4.212   1.708   2.501
 4787SOL    HW215261   4.245   1.824   2.612
 4788SOL     OW15262   0.713   5.496   5.533
 4788SOL    HW115263   0.657   5.481   5.452
 4788SOL    HW215264   0.781   5.567   5.514
 4789SOL     OW15265   5.392   1.766   1.058
 4789SOL    HW115266   5.444   1.706   1.120
 4789SOL    HW215267   5.351   1.711   0.985
 4790SOL     OW15268   6.408   2.449   5.207
 4790SOL    HW115269   6.391   2.494   5.119
 4790SOL    HW215270   6.426   2.352   5.192
 4791SOL     OW15271   6.270   2.649   1.895
 4791SOL    HW115272   6.209   2.672   1.820
 4791SOL    HW215273   6.259   2.716   1.969
 4792SOL     OW15274   1.997   4.149   3.193
 4792SOL    HW115275   1.966   4.056   3.215
 4792SOL    HW215276   1.919   4.205   3.167
 4793SOL     OW15277   1.823   2.680   5.664
 4793SOL    HW115278   1.885   2.739   5.613
 4793SOL    HW215279   1.751   2.735   5.705
 4794SOL     OW15280   4.206   0.468   3.166
 4794SOL    HW115281   4.188   0.543   3.230
 4794SOL    HW215282   4.128   0.457   3.105
 4795SOL     OW15283   5.731   2.564   4.301
 4795SOL    HW115284   5.772   2.493   4.243
 4795SOL    HW215285   5.718   2.529   4.393
 4796SOL     OW15286   4.847   1.620   5.322
 4796SOL    HW115287   4.765   1.586   5.367
 4796SOL    HW215288   4.893   1.544   5.276
 4797SOL     OW15289   1.204   6.408   5.818
 4797SOL    HW115290   1.163   6.352   5.890
 4797SOL    HW215291   1.226   6.498   5.855
 4798SOL     OW15292   6.810   3.323   4.469
 4798SOL    HW115293   6.810   3.254   4.397
 4798SOL    HW215294   6.854   3.406   4.436
 4799SOL     OW15295   5.225   2.393   0.081
 4799SOL    HW115296   5.272   2.319   0.035
 4799SOL    HW215297   5.145   2.420   0.028
 4800SOL     OW15298   3.430   3.245   5.925
 4800SOL    HW115299   3.407   3.170   5.863
 4800SOL    HW215300   3.377   3.327   5.900
 4801SOL     OW15301   2.853   2.269   6.762
 4801SOL    HW115302   2.812   2.359   6.769
 4801SOL    HW215303   2.783   2.199   6.777
 4802SOL     OW15304   1.030   6.144   2.433
 4802SOL    HW115305   1.035   6.188   2.343
 4802SOL    HW215306   1.111   6.168   2.486
 4803SOL     OW15307   0.966   5.092   0.998
 4803SOL    HW115308   1.022   5.013   1.024
 4803SOL    HW215309   1.026   5.171   0.983
 4804SOL     OW15310   5.161   6.140   0.219
 4804SOL    HW115311   5.163   6.145   0.319
 4804SOL    HW215312   5.130   6.227   0.181
 4805SOL     OW15313   5.217   1.295   2.432
 4805SOL    HW115314   5.183   1.274   2.524
 4805SOL    HW215315   5.292   1.361   2.438
 4806SOL     OW15316   1.118   4.507   3.167
 4806SOL    HW115317   1.109   4.450   3.086
 4806SOL    HW215318   1.027   4.529   3.203
 4807SOL     OW15319   0.861   4.931   0.406
 4807SOL    HW115320   0.774   4.978   0.419
 4807SOL    HW215321   0.868   4.901   0.311
 4808SOL     OW15322   5.517   4.025   6.668
 4808SOL    HW115323   5.419   4.022   6.652
 4808SOL    HW215324   5.564   3.972   6.597
 4809SOL     OW15325   3.373   4.514   0.093
 4809SOL    HW115326   3.416   4.548   0.009
 4809SOL    HW215327   3.441   4.510   0.166
 4810SOL     OW15328   1.199   4.918   2.614
 4810SOL    HW115329   1.197   4.920   2.714
 4810SOL    HW215330   1.143   4.993   2.578
 4811SOL     OW15331   2.735   3.854   1.663
 4811SOL    HW115332   2.810   3.875   1.726
 4811SOL    HW215333   2.770   3.802   1.585
 4812SOL     OW15334   6.615   5.427   4.036
 4812SOL    HW115335   6.593   5.418   4.133
 4812SOL    HW215336   6.607   5.337   3.991
 4813SOL     OW15337   5.286   2.575   1.437
 4813SOL    HW115338   5.210   2.566   1.373
 4813SOL    HW215339   5.252   2.608   1.525
 4814SOL     OW15340   6.548   4.004   0.803
 4814SOL    HW115341   6.504   3.934   0.859
 4814SOL    HW215342   6.486   4.082   0.792
 4815SOL     OW15343   5.408   4.732   3.000
 4815SOL    HW115344   5.489   4.776   2.963
 4815SOL    HW215345   5.337   4.801   3.017
 4816SOL     OW15346   1.872   4.715   0.879
 4816SOL    HW115347   1.838   4.622   0.890
 4816SOL    HW215348   1.902   4.751   0.968
 4817SOL     OW15349   0.204   2.163   6.534
 4817SOL    HW115350   0.209   2.237   6.468
 4817SOL    HW215351   0.152   2.192   6.614
 4818SOL     OW15352   1.452   6.441   3.850
 4818SOL    HW115353   1.455   6.533   3.813
 4818SOL    HW215354   1.520   6.431   3.923
 4819SOL     OW15355   1.330   1.808   0.279
 4819SOL    HW115356   1.268   1.776   0.351
 4819SOL    HW215357   1.352   1.732   0.218
 4820SOL     OW15358   5.824   2.684   2.274
 4820SOL    HW115359   5.865   2.730   2.195
 4820SOL    HW215360   5.895   2.667   2.343
 4821SOL     OW15361   1.282   6.222   2.988
 4821SOL    HW115362   1.335   6.268   3.058
 4821SOL    HW215363   1.286   6.275   2.903
 4822SOL     OW15364   2.501   2.144   5.184
 4822SOL    HW115365   2.418   2.201   5.185
 4822SOL    HW215366   2.518   2.114   5.090
 4823SOL     OW15367   1.505   1.044   4.716
 4823SOL    HW115368   1.456   0.959   4.697
 4823SOL    HW215369   1.470   1.116   4.655
 4824SOL     OW15370   5.098   2.381   4.807
 4824SOL    HW115371   5.122   2.396   4.903
 4824SOL    HW215372   4.998   2.381   4.797
 4825SOL     OW15373   2.015   3.072   5.151
 4825SOL    HW115374   1.976   3.017   5.077
 4825SOL    HW215375   2.059   3.153   5.112
 4826SOL     OW15376   5.457   1.672   0.170
 4826SOL    HW115377   5.432   1.761   0.132
 4826SOL    HW215378   5.518   1.625   0.107
 4827SOL     OW15379   6.363   1.683   0.711
 4827SOL    HW115380   6.459   1.681   0.685
 4827SOL    HW215381   6.323   1.592   0.700
 4828SOL     OW15382   4.940   2.580   1.025
 4828SOL    HW115383   4.865   2.523   1.060
 4828SOL    HW215384   4.999   2.524   0.968
 4829SOL     OW15385   4.099   6.301   5.908
 4829SOL    HW115386   4.114   6.204   5.892
 4829SOL    HW215387   4.110   6.322   6.005
 4830SOL     OW15388   4.439   6.540   4.303
 4830SOL    HW115389   4.383   6.457   4.294
 4830SOL    HW215390   4.420   6.602   4.227
 4831SOL     OW15391   1.048   4.224   6.161
 4831SOL    HW115392   1.012   4.163   6.091
 4831SOL    HW215393   0.992   4.307   6.165
 4832SOL     OW15394   3.968   3.799   3.749
 4832SOL    HW115395   3.935   3.892   3.761
 4832SOL    HW215396   3.956   3.748   3.834
 4833SOL     OW15397   5.049   1.790   3.028
 4833SOL    HW115398   5.130   1.811   3.082
 4833SOL    HW215399   4.971   1.773   3.089
 4834SOL     OW15400   3.211   6.524   1.048
 4834SOL    HW115401   3.200   6.556   0.954
 4834SOL    HW215402   3.154   6.579   1.109
 4835SOL     OW15403   5.932   2.103   6.829
 4835SOL    HW115404   5.892   2.072   6.916
 4835SOL    HW215405   5.917   2.034   6.759
 4836SOL     OW15406   5.077   2.207   4.561
 4836SOL    HW115407   5.084   2.253   4.649
 4836SOL    HW215408   4.982   2.179   4.546
 4837SOL     OW15409   6.911   4.006   3.104
 4837SOL    HW115410   6.885   3.993   3.008
 4837SOL    HW215411   6.853   4.077   3.144
 4838SOL     OW15412   1.028   5.393   0.199
 4838SOL    HW115413   1.060   5.436   0.115
 4838SOL    HW215414   0.994   5.301   0.179
 4839SOL     OW15415   1.670   3.043   0.260
 4839SOL    HW115416   1.643   3.024   0.354
 4839SOL    HW215417   1.597   3.015   0.198
 4840SOL     OW15418   6.642   4.734   6.850
 4840SOL    HW115419   6.598   4.654   6.809
 4840SOL    HW215420   6.649   4.807   6.782
 4841SOL     OW15421   2.217   5.131   2.490
 4841SOL    HW115422   2.203   5.182   2.406
 4841SOL    HW215423   2.281   5.180   2.549
 4842SOL     OW15424   3.697   5.309   2.212
 4842SOL    HW115425   3.676   5.276   2.120
 4842SOL    HW215426   3.766   5.380   2.206
 4843SOL     OW15427   6.151   3.097   1.455
 4843SOL    HW115428   6.187   3.154   1.529
 4843SOL    HW215429   6.227   3.049   1.410
 4844SOL     OW15430   0.676   2.997   6.737
 4844SOL    HW115431   0.676   3.096   6.742
 4844SOL    HW215432   0.674   2.959   6.830
 4845SOL     OW15433   5.289   5.340   6.230
 4845SOL    HW115434   5.243   5.269   6.176
 4845SOL    HW215435   5.227   5.374   6.300
 4846SOL     OW15436   6.565   2.335   3.573
 4846SOL    HW115437   6.613   2.355   3.487
 4846SOL    HW215438   6.563   2.416   3.630
 4847SOL     OW15439   2.393   0.362   6.529
 4847SOL    HW115440   2.436   0.394   6.445
 4847SOL    HW215441   2.398   0.434   6.598
 4848SOL     OW15442   1.785   1.129   4.680
 4848SOL    HW115443   1.706   1.068   4.676
 4848SOL    HW215444   1.867   1.076   4.704
 4849SOL     OW15445   0.929   6.007   6.798
 4849SOL    HW115446   0.916   5.979   6.703
 4849SOL    HW215447   1.015   6.057   6.807
 4850SOL     OW15448   3.971   1.056   1.682
 4850SOL    HW115449   4.017   0.969   1.700
 4850SOL    HW215450   3.965   1.072   1.584
 4851SOL     OW15451   3.574   6.807   5.700
 4851SOL    HW115452   3.554   6.711   5.683
 4851SOL    HW215453   3.558   6.828   5.796
 4852SOL     OW15454   1.866   5.771   5.184
 4852SOL    HW115455   1.785   5.713   5.180
 4852SOL    HW215456   1.898   5.792   5.091
 4853SOL     OW15457   2.795   1.322   3.551
 4853SOL    HW115458   2.809   1.404   3.495
 4853SOL    HW215459   2.879   1.267   3.550
 4854SOL     OW15460   4.394   6.599   1.982
 4854SOL    HW115461   4.332   6.574   2.057
 4854SOL    HW215462   4.354   6.674   1.930
 4855SOL     OW15463   5.474   2.596   4.106
 4855SOL    HW115464   5.571   2.603   4.128
 4855SOL    HW215465   5.444   2.502   4.121
 4856SOL     OW15466   1.636   3.332   2.793
 4856SOL    HW115467   1.679   3.411   2.750
 4856SOL    HW215468   1.656   3.332   2.891
 4857SOL     OW15469   2.923   2.183   3.740
 4857SOL    HW115470   2.826   2.199   3.724
 4857SOL    HW215471   2.975   2.210   3.659
 4858SOL     OW15472   0.121   0.103   4.980
 4858SOL    HW115473   0.202   0.127   4.927
 4858SOL    HW215474   0.039   0.137   4.933
 4859SOL     OW15475   0.741   5.400   3.191
 4859SOL    HW115476   0.770   5.495   3.200
 4859SOL    HW215477   0.656   5.395   3.138
 4860SOL     OW15478   4.686   4.960   0.504
 4860SOL    HW115479   4.725   4.869   0.496
 4860SOL    HW215480   4.632   4.981   0.423
 4861SOL     OW15481   6.242   5.160   6.572
 4861SOL    HW115482   6.223   5.256   6.592
 4861SOL    HW215483   6.156   5.109   6.567
 4862SOL     OW15484   1.768   4.469   4.782
 4862SOL    HW115485   1.867   4.467   4.768
 4862SOL    HW215486   1.748   4.445   4.877
 4863SOL     OW15487   5.224   3.872   2.066
 4863SOL    HW115488   5.198   3.818   2.146
 4863SOL    HW215489   5.230   3.813   1.986
 4864SOL     OW15490   3.448   1.811   2.381
 4864SOL    HW115491   3.461   1.909   2.395
 4864SOL    HW215492   3.425   1.794   2.285
 4865SOL     OW15493   2.220   6.355   4.515
 4865SOL    HW115494   2.292   6.289   4.539
 4865SOL    HW215495   2.181   6.393   4.599
 4866SOL     OW15496   6.364   4.237   1.379
 4866SOL    HW115497   6.346   4.331   1.352
 4866SOL    HW215498   6.462   4.224   1.393
 4867SOL     OW15499   4.871   5.593   2.192
 4867SOL    HW115500   4.850   5.524   2.123
 4867SOL    HW215501   4.924   5.667   2.150
 4868SOL     OW15502   0.151   4.976   1.949
 4868SOL    HW115503   0.091   4.955   1.872
 4868SOL    HW215504   0.222   5.040   1.919
 4869SOL     OW15505   0.131   2.091   2.056
 4869SOL    HW115506   0.104   2.162   1.991
 4869SOL    HW215507   0.224   2.061   2.037
 4870SOL     OW15508   6.899   5.940   1.900
 4870SOL    HW115509   6.930   5.882   1.825
 4870SOL    HW215510   6.920   6.035   1.879
 4871SOL     OW15511   0.593   1.672   4.734
 4871SOL    HW115512   0.570   1.770   4.734
 4871SOL    HW215513   0.559   1.631   4.649
 4872SOL     OW15514   0.223   6.097   4.477
 4872SOL    HW115515   0.167   6.159   4.533
 4872SOL    HW215516   0.165   6.025   4.439
 4873SOL     OW15517   6.675   4.884   4.106
 4873SOL    HW115518   6.684   4.835   4.193
 4873SOL    HW215519   6.762   4.930   4.085
 4874SOL     OW15520   5.810   3.539   3.197
 4874SOL    HW115521   5.873   3.536   3.275
 4874SOL    HW215522   5.794   3.447   3.163
 4875SOL     OW15523   5.343   3.337   1.532
 4875SOL    HW115524   5.410   3.325   1.460
 4875SOL    HW215525   5.389   3.363   1.617
 4876SOL     OW15526   5.536   0.949   4.349
 4876SOL    HW115527   5.459   0.905   4.396
 4876SOL    HW215528   5.519   1.047   4.342
 4877SOL     OW15529   0.260   1.828   0.217
 4877SOL    HW115530   0.237   1.772   0.138
 4877SOL    HW215531   0.177   1.849   0.269
 4878SOL     OW15532   6.104   0.981   3.103
 4878SOL    HW115533   6.163   1.031   3.040
 4878SOL    HW215534   6.024   1.036   3.125
 4879SOL     OW15535   4.821   5.406   3.411
 4879SOL    HW115536   4.736   5.356   3.392
 4879SOL    HW215537   4.842   5.399   3.509
 4880SOL     OW15538   6.050   3.343   6.741
 4880SOL    HW115539   6.145   3.328   6.715
 4880SOL    HW215540   6.038   3.438   6.769
 4881SOL     OW15541   1.997   6.725   6.819
 4881SOL    HW115542   2.063   6.652   6.835
 4881SOL    HW215543   1.969   6.725   6.723
 4882SOL     OW15544   5.631   1.443   4.109
 4882SOL    HW115545   5.692   1.443   4.188
 4882SOL    HW215546   5.686   1.443   4.025
 4883SOL     OW15547   4.924   5.008   2.314
 4883SOL    HW115548   4.972   5.095   2.328
 4883SOL    HW215549   4.855   4.996   2.385
 4884SOL     OW15550   4.014   0.324   0.749
 4884SOL    HW115551   4.043   0.378   0.828
 4884SOL    HW215552   4.094   0.280   0.707
 4885SOL     OW15553   2.646   5.832   1.974
 4885SOL    HW115554   2.614   5.926   1.985
 4885SOL    HW215555   2.617   5.797   1.885
 4886SOL     OW15556   6.842   5.908   6.657
 4886SOL    HW115557   6.790   5.826   6.633
 4886SOL    HW215558   6.780   5.978   6.691
 4887SOL     OW15559   6.799   0.409   3.321
 4887SOL    HW115560   6.846   0.475   3.263
 4887SOL    HW215561   6.820   0.428   3.417
 4888SOL     OW15562   2.154   6.636   4.375
 4888SOL    HW115563   2.143   6.554   4.320
 4888SOL    HW215564   2.107   6.625   4.462
 4889SOL     OW15565   6.238   0.844   6.488
 4889SOL    HW115566   6.195   0.810   6.571
 4889SOL    HW215567   6.172   0.899   6.436
 4890SOL     OW15568   0.238   1.935   5.695
 4890SOL    HW115569   0.192   2.016   5.659
 4890SOL    HW215570   0.231   1.860   5.629
 4891SOL     OW15571   1.744   5.597   0.478
 4891SOL    HW115572   1.780   5.537   0.406
 4891SOL    HW215573   1.788   5.687   0.471
 4892SOL     OW15574   2.347   6.303   1.827
 4892SOL    HW115575   2.443   6.281   1.840
 4892SOL    HW215576   2.312   6.348   1.909
 4893SOL     OW15577   0.025   4.109   0.889
 4893SOL    HW115578   6.958   4.134   0.839
 4893SOL    HW215579   0.103   4.108   0.827
 4894SOL     OW15580   2.500   2.038   2.335
 4894SOL    HW115581   2.472   2.124   2.378
 4894SOL    HW215582   2.540   1.977   2.404
 4895SOL     OW15583   0.641   4.990   2.785
 4895SOL    HW115584   0.618   4.908   2.732
 4895SOL    HW215585   0.732   5.022   2.758
 4896SOL     OW15586   2.379   5.046   1.934
 4896SOL    HW115587   2.408   5.136   1.902
 4896SOL    HW215588   2.282   5.049   1.960
 4897SOL     OW15589   2.485   4.973   5.500
 4897SOL    HW115590   2.480   4.948   5.597
 4897SOL    HW215591   2.423   5.050   5.483
 4898SOL     OW15592   4.365   0.936   4.546
 4898SOL    HW115593   4.312   0.960   4.464
 4898SOL    HW215594   4.411   1.018   4.581
 4899SOL     OW15595   6.262   4.984   3.269
 4899SOL    HW115596   6.279   4.907   3.207
 4899SOL    HW215597   6.168   5.017   3.255
 4900SOL     OW15598   1.732   5.497   4.901
 4900SOL    HW115599   1.827   5.495   4.870
 4900SOL    HW215600   1.689   5.408   4.881
 4901SOL     OW15601   2.867   6.682   5.355
 4901SOL    HW115602   2.768   6.686   5.367
 4901SOL    HW215603   2.901   6.771   5.326
 4902SOL     OW15604   2.592   2.424   4.663
 4902SOL    HW115605   2.638   2.425   4.752
 4902SOL    HW215606   2.633   2.354   4.605
 4903SOL     OW15607   2.747   6.166   6.295
 4903SOL    HW115608   2.799   6.092   6.251
 4903SOL    HW215609   2.741   6.244   6.233
 4904SOL     OW15610   1.242   0.370   4.044
 4904SOL    HW115611   1.165   0.389   4.106
 4904SOL    HW215612   1.258   0.271   4.040
 4905SOL     OW15613   4.055   1.005   2.101
 4905SOL    HW115614   4.090   1.082   2.049
 4905SOL    HW215615   3.996   0.949   2.042
 4906SOL     OW15616   4.434   1.706   6.769
 4906SOL    HW115617   4.518   1.656   6.751
 4906SOL    HW215618   4.355   1.651   6.740
 4907SOL     OW15619   5.075   5.922   1.202
 4907SOL    HW115620   5.038   6.006   1.163
 4907SOL    HW215621   5.034   5.906   1.292
 4908SOL     OW15622   4.946   5.064   6.256
 4908SOL    HW115623   4.913   4.978   6.295
 4908SOL    HW215624   4.875   5.133   6.264
 4909SOL     OW15625   6.764   0.368   5.057
 4909SOL    HW115626   6.692   0.417   5.008
 4909SOL    HW215627   6.727   0.283   5.094
 4910SOL     OW15628   5.470   6.439   4.256
 4910SOL    HW115629   5.380   6.477   4.278
 4910SOL    HW215630   5.540   6.510   4.267
 4911SOL     OW15631   6.827   2.973   5.559
 4911SOL    HW115632   6.826   3.073   5.556
 4911SOL    HW215633   6.789   2.937   5.474
 4912SOL     OW15634   5.452   2.731   1.790
 4912SOL    HW115635   5.508   2.673   1.730
 4912SOL    HW215636   5.429   2.816   1.742
 4913SOL     OW15637   3.978   3.239   3.692
 4913SOL    HW115638   3.883   3.266   3.677
 4913SOL    HW215639   4.028   3.316   3.734
 4914SOL     OW15640   3.181   6.963   5.005
 4914SOL    HW115641   3.274   6.997   4.988
 4914SOL    HW215642   3.187   6.877   5.057
 4915SOL     OW15643   4.480   0.727   4.411
 4915SOL    HW115644   4.420   0.647   4.405
 4915SOL    HW215645   4.433   0.800   4.461
 4916SOL     OW15646   2.006   1.936   3.966
 4916SOL    HW115647   1.966   2.012   3.915
 4916SOL    HW215648   1.942   1.859   3.967
 4917SOL     OW15649   1.582   4.761   0.561
 4917SOL    HW115650   1.582   4.661   0.553
 4917SOL    HW215651   1.668   4.791   0.602
 4918SOL     OW15652   2.912   6.611   2.376
 4918SOL    HW115653   3.005   6.589   2.406
 4918SOL    HW215654   2.900   6.583   2.280
 4919SOL     OW15655   1.928   1.434   0.227
 4919SOL    HW115656   2.028   1.432   0.215
 4919SOL    HW215657   1.891   1.515   0.181
 4920SOL     OW15658   4.813   0.411   6.143
 4920SOL    HW115659   4.758   0.351   6.084
 4920SOL    HW215660   4.833   0.496   6.094
 4921SOL     OW15661   1.916   4.244   0.864
 4921SOL    HW115662   1.946   4.233   0.769
 4921SOL    HW215663   1.994   4.268   0.922
 4922SOL     OW15664   1.956   2.738   4.647
 4922SOL    HW115665   2.020   2.780   4.712
 4922SOL    HW215666   1.936   2.802   4.574
 4923SOL     OW15667   3.430   1.382   0.474
 4923SOL    HW115668   3.407   1.335   0.560
 4923SOL    HW215669   3.408   1.479   0.482
 4924SOL     OW15670   1.894   2.445   6.124
 4924SOL    HW115671   1.921   2.351   6.146
 4924SOL    HW215672   1.969   2.491   6.075
 4925SOL     OW15673   5.842   6.773   1.608
 4925SOL    HW115674   5.820   6.781   1.705
 4925SOL    HW215675   5.857   6.864   1.570
 4926SOL     OW15676   5.254   2.696   0.657
 4926SOL    HW115677   5.321   2.625   0.679
 4926SOL    HW215678   5.282   2.782   0.699
 4927SOL     OW15679   3.898   3.915   4.523
 4927SOL    HW115680   3.995   3.916   4.550
 4927SOL    HW215681   3.844   3.959   4.594
 4928SOL     OW15682   0.082   0.718   6.407
 4928SOL    HW115683   0.171   0.712   6.361
 4928SOL    HW215684   0.009   0.712   6.340
 4929SOL     OW15685   1.595   4.439   4.582
 4929SOL    HW115686   1.578   4.537   4.572
 4929SOL    HW215687   1.656   4.424   4.660
 4930SOL     OW15688   5.044   1.004   1.726
 4930SOL    HW115689   4.953   0.972   1.755
 4930SOL    HW215690   5.068   0.961   1.639
 4931SOL     OW15691   6.674   6.928   1.388
 4931SOL    HW115692   6.592   6.985   1.379
 4931SOL    HW215693   6.752   6.974   1.348
 4932SOL     OW15694   2.384   2.650   2.047
 4932SOL    HW115695   2.424   2.569   2.004
 4932SOL    HW215696   2.392   2.728   1.985
 4933SOL     OW15697   2.624   6.716   3.768
 4933SOL    HW115698   2.591   6.678   3.681
 4933SOL    HW215699   2.676   6.799   3.751
 4934SOL     OW15700   1.351   4.653   3.155
 4934SOL    HW115701   1.263   4.609   3.173
 4934SOL    HW215702   1.419   4.584   3.130
 4935SOL     OW15703   1.209   1.466   6.563
 4935SOL    HW115704   1.287   1.412   6.596
 4935SOL    HW215705   1.130   1.406   6.549
 4936SOL     OW15706   2.118   5.199   1.880
 4936SOL    HW115707   2.100   5.287   1.836
 4936SOL    HW215708   2.033   5.148   1.891
 4937SOL     OW15709   6.783   3.343   6.057
 4937SOL    HW115710   6.800   3.278   5.983
 4937SOL    HW215711   6.803   3.435   6.026
 4938SOL     OW15712   2.432   5.825   0.206
 4938SOL    HW115713   2.514   5.772   0.227
 4938SOL    HW215714   2.447   5.921   0.228
 4939SOL     OW15715   0.779   1.642   3.938
 4939SOL    HW115716   0.872   1.614   3.962
 4939SOL    HW215717   0.745   1.706   4.006
 4940SOL     OW15718   0.847   1.373   5.430
 4940SOL    HW115719   0.925   1.326   5.471
 4940SOL    HW215720   0.868   1.398   5.335
 4941SOL     OW15721   4.379   2.578   5.397
 4941SOL    HW115722   4.468   2.621   5.413
 4941SOL    HW215723   4.319   2.644   5.352
 4942SOL     OW15724   5.535   2.799   5.293
 4942SOL    HW115725   5.484   2.716   5.269
 4942SOL    HW215726   5.590   2.828   5.215
 4943SOL     OW15727   5.250   4.227   5.973
 4943SOL    HW115728   5.256   4.250   5.876
 4943SOL    HW215729   5.225   4.131   5.983
 4944SOL     OW15730   2.751   4.127   1.657
 4944SOL    HW115731   2.665   4.178   1.651
 4944SOL    HW215732   2.734   4.040   1.703
 4945SOL     OW15733   1.208   6.810   4.818
 4945SOL    HW115734   1.123   6.845   4.780
 4945SOL    HW215735   1.222   6.715   4.788
 4946SOL     OW15736   0.901   5.522   6.733
 4946SOL    HW115737   0.827   5.461   6.759
 4946SOL    HW215738   0.864   5.604   6.689
 4947SOL     OW15739   2.232   0.199   0.983
 4947SOL    HW115740   2.167   0.221   0.910
 4947SOL    HW215741   2.186   0.205   1.071
 4948SOL     OW15742   2.387   2.246   2.468
 4948SOL    HW115743   2.307   2.280   2.517
 4948SOL    HW215744   2.434   2.323   2.423
 4949SOL     OW15745   6.514   4.667   5.378
 4949SOL    HW115746   6.573   4.679   5.458
 4949SOL    HW215747   6.464   4.581   5.386
 4950SOL     OW15748   1.990   4.636   4.883
 4950SOL    HW115749   2.083   4.670   4.874
 4950SOL    HW215750   1.957   4.606   4.793
 4951SOL     OW15751   6.041   1.388   4.062
 4951SOL    HW115752   6.078   1.306   4.019
 4951SOL    HW215753   5.942   1.391   4.050
 4952SOL     OW15754   0.062   0.096   6.233
 4952SOL    HW115755   0.075   0.194   6.240
 4952SOL    HW215756   0.013   0.063   6.314
 4953SOL     OW15757   1.658   6.911   3.568
 4953SOL    HW115758   1.576   6.940   3.617
 4953SOL    HW215759   1.636   6.894   3.472
 4954SOL     OW15760   2.802   3.228   6.749
 4954SOL    HW115761   2.706   3.252   6.765
 4954SOL    HW215762   2.845   3.300   6.694
 4955SOL     OW15763   2.954   6.740   6.897
 4955SOL    HW115764   2.885   6.812   6.906
 4955SOL    HW215765   3.013   6.741   6.978
 4956SOL     OW15766   2.675   0.224   5.835
 4956SOL    HW115767   2.667   0.201   5.932
 4956SOL    HW215768   2.647   0.146   5.779
 4957SOL     OW15769   5.963   2.229   2.211
 4957SOL    HW115770   6.055   2.262   2.231
 4957SOL    HW215771   5.953   2.216   2.112
 4958SOL     OW15772   0.757   5.118   5.826
 4958SOL    HW115773   0.740   5.152   5.734
 4958SOL    HW215774   0.742   5.192   5.892
 4959SOL     OW15775   6.114   2.112   0.591
 4959SOL    HW115776   6.132   2.029   0.643
 4959SOL    HW215777   6.192   2.174   0.600
 4960SOL     OW15778   3.993   4.816   3.484
 4960SOL    HW115779   4.011   4.717   3.481
 4960SOL    HW215780   3.906   4.835   3.438
 4961SOL     OW15781   3.813   0.822   5.660
 4961SOL    HW115782   3.799   0.737   5.711
 4961SOL    HW215783   3.852   0.801   5.570
 4962SOL     OW15784   5.990   2.986   0.688
 4962SOL    HW115785   5.994   3.038   0.772
 4962SOL    HW215786   6.058   2.913   0.690
 4963SOL     OW15787   0.702   6.271   0.706
 4963SOL    HW115788   0.638   6.230   0.640
 4963SOL    HW215789   0.793   6.231   0.694
 4964SOL     OW15790   2.312   0.046   4.801
 4964SOL    HW115791   2.406   0.023   4.823
 4964SOL    HW215792   2.257   6.978   4.794
 4965SOL     OW15793   0.786   0.130   1.894
 4965SOL    HW115794   0.756   0.112   1.987
 4965SOL    HW215795   0.822   0.224   1.888
 4966SOL     OW15796   2.947   6.470   4.984
 4966SOL    HW115797   2.899   6.440   5.066
 4966SOL    HW215798   2.902   6.552   4.948
 4967SOL     OW15799   3.928   4.812   5.274
 4967SOL    HW115800   3.930   4.713   5.292
 4967SOL    HW215801   4.000   4.857   5.327
 4968SOL     OW15802   0.265   1.271   3.318
 4968SOL    HW115803   0.266   1.370   3.310
 4968SOL    HW215804   0.173   1.237   3.295
 4969SOL     OW15805   1.727   5.682   2.997
 4969SOL    HW115806   1.675   5.602   2.967
 4969SOL    HW215807   1.806   5.652   3.051
 4970SOL     OW15808   2.413   1.975   1.409
 4970SOL    HW115809   2.420   2.068   1.373
 4970SOL    HW215810   2.491   1.955   1.467
 4971SOL     OW15811   5.689   5.627   3.198
 4971SOL    HW115812   5.758   5.590   3.137
 4971SOL    HW215813   5.682   5.570   3.280
 4972SOL     OW15814   0.444   3.434   1.192
 4972SOL    HW115815   0.465   3.457   1.287
 4972SOL    HW215816   0.468   3.512   1.133
 4973SOL     OW15817   1.299   6.677   1.828
 4973SOL    HW115818   1.315   6.705   1.922
 4973SOL    HW215819   1.213   6.628   1.822
 4974SOL     OW15820   0.113   4.365   1.014
 4974SOL    HW115821   0.027   4.413   1.033
 4974SOL    HW215822   0.093   4.277   0.972
 4975SOL     OW15823   5.915   4.097   6.040
 4975SOL    HW115824   5.926   4.004   6.005
 4975SOL    HW215825   5.874   4.155   5.970
 4976SOL     OW15826   2.326   1.896   4.112
 4976SOL    HW115827   2.232   1.916   4.085
 4976SOL    HW215828   2.336   1.797   4.125
 4977SOL     OW15829   4.401   4.504   7.007
 4977SOL    HW115830   4.420   4.430   6.942
 4977SOL    HW215831   4.373   4.465   0.079
 4978SOL     OW15832   6.151   4.581   5.154
 4978SOL    HW115833   6.109   4.661   5.197
 4978SOL    HW215834   6.242   4.566   5.194
 4979SOL     OW15835   6.674   6.823   5.726
 4979SOL    HW115836   6.714   6.856   5.811
 4979SOL    HW215837   6.591   6.876   5.706
 4980SOL     OW15838   5.529   5.804   3.021
 4980SOL    HW115839   5.603   5.867   2.996
 4980SOL    HW215840   5.565   5.732   3.080
 4981SOL     OW15841   3.874   5.188   0.985
 4981SOL    HW115842   3.851   5.283   1.007
 4981SOL    HW215843   3.932   5.186   0.904
 4982SOL     OW15844   3.114   1.203   5.632
 4982SOL    HW115845   3.106   1.301   5.612
 4982SOL    HW215846   3.070   1.183   5.720
 4983SOL     OW15847   6.336   3.617   5.877
 4983SOL    HW115848   6.332   3.716   5.866
 4983SOL    HW215849   6.244   3.579   5.869
 4984SOL     OW15850   5.643   4.453   3.323
 4984SOL    HW115851   5.563   4.494   3.280
 4984SOL    HW215852   5.695   4.523   3.372
 4985SOL     OW15853   5.389   0.099   2.989
 4985SOL    HW115854   5.414   0.077   2.895
 4985SOL    HW215855   5.399   0.197   3.004
 4986SOL     OW15856   0.116   4.580   1.297
 4986SOL    HW115857   0.169   4.630   1.228
 4986SOL    HW215858   0.056   4.514   1.251
 4987SOL     OW15859   0.746   6.915   2.488
 4987SOL    HW115860   0.753   6.816   2.499
 4987SOL    HW215861   0.806   6.961   2.553
 4988SOL     OW15862   4.902   0.831   2.415
 4988SOL    HW115863   4.960   0.823   2.496
 4988SOL    HW215864   4.850   0.746   2.404
 4989SOL     OW15865   5.667   6.781   1.864
 4989SOL    HW115866   5.597   6.764   1.796
 4989SOL    HW215867   5.692   6.695   1.910
 4990SOL     OW15868   2.780   2.128   5.938
 4990SOL    HW115869   2.802   2.224   5.922
 4990SOL    HW215870   2.699   2.103   5.887
 4991SOL     OW15871   6.363   5.519   3.584
 4991SOL    HW115872   6.358   5.597   3.521
 4991SOL    HW215873   6.383   5.436   3.532
 4992SOL     OW15874   4.774   0.853   1.750
 4992SOL    HW115875   4.703   0.875   1.683
 4992SOL    HW215876   4.735   0.797   1.823
 4993SOL     OW15877   3.331   5.532   4.806
 4993SOL    HW115878   3.241   5.529   4.850
 4993SOL    HW215879   3.325   5.491   4.715
 4994SOL     OW15880   2.015   0.232   4.288
 4994SOL    HW115881   1.980   0.306   4.231
 4994SOL    HW215882   1.940   0.191   4.340
 4995SOL     OW15883   0.431   1.828   5.292
 4995SOL    HW115884   0.477   1.916   5.308
 4995SOL    HW215885   0.399   1.792   5.380
 4996SOL     OW15886   0.336   0.726   3.011
 4996SOL    HW115887   0.358   0.643   3.063
 4996SOL    HW215888   0.279   0.701   2.933
 4997SOL     OW15889   4.699   2.581   2.169
 4997SOL    HW115890   4.757   2.544   2.097
 4997SOL    HW215891   4.638   2.510   2.203
 4998SOL     OW15892   2.029   3.666   4.984
 4998SOL    HW115893   1.980   3.611   4.917
 4998SOL    HW215894   2.071   3.744   4.938
 4999SOL     OW15895   6.800   3.900   6.307
 4999SOL    HW115896   6.814   3.812   6.353
 4999SOL    HW215897   6.762   3.885   6.216
 5000SOL     OW15898   4.078   6.782   3.423
 5000SOL    HW115899   4.071   6.838   3.505
 5000SOL    HW215900   4.169   6.740   3.419
 5001SOL     OW15901   0.413   4.075   2.089
 5001SOL    HW115902   0.419   4.041   2.183
 5001SOL    HW215903   0.414   3.997   2.026
 5002SOL     OW15904   0.608   3.279   1.866
 5002SOL    HW115905   0.625   3.377   1.879
 5002SOL    HW215906   0.510   3.262   1.865
 5003SOL     OW15907   2.904   5.508   2.502
 5003SOL    HW115908   2.948   5.481   2.588
 5003SOL    HW215909   2.816   5.461   2.494
 5004SOL     OW15910   2.661   4.793   5.368
 5004SOL    HW115911   2.594   4.831   5.432
 5004SOL    HW215912   2.723   4.865   5.337
 5005SOL     OW15913   3.272   3.128   0.996
 5005SOL    HW115914   3.355   3.143   1.049
 5005SOL    HW215915   3.193   3.157   1.049
 5006SOL     OW15916   4.966   0.506   0.973
 5006SOL    HW115917   4.903   0.436   1.007
 5006SOL    HW215918   4.917   0.565   0.909
 5007SOL     OW15919   0.855   6.504   0.770
 5007SOL    HW115920   0.810   6.418   0.746
 5007SOL    HW215921   0.798   6.581   0.740
 5008SOL     OW15922   5.636   6.277   1.700
 5008SOL    HW115923   5.714   6.257   1.641
 5008SOL    HW215924   5.551   6.264   1.648
 5009SOL     OW15925   0.492   1.408   0.786
 5009SOL    HW115926   0.434   1.378   0.862
 5009SOL    HW215927   0.552   1.481   0.816
 5010SOL     OW15928   4.051   3.150   2.280
 5010SOL    HW115929   4.139   3.113   2.252
 5010SOL    HW215930   4.055   3.177   2.376
 5011SOL     OW15931   1.404   4.130   1.906
 5011SOL    HW115932   1.437   4.145   1.812
 5011SOL    HW215933   1.385   4.033   1.919
 5012SOL     OW15934   5.575   4.294   6.142
 5012SOL    HW115935   5.655   4.254   6.185
 5012SOL    HW215936   5.595   4.314   6.046
 5013SOL     OW15937   5.085   1.105   0.320
 5013SOL    HW115938   5.120   1.023   0.364
 5013SOL    HW215939   5.003   1.137   0.368
 5014SOL     OW15940   6.409   4.501   0.892
 5014SOL    HW115941   6.389   4.538   0.801
 5014SOL    HW215942   6.404   4.574   0.959
 5015SOL     OW15943   4.725   1.651   4.428
 5015SOL    HW115944   4.793   1.587   4.393
 5015SOL    HW215945   4.739   1.664   4.526
 5016SOL     OW15946   1.534   2.769   6.909
 5016SOL    HW115947   1.565   2.859   6.881
 5016SOL    HW215948   1.498   2.720   6.829
 5017SOL     OW15949   2.498   2.772   1.085
 5017SOL    HW115950   2.554   2.690   1.085
 5017SOL    HW215951   2.551   2.850   1.051
 5018SOL     OW15952   1.262   3.643   2.418
 5018SOL    HW115953   1.353   3.674   2.390
 5018SOL    HW215954   1.196   3.670   2.349
 5019SOL     OW15955   0.987   4.962   5.777
 5019SOL    HW115956   0.907   5.020   5.785
 5019SOL    HW215957   0.959   4.866   5.766
 5020SOL     OW15958   5.320   0.217   6.752
 5020SOL    HW115959   5.222   0.234   6.756
 5020SOL    HW215960   5.366   0.271   6.822
 5021SOL     OW15961   0.794   1.324   0.369
 5021SOL    HW115962   0.882   1.279   0.387
 5021SOL    HW215963   0.739   1.324   0.453
 5022SOL     OW15964   1.411   1.420   0.274
 5022SOL    HW115965   1.486   1.367   0.313
 5022SOL    HW215966   1.424   1.428   0.176
 5023SOL     OW15967   6.874   3.383   1.444
 5023SOL    HW115968   6.813   3.438   1.388
 5023SOL    HW215969   6.864   3.410   1.540
 5024SOL     OW15970   6.477   5.432   1.945
 5024SOL    HW115971   6.460   5.386   1.858
 5024SOL    HW215972   6.576   5.439   1.960
 5025SOL     OW15973   3.538   1.693   2.094
 5025SOL    HW115974   3.625   1.644   2.088
 5025SOL    HW215975   3.473   1.654   2.029
 5026SOL     OW15976   6.034   6.273   5.416
 5026SOL    HW115977   6.077   6.234   5.335
 5026SOL    HW215978   6.066   6.226   5.498
 5027SOL     OW15979   0.283   6.335   1.569
 5027SOL    HW115980   0.347   6.395   1.618
 5027SOL    HW215981   0.228   6.390   1.506
 5028SOL     OW15982   0.148   2.165   2.334
 5028SOL    HW115983   0.148   2.152   2.235
 5028SOL    HW215984   0.232   2.210   2.363
 5029SOL     OW15985   6.562   1.900   2.226
 5029SOL    HW115986   6.651   1.920   2.187
 5029SOL    HW215987   6.521   1.822   2.179
 5030SOL     OW15988   0.189   6.595   0.295
 5030SOL    HW115989   0.157   6.575   0.387
 5030SOL    HW215990   0.282   6.632   0.299
 5031SOL     OW15991   6.053   0.299   5.711
 5031SOL    HW115992   6.139   0.284   5.759
 5031SOL    HW215993   6.048   0.237   5.632
 5032SOL     OW15994   1.995   1.850   0.431
 5032SOL    HW115995   1.944   1.778   0.479
 5032SOL    HW215996   2.051   1.900   0.496
 5033SOL     OW15997   2.068   0.135   5.679
 5033SOL    HW115998   2.063   0.042   5.715
 5033SOL    HW215999   2.162   0.154   5.648
 5034SOL     OW16000   5.767   0.440   3.285
 5034SOL    HW116001   5.730   0.495   3.210
 5034SOL    HW216002   5.692   0.398   3.336
 5035SOL     OW16003   0.994   3.649   0.077
 5035SOL    HW116004   0.964   3.743   0.096
 5035SOL    HW216005   1.078   3.631   0.127
 5036SOL     OW16006   0.848   4.778   6.467
 5036SOL    HW116007   0.841   4.722   6.550
 5036SOL    HW216008   0.906   4.732   6.400
 5037SOL     OW16009   5.550   4.472   2.399
 5037SOL    HW116010   5.484   4.414   2.447
 5037SOL    HW216011   5.618   4.415   2.354
 5038SOL     OW16012   3.699   3.796   6.445
 5038SOL    HW116013   3.687   3.738   6.525
 5038SOL    HW216014   3.759   3.873   6.468
 5039SOL     OW16015   3.019   4.409   5.608
 5039SOL    HW116016   2.928   4.393   5.647
 5039SOL    HW216017   3.079   4.332   5.632
 5040SOL     OW16018   1.791   6.162   5.528
 5040SOL    HW116019   1.767   6.124   5.438
 5040SOL    HW216020   1.792   6.089   5.596
 5041SOL     OW16021   2.419   1.563   2.740
 5041SOL    HW116022   2.363   1.525   2.666
 5041SOL    HW216023   2.372   1.641   2.781
 5042SOL     OW16024   6.638   2.813   0.129
 5042SOL    HW116025   6.706   2.813   0.202
 5042SOL    HW216026   6.547   2.831   0.168
 5043SOL     OW16027   3.147   6.958   6.082
 5043SOL    HW116028   3.214   6.900   6.036
 5043SOL    HW216029   3.071   6.902   6.114
 5044SOL     OW16030   0.433   6.720   0.021
 5044SOL    HW116031   0.443   6.638   6.980
 5044SOL    HW216032   0.422   6.692   0.117
 5045SOL     OW16033   5.067   0.452   6.597
 5045SOL    HW116034   5.050   0.365   6.643
 5045SOL    HW216035   5.060   0.440   6.498
 5046SOL     OW16036   3.160   4.060   2.680
 5046SOL    HW116037   3.087   4.106   2.630
 5046SOL    HW216038   3.198   3.987   2.624
 5047SOL     OW16039   0.629   4.223   1.981
 5047SOL    HW116040   0.711   4.166   1.976
 5047SOL    HW216041   0.551   4.168   2.009
 5048SOL     OW16042   0.684   1.456   2.250
 5048SOL    HW116043   0.648   1.375   2.204
 5048SOL    HW216044   0.784   1.456   2.244
 5049SOL     OW16045   5.729   2.409   6.027
 5049SOL    HW116046   5.779   2.395   5.942
 5049SOL    HW216047   5.758   2.342   6.095
 5050SOL     OW16048   1.530   1.581   1.472
 5050SOL    HW116049   1.558   1.607   1.564
 5050SOL    HW216050   1.583   1.633   1.405
 5051SOL     OW16051   4.810   4.771   0.969
 5051SOL    HW116052   4.840   4.864   0.990
 5051SOL    HW216053   4.710   4.766   0.973
 5052SOL     OW16054   2.483   0.869   6.663
 5052SOL    HW116055   2.571   0.916   6.655
 5052SOL    HW216056   2.421   0.924   6.720
 5053SOL     OW16057   2.195   4.099   3.359
 5053SOL    HW116058   2.212   4.192   3.392
 5053SOL    HW216059   2.120   4.100   3.293
 5054SOL     OW16060   3.537   5.150   5.289
 5054SOL    HW116061   3.438   5.136   5.283
 5054SOL    HW216062   3.581   5.066   5.319
 5055SOL     OW16063   1.940   2.090   5.868
 5055SOL    HW116064   1.921   2.006   5.817
 5055SOL    HW216065   1.868   2.157   5.850
 5056SOL     OW16066   6.727   4.025   6.572
 5056SOL    HW116067   6.684   4.015   6.662
 5056SOL    HW216068   6.673   3.975   6.504
 5057SOL     OW16069   0.443   6.091   4.027
 5057SOL    HW116070   0.467   6.155   3.954
 5057SOL    HW216071   0.456   5.997   3.994
 5058SOL     OW16072   2.793   3.149   5.578
 5058SOL    HW116073   2.750   3.097   5.504
 5058SOL    HW216074   2.729   3.218   5.611
 5059SOL     OW16075   5.649   1.026   3.811
 5059SOL    HW116076   5.581   0.954   3.797
 5059SOL    HW216077   5.678   1.062   3.722
 5060SOL     OW16078   0.814   1.851   5.497
 5060SOL    HW116079   0.736   1.788   5.500
 5060SOL    HW216080   0.820   1.901   5.583
 5061SOL     OW16081   3.878   2.661   1.717
 5061SOL    HW116082   3.947   2.712   1.666
 5061SOL    HW216083   3.910   2.567   1.729
 5062SOL     OW16084   4.650   1.276   3.219
 5062SOL    HW116085   4.714   1.220   3.168
 5062SOL    HW216086   4.601   1.337   3.156
 5063SOL     OW16087   0.957   6.479   2.271
 5063SOL    HW116088   0.858   6.477   2.262
 5063SOL    HW216089   0.993   6.386   2.263
 5064SOL     OW16090   5.023   4.355   1.812
 5064SOL    HW116091   5.028   4.256   1.795
 5064SOL    HW216092   4.927   4.382   1.816
 5065SOL     OW16093   1.991   0.918   3.669
 5065SOL    HW116094   1.953   0.866   3.592
 5065SOL    HW216095   2.085   0.887   3.687
 5066SOL     OW16096   4.299   4.950   2.049
 5066SOL    HW116097   4.246   4.867   2.066
 5066SOL    HW216098   4.281   4.983   1.956
 5067SOL     OW16099   4.807   0.892   1.423
 5067SOL    HW116100   4.738   0.886   1.494
 5067SOL    HW216101   4.829   0.988   1.405
 5068SOL     OW16102   2.822   4.940   0.254
 5068SOL    HW116103   2.873   5.010   0.203
 5068SOL    HW216104   2.793   4.868   0.192
 5069SOL     OW16105   2.364   3.579   5.969
 5069SOL    HW116106   2.427   3.506   5.994
 5069SOL    HW216107   2.416   3.658   5.935
 5070SOL     OW16108   4.461   5.003   3.746
 5070SOL    HW116109   4.372   4.985   3.705
 5070SOL    HW216110   4.532   4.997   3.675
 5071SOL     OW16111   3.981   2.026   3.171
 5071SOL    HW116112   3.959   1.975   3.254
 5071SOL    HW216113   3.900   2.073   3.137
 5072SOL     OW16114   0.878   0.284   1.273
 5072SOL    HW116115   0.897   0.365   1.217
 5072SOL    HW216116   0.950   0.272   1.340
 5073SOL     OW16117   0.178   5.684   1.933
 5073SOL    HW116118   0.110   5.690   1.860
 5073SOL    HW216119   0.224   5.595   1.929
 5074SOL     OW16120   3.313   2.618   1.013
 5074SOL    HW116121   3.348   2.708   0.987
 5074SOL    HW216122   3.302   2.614   1.113
 5075SOL     OW16123   0.927   1.777   6.312
 5075SOL    HW116124   0.906   1.845   6.383
 5075SOL    HW216125   1.014   1.734   6.333
 5076SOL     OW16126   4.391   1.132   0.670
 5076SOL    HW116127   4.458   1.126   0.744
 5076SOL    HW216128   4.399   1.222   0.626
 5077SOL     OW16129   2.125   4.721   5.143
 5077SOL    HW116130   2.113   4.627   5.110
 5077SOL    HW216131   2.208   4.726   5.197
 5078SOL     OW16132   0.814   1.077   4.147
 5078SOL    HW116133   0.778   1.019   4.221
 5078SOL    HW216134   0.903   1.043   4.118
 5079SOL     OW16135   1.871   2.933   5.955
 5079SOL    HW116136   1.947   2.873   5.929
 5079SOL    HW216137   1.821   2.894   6.031
 5080SOL     OW16138   6.163   6.753   6.059
 5080SOL    HW116139   6.183   6.818   5.985
 5080SOL    HW216140   6.132   6.666   6.019
 5081SOL     OW16141   3.020   3.235   4.639
 5081SOL    HW116142   3.035   3.154   4.695
 5081SOL    HW216143   3.105   3.261   4.594
 5082SOL     OW16144   4.697   5.784   0.369
 5082SOL    HW116145   4.664   5.720   0.300
 5082SOL    HW216146   4.653   5.873   0.356
 5083SOL     OW16147   2.341   6.442   2.086
 5083SOL    HW116148   2.256   6.494   2.090
 5083SOL    HW216149   2.417   6.501   2.114
 5084SOL     OW16150   0.545   4.820   4.623
 5084SOL    HW116151   0.510   4.880   4.552
 5084SOL    HW216152   0.479   4.747   4.642
 5085SOL     OW16153   5.286   3.252   6.501
 5085SOL    HW116154   5.374   3.268   6.545
 5085SOL    HW216155   5.215   3.304   6.548
 5086SOL     OW16156   1.146   5.795   3.405
 5086SOL    HW116157   1.118   5.729   3.475
 5086SOL    HW216158   1.133   5.888   3.439
 5087SOL     OW16159   1.896   5.187   2.489
 5087SOL    HW116160   1.819   5.140   2.532
 5087SOL    HW216161   1.915   5.145   2.401
 5088SOL     OW16162   6.381   1.250   4.634
 5088SOL    HW116163   6.413   1.267   4.727
 5088SOL    HW216164   6.330   1.329   4.601
 5089SOL     OW16165   5.067   3.900   4.207
 5089SOL    HW116166   4.998   3.829   4.218
 5089SOL    HW216167   5.023   3.989   4.198
 5090SOL     OW16168   1.831   4.011   2.549
 5090SOL    HW116169   1.910   4.059   2.586
 5090SOL    HW216170   1.821   4.031   2.452
 5091SOL     OW16171   0.835   0.135   2.666
 5091SOL    HW116172   0.810   0.172   2.577
 5091SOL    HW216173   0.787   0.185   2.738
 5092SOL     OW16174   3.326   3.470   1.434
 5092SOL    HW116175   3.405   3.433   1.483
 5092SOL    HW216176   3.344   3.471   1.336
 5093SOL     OW16177   2.792   1.192   1.547
 5093SOL    HW116178   2.801   1.254   1.469
 5093SOL    HW216179   2.696   1.187   1.574
 5094SOL     OW16180   2.438   5.573   5.898
 5094SOL    HW116181   2.379   5.525   5.834
 5094SOL    HW216182   2.523   5.599   5.853
 5095SOL     OW16183   6.081   2.090   4.792
 5095SOL    HW116184   6.135   2.024   4.739
 5095SOL    HW216185   6.060   2.051   4.881
 5096SOL     OW16186   4.149   4.420   0.614
 5096SOL    HW116187   4.227   4.399   0.556
 5096SOL    HW216188   4.066   4.422   0.558
 5097SOL     OW16189   1.238   0.712   6.609
 5097SOL    HW116190   1.257   0.614   6.603
 5097SOL    HW216191   1.244   0.753   6.518
 5098SOL     OW16192   1.920   0.531   1.679
 5098SOL    HW116193   1.822   0.524   1.697
 5098SOL    HW216194   1.935   0.603   1.611
 5099SOL     OW16195   0.795   6.396   6.629
 5099SOL    HW116196   0.843   6.396   6.717
 5099SOL    HW216197   0.791   6.489   6.592
 5100SOL     OW16198   3.786   5.279   5.361
 5100SOL    HW116199   3.699   5.235   5.338
 5100SOL    HW216200   3.789   5.296   5.460
 5101SOL     OW16201   4.987   6.338   0.085
 5101SOL    HW116202   4.942   6.358   0.172
 5101SOL    HW216203   4.974   6.415   0.022
 5102SOL     OW16204   5.189   0.189   4.081
 5102SOL    HW116205   5.259   0.194   4.152
 5102SOL    HW216206   5.215   0.121   4.013
 5103SOL     OW16207   0.195   1.787   3.825
 5103SOL    HW116208   0.271   1.807   3.764
 5103SOL    HW216209   0.224   1.721   3.894
 5104SOL     OW16210   1.558   6.685   2.775
 5104SOL    HW116211   1.555   6.585   2.781
 5104SOL    HW216212   1.513   6.715   2.691
 5105SOL     OW16213   3.482   3.089   0.289
 5105SOL    HW116214   3.406   3.064   0.348
 5105SOL    HW216215   3.538   3.008   0.270
 5106SOL     OW16216   3.539   1.096   0.330
 5106SOL    HW116217   3.546   1.187   0.290
 5106SOL    HW216218   3.622   1.044   0.309
 5107SOL     OW16219   3.250   1.146   0.384
 5107SOL    HW116220   3.220   1.183   0.296
 5107SOL    HW216221   3.346   1.121   0.380
 5108SOL     OW16222   3.054   3.519   4.363
 5108SOL    HW116223   3.025   3.599   4.416
 5108SOL    HW216224   3.106   3.457   4.422
 5109SOL     OW16225   1.134   0.939   0.493
 5109SOL    HW116226   1.225   0.901   0.508
 5109SOL    HW216227   1.093   0.896   0.412
 5110SOL     OW16228   0.319   0.740   6.312
 5110SOL    HW116229   0.323   0.838   6.329
 5110SOL    HW216230   0.394   0.695   6.361
 5111SOL     OW16231   2.908   1.340   5.453
 5111SOL    HW116232   2.877   1.307   5.542
 5111SOL    HW216233   2.939   1.263   5.398
 5112SOL     OW16234   0.920   6.982   2.873
 5112SOL    HW116235   0.956   6.989   2.967
 5112SOL    HW216236   0.971   0.029   2.814
 5113SOL     OW16237   2.168   6.550   1.211
 5113SOL    HW116238   2.217   6.621   1.161
 5113SOL    HW216239   2.081   6.531   1.166
 5114SOL     OW16240   2.903   1.417   0.153
 5114SOL    HW116241   2.879   1.322   0.170
 5114SOL    HW216242   2.878   1.442   0.059
 5115SOL     OW16243   1.981   5.325   4.364
 5115SOL    HW116244   1.958   5.403   4.306
 5115SOL    HW216245   1.937   5.336   4.453
 5116SOL     OW16246   6.265   6.946   6.978
 5116SOL    HW116247   6.303   6.952   0.055
 5116SOL    HW216248   6.205   6.867   6.971
 5117SOL     OW16249   2.777   4.904   4.878
 5117SOL    HW116250   2.805   4.819   4.924
 5117SOL    HW216251   2.721   4.958   4.941
 5118SOL     OW16252   4.728   0.726   0.185
 5118SOL    HW116253   4.761   0.775   0.105
 5118SOL    HW216254   4.723   0.628   0.165
 5119SOL     OW16255   5.163   0.844   1.534
 5119SOL    HW116256   5.252   0.801   1.547
 5119SOL    HW216257   5.092   0.774   1.527
 5120SOL     OW16258   4.025   1.755   4.155
 5120SOL    HW116259   4.110   1.736   4.105
 5120SOL    HW216260   4.035   1.725   4.250
 5121SOL     OW16261   2.721   1.764   0.151
 5121SOL    HW116262   2.644   1.712   0.115
 5121SOL    HW216263   2.700   1.795   0.244
 5122SOL     OW16264   3.032   6.648   2.779
 5122SOL    HW116265   3.003   6.552   2.779
 5122SOL    HW216266   2.985   6.697   2.852
 5123SOL     OW16267   4.933   1.376   5.233
 5123SOL    HW116268   4.847   1.350   5.277
 5123SOL    HW216269   4.995   1.298   5.234
 5124SOL     OW16270   3.056   4.845   4.671
 5124SOL    HW116271   2.977   4.798   4.633
 5124SOL    HW216272   3.078   4.806   4.760
 5125SOL     OW16273   6.745   3.190   3.878
 5125SOL    HW116274   6.679   3.258   3.846
 5125SOL    HW216275   6.731   3.104   3.827
 5126SOL     OW16276   6.380   5.652   5.771
 5126SOL    HW116277   6.377   5.727   5.705
 5126SOL    HW216278   6.461   5.663   5.829
 5127SOL     OW16279   0.575   3.782   0.316
 5127SOL    HW116280   0.587   3.684   0.330
 5127SOL    HW216281   0.487   3.799   0.272
 5128SOL     OW16282   6.500   0.694   6.775
 5128SOL    HW116283   6.598   0.679   6.789
 5128SOL    HW216284   6.486   0.759   6.701
 5129SOL     OW16285   4.924   0.507   2.720
 5129SOL    HW116286   4.915   0.439   2.793
 5129SOL    HW216287   4.930   0.461   2.632
 5130SOL     OW16288   1.689   5.425   4.091
 5130SOL    HW116289   1.621   5.366   4.135
 5130SOL    HW216290   1.708   5.391   3.999
 5131SOL     OW16291   2.656   5.121   4.211
 5131SOL    HW116292   2.655   5.074   4.123
 5131SOL    HW216293   2.581   5.186   4.215
 5132SOL     OW16294   3.287   2.173   6.334
 5132SOL    HW116295   3.215   2.239   6.312
 5132SOL    HW216296   3.376   2.217   6.329
 5133SOL     OW16297   1.812   4.923   6.421
 5133SOL    HW116298   1.762   4.980   6.355
 5133SOL    HW216299   1.767   4.929   6.510
 5134SOL     OW16300   6.791   1.087   1.958
 5134SOL    HW116301   6.814   1.181   1.931
 5134SOL    HW216302   6.708   1.089   2.015
 5135SOL     OW16303   5.317   3.663   4.467
 5135SOL    HW116304   5.238   3.611   4.434
 5135SOL    HW216305   5.361   3.613   4.541
 5136SOL     OW16306   5.542   0.452   6.597
 5136SOL    HW116307   5.630   0.499   6.607
 5136SOL    HW216308   5.468   0.515   6.615
 5137SOL     OW16309   4.854   3.366   5.513
 5137SOL    HW116310   4.854   3.465   5.494
 5137SOL    HW216311   4.805   3.318   5.441
 5138SOL     OW16312   4.071   3.632   4.474
 5138SOL    HW116313   4.087   3.686   4.391
 5138SOL    HW216314   4.110   3.680   4.553
 5139SOL     OW16315   1.066   0.192   4.265
 5139SOL    HW116316   1.060   0.283   4.306
 5139SOL    HW216317   1.155   0.152   4.286
 5140SOL     OW16318   3.833   1.729   5.684
 5140SOL    HW116319   3.741   1.726   5.722
 5140SOL    HW216320   3.860   1.825   5.672
 5141SOL     OW16321   6.138   3.998   0.771
 5141SOL    HW116322   6.212   4.061   0.745
 5141SOL    HW216323   6.158   3.959   0.861
 5142SOL     OW16324   5.499   6.058   3.766
 5142SOL    HW116325   5.486   5.967   3.803
 5142SOL    HW216326   5.463   6.062   3.673
 5143SOL     OW16327   0.283   4.801   4.279
 5143SOL    HW116328   0.213   4.841   4.337
 5143SOL    HW216329   0.310   4.711   4.315
 5144SOL     OW16330   1.239   4.774   5.406
 5144SOL    HW116331   1.226   4.860   5.456
 5144SOL    HW216332   1.155   4.752   5.357
 5145SOL     OW16333   3.456   5.891   6.501
 5145SOL    HW116334   3.356   5.896   6.507
 5145SOL    HW216335   3.495   5.914   6.590
 5146SOL     OW16336   3.248   3.584   5.550
 5146SOL    HW116337   3.228   3.498   5.503
 5146SOL    HW216338   3.184   3.655   5.519
 5147SOL     OW16339   6.942   5.762   3.977
 5147SOL    HW116340   6.932   5.859   3.997
 5147SOL    HW216341   6.960   5.750   3.880
 5148SOL     OW16342   0.273   0.971   2.114
 5148SOL    HW116343   0.245   1.003   2.023
 5148SOL    HW216344   0.361   0.924   2.108
 5149SOL     OW16345   6.520   5.311   4.481
 5149SOL    HW116346   6.508   5.221   4.439
 5149SOL    HW216347   6.486   5.309   4.574
 5150SOL     OW16348   2.193   5.477   3.654
 5150SOL    HW116349   2.145   5.444   3.735
 5150SOL    HW216350   2.260   5.546   3.682
 5151SOL     OW16351   0.025   3.722   2.251
 5151SOL    HW116352   7.008   3.778   2.175
 5151SOL    HW216353   6.967   3.663   2.283
 5152SOL     OW16354   1.376   5.220   6.977
 5152SOL    HW116355   1.352   5.136   6.928
 5152SOL    HW216356   1.329   5.222   0.050
 5153SOL     OW16357   0.590   2.302   0.862
 5153SOL    HW116358   0.615   2.212   0.827
 5153SOL    HW216359   0.660   2.368   0.837
 5154SOL     OW16360   0.990   2.703   5.978
 5154SOL    HW116361   1.012   2.732   6.071
 5154SOL    HW216362   1.005   2.779   5.915
 5155SOL     OW16363   3.978   6.747   1.992
 5155SOL    HW116364   4.009   6.690   2.069
 5155SOL    HW216365   3.897   6.798   2.020
 5156SOL     OW16366   5.366   4.911   5.616
 5156SOL    HW116367   5.433   4.836   5.620
 5156SOL    HW216368   5.393   4.975   5.544
 5157SOL     OW16369   3.154   2.108   2.859
 5157SOL    HW116370   3.234   2.077   2.807
 5157SOL    HW216371   3.176   2.107   2.956
 5158SOL     OW16372   4.176   2.058   1.056
 5158SOL    HW116373   4.081   2.088   1.063
 5158SOL    HW216374   4.179   1.970   1.008
 5159SOL     OW16375   5.653   3.146   5.886
 5159SOL    HW116376   5.665   3.118   5.791
 5159SOL    HW216377   5.708   3.088   5.946
 5160SOL     OW16378   0.092   4.872   3.344
 5160SOL    HW116379   0.105   4.908   3.252
 5160SOL    HW216380   7.011   4.849   3.358
 5161SOL     OW16381   1.771   3.562   6.713
 5161SOL    HW116382   1.773   3.662   6.705
 5161SOL    HW216383   1.862   3.529   6.739
 5162SOL     OW16384   0.949   5.398   2.986
 5162SOL    HW116385   0.888   5.444   3.052
 5162SOL    HW216386   0.934   5.299   2.991
 5163SOL     OW16387   2.988   6.760   1.022
 5163SOL    HW116388   2.905   6.786   1.071
 5163SOL    HW216389   3.068   6.800   1.067
 5164SOL     OW16390   3.845   2.751   0.154
 5164SOL    HW116391   3.761   2.797   0.124
 5164SOL    HW216392   3.858   2.765   0.252
 5165SOL     OW16393   0.816   3.835   6.017
 5165SOL    HW116394   0.819   3.753   6.075
 5165SOL    HW216395   0.731   3.833   5.963
 5166SOL     OW16396   1.773   5.316   2.801
 5166SOL    HW116397   1.750   5.220   2.784
 5166SOL    HW216398   1.790   5.329   2.899
 5167SOL     OW16399   6.224   4.573   5.556
 5167SOL    HW116400   6.235   4.518   5.473
 5167SOL    HW216401   6.314   4.586   5.599
 5168SOL     OW16402   5.376   3.437   2.214
 5168SOL    HW116403   5.362   3.453   2.312
 5168SOL    HW216404   5.364   3.522   2.164
 5169SOL     OW16405   3.574   1.963   3.298
 5169SOL    HW116406   3.669   1.960   3.331
 5169SOL    HW216407   3.573   1.955   3.199
 5170SOL     OW16408   1.520   3.620   4.834
 5170SOL    HW116409   1.455   3.694   4.818
 5170SOL    HW216410   1.515   3.590   4.929
 5171SOL     OW16411   0.294   4.077   5.948
 5171SOL    HW116412   0.292   3.999   6.011
 5171SOL    HW216413   0.320   4.045   5.857
 5172SOL     OW16414   1.798   3.311   2.354
 5172SOL    HW116415   1.777   3.322   2.257
 5172SOL    HW216416   1.729   3.358   2.409
 5173SOL     OW16417   4.308   5.314   5.214
 5173SOL    HW116418   4.238   5.332   5.145
 5173SOL    HW216419   4.386   5.269   5.170
 5174SOL     OW16420   2.444   4.789   3.237
 5174SOL    HW116421   2.455   4.754   3.330
 5174SOL    HW216422   2.378   4.865   3.238
 5175SOL     OW16423   3.103   3.745   6.763
 5175SOL    HW116424   3.053   3.695   6.834
 5175SOL    HW216425   3.043   3.759   6.684
 5176SOL     OW16426   5.141   3.917   0.414
 5176SOL    HW116427   5.229   3.869   0.422
 5176SOL    HW216428   5.067   3.849   0.408
 5177SOL     OW16429   5.683   6.659   0.689
 5177SOL    HW116430   5.622   6.686   0.614
 5177SOL    HW216431   5.764   6.615   0.652
 5178SOL     OW16432   1.367   3.482   2.638
 5178SOL    HW116433   1.323   3.544   2.572
 5178SOL    HW216434   1.297   3.443   2.699
 5179SOL     OW16435   4.651   4.592   4.227
 5179SOL    HW116436   4.558   4.584   4.191
 5179SOL    HW216437   4.647   4.624   4.322
 5180SOL     OW16438   2.970   1.164   1.249
 5180SOL    HW116439   2.931   1.076   1.277
 5180SOL    HW216440   3.032   1.149   1.172
 5181SOL     OW16441   5.094   1.182   2.209
 5181SOL    HW116442   5.154   1.214   2.281
 5181SOL    HW216443   5.062   1.259   2.154
 5182SOL     OW16444   4.200   4.691   1.901
 5182SOL    HW116445   4.255   4.612   1.928
 5182SOL    HW216446   4.244   4.738   1.825
 5183SOL     OW16447   3.444   1.733   2.803
 5183SOL    HW116448   3.362   1.722   2.859
 5183SOL    HW216449   3.478   1.643   2.776
 5184SOL     OW16450   0.757   2.479   3.780
 5184SOL    HW116451   0.778   2.572   3.809
 5184SOL    HW216452   0.659   2.471   3.761
 5185SOL     OW16453   4.735   1.045   3.075
 5185SOL    HW116454   4.724   0.952   3.111
 5185SOL    HW216455   4.676   1.057   2.995
 5186SOL     OW16456   5.887   1.428   0.231
 5186SOL    HW116457   5.965   1.462   0.178
 5186SOL    HW216458   5.814   1.401   0.169
 5187SOL     OW16459   1.264   6.081   4.673
 5187SOL    HW116460   1.218   6.000   4.709
 5187SOL    HW216461   1.212   6.163   4.698
 5188SOL     OW16462   6.530   5.413   1.647
 5188SOL    HW116463   6.590   5.478   1.601
 5188SOL    HW216464   6.519   5.332   1.590
 5189SOL     OW16465   4.369   5.535   0.703
 5189SOL    HW116466   4.308   5.555   0.626
 5189SOL    HW216467   4.341   5.449   0.746
 5190SOL     OW16468   0.578   3.352   4.447
 5190SOL    HW116469   0.498   3.296   4.428
 5190SOL    HW216470   0.642   3.302   4.505
 5191SOL     OW16471   3.829   6.659   2.488
 5191SOL    HW116472   3.889   6.584   2.518
 5191SOL    HW216473   3.884   6.737   2.461
 5192SOL     OW16474   1.764   5.596   1.346
 5192SOL    HW116475   1.699   5.521   1.357
 5192SOL    HW216476   1.795   5.626   1.437
 5193SOL     OW16477   5.302   5.747   5.513
 5193SOL    HW116478   5.325   5.675   5.448
 5193SOL    HW216479   5.255   5.707   5.592
 5194SOL     OW16480   4.314   2.087   7.011
 5194SOL    HW116481   4.382   2.136   0.050
 5194SOL    HW216482   4.256   2.152   6.963
 5195SOL     OW16483   0.119   0.272   4.371
 5195SOL    HW116484   0.186   0.264   4.297
 5195SOL    HW216485   0.158   0.235   4.455
 5196SOL     OW16486   4.762   6.819   1.875
 5196SOL    HW116487   4.802   6.908   1.897
 5196SOL    HW216488   4.710   6.787   1.954
 5197SOL     OW16489   2.009   3.935   6.353
 5197SOL    HW116490   2.099   3.968   6.325
 5197SOL    HW216491   2.006   3.836   6.345
 5198SOL     OW16492   4.681   6.256   3.347
 5198SOL    HW116493   4.743   6.216   3.279
 5198SOL    HW216494   4.686   6.355   3.342
 5199SOL     OW16495   0.943   5.966   0.245
 5199SOL    HW116496   0.845   5.946   0.243
 5199SOL    HW216497   0.988   5.920   0.169
 5200SOL     OW16498   0.010   3.710   5.362
 5200SOL    HW116499   0.009   3.760   5.276
 5200SOL    HW216500   6.947   3.649   5.366
 5201SOL     OW16501   0.553   6.762   2.971
 5201SOL    HW116502   0.646   6.727   2.985
 5201SOL    HW216503   0.488   6.706   3.023
 5202SOL     OW16504   5.018   2.634   6.339
 5202SOL    HW116505   4.960   2.702   6.383
 5202SOL    HW216506   5.077   2.680   6.272
 5203SOL     OW16507   2.219   2.470   6.741
 5203SOL    HW116508   2.198   2.548   6.800
 5203SOL    HW216509   2.198   2.385   6.789
 5204SOL     OW16510   3.294   5.336   6.356
 5204SOL    HW116511   3.285   5.249   6.404
 5204SOL    HW216512   3.337   5.403   6.417
 5205SOL     OW16513   0.417   6.486   1.129
 5205SOL    HW116514   0.374   6.568   1.090
 5205SOL    HW216515   0.489   6.454   1.068
 5206SOL     OW16516   0.674   4.172   5.927
 5206SOL    HW116517   0.768   4.169   5.963
 5206SOL    HW216518   0.667   4.112   5.847
 5207SOL     OW16519   1.107   5.815   3.830
 5207SOL    HW116520   1.176   5.880   3.799
 5207SOL    HW216521   1.048   5.859   3.898
 5208SOL     OW16522   3.478   1.904   6.335
 5208SOL    HW116523   3.527   1.913   6.249
 5208SOL    HW216524   3.479   1.992   6.383
 5209SOL     OW16525   5.803   5.819   3.372
 5209SOL    HW116526   5.723   5.854   3.421
 5209SOL    HW216527   5.774   5.750   3.306
 5210SOL     OW16528   5.251   2.999   5.470
 5210SOL    HW116529   5.218   3.037   5.383
 5210SOL    HW216530   5.283   2.906   5.456
 5211SOL     OW16531   3.335   3.253   4.856
 5211SOL    HW116532   3.248   3.204   4.848
 5211SOL    HW216533   3.350   3.279   4.951
 5212SOL     OW16534   6.484   2.367   1.023
 5212SOL    HW116535   6.538   2.445   0.991
 5212SOL    HW216536   6.389   2.396   1.039
 5213SOL     OW16537   4.403   3.843   6.895
 5213SOL    HW116538   4.341   3.766   6.883
 5213SOL    HW216539   4.364   3.925   6.852
 5214SOL     OW16540   4.702   1.776   5.634
 5214SOL    HW116541   4.693   1.870   5.668
 5214SOL    HW216542   4.657   1.768   5.545
 5215SOL     OW16543   6.026   4.847   3.635
 5215SOL    HW116544   6.119   4.870   3.604
 5215SOL    HW216545   5.996   4.763   3.590
 5216SOL     OW16546   4.411   5.250   1.414
 5216SOL    HW116547   4.483   5.266   1.483
 5216SOL    HW216548   4.331   5.210   1.458
 5217SOL     OW16549   3.546   5.551   4.517
 5217SOL    HW116550   3.618   5.502   4.565
 5217SOL    HW216551   3.565   5.649   4.518
 5218SOL     OW16552   0.938   0.866   3.868
 5218SOL    HW116553   0.887   0.781   3.881
 5218SOL    HW216554   1.029   0.845   3.833
 5219SOL     OW16555   3.834   0.628   5.847
 5219SOL    HW116556   3.932   0.614   5.859
 5219SOL    HW216557   3.784   0.558   5.897
 5220SOL     OW16558   1.613   5.835   2.532
 5220SOL    HW116559   1.681   5.765   2.513
 5220SOL    HW216560   1.522   5.795   2.530
 5221SOL     OW16561   5.449   2.258   3.983
 5221SOL    HW116562   5.450   2.168   3.941
 5221SOL    HW216563   5.510   2.320   3.933
 5222SOL     OW16564   3.449   5.888   3.371
 5222SOL    HW116565   3.351   5.883   3.350
 5222SOL    HW216566   3.502   5.853   3.293
 5223SOL     OW16567   6.275   2.273   0.758
 5223SOL    HW116568   6.360   2.274   0.810
 5223SOL    HW216569   6.198   2.289   0.820
 5224SOL     OW16570   0.096   2.672   4.062
 5224SOL    HW116571   0.025   2.742   4.050
 5224SOL    HW216572   0.134   2.648   3.973
 5225SOL     OW16573   0.398   0.098   3.675
 5225SOL    HW116574   0.309   0.141   3.687
 5225SOL    HW216575   0.394   0.003   3.706
 5226SOL     OW16576   0.515   6.148   4.697
 5226SOL    HW116577   0.426   6.103   4.709
 5226SOL    HW216578   0.585   6.097   4.747
 5227SOL     OW16579   1.345   3.456   4.034
 5227SOL    HW116580   1.330   3.472   3.937
 5227SOL    HW216581   1.443   3.460   4.055
 5228SOL     OW16582   6.184   2.261   1.663
 5228SOL    HW116583   6.209   2.291   1.755
 5228SOL    HW216584   6.211   2.165   1.651
 5229SOL     OW16585   1.845   5.738   0.062
 5229SOL    HW116586   1.810   5.712   6.988
 5229SOL    HW216587   1.826   5.665   0.128
 5230SOL     OW16588   0.603   6.440   0.940
 5230SOL    HW116589   0.603   6.437   0.840
 5230SOL    HW216590   0.693   6.416   0.975
 5231SOL     OW16591   3.997   3.496   5.591
 5231SOL    HW116592   4.048   3.410   5.580
 5231SOL    HW216593   4.042   3.568   5.539
 5232SOL     OW16594   3.577   2.045   5.645
 5232SOL    HW116595   3.576   1.956   5.689
 5232SOL    HW216596   3.525   2.111   5.700
 5233SOL     OW16597   5.172   0.633   1.896
 5233SOL    HW116598   5.167   0.731   1.918
 5233SOL    HW216599   5.127   0.616   1.809
 5234SOL     OW16600   2.571   0.952   0.315
 5234SOL    HW116601   2.669   0.954   0.297
 5234SOL    HW216602   2.533   0.865   0.281
 5235SOL     OW16603   2.163   2.980   1.122
 5235SOL    HW116604   2.197   3.000   1.214
 5235SOL    HW216605   2.106   3.055   1.090
 5236SOL     OW16606   5.996   4.153   2.704
 5236SOL    HW116607   5.980   4.056   2.687
 5236SOL    HW216608   6.070   4.185   2.646
 5237SOL     OW16609   2.181   0.968   5.102
 5237SOL    HW116610   2.099   1.014   5.135
 5237SOL    HW216611   2.211   0.901   5.170
 5238SOL     OW16612   1.145   3.983   0.371
 5238SOL    HW116613   1.144   3.935   0.459
 5238SOL    HW216614   1.240   3.995   0.342
 5239SOL     OW16615   3.824   2.965   4.189
 5239SOL    HW116616   3.852   2.972   4.285
 5239SOL    HW216617   3.889   3.014   4.132
 5240SOL     OW16618   3.375   1.660   6.446
 5240SOL    HW116619   3.281   1.641   6.418
 5240SOL    HW216620   3.404   1.749   6.411
 5241SOL     OW16621   0.738   5.227   5.541
 5241SOL    HW116622   0.725   5.324   5.562
 5241SOL    HW216623   0.818   5.216   5.482
 5242SOL     OW16624   6.831   5.868   6.313
 5242SOL    HW116625   6.767   5.833   6.381
 5242SOL    HW216626   6.922   5.831   6.332
 5243SOL     OW16627   1.416   5.541   1.574
 5243SOL    HW116628   1.325   5.508   1.551
 5243SOL    HW216629   1.431   5.535   1.672
 5244SOL     OW16630   3.469   4.417   6.579
 5244SOL    HW116631   3.557   4.444   6.540
 5244SOL    HW216632   3.424   4.353   6.517
 5245SOL     OW16633   4.701   4.447   0.590
 5245SOL    HW116634   4.794   4.482   0.598
 5245SOL    HW216635   4.637   4.524   0.590
 5246SOL     OW16636   5.874   4.419   2.631
 5246SOL    HW116637   5.916   4.349   2.688
 5246SOL    HW216638   5.837   4.376   2.548
 5247SOL     OW16639   0.658   0.249   0.353
 5247SOL    HW116640   0.563   0.251   0.383
 5247SOL    HW216641   0.677   0.162   0.308
 5248SOL     OW16642   5.288   0.806   4.146
 5248SOL    HW116643   5.376   0.827   4.105
 5248SOL    HW216644   5.282   0.851   4.236
 5249SOL     OW16645   6.814   4.448   5.224
 5249SOL    HW116646   6.896   4.445   5.167
 5249SOL    HW216647   6.823   4.384   5.300
 5250SOL     OW16648   1.263   1.021   5.521
 5250SOL    HW116649   1.222   1.083   5.455
 5250SOL    HW216650   1.248   1.055   5.614
 5251SOL     OW16651   0.542   3.138   0.372
 5251SOL    HW116652   0.572   3.216   0.318
 5251SOL    HW216653   0.536   3.164   0.468
 5252SOL     OW16654   2.138   5.859   0.892
 5252SOL    HW116655   2.133   5.893   0.798
 5252SOL    HW216656   2.107   5.764   0.895
 5253SOL     OW16657   5.586   3.707   4.530
 5253SOL    HW116658   5.513   3.694   4.463
 5253SOL    HW216659   5.551   3.759   4.608
 5254SOL     OW16660   4.441   1.697   2.884
 5254SOL    HW116661   4.493   1.633   2.940
 5254SOL    HW216662   4.348   1.663   2.872
 5255SOL     OW16663   4.781   0.651   6.016
 5255SOL    HW116664   4.787   0.663   5.917
 5255SOL    HW216665   4.714   0.716   6.054
 5256SOL     OW16666   4.339   0.833   3.276
 5256SOL    HW116667   4.403   0.910   3.284
 5256SOL    HW216668   4.341   0.780   3.361
 5257SOL     OW16669   4.825   6.291   2.273
 5257SOL    HW116670   4.875   6.297   2.187
 5257SOL    HW216671   4.818   6.383   2.314
 5258SOL     OW16672   5.511   3.697   1.766
 5258SOL    HW116673   5.582   3.765   1.779
 5258SOL    HW216674   5.446   3.700   1.842
 5259SOL     OW16675   4.660   6.084   0.700
 5259SOL    HW116676   4.698   6.014   0.761
 5259SOL    HW216677   4.560   6.079   0.702
 5260SOL     OW16678   5.549   3.742   0.942
 5260SOL    HW116679   5.619   3.744   1.013
 5260SOL    HW216680   5.460   3.762   0.982
 5261SOL     OW16681   1.404   3.551   6.753
 5261SOL    HW116682   1.444   3.514   6.670
 5261SOL    HW216683   1.388   3.649   6.742
 5262SOL     OW16684   2.709   0.472   3.230
 5262SOL    HW116685   2.727   0.388   3.279
 5262SOL    HW216686   2.611   0.481   3.213
 5263SOL     OW16687   1.497   0.923   5.445
 5263SOL    HW116688   1.419   0.947   5.504
 5263SOL    HW216689   1.491   0.976   5.360
 5264SOL     OW16690   5.696   1.258   2.668
 5264SOL    HW116691   5.707   1.355   2.691
 5264SOL    HW216692   5.603   1.229   2.691
 5265SOL     OW16693   5.305   4.031   3.539
 5265SOL    HW116694   5.382   4.038   3.475
 5265SOL    HW216695   5.221   4.013   3.488
 5266SOL     OW16696   2.902   6.449   1.781
 5266SOL    HW116697   2.958   6.531   1.793
 5266SOL    HW216698   2.805   6.473   1.787
 5267SOL     OW16699   4.835   4.103   5.405
 5267SOL    HW116700   4.904   4.033   5.382
 5267SOL    HW216701   4.818   4.101   5.503
 5268SOL     OW16702   6.303   0.471   6.400
 5268SOL    HW116703   6.221   0.472   6.457
 5268SOL    HW216704   6.292   0.538   6.326
 5269SOL     OW16705   2.082   6.902   4.163
 5269SOL    HW116706   2.055   6.807   4.146
 5269SOL    HW216707   2.057   6.958   4.084
 5270SOL     OW16708   5.431   1.705   1.939
 5270SOL    HW116709   5.418   1.802   1.917
 5270SOL    HW216710   5.529   1.687   1.949
 5271SOL     OW16711   5.834   5.754   5.078
 5271SOL    HW116712   5.858   5.683   5.144
 5271SOL    HW216713   5.857   5.844   5.116
 5272SOL     OW16714   2.016   6.213   2.020
 5272SOL    HW116715   1.998   6.162   1.936
 5272SOL    HW216716   1.934   6.263   2.047
 5273SOL     OW16717   6.694   3.099   3.331
 5273SOL    HW116718   6.732   3.122   3.242
 5273SOL    HW216719   6.613   3.154   3.348
 5274SOL     OW16720   6.691   6.064   2.021
 5274SOL    HW116721   6.754   6.012   1.963
 5274SOL    HW216722   6.651   6.003   2.090
 5275SOL     OW16723   3.885   1.967   6.568
 5275SOL    HW116724   3.862   1.989   6.473
 5275SOL    HW216725   3.805   1.930   6.614
 5276SOL     OW16726   1.145   0.855   0.925
 5276SOL    HW116727   1.091   0.880   0.844
 5276SOL    HW216728   1.236   0.826   0.896
 5277SOL     OW16729   1.518   2.039   3.141
 5277SOL    HW116730   1.443   2.044   3.207
 5277SOL    HW216731   1.592   1.982   3.179
 5278SOL     OW16732   4.564   0.196   4.082
 5278SOL    HW116733   4.521   0.259   4.147
 5278SOL    HW216734   4.622   0.247   4.019
 5279SOL     OW16735   1.435   5.284   6.689
 5279SOL    HW116736   1.413   5.212   6.755
 5279SOL    HW216737   1.356   5.344   6.678
 5280SOL     OW16738   3.391   6.454   5.347
 5280SOL    HW116739   3.379   6.355   5.349
 5280SOL    HW216740   3.463   6.479   5.283
 5281SOL     OW16741   0.593   1.549   3.031
 5281SOL    HW116742   0.593   1.514   2.938
 5281SOL    HW216743   0.687   1.562   3.062
 5282SOL     OW16744   2.178   1.861   3.087
 5282SOL    HW116745   2.234   1.837   3.008
 5282SOL    HW216746   2.202   1.952   3.119
 5283SOL     OW16747   3.758   6.894   2.084
 5283SOL    HW116748   3.828   6.955   2.121
 5283SOL    HW216749   3.674   6.903   2.136
 5284SOL     OW16750   5.460   3.748   2.936
 5284SOL    HW116751   5.392   3.760   3.008
 5284SOL    HW216752   5.415   3.743   2.847
 5285SOL     OW16753   2.067   4.098   4.213
 5285SOL    HW116754   2.146   4.086   4.152
 5285SOL    HW216755   2.049   4.012   4.261
 5286SOL     OW16756   0.282   3.821   1.019
 5286SOL    HW116757   0.229   3.786   0.942
 5286SOL    HW216758   0.222   3.870   1.082
 5287SOL     OW16759   1.548   5.841   1.811
 5287SOL    HW116760   1.622   5.788   1.851
 5287SOL    HW216761   1.566   5.939   1.825
 5288SOL     OW16762   3.796   0.480   2.531
 5288SOL    HW116763   3.745   0.470   2.617
 5288SOL    HW216764   3.732   0.499   2.457
 5289SOL     OW16765   1.587   5.694   6.194
 5289SOL    HW116766   1.657   5.760   6.170
 5289SOL    HW216767   1.501   5.742   6.215
 5290SOL     OW16768   1.690   4.700   5.270
 5290SOL    HW116769   1.719   4.743   5.185
 5290SOL    HW216770   1.723   4.606   5.273
 5291SOL     OW16771   2.917   5.089   5.601
 5291SOL    HW116772   2.871   5.093   5.512
 5291SOL    HW216773   3.015   5.098   5.589
 5292SOL     OW16774   6.468   4.810   0.296
 5292SOL    HW116775   6.550   4.789   0.242
 5292SOL    HW216776   6.388   4.774   0.249
 5293SOL     OW16777   1.261   0.941   3.928
 5293SOL    HW116778   1.328   0.964   3.858
 5293SOL    HW216779   1.227   0.848   3.913
 5294SOL     OW16780   5.690   2.873   5.098
 5294SOL    HW116781   5.742   2.788   5.105
 5294SOL    HW216782   5.696   2.908   5.005
 5295SOL     OW16783   4.204   0.938   2.475
 5295SOL    HW116784   4.223   0.960   2.570
 5295SOL    HW216785   4.254   1.001   2.415
 5296SOL     OW16786   2.011   5.420   0.423
 5296SOL    HW116787   2.062   5.412   0.338
 5296SOL    HW216788   1.938   5.352   0.426
 5297SOL     OW16789   2.905   1.952   0.638
 5297SOL    HW116790   2.961   2.035   0.639
 5297SOL    HW216791   2.919   1.900   0.722
 5298SOL     OW16792   1.294   6.160   6.559
 5298SOL    HW116793   1.225   6.150   6.488
 5298SOL    HW216794   1.369   6.096   6.542
 5299SOL     OW16795   2.670   2.562   1.021
 5299SOL    HW116796   2.745   2.625   1.037
 5299SOL    HW216797   2.696   2.497   0.949
 5300SOL     OW16798   0.807   6.129   1.746
 5300SOL    HW116799   0.763   6.078   1.671
 5300SOL    HW216800   0.904   6.140   1.726
 5301SOL     OW16801   3.682   2.210   6.381
 5301SOL    HW116802   3.727   2.128   6.347
 5301SOL    HW216803   3.682   2.209   6.481
 5302SOL     OW16804   5.757   5.162   3.698
 5302SOL    HW116805   5.684   5.186   3.761
 5302SOL    HW216806   5.820   5.097   3.742
 5303SOL     OW16807   6.703   5.712   2.848
 5303SOL    HW116808   6.786   5.666   2.819
 5303SOL    HW216809   6.645   5.649   2.899
 5304SOL     OW16810   5.525   1.550   6.762
 5304SOL    HW116811   5.496   1.615   6.692
 5304SOL    HW216812   5.554   1.601   6.844
 5305SOL     OW16813   1.423   5.281   3.834
 5305SOL    HW116814   1.378   5.285   3.924
 5305SOL    HW216815   1.437   5.374   3.800
 5306SOL     OW16816   0.728   4.755   5.131
 5306SOL    HW116817   0.631   4.764   5.110
 5306SOL    HW216818   0.780   4.825   5.081
 5307SOL     OW16819   4.227   0.131   0.655
 5307SOL    HW116820   4.205   0.065   0.728
 5307SOL    HW216821   4.180   0.103   0.571
 5308SOL     OW16822   0.977   6.313   3.529
 5308SOL    HW116823   0.903   6.378   3.544
 5308SOL    HW216824   1.030   6.303   3.614
 5309SOL     OW16825   3.859   4.685   1.746
 5309SOL    HW116826   3.762   4.666   1.755
 5309SOL    HW216827   3.893   4.727   1.831
 5310SOL     OW16828   6.042   3.544   1.830
 5310SOL    HW116829   6.107   3.576   1.761
 5310SOL    HW216830   6.021   3.448   1.815
 5311SOL     OW16831   0.420   6.400   0.127
 5311SOL    HW116832   0.342   6.425   0.184
 5311SOL    HW216833   0.392   6.331   0.061
 5312SOL     OW16834   0.613   4.691   1.581
 5312SOL    HW116835   0.595   4.788   1.597
 5312SOL    HW216836   0.527   4.640   1.583
 5313SOL     OW16837   1.511   4.845   6.411
 5313SOL    HW116838   1.609   4.851   6.430
 5313SOL    HW216839   1.497   4.843   6.312
 5314SOL     OW16840   3.601   6.158   0.022
 5314SOL    HW116841   3.507   6.186   0.005
 5314SOL    HW216842   3.636   6.206   0.103
 5315SOL     OW16843   4.957   3.289   1.736
 5315SOL    HW116844   5.006   3.288   1.649
 5315SOL    HW216845   4.947   3.195   1.770
 5316SOL     OW16846   0.253   4.537   5.085
 5316SOL    HW116847   0.185   4.469   5.055
 5316SOL    HW216848   0.227   4.572   5.175
 5317SOL     OW16849   6.866   6.807   5.044
 5317SOL    HW116850   6.876   6.708   5.052
 5317SOL    HW216851   6.940   6.844   4.988
 5318SOL     OW16852   6.976   2.194   6.197
 5318SOL    HW116853   0.040   2.204   6.137
 5318SOL    HW216854   6.972   2.100   6.232
 5319SOL     OW16855   4.860   6.790   6.833
 5319SOL    HW116856   4.943   6.816   6.883
 5319SOL    HW216857   4.851   6.690   6.832
 5320SOL     OW16858   6.095   4.875   0.306
 5320SOL    HW116859   6.104   4.944   0.235
 5320SOL    HW216860   6.054   4.792   0.268
 5321SOL     OW16861   1.010   4.187   3.345
 5321SOL    HW116862   1.075   4.113   3.364
 5321SOL    HW216863   1.028   4.264   3.407
 5322SOL     OW16864   4.101   6.247   6.259
 5322SOL    HW116865   4.121   6.335   6.215
 5322SOL    HW216866   4.077   6.264   6.355
 5323SOL     OW16867   3.597   2.811   6.839
 5323SOL    HW116868   3.665   2.853   6.898
 5323SOL    HW216869   3.541   2.882   6.796
 5324SOL     OW16870   3.955   2.398   1.362
 5324SOL    HW116871   3.938   2.307   1.400
 5324SOL    HW216872   3.938   2.468   1.432
 5325SOL     OW16873   4.518   0.637   4.122
 5325SOL    HW116874   4.489   0.708   4.188
 5325SOL    HW216875   4.600   0.592   4.156
 5326SOL     OW16876   0.042   5.324   3.999
 5326SOL    HW116877   0.095   5.257   4.051
 5326SOL    HW216878   0.097   5.360   3.924
 5327SOL     OW16879   5.489   4.134   5.182
 5327SOL    HW116880   5.400   4.138   5.227
 5327SOL    HW216881   5.522   4.227   5.167
 5328SOL     OW16882   3.773   3.130   5.682
 5328SOL    HW116883   3.759   3.065   5.757
 5328SOL    HW216884   3.748   3.222   5.713
 5329SOL     OW16885   6.667   4.453   0.315
 5329SOL    HW116886   6.739   4.493   0.373
 5329SOL    HW216887   6.684   4.356   0.303
 5330SOL     OW16888   3.873   3.994   5.960
 5330SOL    HW116889   3.877   3.981   5.861
 5330SOL    HW216890   3.864   3.905   6.005
 5331SOL     OW16891   5.386   1.379   1.129
 5331SOL    HW116892   5.368   1.383   1.227
 5331SOL    HW216893   5.308   1.337   1.082
 5332SOL     OW16894   0.500   3.663   1.102
 5332SOL    HW116895   0.583   3.715   1.117
 5332SOL    HW216896   0.423   3.725   1.090
 5333SOL     OW16897   0.936   0.465   3.492
 5333SOL    HW116898   1.033   0.489   3.499
 5333SOL    HW216899   0.880   0.544   3.519
 5334SOL     OW16900   3.619   6.809   4.735
 5334SOL    HW116901   3.527   6.771   4.744
 5334SOL    HW216902   3.612   6.908   4.718
 5335SOL     OW16903   6.616   5.440   2.602
 5335SOL    HW116904   6.529   5.392   2.601
 5335SOL    HW216905   6.618   5.508   2.528
 5336SOL     OW16906   1.813   1.871   3.014
 5336SOL    HW116907   1.767   1.827   3.092
 5336SOL    HW216908   1.812   1.809   2.936
 5337SOL     OW16909   5.441   4.678   2.243
 5337SOL    HW116910   5.446   4.666   2.144
 5337SOL    HW216911   5.466   4.593   2.288
 5338SOL     OW16912   6.036   0.664   5.911
 5338SOL    HW116913   5.978   0.583   5.906
 5338SOL    HW216914   6.023   0.719   5.828
 5339SOL     OW16915   6.237   2.124   3.214
 5339SOL    HW116916   6.323   2.072   3.215
 5339SOL    HW216917   6.222   2.161   3.123
 5340SOL     OW16918   5.561   3.563   1.535
 5340SOL    HW116919   5.522   3.611   1.613
 5340SOL    HW216920   5.656   3.592   1.523
 5341SOL     OW16921   3.340   5.019   6.002
 5341SOL    HW116922   3.252   5.039   6.046
 5341SOL    HW216923   3.325   4.955   5.927
 5342SOL     OW16924   4.321   6.960   4.461
 5342SOL    HW116925   4.332   0.040   4.490
 5342SOL    HW216926   4.392   6.904   4.503
 5343SOL     OW16927   3.790   3.632   4.891
 5343SOL    HW116928   3.822   3.563   4.827
 5343SOL    HW216929   3.691   3.623   4.902
 5344SOL     OW16930   1.739   1.935   0.885
 5344SOL    HW116931   1.665   1.884   0.928
 5344SOL    HW216932   1.824   1.920   0.936
 5345SOL     OW16933   4.313   6.126   0.405
 5345SOL    HW116934   4.319   6.176   0.491
 5345SOL    HW216935   4.332   6.029   0.422
 5346SOL     OW16936   3.358   5.271   3.740
 5346SOL    HW116937   3.325   5.211   3.813
 5346SOL    HW216938   3.458   5.266   3.736
 5347SOL     OW16939   6.746   2.919   2.212
 5347SOL    HW116940   6.672   2.890   2.151
 5347SOL    HW216941   6.740   3.017   2.228
 5348SOL     OW16942   6.829   1.824   0.759
 5348SOL    HW116943   6.907   1.858   0.707
 5348SOL    HW216944   6.818   1.879   0.842
 5349SOL     OW16945   2.502   2.665   0.287
 5349SOL    HW116946   2.456   2.702   0.207
 5349SOL    HW216947   2.466   2.574   0.307
 5350SOL     OW16948   1.371   0.000   4.736
 5350SOL    HW116949   1.309   6.937   4.737
 5350SOL    HW216950   1.455   6.991   4.688
 5351SOL     OW16951   6.720   5.271   1.995
 5351SOL    HW116952   6.715   5.291   1.897
 5351SOL    HW216953   6.798   5.211   2.012
 5352SOL     OW16954   1.962   5.042   3.168
 5352SOL    HW116955   2.032   4.979   3.135
 5352SOL    HW216956   1.992   5.136   3.156
 5353SOL     OW16957   3.910   5.315   4.297
 5353SOL    HW116958   3.941   5.365   4.216
 5353SOL    HW216959   3.818   5.279   4.281
 5354SOL     OW16960   2.048   4.677   0.639
 5354SOL    HW116961   1.998   4.701   0.723
 5354SOL    HW216962   2.064   4.760   0.585
 5355SOL     OW16963   6.200   4.392   4.741
 5355SOL    HW116964   6.106   4.420   4.761
 5355SOL    HW216965   6.205   4.359   4.647
 5356SOL     OW16966   6.510   3.624   2.425
 5356SOL    HW116967   6.562   3.619   2.340
 5356SOL    HW216968   6.564   3.670   2.495
 5357SOL     OW16969   2.742   5.940   7.006
 5357SOL    HW116970   2.759   5.943   0.089
 5357SOL    HW216971   2.725   5.845   6.978
 5358SOL     OW16972   4.630   1.575   0.352
 5358SOL    HW116973   4.533   1.588   0.329
 5358SOL    HW216974   4.648   1.614   0.442
 5359SOL     OW16975   2.304   0.982   6.310
 5359SOL    HW116976   2.379   0.921   6.335
 5359SOL    HW216977   2.339   1.057   6.254
 5360SOL     OW16978   3.643   6.212   3.382
 5360SOL    HW116979   3.731   6.222   3.336
 5360SOL    HW216980   3.648   6.138   3.449
 5361SOL     OW16981   2.318   0.739   4.703
 5361SOL    HW116982   2.379   0.670   4.664
 5361SOL    HW216983   2.369   0.795   4.769
 5362SOL     OW16984   6.143   6.362   2.440
 5362SOL    HW116985   6.119   6.392   2.532
 5362SOL    HW216986   6.061   6.360   2.383
 5363SOL     OW16987   6.328   6.693   5.482
 5363SOL    HW116988   6.392   6.751   5.431
 5363SOL    HW216989   6.308   6.611   5.429
 5364SOL     OW16990   6.658   0.230   1.970
 5364SOL    HW116991   6.595   0.227   1.893
 5364SOL    HW216992   6.752   0.226   1.937
 5365SOL     OW16993   3.849   3.097   1.274
 5365SOL    HW116994   3.929   3.153   1.296
 5365SOL    HW216995   3.777   3.114   1.341
 5366SOL     OW16996   6.136   6.071   0.836
 5366SOL    HW116997   6.228   6.100   0.862
 5366SOL    HW216998   6.131   6.059   0.737
 5367SOL     OW16999   0.333   6.863   1.340
 5367SOL    HW117000   0.289   6.790   1.288
 5367SOL    HW217001   0.282   6.948   1.329
 5368SOL     OW17002   5.911   0.078   2.010
 5368SOL    HW117003   5.979   0.005   2.010
 5368SOL    HW217004   5.858   0.074   2.095
 5369SOL     OW17005   2.545   6.677   0.642
 5369SOL    HW117006   2.505   6.669   0.733
 5369SOL    HW217007   2.502   6.752   0.592
 5370SOL     OW17008   4.928   2.950   0.627
 5370SOL    HW117009   4.893   2.896   0.550
 5370SOL    HW217010   4.854   2.966   0.692
 5371SOL     OW17011   0.410   4.001   5.690
 5371SOL    HW117012   0.333   4.019   5.628
 5371SOL    HW217013   0.491   4.050   5.658
 5372SOL     OW17014   1.305   5.642   3.192
 5372SOL    HW117015   1.382   5.700   3.167
 5372SOL    HW217016   1.270   5.670   3.282
 5373SOL     OW17017   4.020   6.591   5.014
 5373SOL    HW117018   3.955   6.649   4.965
 5373SOL    HW217019   4.057   6.522   4.953
 5374SOL     OW17020   2.214   3.990   0.525
 5374SOL    HW117021   2.204   4.013   0.429
 5374SOL    HW217022   2.129   3.952   0.560
 5375SOL     OW17023   0.669   6.359   4.589
 5375SOL    HW117024   0.616   6.441   4.570
 5375SOL    HW217025   0.618   6.301   4.653
 5376SOL     OW17026   0.968   2.221   1.310
 5376SOL    HW117027   1.058   2.199   1.271
 5376SOL    HW217028   0.919   2.136   1.331
 5377SOL     OW17029   0.315   6.876   2.516
 5377SOL    HW117030   0.343   6.943   2.586
 5377SOL    HW217031   0.272   6.798   2.560
 5378SOL     OW17032   6.888   0.086   2.429
 5378SOL    HW117033   6.985   0.059   2.428
 5378SOL    HW217034   6.872   0.154   2.357
 5379SOL     OW17035   0.561   4.053   4.812
 5379SOL    HW117036   0.468   4.042   4.778
 5379SOL    HW217037   0.560   4.065   4.911
 5380SOL     OW17038   2.800   0.366   2.532
 5380SOL    HW117039   2.736   0.295   2.502
 5380SOL    HW217040   2.885   0.358   2.479
 5381SOL     OW17041   6.216   5.188   2.005
 5381SOL    HW117042   6.304   5.142   2.014
 5381SOL    HW217043   6.198   5.206   1.908
 5382SOL     OW17044   2.839   1.316   2.169
 5382SOL    HW117045   2.873   1.362   2.086
 5382SOL    HW217046   2.776   1.376   2.217
 5383SOL     OW17047   2.171   2.427   4.933
 5383SOL    HW117048   2.083   2.473   4.925
 5383SOL    HW217049   2.243   2.496   4.947
 5384SOL     OW17050   5.472   0.090   4.798
 5384SOL    HW117051   5.494   0.120   4.891
 5384SOL    HW217052   5.503   7.011   4.785
 5385SOL     OW17053   3.594   3.849   4.482
 5385SOL    HW117054   3.683   3.877   4.520
 5385SOL    HW217055   3.590   3.873   4.385
 5386SOL     OW17056   4.618   1.001   4.107
 5386SOL    HW117057   4.635   1.097   4.132
 5386SOL    HW217058   4.524   0.977   4.129
 5387SOL     OW17059   1.922   6.591   3.569
 5387SOL    HW117060   1.827   6.568   3.547
 5387SOL    HW217061   1.965   6.514   3.614
 5388SOL     OW17062   0.536   0.917   3.000
 5388SOL    HW117063   0.459   0.857   3.024
 5388SOL    HW217064   0.509   0.976   2.924
 5389SOL     OW17065   3.409   1.583   3.340
 5389SOL    HW117066   3.502   1.550   3.327
 5389SOL    HW217067   3.408   1.654   3.410
 5390SOL     OW17068   4.808   3.889   3.629
 5390SOL    HW117069   4.834   3.859   3.721
 5390SOL    HW217070   4.788   3.987   3.629
 5391SOL     OW17071   2.740   1.351   0.994
 5391SOL    HW117072   2.736   1.328   0.897
 5391SOL    HW217073   2.692   1.437   1.010
 5392SOL     OW17074   5.944   3.620   1.374
 5392SOL    HW117075   5.938   3.520   1.378
 5392SOL    HW217076   6.025   3.646   1.321
 5393SOL     OW17077   5.417   0.508   5.321
 5393SOL    HW117078   5.375   0.441   5.382
 5393SOL    HW217079   5.495   0.550   5.366
 5394SOL     OW17080   0.344   5.627   1.253
 5394SOL    HW117081   0.347   5.696   1.325
 5394SOL    HW217082   0.383   5.664   1.169
 5395SOL     OW17083   5.084   1.081   1.248
 5395SOL    HW117084   4.993   1.085   1.209
 5395SOL    HW217085   5.147   1.038   1.183
 5396SOL     OW17086   5.768   4.319   1.813
 5396SOL    HW117087   5.697   4.259   1.779
 5396SOL    HW217088   5.743   4.353   1.904
 5397SOL     OW17089   0.195   2.825   1.519
 5397SOL    HW117090   0.193   2.725   1.518
 5397SOL    HW217091   0.201   2.857   1.614
 5398SOL     OW17092   2.682   2.282   3.648
 5398SOL    HW117093   2.685   2.354   3.718
 5398SOL    HW217094   2.663   2.322   3.559
 5399SOL     OW17095   2.496   6.392   0.514
 5399SOL    HW117096   2.403   6.355   0.520
 5399SOL    HW217097   2.506   6.469   0.577
 5400SOL     OW17098   3.243   3.395   6.839
 5400SOL    HW117099   3.219   3.300   6.859
 5400SOL    HW217100   3.160   3.446   6.813
 5401SOL     OW17101   6.785   4.840   2.385
 5401SOL    HW117102   6.881   4.864   2.378
 5401SOL    HW217103   6.774   4.759   2.443
 5402SOL     OW17104   2.215   6.112   1.660
 5402SOL    HW117105   2.226   6.125   1.561
 5402SOL    HW217106   2.265   6.183   1.709
 5403SOL     OW17107   5.747   2.963   5.684
 5403SOL    HW117108   5.797   2.886   5.645
 5403SOL    HW217109   5.665   2.980   5.629
 5404SOL     OW17110   0.637   0.329   3.257
 5404SOL    HW117111   0.598   0.323   3.165
 5404SOL    HW217112   0.595   0.405   3.307
 5405SOL     OW17113   5.403   5.695   6.795
 5405SOL    HW117114   5.385   5.753   6.716
 5405SOL    HW217115   5.336   5.715   6.867
 5406SOL     OW17116   1.954   0.140   5.421
 5406SOL    HW117117   1.861   0.172   5.403
 5406SOL    HW217118   1.992   0.191   5.498
 5407SOL     OW17119   3.520   1.568   0.977
 5407SOL    HW117120   3.465   1.489   0.951
 5407SOL    HW217121   3.617   1.548   0.962
 5408SOL     OW17122   3.796   0.454   6.054
 5408SOL    HW117123   3.848   0.384   6.005
 5408SOL    HW217124   3.792   0.430   6.151
 5409SOL     OW17125   6.950   1.688   3.272
 5409SOL    HW117126   6.996   1.767   3.233
 5409SOL    HW217127   6.938   1.618   3.201
 5410SOL     OW17128   1.099   2.378   6.442
 5410SOL    HW117129   1.068   2.449   6.379
 5410SOL    HW217130   1.086   2.288   6.401
 5411SOL     OW17131   6.052   5.472   5.969
 5411SOL    HW117132   6.034   5.459   5.871
 5411SOL    HW217133   5.970   5.446   6.021
 5412SOL     OW17134   3.609   1.337   6.714
 5412SOL    HW117135   3.530   1.285   6.683
 5412SOL    HW217136   3.614   1.424   6.665
 5413SOL     OW17137   0.082   0.476   1.019
 5413SOL    HW117138   0.062   0.474   0.921
 5413SOL    HW217139   0.107   0.569   1.046
 5414SOL     OW17140   6.248   3.825   4.699
 5414SOL    HW117141   6.185   3.849   4.773
 5414SOL    HW217142   6.206   3.847   4.611
 5415SOL     OW17143   1.304   6.079   2.113
 5415SOL    HW117144   1.357   6.041   2.189
 5415SOL    HW217145   1.208   6.054   2.124
 5416SOL     OW17146   3.243   5.059   5.540
 5416SOL    HW117147   3.328   5.102   5.567
 5416SOL    HW217148   3.226   5.076   5.443
 5417SOL     OW17149   4.350   6.278   4.593
 5417SOL    HW117150   4.298   6.362   4.578
 5417SOL    HW217151   4.337   6.248   4.688
 5418SOL     OW17152   5.081   0.448   4.160
 5418SOL    HW117153   5.084   0.488   4.252
 5418SOL    HW217154   5.142   0.369   4.156
 5419SOL     OW17155   3.443   5.514   0.056
 5419SOL    HW117156   3.542   5.501   0.066
 5419SOL    HW217157   3.411   5.466   6.989
 5420SOL     OW17158   2.112   2.716   1.789
 5420SOL    HW117159   2.056   2.773   1.729
 5420SOL    HW217160   2.208   2.743   1.781
 5421SOL     OW17161   2.470   5.129   3.044
 5421SOL    HW117162   2.557   5.116   3.094
 5421SOL    HW217163   2.396   5.084   3.095
 5422SOL     OW17164   1.143   5.634   4.573
 5422SOL    HW117165   1.078   5.564   4.601
 5422SOL    HW217166   1.225   5.590   4.536
 5423SOL     OW17167   5.821   4.388   0.122
 5423SOL    HW117168   5.747   4.380   0.055
 5423SOL    HW217169   5.782   4.383   0.215
 5424SOL     OW17170   5.656   3.538   4.271
 5424SOL    HW117171   5.682   3.623   4.316
 5424SOL    HW217172   5.596   3.485   4.330
 5425SOL     OW17173   5.365   2.167   4.589
 5425SOL    HW117174   5.265   2.164   4.591
 5425SOL    HW217175   5.395   2.260   4.568
 5426SOL     OW17176   6.372   5.394   3.840
 5426SOL    HW117177   6.412   5.471   3.888
 5426SOL    HW217178   6.345   5.422   3.748
 5427SOL     OW17179   5.273   4.004   0.837
 5427SOL    HW117180   5.251   4.066   0.913
 5427SOL    HW217181   5.362   4.028   0.799
 5428SOL     OW17182   6.066   6.950   2.280
 5428SOL    HW117183   5.973   6.915   2.274
 5428SOL    HW217184   6.120   6.892   2.341
 5429SOL     OW17185   1.815   1.219   5.352
 5429SOL    HW117186   1.831   1.242   5.448
 5429SOL    HW217187   1.721   1.188   5.340
 5430SOL     OW17188   2.201   2.576   6.268
 5430SOL    HW117189   2.161   2.616   6.186
 5430SOL    HW217190   2.283   2.524   6.243
 5431SOL     OW17191   3.441   4.194   6.338
 5431SOL    HW117192   3.442   4.128   6.262
 5431SOL    HW217193   3.533   4.230   6.352
 5432SOL     OW17194   3.429   5.541   6.495
 5432SOL    HW117195   3.528   5.559   6.488
 5432SOL    HW217196   3.408   5.515   6.590
 5433SOL     OW17197   0.197   0.628   2.810
 5433SOL    HW117198   0.124   0.578   2.856
 5433SOL    HW217199   0.243   0.568   2.745
 5434SOL     OW17200   4.185   1.019   4.743
 5434SOL    HW117201   4.224   1.092   4.799
 5434SOL    HW217202   4.259   0.972   4.694
 5435SOL     OW17203   6.102   1.798   1.547
 5435SOL    HW117204   6.011   1.759   1.564
 5435SOL    HW217205   6.172   1.730   1.571
 5436SOL     OW17206   5.754   4.251   4.387
 5436SOL    HW117207   5.732   4.160   4.421
 5436SOL    HW217208   5.853   4.265   4.390
 5437SOL     OW17209   2.964   5.452   5.757
 5437SOL    HW117210   3.011   5.531   5.716
 5437SOL    HW217211   3.032   5.387   5.790
 5438SOL     OW17212   6.283   3.672   2.162
 5438SOL    HW117213   6.293   3.704   2.256
 5438SOL    HW217214   6.217   3.597   2.159
 5439SOL     OW17215   6.992   2.677   0.490
 5439SOL    HW117216   6.995   2.577   0.480
 5439SOL    HW217217   6.935   2.701   0.568
 5440SOL     OW17218   6.692   0.221   3.764
 5440SOL    HW117219   6.644   0.137   3.789
 5440SOL    HW217220   6.710   0.220   3.665
 5441SOL     OW17221   4.731   2.677   3.401
 5441SOL    HW117222   4.697   2.767   3.426
 5441SOL    HW217223   4.713   2.612   3.474
 5442SOL     OW17224   2.902   6.819   2.942
 5442SOL    HW117225   2.810   6.859   2.935
 5442SOL    HW217226   2.909   6.766   3.027
 5443SOL     OW17227   3.384   5.430   4.123
 5443SOL    HW117228   3.358   5.443   4.027
 5443SOL    HW217229   3.473   5.472   4.139
 5444SOL     OW17230   0.215   0.443   3.496
 5444SOL    HW117231   0.312   0.466   3.494
 5444SOL    HW217232   0.160   0.526   3.483
 5445SOL     OW17233   6.074   3.961   3.802
 5445SOL    HW117234   6.064   4.041   3.743
 5445SOL    HW217235   6.162   3.917   3.785
 5446SOL     OW17236   5.528   5.523   4.929
 5446SOL    HW117237   5.554   5.455   4.998
 5446SOL    HW217238   5.604   5.536   4.866
 5447SOL     OW17239   1.345   1.604   0.561
 5447SOL    HW117240   1.280   1.639   0.493
 5447SOL    HW217241   1.307   1.523   0.605
 5448SOL     OW17242   5.993   4.493   4.538
 5448SOL    HW117243   6.043   4.410   4.513
 5448SOL    HW217244   5.981   4.496   4.637
 5449SOL     OW17245   1.908   1.684   0.666
 5449SOL    HW117246   1.999   1.706   0.700
 5449SOL    HW217247   1.857   1.635   0.737
 5450SOL     OW17248   2.960   0.597   0.692
 5450SOL    HW117249   2.937   0.556   0.780
 5450SOL    HW217250   2.926   0.539   0.618
 5451SOL     OW17251   2.406   6.481   3.687
 5451SOL    HW117252   2.352   6.495   3.770
 5451SOL    HW217253   2.363   6.531   3.611
 5452SOL     OW17254   2.743   3.962   6.780
 5452SOL    HW117255   2.684   3.882   6.798
 5452SOL    HW217256   2.745   3.980   6.682
 5453SOL     OW17257   5.404   4.283   1.914
 5453SOL    HW117258   5.335   4.305   1.983
 5453SOL    HW217259   5.494   4.281   1.956
 5454SOL     OW17260   5.106   5.735   6.564
 5454SOL    HW117261   5.085   5.741   6.466
 5454SOL    HW217262   5.027   5.696   6.612
 5455SOL     OW17263   0.069   2.205   2.650
 5455SOL    HW117264   0.024   2.131   2.700
 5455SOL    HW217265   0.155   2.171   2.611
 5456SOL     OW17266   2.754   6.919   6.964
 5456SOL    HW117267   2.704   6.961   6.889
 5456SOL    HW217268   2.750   6.978   0.029
 5457SOL     OW17269   6.333   2.051   1.893
 5457SOL    HW117270   6.323   2.065   1.795
 5457SOL    HW217271   6.344   2.139   1.939
 5458SOL     OW17272   0.567   5.095   0.820
 5458SOL    HW117273   0.653   5.073   0.774
 5458SOL    HW217274   0.531   5.181   0.786
 5459SOL     OW17275   3.666   3.595   6.631
 5459SOL    HW117276   3.764   3.574   6.639
 5459SOL    HW217277   3.616   3.546   6.702
 5460SOL     OW17278   3.415   6.123   2.970
 5460SOL    HW117279   3.387   6.153   2.879
 5460SOL    HW217280   3.499   6.068   2.962
 5461SOL     OW17281   0.278   0.930   5.393
 5461SOL    HW117282   0.324   0.885   5.316
 5461SOL    HW217283   0.347   0.964   5.457
 5462SOL     OW17284   5.519   6.592   6.890
 5462SOL    HW117285   5.551   6.498   6.887
 5462SOL    HW217286   5.570   6.643   6.959
 5463SOL     OW17287   0.177   1.387   0.048
 5463SOL    HW117288   0.181   1.297   0.092
 5463SOL    HW217289   0.265   1.406   0.004
 5464SOL     OW17290   6.268   0.299   4.415
 5464SOL    HW117291   6.349   0.250   4.383
 5464SOL    HW217292   6.288   0.397   4.420
 5465SOL     OW17293   4.717   0.609   4.444
 5465SOL    HW117294   4.788   0.644   4.383
 5465SOL    HW217295   4.630   0.653   4.424
 5466SOL     OW17296   5.149   2.998   5.021
 5466SOL    HW117297   5.094   2.930   4.971
 5466SOL    HW217298   5.244   2.966   5.027
 5467SOL     OW17299   5.436   3.827   3.648
 5467SOL    HW117300   5.374   3.896   3.612
 5467SOL    HW217301   5.496   3.794   3.575
 5468SOL     OW17302   6.345   2.473   3.880
 5468SOL    HW117303   6.342   2.381   3.918
 5468SOL    HW217304   6.440   2.497   3.856
 5469SOL     OW17305   2.767   6.701   5.800
 5469SOL    HW117306   2.858   6.712   5.759
 5469SOL    HW217307   2.769   6.736   5.894
 5470SOL     OW17308   3.703   5.417   3.617
 5470SOL    HW117309   3.655   5.333   3.643
 5470SOL    HW217310   3.640   5.495   3.627
 5471SOL     OW17311   5.987   0.303   3.229
 5471SOL    HW117312   5.902   0.352   3.248
 5471SOL    HW217313   6.059   0.335   3.291
 5472SOL     OW17314   3.164   3.630   6.328
 5472SOL    HW117315   3.229   3.700   6.298
 5472SOL    HW217316   3.110   3.599   6.250
 5473SOL     OW17317   1.533   3.348   1.749
 5473SOL    HW117318   1.498   3.301   1.830
 5473SOL    HW217319   1.579   3.282   1.689
 5474SOL     OW17320   1.287   4.397   4.185
 5474SOL    HW117321   1.367   4.447   4.154
 5474SOL    HW217322   1.290   4.304   4.149
 5475SOL     OW17323   2.048   2.495   1.060
 5475SOL    HW117324   1.986   2.452   1.126
 5475SOL    HW217325   2.123   2.539   1.109
 5476SOL     OW17326   2.069   4.925   4.974
 5476SOL    HW117327   2.062   4.842   5.030
 5476SOL    HW217328   2.101   5.001   5.031
 5477SOL     OW17329   2.344   4.291   2.523
 5477SOL    HW117330   2.324   4.211   2.580
 5477SOL    HW217331   2.338   4.374   2.579
 5478SOL     OW17332   3.030   6.197   4.532
 5478SOL    HW117333   2.943   6.214   4.486
 5478SOL    HW217334   3.027   6.233   4.625
 5479SOL     OW17335   5.505   1.317   5.639
 5479SOL    HW117336   5.524   1.304   5.736
 5479SOL    HW217337   5.542   1.240   5.587
 5480SOL     OW17338   5.969   5.734   4.010
 5480SOL    HW117339   5.898   5.732   3.940
 5480SOL    HW217340   5.935   5.691   4.093
 5481SOL     OW17341   4.461   1.203   4.590
 5481SOL    HW117342   4.557   1.179   4.605
 5481SOL    HW217343   4.455   1.292   4.546
 5482SOL     OW17344   3.681   4.431   1.482
 5482SOL    HW117345   3.730   4.518   1.485
 5482SOL    HW217346   3.708   4.375   1.561
 5483SOL     OW17347   6.989   2.391   5.414
 5483SOL    HW117348   0.002   2.295   5.415
 5483SOL    HW217349   6.904   2.400   5.362
 5484SOL     OW17350   3.854   1.155   3.865
 5484SOL    HW117351   3.899   1.066   3.870
 5484SOL    HW217352   3.922   1.226   3.849
 5485SOL     OW17353   3.623   6.963   4.345
 5485SOL    HW117354   3.623   6.869   4.313
 5485SOL    HW217355   3.593   6.967   4.440
 5486SOL     OW17356   1.763   6.058   5.271
 5486SOL    HW117357   1.698   6.025   5.202
 5486SOL    HW217358   1.817   5.981   5.304
 5487SOL     OW17359   5.723   3.474   6.854
 5487SOL    HW117360   5.760   3.400   6.911
 5487SOL    HW217361   5.634   3.447   6.819
 5488SOL     OW17362   5.917   0.182   0.942
 5488SOL    HW117363   5.922   0.250   1.015
 5488SOL    HW217364   5.986   0.112   0.956
 5489SOL     OW17365   0.912   3.983   1.519
 5489SOL    HW117366   0.880   3.979   1.424
 5489SOL    HW217367   1.008   4.010   1.520
 5490SOL     OW17368   3.184   6.890   1.146
 5490SOL    HW117369   3.172   6.825   1.221
 5490SOL    HW217370   3.281   6.911   1.134
 5491SOL     OW17371   1.707   4.054   0.804
 5491SOL    HW117372   1.730   3.957   0.800
 5491SOL    HW217373   1.779   4.103   0.854
 5492SOL     OW17374   0.089   3.003   6.187
 5492SOL    HW117375   0.184   2.976   6.172
 5492SOL    HW217376   0.086   3.090   6.236
 5493SOL     OW17377   3.116   3.917   4.119
 5493SOL    HW117378   3.043   3.874   4.067
 5493SOL    HW217379   3.105   3.898   4.216
 5494SOL     OW17380   6.662   2.700   6.497
 5494SOL    HW117381   6.701   2.719   6.407
 5494SOL    HW217382   6.613   2.781   6.530
 5495SOL     OW17383   3.784   1.284   0.695
 5495SOL    HW117384   3.833   1.227   0.629
 5495SOL    HW217385   3.735   1.225   0.760
 5496SOL     OW17386   3.606   0.882   3.612
 5496SOL    HW117387   3.555   0.873   3.697
 5496SOL    HW217388   3.673   0.808   3.605
 5497SOL     OW17389   0.591   1.914   4.481
 5497SOL    HW117390   0.547   1.889   4.394
 5497SOL    HW217391   0.568   2.008   4.504
 5498SOL     OW17392   6.334   5.880   1.089
 5498SOL    HW117393   6.398   5.919   1.155
 5498SOL    HW217394   6.301   5.952   1.028
 5499SOL     OW17395   0.507   0.408   4.950
 5499SOL    HW117396   0.425   0.446   4.993
 5499SOL    HW217397   0.571   0.481   4.929
 5500SOL     OW17398   1.085   0.596   0.566
 5500SOL    HW117399   1.055   0.658   0.494
 5500SOL    HW217400   1.171   0.629   0.605
 5501SOL     OW17401   3.097   0.735   0.429
 5501SOL    HW117402   3.150   0.650   0.433
 5501SOL    HW217403   3.082   0.760   0.333
 5502SOL     OW17404   5.500   3.554   0.367
 5502SOL    HW117405   5.498   3.525   0.272
 5502SOL    HW217406   5.430   3.505   0.419
 5503SOL     OW17407   0.657   4.761   2.303
 5503SOL    HW117408   0.681   4.674   2.260
 5503SOL    HW217409   0.696   4.765   2.395
 5504SOL     OW17410   4.080   0.724   5.178
 5504SOL    HW117411   4.140   0.733   5.098
 5504SOL    HW217412   3.998   0.779   5.163
 5505SOL     OW17413   2.220   5.240   4.475
 5505SOL    HW117414   2.265   5.201   4.395
 5505SOL    HW217415   2.129   5.271   4.450
 5506SOL     OW17416   1.246   2.245   0.277
 5506SOL    HW117417   1.190   2.308   0.330
 5506SOL    HW217418   1.273   2.168   0.334
 5507SOL     OW17419   3.663   1.170   4.594
 5507SOL    HW117420   3.653   1.144   4.498
 5507SOL    HW217421   3.585   1.225   4.622
 5508SOL     OW17422   1.411   1.152   6.550
 5508SOL    HW117423   1.511   1.149   6.545
 5508SOL    HW217424   1.382   1.205   6.629
 5509SOL     OW17425   0.365   6.493   6.852
 5509SOL    HW117426   0.436   6.423   6.850
 5509SOL    HW217427   0.346   6.524   6.759
 5510SOL     OW17428   4.715   5.527   6.927
 5510SOL    HW117429   4.703   5.577   6.840
 5510SOL    HW217430   4.673   5.579   7.001
 5511SOL     OW17431   1.855   1.441   3.821
 5511SOL    HW117432   1.865   1.380   3.900
 5511SOL    HW217433   1.758   1.460   3.806
 5512SOL     OW17434   5.522   2.106   1.403
 5512SOL    HW117435   5.589   2.177   1.425
 5512SOL    HW217436   5.568   2.031   1.357
 5513SOL     OW17437   4.440   4.258   6.120
 5513SOL    HW117438   4.527   4.210   6.104
 5513SOL    HW217439   4.397   4.277   6.032
 5514SOL     OW17440   4.104   6.837   3.962
 5514SOL    HW117441   4.117   6.771   3.888
 5514SOL    HW217442   4.014   6.879   3.954
 5515SOL     OW17443   1.033   5.873   2.429
 5515SOL    HW117444   1.007   5.970   2.425
 5515SOL    HW217445   1.015   5.831   2.340
 5516SOL     OW17446   1.747   3.929   6.352
 5516SOL    HW117447   1.732   4.027   6.361
 5516SOL    HW217448   1.845   3.909   6.359
 5517SOL     OW17449   2.371   2.792   1.779
 5517SOL    HW117450   2.355   2.889   1.764
 5517SOL    HW217451   2.465   2.769   1.754
 5518SOL     OW17452   5.963   6.849   6.733
 5518SOL    HW117453   5.959   6.751   6.754
 5518SOL    HW217454   5.873   6.881   6.705
 5519SOL     OW17455   5.675   3.752   3.459
 5519SOL    HW117456   5.762   3.707   3.480
 5519SOL    HW217457   5.667   3.764   3.360
 5520SOL     OW17458   6.330   6.989   2.421
 5520SOL    HW117459   6.276   6.971   2.503
 5520SOL    HW217460   6.353   6.902   2.377
 5521SOL     OW17461   5.831   6.075   1.862
 5521SOL    HW117462   5.788   5.985   1.861
 5521SOL    HW217463   5.769   6.141   1.905
 5522SOL     OW17464   6.481   5.151   0.300
 5522SOL    HW117465   6.552   5.131   0.232
 5522SOL    HW217466   6.458   5.068   0.350
 5523SOL     OW17467   3.548   0.974   2.081
 5523SOL    HW117468   3.458   1.006   2.050
 5523SOL    HW217469   3.589   1.044   2.140
 5524SOL     OW17470   5.355   0.169   4.307
 5524SOL    HW117471   5.301   0.123   4.378
 5524SOL    HW217472   5.406   0.244   4.348
 5525SOL     OW17473   0.241   1.750   1.032
 5525SOL    HW117474   0.298   1.739   0.951
 5525SOL    HW217475   0.256   1.840   1.072
 5526SOL     OW17476   4.652   5.548   3.748
 5526SOL    HW117477   4.642   5.640   3.710
 5526SOL    HW217478   4.578   5.490   3.714
 5527SOL     OW17479   4.959   3.789   3.839
 5527SOL    HW117480   4.978   3.722   3.768
 5527SOL    HW217481   4.949   3.743   3.927
 5528SOL     OW17482   1.472   1.107   0.096
 5528SOL    HW117483   1.398   1.067   0.042
 5528SOL    HW217484   1.473   1.206   0.082
 5529SOL     OW17485   3.062   6.981   3.360
 5529SOL    HW117486   2.967   6.960   3.334
 5529SOL    HW217487   3.111   0.000   3.281
 5530SOL     OW17488   5.744   2.301   1.479
 5530SOL    HW117489   5.834   2.270   1.449
 5530SOL    HW217490   5.714   2.247   1.557
 5531SOL     OW17491   3.269   3.634   2.105
 5531SOL    HW117492   3.171   3.640   2.088
 5531SOL    HW217493   3.317   3.607   2.022
 5532SOL     OW17494   1.196   3.285   0.705
 5532SOL    HW117495   1.127   3.260   0.637
 5532SOL    HW217496   1.262   3.211   0.716
 5533SOL     OW17497   3.660   1.835   3.053
 5533SOL    HW117498   3.584   1.791   3.006
 5533SOL    HW217499   3.712   1.766   3.103
 5534SOL     OW17500   6.943   1.590   6.405
 5534SOL    HW117501   6.865   1.552   6.355
 5534SOL    HW217502   6.958   1.536   6.488
 5535SOL     OW17503   0.021   3.066   2.997
 5535SOL    HW117504   0.046   3.032   3.088
 5535SOL    HW217505   0.008   2.989   2.935
 5536SOL     OW17506   3.024   0.883   4.568
 5536SOL    HW117507   2.985   0.793   4.547
 5536SOL    HW217508   2.984   0.952   4.508
 5537SOL     OW17509   2.649   1.057   2.800
 5537SOL    HW117510   2.574   1.097   2.747
 5537SOL    HW217511   2.632   0.959   2.813
 5538SOL     OW17512   2.366   5.902   5.985
 5538SOL    HW117513   2.453   5.906   6.036
 5538SOL    HW217514   2.384   5.874   5.891
 5539SOL     OW17515   1.219   3.410   1.429
 5539SOL    HW117516   1.180   3.367   1.511
 5539SOL    HW217517   1.258   3.340   1.370
 5540SOL     OW17518   4.737   4.645   3.533
 5540SOL    HW117519   4.686   4.589   3.599
 5540SOL    HW217520   4.688   4.731   3.517
 5541SOL     OW17521   5.785   0.523   6.125
 5541SOL    HW117522   5.824   0.511   6.034
 5541SOL    HW217523   5.750   0.616   6.135
 5542SOL     OW17524   5.418   3.570   6.095
 5542SOL    HW117525   5.390   3.475   6.106
 5542SOL    HW217526   5.344   3.623   6.054
 5543SOL     OW17527   3.974   4.730   5.706
 5543SOL    HW117528   3.898   4.667   5.693
 5543SOL    HW217529   3.941   4.813   5.751
 5544SOL     OW17530   4.718   6.045   6.187
 5544SOL    HW117531   4.735   6.096   6.102
 5544SOL    HW217532   4.779   6.078   6.259
 5545SOL     OW17533   4.189   1.249   1.991
 5545SOL    HW117534   4.277   1.256   1.944
 5545SOL    HW217535   4.116   1.281   1.930
 5546SOL     OW17536   0.691   5.158   4.457
 5546SOL    HW117537   0.730   5.076   4.499
 5546SOL    HW217538   0.623   5.132   4.389
 5547SOL     OW17539   2.592   6.722   5.174
 5547SOL    HW117540   2.514   6.755   5.226
 5547SOL    HW217541   2.563   6.650   5.111
 5548SOL     OW17542   6.132   2.433   4.863
 5548SOL    HW117543   6.223   2.406   4.830
 5548SOL    HW217544   6.063   2.407   4.796
 5549SOL     OW17545   4.427   4.257   6.396
 5549SOL    HW117546   4.423   4.160   6.420
 5549SOL    HW217547   4.465   4.267   6.304
 5550SOL     OW17548   2.567   5.311   1.965
 5550SOL    HW117549   2.496   5.361   2.016
 5550SOL    HW217550   2.609   5.373   1.898
 5551SOL     OW17551   2.257   0.785   3.020
 5551SOL    HW117552   2.219   0.835   2.941
 5551SOL    HW217553   2.217   0.822   3.104
 5552SOL     OW17554   6.357   0.925   6.978
 5552SOL    HW117555   6.297   0.872   6.918
 5552SOL    HW217556   6.439   0.951   6.928
 5553SOL     OW17557   4.502   6.483   0.098
 5553SOL    HW117558   4.525   6.491   0.001
 5553SOL    HW217559   4.403   6.470   0.107
 5554SOL     OW17560   3.843   1.015   5.466
 5554SOL    HW117561   3.943   1.015   5.465
 5554SOL    HW217562   3.810   1.004   5.560
 5555SOL     OW17563   0.871   4.266   4.121
 5555SOL    HW117564   0.812   4.239   4.045
 5555SOL    HW217565   0.900   4.361   4.109
 5556SOL     OW17566   0.208   2.327   3.989
 5556SOL    HW117567   0.307   2.333   3.977
 5556SOL    HW217568   0.164   2.319   3.900
 5557SOL     OW17569   3.633   5.949   2.995
 5557SOL    HW117570   3.589   5.865   2.962
 5557SOL    HW217571   3.704   5.925   3.062
 5558SOL     OW17572   5.002   3.756   6.470
 5558SOL    HW117573   5.055   3.680   6.432
 5558SOL    HW217574   5.030   3.842   6.427
 5559SOL     OW17575   2.834   6.929   2.034
 5559SOL    HW117576   2.740   6.917   2.001
 5559SOL    HW217577   2.832   6.951   2.131
 5560SOL     OW17578   0.510   6.569   3.590
 5560SOL    HW117579   0.525   6.627   3.510
 5560SOL    HW217580   0.420   6.528   3.585
 5561SOL     OW17581   2.074   2.710   4.281
 5561SOL    HW117582   2.090   2.808   4.296
 5561SOL    HW217583   2.101   2.659   4.363
 5562SOL     OW17584   2.946   2.199   0.015
 5562SOL    HW117585   2.913   2.249   6.951
 5562SOL    HW217586   2.984   2.111   7.002
 5563SOL     OW17587   4.595   6.173   2.670
 5563SOL    HW117588   4.566   6.155   2.576
 5563SOL    HW217589   4.520   6.155   2.733
 5564SOL     OW17590   4.251   1.637   1.602
 5564SOL    HW117591   4.281   1.731   1.590
 5564SOL    HW217592   4.313   1.589   1.664
 5565SOL     OW17593   5.400   1.727   6.527
 5565SOL    HW117594   5.321   1.707   6.584
 5565SOL    HW217595   5.386   1.813   6.479
 5566SOL     OW17596   1.686   5.063   0.428
 5566SOL    HW117597   1.749   5.093   0.358
 5566SOL    HW217598   1.737   5.033   0.509
 5567SOL     OW17599   0.576   4.484   1.992
 5567SOL    HW117600   0.601   4.512   1.899
 5567SOL    HW217601   0.610   4.392   2.009
 5568SOL     OW17602   4.756   2.358   2.660
 5568SOL    HW117603   4.673   2.391   2.614
 5568SOL    HW217604   4.795   2.432   2.715
 5569SOL     OW17605   2.888   1.099   1.830
 5569SOL    HW117606   2.981   1.136   1.826
 5569SOL    HW217607   2.847   1.103   1.738
 5570SOL     OW17608   5.767   4.741   5.084
 5570SOL    HW117609   5.705   4.792   5.143
 5570SOL    HW217610   5.738   4.645   5.080
 5571SOL     OW17611   0.545   6.963   6.947
 5571SOL    HW117612   0.517   6.880   6.996
 5571SOL    HW217613   0.534   6.949   6.849
 5572SOL     OW17614   2.057   2.675   6.058
 5572SOL    HW117615   1.981   2.707   6.114
 5572SOL    HW217616   2.075   2.741   5.985
 5573SOL     OW17617   1.864   3.076   0.066
 5573SOL    HW117618   1.805   3.075   0.146
 5573SOL    HW217619   1.959   3.093   0.094
 5574SOL     OW17620   6.405   1.292   3.870
 5574SOL    HW117621   6.440   1.385   3.859
 5574SOL    HW217622   6.320   1.282   3.818
 5575SOL     OW17623   0.880   1.142   1.862
 5575SOL    HW117624   0.819   1.218   1.885
 5575SOL    HW217625   0.830   1.074   1.809
 5576SOL     OW17626   0.044   6.351   1.991
 5576SOL    HW117627   0.093   6.438   1.986
 5576SOL    HW217628   0.080   6.296   2.066
 5577SOL     OW17629   2.780   2.546   6.355
 5577SOL    HW117630   2.729   2.573   6.437
 5577SOL    HW217631   2.729   2.476   6.305
 5578SOL     OW17632   4.143   3.664   0.609
 5578SOL    HW117633   4.102   3.585   0.564
 5578SOL    HW217634   4.242   3.653   0.614
 5579SOL     OW17635   6.229   4.106   0.054
 5579SOL    HW117636   6.143   4.129   0.099
 5579SOL    HW217637   6.214   4.030   7.007
 5580SOL     OW17638   4.935   1.795   6.275
 5580SOL    HW117639   4.893   1.705   6.265
 5580SOL    HW217640   4.876   1.864   6.234
 5581SOL     OW17641   2.284   6.773   1.126
 5581SOL    HW117642   2.277   6.816   1.215
 5581SOL    HW217643   2.237   6.828   1.058
 5582SOL     OW17644   3.516   2.853   3.589
 5582SOL    HW117645   3.581   2.855   3.666
 5582SOL    HW217646   3.423   2.862   3.624
 5583SOL     OW17647   3.691   6.657   2.749
 5583SOL    HW117648   3.735   6.658   2.660
 5583SOL    HW217649   3.607   6.711   2.746
 5584SOL     OW17650   5.678   4.013   4.532
 5584SOL    HW117651   5.590   4.021   4.579
 5584SOL    HW217652   5.675   3.935   4.470
 5585SOL     OW17653   4.758   0.349   3.906
 5585SOL    HW117654   4.767   0.310   3.814
 5585SOL    HW217655   4.799   0.440   3.907
 5586SOL     OW17656   1.211   2.183   7.011
 5586SOL    HW117657   1.292   2.198   6.954
 5586SOL    HW217658   1.234   2.201   0.091
 5587SOL     OW17659   4.913   6.562   2.051
 5587SOL    HW117660   4.815   6.583   2.048
 5587SOL    HW217661   4.962   6.621   1.987
 5588SOL     OW17662   1.129   6.724   3.857
 5588SOL    HW117663   1.170   6.656   3.797
 5588SOL    HW217664   1.101   6.804   3.803
 5589SOL     OW17665   5.062   2.955   6.472
 5589SOL    HW117666   5.157   2.925   6.469
 5589SOL    HW217667   5.051   3.028   6.540
 5590SOL     OW17668   6.959   5.468   2.993
 5590SOL    HW117669   6.871   5.456   2.947
 5590SOL    HW217670   7.015   5.533   2.942
 5591SOL     OW17671   5.812   1.480   6.454
 5591SOL    HW117672   5.804   1.454   6.550
 5591SOL    HW217673   5.721   1.484   6.413
 5592SOL     OW17674   2.150   4.861   2.987
 5592SOL    HW117675   2.156   4.768   3.023
 5592SOL    HW217676   2.073   4.868   2.924
 5593SOL     OW17677   6.977   2.530   5.676
 5593SOL    HW117678   6.887   2.526   5.720
 5593SOL    HW217679   6.969   2.501   5.581
 5594SOL     OW17680   2.714   1.019   6.615
 5594SOL    HW117681   2.729   1.103   6.564
 5594SOL    HW217682   2.721   1.037   6.713
 5595SOL     OW17683   6.122   0.979   5.204
 5595SOL    HW117684   6.206   0.929   5.228
 5595SOL    HW217685   6.082   0.939   5.122
 5596SOL     OW17686   5.127   0.350   2.477
 5596SOL    HW117687   5.030   0.365   2.460
 5596SOL    HW217688   5.181   0.420   2.431
 5597SOL     OW17689   5.281   2.263   5.049
 5597SOL    HW117690   5.284   2.361   5.029
 5597SOL    HW217691   5.370   2.233   5.082
 5598SOL     OW17692   5.128   2.360   3.973
 5598SOL    HW117693   5.208   2.331   3.921
 5598SOL    HW217694   5.141   2.337   4.070
 5599SOL     OW17695   6.247   3.762   2.435
 5599SOL    HW117696   6.209   3.672   2.455
 5599SOL    HW217697   6.327   3.779   2.493
 5600SOL     OW17698   1.907   0.169   2.464
 5600SOL    HW117699   1.944   0.106   2.532
 5600SOL    HW217700   1.947   0.149   2.375
 5601SOL     OW17701   4.318   2.040   5.785
 5601SOL    HW117702   4.336   2.123   5.838
 5601SOL    HW217703   4.331   2.059   5.688
 5602SOL     OW17704   6.944   0.642   3.190
 5602SOL    HW117705   0.016   0.673   3.227
 5602SOL    HW217706   6.872   0.707   3.214
 5603SOL     OW17707   4.907   2.189   5.061
 5603SOL    HW117708   4.823   2.143   5.092
 5603SOL    HW217709   4.930   2.263   5.125
 5604SOL     OW17710   1.026   1.867   4.580
 5604SOL    HW117711   1.116   1.908   4.568
 5604SOL    HW217712   0.957   1.925   4.535
 5605SOL     OW17713   1.233   6.875   5.376
 5605SOL    HW117714   1.225   6.850   5.279
 5605SOL    HW217715   1.229   6.793   5.432
 5606SOL     OW17716   4.355   0.865   0.648
 5606SOL    HW117717   4.310   0.832   0.731
 5606SOL    HW217718   4.375   0.962   0.657
 5607SOL     OW17719   5.665   2.195   3.637
 5607SOL    HW117720   5.748   2.156   3.676
 5607SOL    HW217721   5.605   2.122   3.606
 5608SOL     OW17722   5.892   1.350   3.225
 5608SOL    HW117723   5.806   1.299   3.233
 5608SOL    HW217724   5.876   1.433   3.171
 5609SOL     OW17725   4.671   5.979   6.997
 5609SOL    HW117726   4.719   6.063   0.008
 5609SOL    HW217727   4.574   5.988   0.006
 5610SOL     OW17728   5.717   3.699   1.161
 5610SOL    HW117729   5.724   3.771   1.230
 5610SOL    HW217730   5.721   3.609   1.205
 5611SOL     OW17731   0.598   4.825   1.996
 5611SOL    HW117732   0.511   4.810   1.949
 5611SOL    HW217733   0.588   4.803   2.093
 5612SOL     OW17734   3.308   2.754   0.690
 5612SOL    HW117735   3.353   2.804   0.764
 5612SOL    HW217736   3.209   2.762   0.700
 5613SOL     OW17737   6.967   4.910   5.385
 5613SOL    HW117738   6.894   4.864   5.333
 5613SOL    HW217739   6.934   4.999   5.416
 5614SOL     OW17740   6.096   2.498   4.232
 5614SOL    HW117741   6.139   2.563   4.170
 5614SOL    HW217742   6.073   2.543   4.317
 5615SOL     OW17743   0.259   1.198   3.049
 5615SOL    HW117744   0.163   1.203   3.018
 5615SOL    HW217745   0.265   1.233   3.142
 5616SOL     OW17746   2.393   2.610   4.883
 5616SOL    HW117747   2.482   2.567   4.870
 5616SOL    HW217748   2.386   2.691   4.825
 5617SOL     OW17749   1.816   4.041   4.879
 5617SOL    HW117750   1.800   3.943   4.886
 5617SOL    HW217751   1.845   4.063   4.786
 5618SOL     OW17752   6.607   4.965   3.239
 5618SOL    HW117753   6.684   5.028   3.252
 5618SOL    HW217754   6.591   4.914   3.323
 5619SOL     OW17755   3.509   3.222   3.400
 5619SOL    HW117756   3.520   3.129   3.365
 5619SOL    HW217757   3.591   3.275   3.379
 5620SOL     OW17758   5.092   3.970   6.319
 5620SOL    HW117759   5.112   4.061   6.285
 5620SOL    HW217760   5.091   3.905   6.243
 5621SOL     OW17761   1.238   3.085   6.346
 5621SOL    HW117762   1.214   3.135   6.429
 5621SOL    HW217763   1.266   3.149   6.275
 5622SOL     OW17764   4.855   6.899   5.329
 5622SOL    HW117765   4.885   6.974   5.270
 5622SOL    HW217766   4.834   6.934   5.420
 5623SOL     OW17767   5.045   6.271   5.358
 5623SOL    HW117768   4.988   6.231   5.286
 5623SOL    HW217769   5.061   6.367   5.338
 5624SOL     OW17770   0.968   5.087   3.845
 5624SOL    HW117771   0.997   5.062   3.753
 5624SOL    HW217772   0.874   5.057   3.860
 5625SOL     OW17773   0.458   4.732   5.531
 5625SOL    HW117774   0.491   4.637   5.526
 5625SOL    HW217775   0.503   4.787   5.461
 5626SOL     OW17776   2.754   5.374   4.494
 5626SOL    HW117777   2.843   5.363   4.450
 5626SOL    HW217778   2.744   5.308   4.568
 5627SOL     OW17779   6.993   5.749   5.923
 5627SOL    HW117780   0.008   5.708   5.837
 5627SOL    HW217781   6.902   5.788   5.911
 5628SOL     OW17782   2.910   2.827   1.544
 5628SOL    HW117783   2.957   2.822   1.632
 5628SOL    HW217784   2.948   2.903   1.490
 5629SOL     OW17785   4.255   2.811   1.612
 5629SOL    HW117786   4.159   2.792   1.594
 5629SOL    HW217787   4.288   2.882   1.549
 5630SOL     OW17788   1.879   3.756   5.851
 5630SOL    HW117789   1.961   3.700   5.863
 5630SOL    HW217790   1.861   3.807   5.935
 5631SOL     OW17791   5.262   1.513   1.685
 5631SOL    HW117792   5.323   1.587   1.713
 5631SOL    HW217793   5.274   1.435   1.747
 5632SOL     OW17794   5.220   1.917   5.275
 5632SOL    HW117795   5.207   2.016   5.277
 5632SOL    HW217796   5.145   1.872   5.323
 5633SOL     OW17797   6.840   4.971   4.837
 5633SOL    HW117798   6.800   5.060   4.814
 5633SOL    HW217799   6.767   4.904   4.848
 5634SOL     OW17800   1.951   4.769   3.567
 5634SOL    HW117801   1.870   4.782   3.625
 5634SOL    HW217802   1.970   4.853   3.517
 5635SOL     OW17803   2.622   6.155   6.889
 5635SOL    HW117804   2.574   6.118   6.810
 5635SOL    HW217805   2.663   6.080   6.942
 5636SOL     OW17806   6.031   1.014   5.459
 5636SOL    HW117807   6.054   1.002   5.362
 5636SOL    HW217808   5.941   1.056   5.467
 5637SOL     OW17809   4.893   6.781   3.836
 5637SOL    HW117810   4.967   6.720   3.865
 5637SOL    HW217811   4.930   6.872   3.815
 5638SOL     OW17812   6.119   5.407   0.984
 5638SOL    HW117813   6.154   5.348   0.912
 5638SOL    HW217814   6.186   5.478   1.005
 5639SOL     OW17815   1.554   0.778   1.392
 5639SOL    HW117816   1.608   0.723   1.456
 5639SOL    HW217817   1.553   0.733   1.302
 5640SOL     OW17818   2.825   6.980   2.321
 5640SOL    HW117819   2.830   6.957   2.418
 5640SOL    HW217820   2.904   0.020   2.295
 5641SOL     OW17821   0.179   4.502   6.281
 5641SOL    HW117822   0.097   4.445   6.279
 5641SOL    HW217823   0.220   4.504   6.189
 5642SOL     OW17824   1.200   4.998   5.606
 5642SOL    HW117825   1.211   5.094   5.582
 5642SOL    HW217826   1.122   4.988   5.668
 5643SOL     OW17827   3.714   0.744   4.773
 5643SOL    HW117828   3.692   0.796   4.855
 5643SOL    HW217829   3.812   0.752   4.753
 5644SOL     OW17830   3.942   0.444   3.781
 5644SOL    HW117831   4.025   0.441   3.726
 5644SOL    HW217832   3.944   0.370   3.848
 5645SOL     OW17833   6.637   4.217   3.234
 5645SOL    HW117834   6.604   4.265   3.153
 5645SOL    HW217835   6.700   4.276   3.285
 5646SOL     OW17836   2.359   5.737   3.123
 5646SOL    HW117837   2.358   5.837   3.118
 5646SOL    HW217838   2.428   5.701   3.061
 5647SOL     OW17839   6.186   6.544   7.010
 5647SOL    HW117840   6.142   6.470   0.045
 5647SOL    HW217841   6.145   6.632   0.020
 5648SOL     OW17842   1.505   1.434   2.640
 5648SOL    HW117843   1.433   1.367   2.621
 5648SOL    HW217844   1.547   1.464   2.555
 5649SOL     OW17845   0.519   6.880   5.769
 5649SOL    HW117846   0.570   6.898   5.853
 5649SOL    HW217847   0.556   6.936   5.695
 5650SOL     OW17848   0.657   5.688   1.012
 5650SOL    HW117849   0.715   5.698   1.093
 5650SOL    HW217850   0.683   5.755   0.943
 5651SOL     OW17851   0.771   0.957   1.693
 5651SOL    HW117852   0.846   0.891   1.698
 5651SOL    HW217853   0.731   0.954   1.601
 5652SOL     OW17854   5.933   6.601   2.180
 5652SOL    HW117855   5.877   6.618   2.098
 5652SOL    HW217856   6.029   6.615   2.158
 5653SOL     OW17857   0.318   6.338   6.493
 5653SOL    HW117858   0.380   6.317   6.416
 5653SOL    HW217859   0.245   6.398   6.461
 5654SOL     OW17860   6.491   6.902   5.346
 5654SOL    HW117861   6.416   6.958   5.382
 5654SOL    HW217862   6.485   6.899   5.246
 5655SOL     OW17863   0.986   3.459   4.279
 5655SOL    HW117864   1.006   3.401   4.358
 5655SOL    HW217865   1.001   3.407   4.195
 5656SOL     OW17866   1.533   3.455   0.129
 5656SOL    HW117867   1.570   3.434   0.039
 5656SOL    HW217868   1.584   3.530   0.171
 5657SOL     OW17869   5.544   0.567   1.041
 5657SOL    HW117870   5.464   0.579   1.100
 5657SOL    HW217871   5.569   0.471   1.039
 5658SOL     OW17872   3.363   5.579   5.925
 5658SOL    HW117873   3.414   5.494   5.940
 5658SOL    HW217874   3.406   5.631   5.852
 5659SOL     OW17875   3.794   4.041   3.524
 5659SOL    HW117876   3.876   3.998   3.486
 5659SOL    HW217877   3.731   4.064   3.450
 5660SOL     OW17878   5.749   0.353   5.565
 5660SOL    HW117879   5.719   0.300   5.645
 5660SOL    HW217880   5.834   0.400   5.586
 5661SOL     OW17881   0.149   3.985   5.570
 5661SOL    HW117882   0.058   3.947   5.582
 5661SOL    HW217883   0.142   4.078   5.534
 5662SOL     OW17884   3.022   5.429   3.311
 5662SOL    HW117885   2.947   5.419   3.376
 5662SOL    HW217886   3.108   5.400   3.354
 5663SOL     OW17887   2.125   3.822   6.750
 5663SOL    HW117888   2.184   3.750   6.713
 5663SOL    HW217889   2.054   3.782   6.807
 5664SOL     OW17890   6.821   4.121   4.266
 5664SOL    HW117891   6.779   4.080   4.185
 5664SOL    HW217892   6.771   4.093   4.348
 5665SOL     OW17893   1.468   2.029   6.881
 5665SOL    HW117894   1.491   1.932   6.894
 5665SOL    HW217895   1.537   2.072   6.823
 5666SOL     OW17896   5.583   5.909   0.618
 5666SOL    HW117897   5.662   5.846   0.619
 5666SOL    HW217898   5.616   6.003   0.614
 5667SOL     OW17899   0.999   4.261   3.738
 5667SOL    HW117900   1.065   4.316   3.788
 5667SOL    HW217901   1.011   4.164   3.761
 5668SOL     OW17902   5.173   1.830   4.897
 5668SOL    HW117903   5.225   1.915   4.889
 5668SOL    HW217904   5.075   1.851   4.904
 5669SOL     OW17905   0.600   2.687   6.790
 5669SOL    HW117906   0.551   2.750   6.730
 5669SOL    HW217907   0.543   2.665   6.868
 5670SOL     OW17908   0.217   2.743   3.524
 5670SOL    HW117909   0.310   2.742   3.488
 5670SOL    HW217910   0.185   2.838   3.529
 5671SOL     OW17911   0.760   6.498   6.207
 5671SOL    HW117912   0.773   6.580   6.263
 5671SOL    HW217913   0.666   6.496   6.173
 5672SOL     OW17914   4.274   4.629   6.640
 5672SOL    HW117915   4.184   4.672   6.648
 5672SOL    HW217916   4.281   4.584   6.552
 5673SOL     OW17917   1.012   5.973   1.995
 5673SOL    HW117918   0.921   6.006   1.968
 5673SOL    HW217919   1.081   6.011   1.933
 5674SOL     OW17920   6.692   4.231   3.952
 5674SOL    HW117921   6.613   4.283   3.918
 5674SOL    HW217922   6.694   4.141   3.908
 5675SOL     OW17923   4.378   2.255   5.924
 5675SOL    HW117924   4.404   2.300   5.838
 5675SOL    HW217925   4.310   2.310   5.972
 5676SOL     OW17926   2.271   1.961   2.535
 5676SOL    HW117927   2.307   2.038   2.481
 5676SOL    HW217928   2.175   1.977   2.554
 5677SOL     OW17929   0.579   2.401   2.835
 5677SOL    HW117930   0.593   2.311   2.793
 5677SOL    HW217931   0.624   2.471   2.779
 5678SOL     OW17932   3.031   6.296   2.530
 5678SOL    HW117933   2.947   6.243   2.517
 5678SOL    HW217934   3.026   6.347   2.616
 5679SOL     OW17935   1.261   0.687   3.559
 5679SOL    HW117936   1.229   0.634   3.481
 5679SOL    HW217937   1.238   0.783   3.546
 5680SOL     OW17938   1.222   5.687   0.761
 5680SOL    HW117939   1.307   5.724   0.723
 5680SOL    HW217940   1.227   5.688   0.861
 5681SOL     OW17941   0.314   3.545   0.117
 5681SOL    HW117942   0.288   3.577   0.026
 5681SOL    HW217943   0.265   3.460   0.136
 5682SOL     OW17944   2.336   4.744   5.339
 5682SOL    HW117945   2.380   4.721   5.426
 5682SOL    HW217946   2.373   4.830   5.304
 5683SOL     OW17947   3.211   1.268   0.142
 5683SOL    HW117948   3.113   1.266   0.122
 5683SOL    HW217949   3.262   1.224   0.067
 5684SOL     OW17950   3.536   3.026   4.737
 5684SOL    HW117951   3.606   3.097   4.724
 5684SOL    HW217952   3.509   2.989   4.649
 5685SOL     OW17953   1.781   3.431   2.106
 5685SOL    HW117954   1.812   3.355   2.049
 5685SOL    HW217955   1.859   3.472   2.152
 5686SOL     OW17956   2.531   6.786   6.243
 5686SOL    HW117957   2.573   6.816   6.328
 5686SOL    HW217958   2.455   6.725   6.263
 5687SOL     OW17959   0.640   4.009   5.519
 5687SOL    HW117960   0.717   4.070   5.538
 5687SOL    HW217961   0.672   3.914   5.520
 5688SOL     OW17962   6.997   2.170   0.228
 5688SOL    HW117963   6.999   2.246   0.294
 5688SOL    HW217964   7.011   2.084   0.277
 5689SOL     OW17965   4.572   0.474   0.533
 5689SOL    HW117966   4.616   0.386   0.546
 5689SOL    HW217967   4.473   0.464   0.543
 5690SOL     OW17968   2.136   6.017   0.672
 5690SOL    HW117969   2.097   6.095   0.720
 5690SOL    HW217970   2.207   6.049   0.610
 5691SOL     OW17971   2.540   5.969   1.644
 5691SOL    HW117972   2.581   6.031   1.711
 5691SOL    HW217973   2.518   5.882   1.689
 5692SOL     OW17974   0.071   3.287   6.239
 5692SOL    HW117975   6.990   3.309   6.225
 5692SOL    HW217976   0.123   3.309   6.157
 5693SOL     OW17977   6.062   2.416   2.494
 5693SOL    HW117978   6.013   2.491   2.450
 5693SOL    HW217979   6.122   2.371   2.427
 5694SOL     OW17980   1.159   1.946   3.861
 5694SOL    HW117981   1.144   1.961   3.763
 5694SOL    HW217982   1.197   2.029   3.901
 5695SOL     OW17983   1.174   2.506   3.017
 5695SOL    HW117984   1.109   2.463   3.079
 5695SOL    HW217985   1.208   2.591   3.057
 5696SOL     OW17986   1.661   0.789   3.095
 5696SOL    HW117987   1.683   0.875   3.139
 5696SOL    HW217988   1.739   0.726   3.102
 5697SOL     OW17989   6.321   2.406   1.303
 5697SOL    HW117990   6.344   2.499   1.276
 5697SOL    HW217991   6.316   2.400   1.402
 5698SOL     OW17992   0.618   3.117   2.594
 5698SOL    HW117993   0.593   3.104   2.498
 5698SOL    HW217994   0.717   3.126   2.601
 5699SOL     OW17995   6.032   1.818   2.967
 5699SOL    HW117996   5.953   1.845   2.911
 5699SOL    HW217997   6.111   1.874   2.942
 5700SOL     OW17998   6.470   6.509   4.487
 5700SOL    HW117999   6.454   6.440   4.558
 5700SOL    HW218000   6.441   6.599   4.521
 5701SOL     OW18001   1.221   6.423   3.388
 5701SOL    HW118002   1.127   6.393   3.403
 5701SOL    HW218003   1.281   6.379   3.455
 5702SOL     OW18004   1.656   0.114   5.340
 5702SOL    HW118005   1.592   0.038   5.329
 5702SOL    HW218006   1.647   0.177   5.263
 5703SOL     OW18007   5.448   4.565   1.311
 5703SOL    HW118008   5.369   4.503   1.310
 5703SOL    HW218009   5.425   4.647   1.258
 5704SOL     OW18010   4.209   5.720   1.945
 5704SOL    HW118011   4.268   5.726   1.864
 5704SOL    HW218012   4.143   5.647   1.933
 5705SOL     OW18013   4.961   1.251   0.838
 5705SOL    HW118014   4.940   1.170   0.783
 5705SOL    HW218015   4.934   1.333   0.789
 5706SOL     OW18016   0.399   2.523   0.360
 5706SOL    HW118017   0.423   2.501   0.266
 5706SOL    HW218018   0.466   2.482   0.422
 5707SOL     OW18019   0.147   0.290   0.378
 5707SOL    HW118020   0.193   0.229   0.313
 5707SOL    HW218021   0.197   0.376   0.384
 5708SOL     OW18022   5.160   6.403   1.181
 5708SOL    HW118023   5.166   6.498   1.211
 5708SOL    HW218024   5.244   6.355   1.207
 5709SOL     OW18025   1.549   0.386   3.508
 5709SOL    HW118026   1.594   0.398   3.420
 5709SOL    HW218027   1.540   0.474   3.554
 5710SOL     OW18028   2.564   3.092   6.459
 5710SOL    HW118029   2.585   3.130   6.549
 5710SOL    HW218030   2.589   3.159   6.388
 5711SOL     OW18031   4.387   0.669   3.069
 5711SOL    HW118032   4.441   0.608   3.126
 5711SOL    HW218033   4.357   0.747   3.123
 5712SOL     OW18034   0.785   5.577   5.931
 5712SOL    HW118035   0.856   5.561   5.863
 5712SOL    HW218036   0.774   5.675   5.945
 5713SOL     OW18037   1.811   2.220   1.599
 5713SOL    HW118038   1.726   2.271   1.611
 5713SOL    HW218039   1.883   2.261   1.655
 5714SOL     OW18040   0.485   6.249   6.295
 5714SOL    HW118041   0.430   6.169   6.270
 5714SOL    HW218042   0.543   6.227   6.374
 5715SOL     OW18043   1.482   6.573   3.271
 5715SOL    HW118044   1.402   6.526   3.309
 5715SOL    HW218045   1.459   6.612   3.181
 5716SOL     OW18046   1.397   4.584   0.031
 5716SOL    HW118047   1.483   4.563   7.000
 5716SOL    HW218048   1.320   4.556   6.988
 5717SOL     OW18049   2.013   6.249   0.757
 5717SOL    HW118050   2.097   6.277   0.802
 5717SOL    HW218051   1.971   6.328   0.712
 5718SOL     OW18052   1.733   3.572   6.085
 5718SOL    HW118053   1.800   3.523   6.141
 5718SOL    HW218054   1.755   3.559   5.988
 5719SOL     OW18055   2.449   1.445   6.298
 5719SOL    HW118056   2.476   1.388   6.221
 5719SOL    HW218057   2.405   1.529   6.264
 5720SOL     OW18058   0.886   4.934   4.409
 5720SOL    HW118059   0.929   4.972   4.327
 5720SOL    HW218060   0.837   4.851   4.385
 5721SOL     OW18061   0.368   3.488   0.515
 5721SOL    HW118062   0.435   3.543   0.565
 5721SOL    HW218063   0.314   3.548   0.455
 5722SOL     OW18064   6.371   1.792   4.845
 5722SOL    HW118065   6.401   1.698   4.832
 5722SOL    HW218066   6.345   1.806   4.941
 5723SOL     OW18067   4.583   3.449   6.709
 5723SOL    HW118068   4.639   3.480   6.785
 5723SOL    HW218069   4.637   3.449   6.625
 5724SOL     OW18070   4.118   2.704   5.324
 5724SOL    HW118071   4.033   2.752   5.302
 5724SOL    HW218072   4.117   2.613   5.282
 5725SOL     OW18073   6.597   5.876   4.104
 5725SOL    HW118074   6.519   5.845   4.159
 5725SOL    HW218075   6.574   5.867   4.007
 5726SOL     OW18076   6.694   3.909   4.140
 5726SOL    HW118077   6.752   3.896   4.060
 5726SOL    HW218078   6.665   3.819   4.175
 5727SOL     OW18079   0.768   2.911   3.934
 5727SOL    HW118080   0.774   2.974   3.856
 5727SOL    HW218081   0.837   2.839   3.924
 5728SOL     OW18082   4.559   1.447   6.913
 5728SOL    HW118083   4.614   1.372   6.950
 5728SOL    HW218084   4.463   1.433   6.938
 5729SOL     OW18085   0.903   1.547   0.271
 5729SOL    HW118086   0.988   1.500   0.248
 5729SOL    HW218087   0.833   1.479   0.295
 5730SOL     OW18088   4.350   5.398   5.769
 5730SOL    HW118089   4.386   5.380   5.677
 5730SOL    HW218090   4.309   5.315   5.805
 5731SOL     OW18091   2.370   6.715   4.163
 5731SOL    HW118092   2.366   6.691   4.067
 5731SOL    HW218093   2.282   6.699   4.206
 5732SOL     OW18094   6.674   4.984   5.578
 5732SOL    HW118095   6.640   5.039   5.502
 5732SOL    HW218096   6.734   5.039   5.636
 5733SOL     OW18097   3.394   0.417   5.786
 5733SOL    HW118098   3.451   0.481   5.735
 5733SOL    HW218099   3.447   0.374   5.858
 5734SOL     OW18100   1.655   6.275   5.887
 5734SOL    HW118101   1.670   6.258   5.985
 5734SOL    HW218102   1.614   6.366   5.875
 5735SOL     OW18103   4.103   1.410   2.546
 5735SOL    HW118104   4.129   1.375   2.456
 5735SOL    HW218105   4.021   1.362   2.578
 5736SOL     OW18106   6.264   4.479   1.271
 5736SOL    HW118107   6.219   4.507   1.356
 5736SOL    HW218108   6.208   4.505   1.193
 5737SOL     OW18109   5.148   5.734   6.937
 5737SOL    HW118110   5.061   5.764   6.898
 5737SOL    HW218111   5.137   5.642   6.976
 5738SOL     OW18112   3.098   2.380   6.708
 5738SOL    HW118113   3.007   2.345   6.733
 5738SOL    HW218114   3.099   2.405   6.611
 5739SOL     OW18115   0.954   6.401   5.283
 5739SOL    HW118116   1.043   6.433   5.315
 5739SOL    HW218117   0.889   6.402   5.359
 5740SOL     OW18118   3.816   3.919   1.184
 5740SOL    HW118119   3.881   3.845   1.199
 5740SOL    HW218120   3.801   3.968   1.269
 5741SOL     OW18121   6.535   3.517   4.837
 5741SOL    HW118122   6.597   3.512   4.758
 5741SOL    HW218123   6.546   3.605   4.882
 5742SOL     OW18124   4.518   6.402   2.313
 5742SOL    HW118125   4.529   6.310   2.352
 5742SOL    HW218126   4.607   6.436   2.282
 5743SOL     OW18127   2.418   5.931   5.728
 5743SOL    HW118128   2.340   5.897   5.676
 5743SOL    HW218129   2.458   6.009   5.681
 5744SOL     OW18130   4.835   1.386   1.126
 5744SOL    HW118131   4.835   1.452   1.200
 5744SOL    HW218132   4.886   1.422   1.048
 5745SOL     OW18133   2.212   1.569   3.520
 5745SOL    HW118134   2.295   1.620   3.543
 5745SOL    HW218135   2.177   1.523   3.602
 5746SOL     OW18136   4.991   0.336   1.899
 5746SOL    HW118137   5.005   0.315   1.995
 5746SOL    HW218138   5.080   0.344   1.853
 5747SOL     OW18139   1.643   5.257   1.877
 5747SOL    HW118140   1.581   5.191   1.835
 5747SOL    HW218141   1.603   5.349   1.869
 5748SOL     OW18142   1.138   0.629   1.077
 5748SOL    HW118143   1.164   0.720   1.045
 5748SOL    HW218144   1.089   0.580   1.005
 5749SOL     OW18145   1.186   6.412   4.960
 5749SOL    HW118146   1.177   6.313   4.967
 5749SOL    HW218147   1.212   6.437   4.867
 5750SOL     OW18148   6.513   6.407   4.886
 5750SOL    HW118149   6.568   6.484   4.854
 5750SOL    HW218150   6.550   6.322   4.849
 5751SOL     OW18151   2.239   2.861   4.619
 5751SOL    HW118152   2.330   2.853   4.579
 5751SOL    HW218153   2.245   2.847   4.718
 5752SOL     OW18154   5.495   0.482   0.259
 5752SOL    HW118155   5.497   0.539   0.177
 5752SOL    HW218156   5.531   0.533   0.337
 5753SOL     OW18157   3.630   4.203   4.465
 5753SOL    HW118158   3.691   4.273   4.501
 5753SOL    HW218159   3.604   4.141   4.538
 5754SOL     OW18160   0.324   5.459   2.443
 5754SOL    HW118161   0.404   5.447   2.502
 5754SOL    HW218162   0.344   5.526   2.372
 5755SOL     OW18163   2.183   2.229   6.854
 5755SOL    HW118164   2.218   2.200   6.944
 5755SOL    HW218165   2.087   2.203   6.845
 5756SOL     OW18166   6.346   0.165   3.342
 5756SOL    HW118167   6.443   0.181   3.363
 5756SOL    HW218168   6.290   0.221   3.403
 5757SOL     OW18169   0.611   5.667   2.803
 5757SOL    HW118170   0.663   5.736   2.753
 5757SOL    HW218171   0.524   5.707   2.834
 5758SOL     OW18172   2.470   1.310   4.069
 5758SOL    HW118173   2.541   1.348   4.010
 5758SOL    HW218174   2.504   1.305   4.163
 5759SOL     OW18175   4.820   1.209   6.826
 5759SOL    HW118176   4.804   1.265   6.744
 5759SOL    HW218177   4.871   1.127   6.800
 5760SOL     OW18178   6.908   3.129   0.835
 5760SOL    HW118179   6.918   3.226   0.812
 5760SOL    HW218180   6.816   3.113   0.872
 5761SOL     OW18181   5.832   4.946   5.933
 5761SOL    HW118182   5.817   5.006   5.855
 5761SOL    HW218183   5.744   4.914   5.968
 5762SOL     OW18184   4.668   4.110   0.884
 5762SOL    HW118185   4.639   4.022   0.847
 5762SOL    HW218186   4.711   4.097   0.974
 5763SOL     OW18187   6.604   5.986   0.547
 5763SOL    HW118188   6.677   5.918   0.539
 5763SOL    HW218189   6.523   5.943   0.587
 5764SOL     OW18190   5.126   4.816   5.505
 5764SOL    HW118191   5.202   4.848   5.561
 5764SOL    HW218192   5.039   4.847   5.546
 5765SOL     OW18193   6.460   3.004   1.000
 5765SOL    HW118194   6.521   3.045   1.068
 5765SOL    HW218195   6.365   3.020   1.025
 5766SOL     OW18196   1.553   1.564   5.896
 5766SOL    HW118197   1.644   1.606   5.899
 5766SOL    HW218198   1.489   1.621   5.946
 5767SOL     OW18199   1.893   0.706   0.608
 5767SOL    HW118200   1.933   0.659   0.529
 5767SOL    HW218201   1.941   0.678   0.691
 5768SOL     OW18202   1.465   6.001   4.008
 5768SOL    HW118203   1.411   6.075   3.969
 5768SOL    HW218204   1.504   6.030   4.096
 5769SOL     OW18205   2.455   5.753   4.637
 5769SOL    HW118206   2.511   5.740   4.719
 5769SOL    HW218207   2.514   5.773   4.559
 5770SOL     OW18208   6.312   5.881   6.780
 5770SOL    HW118209   6.215   5.898   6.801
 5770SOL    HW218210   6.327   5.891   6.682
 5771SOL     OW18211   1.392   0.130   4.047
 5771SOL    HW118212   1.335   0.048   4.049
 5771SOL    HW218213   1.428   0.148   4.139
 5772SOL     OW18214   5.255   1.551   2.098
 5772SOL    HW118215   5.324   1.602   2.046
 5772SOL    HW218216   5.165   1.593   2.084
 5773SOL     OW18217   3.875   0.335   3.266
 5773SOL    HW118218   3.850   0.431   3.284
 5773SOL    HW218219   3.945   0.307   3.332
 5774SOL     OW18220   3.130   6.234   3.768
 5774SOL    HW118221   3.177   6.284   3.695
 5774SOL    HW218222   3.197   6.181   3.820
 5775SOL     OW18223   1.528   0.848   2.537
 5775SOL    HW118224   1.578   0.769   2.503
 5775SOL    HW218225   1.585   0.898   2.602
 5776SOL     OW18226   0.169   0.640   4.256
 5776SOL    HW118227   0.126   0.605   4.339
 5776SOL    HW218228   0.148   0.579   4.180
 5777SOL     OW18229   6.920   0.224   4.880
 5777SOL    HW118230   6.929   0.262   4.788
 5777SOL    HW218231   6.886   0.294   4.942
 5778SOL     OW18232   1.455   1.154   1.232
 5778SOL    HW118233   1.509   1.070   1.225
 5778SOL    HW218234   1.360   1.131   1.253
 5779SOL     OW18235   4.335   2.901   0.476
 5779SOL    HW118236   4.356   2.844   0.555
 5779SOL    HW218237   4.322   2.996   0.505
 5780SOL     OW18238   6.262   5.678   4.006
 5780SOL    HW118239   6.172   5.695   3.966
 5780SOL    HW218240   6.311   5.764   4.017
 5781SOL     OW18241   6.558   4.524   4.277
 5781SOL    HW118242   6.555   4.448   4.342
 5781SOL    HW218243   6.465   4.554   4.257
 5782SOL     OW18244   1.502   1.359   0.019
 5782SOL    HW118245   1.467   1.452   0.007
 5782SOL    HW218246   1.563   1.336   6.959
 5783SOL     OW18247   1.881   0.294   1.506
 5783SOL    HW118248   1.842   0.320   1.594
 5783SOL    HW218249   1.941   0.215   1.517
 5784SOL     OW18250   6.967   5.687   6.855
 5784SOL    HW118251   6.884   5.694   6.800
 5784SOL    HW218252   0.005   5.771   6.845
 5785SOL     OW18253   2.567   1.615   0.768
 5785SOL    HW118254   2.581   1.713   0.782
 5785SOL    HW218255   2.652   1.573   0.738
 5786SOL     OW18256   0.912   3.555   0.564
 5786SOL    HW118257   0.863   3.489   0.620
 5786SOL    HW218258   0.864   3.568   0.477
 5787SOL     OW18259   3.714   1.841   5.065
 5787SOL    HW118260   3.697   1.939   5.062
 5787SOL    HW218261   3.679   1.804   5.151
 5788SOL     OW18262   3.002   1.434   1.128
 5788SOL    HW118263   2.933   1.496   1.167
 5788SOL    HW218264   2.985   1.341   1.161
 5789SOL     OW18265   3.113   4.479   6.815
 5789SOL    HW118266   3.141   4.515   6.904
 5789SOL    HW218267   3.178   4.508   6.745
 5790SOL     OW18268   0.757   4.596   4.781
 5790SOL    HW118269   0.739   4.695   4.776
 5790SOL    HW218270   0.749   4.556   4.690
 5791SOL     OW18271   3.217   1.069   2.674
 5791SOL    HW118272   3.215   1.097   2.770
 5791SOL    HW218273   3.138   1.109   2.627
 5792SOL     OW18274   6.072   3.282   2.760
 5792SOL    HW118275   6.026   3.207   2.809
 5792SOL    HW218276   6.032   3.290   2.669
 5793SOL     OW18277   5.082   0.846   3.567
 5793SOL    HW118278   5.097   0.757   3.612
 5793SOL    HW218279   5.076   0.832   3.468
 5794SOL     OW18280   2.528   1.031   0.034
 5794SOL    HW118281   2.431   1.043   0.015
 5794SOL    HW218282   2.545   0.937   0.064
 5795SOL     OW18283   6.546   0.076   6.799
 5795SOL    HW118284   6.484   0.013   6.752
 5795SOL    HW218285   6.511   0.169   6.792
 5796SOL     OW18286   5.019   1.422   5.990
 5796SOL    HW118287   5.097   1.362   6.008
 5796SOL    HW218288   4.945   1.368   5.948
 5797SOL     OW18289   4.816   2.342   6.923
 5797SOL    HW118290   4.749   2.408   6.957
 5797SOL    HW218291   4.848   2.284   6.999
 5798SOL     OW18292   1.002   5.429   4.689
 5798SOL    HW118293   0.907   5.434   4.718
 5798SOL    HW218294   1.034   5.335   4.695
 5799SOL     OW18295   0.401   0.538   3.869
 5799SOL    HW118296   0.475   0.491   3.820
 5799SOL    HW218297   0.314   0.492   3.850
 5800SOL     OW18298   6.418   6.191   2.059
 5800SOL    HW118299   6.364   6.139   2.124
 5800SOL    HW218300   6.502   6.141   2.036
 5801SOL     OW18301   1.539   2.583   3.185
 5801SOL    HW118302   1.519   2.493   3.148
 5801SOL    HW218303   1.567   2.645   3.111
 5802SOL     OW18304   0.509   3.865   2.343
 5802SOL    HW118305   0.565   3.944   2.366
 5802SOL    HW218306   0.413   3.886   2.360
 5803SOL     OW18307   2.596   5.425   1.398
 5803SOL    HW118308   2.659   5.488   1.442
 5803SOL    HW218309   2.505   5.434   1.439
 5804SOL     OW18310   0.679   5.596   3.685
 5804SOL    HW118311   0.615   5.561   3.753
 5804SOL    HW218312   0.766   5.619   3.730
 5805SOL     OW18313   2.281   3.316   0.566
 5805SOL    HW118314   2.380   3.327   0.559
 5805SOL    HW218315   2.258   3.220   0.552
 5806SOL     OW18316   6.697   5.188   5.127
 5806SOL    HW118317   6.762   5.254   5.164
 5806SOL    HW218318   6.648   5.230   5.050
 5807SOL     OW18319   0.967   3.519   1.023
 5807SOL    HW118320   0.870   3.520   1.002
 5807SOL    HW218321   0.980   3.512   1.122
 5808SOL     OW18322   6.282   5.642   4.405
 5808SOL    HW118323   6.236   5.685   4.482
 5808SOL    HW218324   6.226   5.567   4.370
 5809SOL     OW18325   6.454   2.261   4.430
 5809SOL    HW118326   6.480   2.165   4.441
 5809SOL    HW218327   6.372   2.267   4.374
 5810SOL     OW18328   4.126   1.446   4.731
 5810SOL    HW118329   4.043   1.392   4.740
 5810SOL    HW218330   4.205   1.388   4.752
 5811SOL     OW18331   3.390   0.512   5.409
 5811SOL    HW118332   3.488   0.512   5.392
 5811SOL    HW218333   3.345   0.445   5.350
 5812SOL     OW18334   6.028   3.010   4.696
 5812SOL    HW118335   6.116   3.021   4.651
 5812SOL    HW218336   6.039   2.957   4.780
 5813SOL     OW18337   1.815   1.511   0.857
 5813SOL    HW118338   1.900   1.472   0.894
 5813SOL    HW218339   1.772   1.445   0.796
 5814SOL     OW18340   6.321   4.125   2.187
 5814SOL    HW118341   6.374   4.197   2.231
 5814SOL    HW218342   6.296   4.153   2.095
 5815SOL     OW18343   4.141   1.658   4.555
 5815SOL    HW118344   4.138   1.573   4.607
 5815SOL    HW218345   4.067   1.660   4.489
 5816SOL     OW18346   4.655   4.838   0.230
 5816SOL    HW118347   4.664   4.740   0.210
 5816SOL    HW218348   4.746   4.878   0.236
 5817SOL     OW18349   5.851   4.232   5.800
 5817SOL    HW118350   5.926   4.290   5.769
 5817SOL    HW218351   5.843   4.153   5.740
 5818SOL     OW18352   0.174   5.886   5.462
 5818SOL    HW118353   0.238   5.894   5.385
 5818SOL    HW218354   0.137   5.976   5.484
 5819SOL     OW18355   3.491   0.001   6.397
 5819SOL    HW118356   3.484   6.984   6.491
 5819SOL    HW218357   3.537   6.948   6.341
 5820SOL     OW18358   4.570   5.219   3.480
 5820SOL    HW118359   4.487   5.196   3.429
 5820SOL    HW218360   4.548   5.279   3.556
 5821SOL     OW18361   6.943   7.008   1.254
 5821SOL    HW118362   0.011   6.996   1.200
 5821SOL    HW218363   6.967   7.009   1.351
 5822SOL     OW18364   1.489   2.961   1.151
 5822SOL    HW118365   1.424   2.890   1.179
 5822SOL    HW218366   1.561   2.969   1.219
 5823SOL     OW18367   2.140   0.491   5.282
 5823SOL    HW118368   2.103   0.583   5.271
 5823SOL    HW218369   2.165   0.454   5.193
 5824SOL     OW18370   6.973   5.523   2.238
 5824SOL    HW118371   7.010   5.515   2.330
 5824SOL    HW218372   6.979   5.618   2.207
 5825SOL     OW18373   6.803   1.666   5.416
 5825SOL    HW118374   6.831   1.587   5.361
 5825SOL    HW218375   6.833   1.654   5.510
 5826SOL     OW18376   0.106   4.776   6.099
 5826SOL    HW118377   0.131   4.863   6.058
 5826SOL    HW218378   0.164   4.759   6.179
 5827SOL     OW18379   1.918   4.084   4.619
 5827SOL    HW118380   1.889   4.164   4.566
 5827SOL    HW218381   2.017   4.075   4.614
 5828SOL     OW18382   6.324   1.670   1.598
 5828SOL    HW118383   6.392   1.707   1.662
 5828SOL    HW218384   6.346   1.575   1.578
 5829SOL     OW18385   0.919   0.296   3.163
 5829SOL    HW118386   0.970   0.373   3.125
 5829SOL    HW218387   0.825   0.324   3.183
 5830SOL     OW18388   4.977   6.698   5.731
 5830SOL    HW118389   4.990   6.695   5.830
 5830SOL    HW218390   4.879   6.697   5.710
 5831SOL     OW18391   1.293   1.677   5.553
 5831SOL    HW118392   1.229   1.751   5.534
 5831SOL    HW218393   1.373   1.686   5.493
 5832SOL     OW18394   2.721   4.714   6.717
 5832SOL    HW118395   2.720   4.748   6.811
 5832SOL    HW218396   2.670   4.627   6.712
 5833SOL     OW18397   3.656   3.973   5.274
 5833SOL    HW118398   3.661   4.070   5.253
 5833SOL    HW218399   3.635   3.960   5.371
 5834SOL     OW18400   6.825   2.757   0.969
 5834SOL    HW118401   6.905   2.738   0.912
 5834SOL    HW218402   6.833   2.849   1.008
 5835SOL     OW18403   5.469   3.217   3.250
 5835SOL    HW118404   5.392   3.245   3.194
 5835SOL    HW218405   5.554   3.229   3.199
 5836SOL     OW18406   2.637   6.706   1.602
 5836SOL    HW118407   2.659   6.803   1.612
 5836SOL    HW218408   2.610   6.688   1.507
 5837SOL     OW18409   3.591   4.224   6.725
 5837SOL    HW118410   3.551   4.132   6.728
 5837SOL    HW218411   3.527   4.287   6.682
 5838SOL     OW18412   3.219   1.742   0.853
 5838SOL    HW118413   3.267   1.735   0.766
 5838SOL    HW218414   3.233   1.833   0.892
 5839SOL     OW18415   0.767   2.072   2.520
 5839SOL    HW118416   0.861   2.053   2.492
 5839SOL    HW218417   0.711   1.990   2.508
 5840SOL     OW18418   0.611   5.264   6.504
 5840SOL    HW118419   0.640   5.173   6.531
 5840SOL    HW218420   0.516   5.279   6.531
 5841SOL     OW18421   5.208   2.185   2.441
 5841SOL    HW118422   5.140   2.195   2.368
 5841SOL    HW218423   5.265   2.267   2.445
 5842SOL     OW18424   4.928   3.031   1.561
 5842SOL    HW118425   4.980   2.952   1.529
 5842SOL    HW218426   4.972   3.116   1.531
 5843SOL     OW18427   1.168   3.896   3.128
 5843SOL    HW118428   1.101   3.970   3.118
 5843SOL    HW218429   1.121   3.813   3.159
 5844SOL     OW18430   2.154   6.052   5.837
 5844SOL    HW118431   2.205   6.124   5.791
 5844SOL    HW218432   2.217   5.988   5.879
 5845SOL     OW18433   0.711   0.351   2.830
 5845SOL    HW118434   0.624   0.321   2.869
 5845SOL    HW218435   0.694   0.424   2.764
 5846SOL     OW18436   6.291   2.773   5.402
 5846SOL    HW118437   6.389   2.769   5.424
 5846SOL    HW218438   6.259   2.684   5.372
 5847SOL     OW18439   3.036   2.267   1.614
 5847SOL    HW118440   3.024   2.228   1.706
 5847SOL    HW218441   3.065   2.363   1.622
 5848SOL     OW18442   1.525   5.805   3.133
 5848SOL    HW118443   1.553   5.901   3.144
 5848SOL    HW218444   1.603   5.752   3.099
 5849SOL     OW18445   0.773   0.587   5.773
 5849SOL    HW118446   0.785   0.636   5.859
 5849SOL    HW218447   0.791   0.490   5.787
 5850SOL     OW18448   6.566   3.633   1.892
 5850SOL    HW118449   6.639   3.650   1.825
 5850SOL    HW218450   6.500   3.708   1.888
 5851SOL     OW18451   4.898   3.676   2.935
 5851SOL    HW118452   4.986   3.724   2.932
 5851SOL    HW218453   4.893   3.613   2.857
 5852SOL     OW18454   5.910   6.305   3.569
 5852SOL    HW118455   5.872   6.374   3.508
 5852SOL    HW218456   5.934   6.348   3.656
 5853SOL     OW18457   3.628   5.265   5.016
 5853SOL    HW118458   3.599   5.212   5.096
 5853SOL    HW218459   3.672   5.204   4.949
 5854SOL     OW18460   4.694   4.279   5.980
 5854SOL    HW118461   4.714   4.359   6.038
 5854SOL    HW218462   4.636   4.307   5.904
 5855SOL     OW18463   0.807   1.825   4.980
 5855SOL    HW118464   0.865   1.772   4.917
 5855SOL    HW218465   0.734   1.766   5.016
 5856SOL     OW18466   1.936   5.635   3.924
 5856SOL    HW118467   1.889   5.652   4.010
 5856SOL    HW218468   2.030   5.669   3.930
 5857SOL     OW18469   6.314   2.382   6.272
 5857SOL    HW118470   6.318   2.323   6.353
 5857SOL    HW218471   6.286   2.328   6.193
 5858SOL     OW18472   2.914   1.718   2.364
 5858SOL    HW118473   2.845   1.650   2.341
 5858SOL    HW218474   3.005   1.684   2.339
 5859SOL     OW18475   6.067   6.326   1.484
 5859SOL    HW118476   6.036   6.271   1.561
 5859SOL    HW218477   6.119   6.269   1.421
 5860SOL     OW18478   0.318   3.229   1.889
 5860SOL    HW118479   0.328   3.144   1.838
 5860SOL    HW218480   0.238   3.223   1.949
 5861SOL     OW18481   4.539   1.445   4.483
 5861SOL    HW118482   4.453   1.472   4.440
 5861SOL    HW218483   4.612   1.505   4.451
 5862SOL     OW18484   6.346   5.467   1.295
 5862SOL    HW118485   6.393   5.550   1.324
 5862SOL    HW218486   6.306   5.481   1.205
 5863SOL     OW18487   3.219   1.981   5.498
 5863SOL    HW118488   3.129   1.939   5.492
 5863SOL    HW218489   3.256   1.996   5.406
 5864SOL     OW18490   3.987   3.817   2.179
 5864SOL    HW118491   4.022   3.796   2.270
 5864SOL    HW218492   3.915   3.752   2.156
 5865SOL     OW18493   6.143   0.320   4.698
 5865SOL    HW118494   6.183   0.294   4.610
 5865SOL    HW218495   6.043   0.315   4.692
 5866SOL     OW18496   3.888   4.415   6.989
 5866SOL    HW118497   3.977   4.369   6.997
 5866SOL    HW218498   3.859   4.414   6.894
 5867SOL     OW18499   2.060   3.506   0.566
 5867SOL    HW118500   2.139   3.446   0.557
 5867SOL    HW218501   2.010   3.483   0.649
 5868SOL     OW18502   1.106   1.860   5.427
 5868SOL    HW118503   1.090   1.870   5.329
 5868SOL    HW218504   1.023   1.824   5.470
 5869SOL     OW18505   1.755   6.349   3.751
 5869SOL    HW118506   1.732   6.252   3.752
 5869SOL    HW218507   1.728   6.389   3.663
 5870SOL     OW18508   4.620   6.120   4.469
 5870SOL    HW118509   4.628   6.210   4.427
 5870SOL    HW218510   4.553   6.124   4.544
 5871SOL     OW18511   3.631   3.136   1.423
 5871SOL    HW118512   3.555   3.138   1.358
 5871SOL    HW218513   3.606   3.083   1.504
 5872SOL     OW18514   4.214   5.922   1.110
 5872SOL    HW118515   4.157   5.852   1.067
 5872SOL    HW218516   4.203   6.008   1.060
 5873SOL     OW18517   2.936   1.627   1.555
 5873SOL    HW118518   2.942   1.707   1.615
 5873SOL    HW218519   3.018   1.624   1.496
 5874SOL     OW18520   3.303   4.164   6.597
 5874SOL    HW118521   3.211   4.199   6.581
 5874SOL    HW218522   3.349   4.148   6.510
 5875SOL     OW18523   4.474   0.970   6.865
 5875SOL    HW118524   4.397   0.991   6.926
 5875SOL    HW218525   4.440   0.918   6.787
 5876SOL     OW18526   3.580   3.418   0.517
 5876SOL    HW118527   3.608   3.514   0.515
 5876SOL    HW218528   3.541   3.393   0.428
 5877SOL     OW18529   0.381   0.446   1.098
 5877SOL    HW118530   0.434   0.518   1.054
 5877SOL    HW218531   0.286   0.449   1.065
 5878SOL     OW18532   5.959   5.066   4.247
 5878SOL    HW118533   5.977   5.122   4.165
 5878SOL    HW218534   5.895   5.115   4.307
 5879SOL     OW18535   1.658   4.110   6.654
 5879SOL    HW118536   1.728   4.147   6.593
 5879SOL    HW218537   1.698   4.090   6.743
 5880SOL     OW18538   5.067   4.867   6.711
 5880SOL    HW118539   5.075   4.804   6.789
 5880SOL    HW218540   5.104   4.823   6.629
 5881SOL     OW18541   0.823   6.642   2.527
 5881SOL    HW118542   0.834   6.593   2.613
 5881SOL    HW218543   0.775   6.584   2.461
 5882SOL     OW18544   0.489   5.514   6.863
 5882SOL    HW118545   0.456   5.608   6.852
 5882SOL    HW218546   0.440   5.470   6.938
 5883SOL     OW18547   0.218   1.541   6.768
 5883SOL    HW118548   0.206   1.557   6.866
 5883SOL    HW218549   0.184   1.620   6.717
 5884SOL     OW18550   4.841   0.956   4.298
 5884SOL    HW118551   4.920   0.987   4.244
 5884SOL    HW218552   4.760   0.953   4.240
 5885SOL     OW18553   0.351   5.896   2.524
 5885SOL    HW118554   0.316   5.868   2.435
 5885SOL    HW218555   0.395   5.985   2.517
 5886SOL     OW18556   0.490   2.277   3.657
 5886SOL    HW118557   0.427   2.342   3.699
 5886SOL    HW218558   0.520   2.211   3.726
 5887SOL     OW18559   2.445   2.184   1.947
 5887SOL    HW118560   2.500   2.242   1.888
 5887SOL    HW218561   2.505   2.128   2.005
 5888SOL     OW18562   1.852   0.406   1.267
 5888SOL    HW118563   1.834   0.504   1.270
 5888SOL    HW218564   1.858   0.370   1.360
 5889SOL     OW18565   0.277   0.868   0.342
 5889SOL    HW118566   0.239   0.949   0.386
 5889SOL    HW218567   0.276   0.791   0.407
 5890SOL     OW18568   2.159   1.130   2.946
 5890SOL    HW118569   2.221   1.157   3.019
 5890SOL    HW218570   2.066   1.156   2.970
 5891SOL     OW18571   3.168   3.620   0.121
 5891SOL    HW118572   3.175   3.714   0.087
 5891SOL    HW218573   3.228   3.561   0.067
 5892SOL     OW18574   1.142   4.848   2.119
 5892SOL    HW118575   1.125   4.820   2.025
 5892SOL    HW218576   1.093   4.933   2.138
 5893SOL     OW18577   1.456   3.938   3.413
 5893SOL    HW118578   1.438   4.021   3.361
 5893SOL    HW218579   1.499   3.962   3.500
 5894SOL     OW18580   0.438   5.788   4.326
 5894SOL    HW118581   0.356   5.774   4.269
 5894SOL    HW218582   0.519   5.758   4.276
 5895SOL     OW18583   5.050   3.325   3.970
 5895SOL    HW118584   5.139   3.371   3.970
 5895SOL    HW218585   5.004   3.341   3.883
 5896SOL     OW18586   3.627   1.262   1.505
 5896SOL    HW118587   3.718   1.243   1.468
 5896SOL    HW218588   3.570   1.180   1.496
 5897SOL     OW18589   4.044   0.134   1.629
 5897SOL    HW118590   4.003   0.178   1.549
 5897SOL    HW218591   4.137   0.106   1.607
 5898SOL     OW18592   2.711   0.341   4.888
 5898SOL    HW118593   2.661   0.414   4.933
 5898SOL    HW218594   2.781   0.380   4.828
 5899SOL     OW18595   6.768   5.168   6.681
 5899SOL    HW118596   6.857   5.138   6.715
 5899SOL    HW218597   6.757   5.266   6.698
 5900SOL     OW18598   6.178   5.223   3.574
 5900SOL    HW118599   6.205   5.250   3.666
 5900SOL    HW218600   6.187   5.124   3.563
 5901SOL     OW18601   2.789   0.748   0.517
 5901SOL    HW118602   2.872   0.716   0.562
 5901SOL    HW218603   2.709   0.720   0.571
 5902SOL     OW18604   5.817   2.641   5.765
 5902SOL    HW118605   5.834   2.690   5.679
 5902SOL    HW218606   5.812   2.543   5.746
 5903SOL     OW18607   4.760   3.859   6.526
 5903SOL    HW118608   4.847   3.809   6.524
 5903SOL    HW218609   4.718   3.859   6.436
 5904SOL     OW18610   1.381   4.833   0.791
 5904SOL    HW118611   1.468   4.804   0.752
 5904SOL    HW218612   1.312   4.762   0.774
 5905SOL     OW18613   6.099   0.537   4.198
 5905SOL    HW118614   6.017   0.482   4.214
 5905SOL    HW218615   6.160   0.532   4.277
 5906SOL     OW18616   3.807   1.929   3.499
 5906SOL    HW118617   3.864   1.867   3.552
 5906SOL    HW218618   3.844   2.021   3.504
 5907SOL     OW18619   0.956   5.926   0.527
 5907SOL    HW118620   1.006   5.840   0.531
 5907SOL    HW218621   0.960   5.963   0.434
 5908SOL     OW18622   6.734   3.205   0.414
 5908SOL    HW118623   6.820   3.204   0.465
 5908SOL    HW218624   6.685   3.290   0.434
 5909SOL     OW18625   6.957   4.915   0.549
 5909SOL    HW118626   6.864   4.885   0.567
 5909SOL    HW218627   0.004   4.873   0.616
 5910SOL     OW18628   0.410   4.248   2.855
 5910SOL    HW118629   0.467   4.317   2.900
 5910SOL    HW218630   0.330   4.228   2.912
 5911SOL     OW18631   6.745   4.870   6.007
 5911SOL    HW118632   6.661   4.817   6.009
 5911SOL    HW218633   6.735   4.950   6.067
 5912SOL     OW18634   5.825   3.143   6.694
 5912SOL    HW118635   5.825   3.119   6.791
 5912SOL    HW218636   5.882   3.224   6.680
 5913SOL     OW18637   4.647   2.997   6.419
 5913SOL    HW118638   4.704   3.008   6.338
 5913SOL    HW218639   4.663   3.072   6.482
 5914SOL     OW18640   1.730   5.257   6.794
 5914SOL    HW118641   1.699   5.276   6.888
 5914SOL    HW218642   1.735   5.342   6.743
 5915SOL     OW18643   5.314   5.233   1.494
 5915SOL    HW118644   5.263   5.302   1.442
 5915SOL    HW218645   5.392   5.277   1.539
 5916SOL     OW18646   3.990   5.206   5.233
 5916SOL    HW118647   4.007   5.109   5.251
 5916SOL    HW218648   3.904   5.233   5.275
 5917SOL     OW18649   3.698   3.298   3.670
 5917SOL    HW118650   3.635   3.267   3.599
 5917SOL    HW218651   3.677   3.251   3.756
 5918SOL     OW18652   1.947   3.327   5.610
 5918SOL    HW118653   1.867   3.320   5.552
 5918SOL    HW218654   2.025   3.360   5.556
 5919SOL     OW18655   4.055   3.268   1.323
 5919SOL    HW118656   4.099   3.357   1.321
 5919SOL    HW218657   4.073   3.224   1.411
 5920SOL     OW18658   4.049   0.499   6.878
 5920SOL    HW118659   4.103   0.544   6.807
 5920SOL    HW218660   4.054   0.400   6.867
 5921SOL     OW18661   3.977   5.518   5.849
 5921SOL    HW118662   3.994   5.422   5.827
 5921SOL    HW218663   4.062   5.559   5.883
 5922SOL     OW18664   6.469   5.327   2.998
 5922SOL    HW118665   6.490   5.425   2.995
 5922SOL    HW218666   6.410   5.304   2.920
 5923SOL     OW18667   5.379   0.980   1.336
 5923SOL    HW118668   5.299   0.958   1.392
 5923SOL    HW218669   5.450   1.020   1.394
 5924SOL     OW18670   0.200   1.244   3.660
 5924SOL    HW118671   0.252   1.305   3.600
 5924SOL    HW218672   0.108   1.231   3.622
 5925SOL     OW18673   3.754   5.528   1.760
 5925SOL    HW118674   3.797   5.439   1.777
 5925SOL    HW218675   3.710   5.560   1.844
 5926SOL     OW18676   4.044   5.339   1.437
 5926SOL    HW118677   4.104   5.402   1.484
 5926SOL    HW218678   3.950   5.350   1.471
 5927SOL     OW18679   1.219   3.919   2.542
 5927SOL    HW118680   1.311   3.879   2.545
 5927SOL    HW218681   1.212   3.982   2.465
 5928SOL     OW18682   3.377   0.293   0.784
 5928SOL    HW118683   3.405   0.234   0.708
 5928SOL    HW218684   3.456   0.346   0.815
 5929SOL     OW18685   0.521   6.732   6.078
 5929SOL    HW118686   0.433   6.776   6.096
 5929SOL    HW218687   0.511   6.633   6.087
 5930SOL     OW18688   6.655   2.651   3.538
 5930SOL    HW118689   6.667   2.729   3.478
 5930SOL    HW218690   6.735   2.592   3.534
 5931SOL     OW18691   6.875   5.419   3.618
 5931SOL    HW118692   6.909   5.391   3.528
 5931SOL    HW218693   6.784   5.459   3.608
 5932SOL     OW18694   2.043   6.897   0.675
 5932SOL    HW118695   1.981   6.943   0.613
 5932SOL    HW218696   2.118   6.856   0.623
 5933SOL     OW18697   0.302   6.407   3.562
 5933SOL    HW118698   0.316   6.327   3.504
 5933SOL    HW218699   0.227   6.390   3.625
 5934SOL     OW18700   3.971   3.307   4.195
 5934SOL    HW118701   4.042   3.312   4.264
 5934SOL    HW218702   3.902   3.378   4.212
 5935SOL     OW18703   4.895   4.128   6.116
 5935SOL    HW118704   4.828   4.187   6.071
 5935SOL    HW218705   4.952   4.183   6.177
 5936SOL     OW18706   3.706   3.424   0.781
 5936SOL    HW118707   3.662   3.446   0.694
 5936SOL    HW218708   3.701   3.503   0.843
 5937SOL     OW18709   0.828   4.529   2.947
 5937SOL    HW118710   0.810   4.535   3.045
 5937SOL    HW218711   0.766   4.590   2.898
 5938SOL     OW18712   0.672   5.085   3.854
 5938SOL    HW118713   0.645   5.078   3.950
 5938SOL    HW218714   0.677   5.182   3.828
 5939SOL     OW18715   2.821   6.393   3.248
 5939SOL    HW118716   2.808   6.451   3.329
 5939SOL    HW218717   2.912   6.408   3.210
 5940SOL     OW18718   4.620   5.442   0.746
 5940SOL    HW118719   4.532   5.486   0.727
 5940SOL    HW218720   4.678   5.505   0.798
 5941SOL     OW18721   5.667   3.544   1.971
 5941SOL    HW118722   5.613   3.599   1.907
 5941SOL    HW218723   5.744   3.598   2.004
 5942SOL     OW18724   5.189   3.258   0.766
 5942SOL    HW118725   5.179   3.215   0.676
 5942SOL    HW218726   5.135   3.342   0.769
 5943SOL     OW18727   3.624   5.166   0.609
 5943SOL    HW118728   3.661   5.258   0.615
 5943SOL    HW218729   3.691   5.105   0.568
 5944SOL     OW18730   6.372   2.908   1.632
 5944SOL    HW118731   6.373   2.809   1.623
 5944SOL    HW218732   6.393   2.950   1.544
 5945SOL     OW18733   6.321   5.336   5.313
 5945SOL    HW118734   6.315   5.281   5.396
 5945SOL    HW218735   6.412   5.377   5.307
 5946SOL     OW18736   3.639   3.493   6.161
 5946SOL    HW118737   3.639   3.410   6.104
 5946SOL    HW218738   3.600   3.472   6.250
 5947SOL     OW18739   3.885   3.718   1.724
 5947SOL    HW118740   3.931   3.806   1.736
 5947SOL    HW218741   3.941   3.659   1.666
 5948SOL     OW18742   4.489   5.100   3.153
 5948SOL    HW118743   4.466   5.082   3.057
 5948SOL    HW218744   4.494   5.013   3.202
 5949SOL     OW18745   4.803   3.478   1.600
 5949SOL    HW118746   4.800   3.560   1.658
 5949SOL    HW218747   4.875   3.417   1.631
 5950SOL     OW18748   4.458   2.329   5.660
 5950SOL    HW118749   4.485   2.425   5.653
 5950SOL    HW218750   4.520   2.273   5.605
 5951SOL     OW18751   0.681   5.742   4.165
 5951SOL    HW118752   0.715   5.832   4.137
 5951SOL    HW218753   0.744   5.701   4.231
 5952SOL     OW18754   5.579   4.500   4.318
 5952SOL    HW118755   5.603   4.576   4.258
 5952SOL    HW218756   5.653   4.434   4.320
 5953SOL     OW18757   6.332   3.049   5.454
 5953SOL    HW118758   6.236   3.073   5.443
 5953SOL    HW218759   6.342   2.950   5.445
 5954SOL     OW18760   0.866   4.124   5.618
 5954SOL    HW118761   0.957   4.085   5.624
 5954SOL    HW218762   0.868   4.220   5.647
 5955SOL     OW18763   5.346   6.227   2.576
 5955SOL    HW118764   5.316   6.190   2.664
 5955SOL    HW218765   5.368   6.324   2.587
 5956SOL     OW18766   4.570   0.842   6.049
 5956SOL    HW118767   4.494   0.859   5.986
 5956SOL    HW218768   4.548   0.881   6.139
 5957SOL     OW18769   3.999   0.721   5.457
 5957SOL    HW118770   4.035   0.643   5.507
 5957SOL    HW218771   4.052   0.735   5.373
 5958SOL     OW18772   6.060   6.606   2.978
 5958SOL    HW118773   6.050   6.698   3.016
 5958SOL    HW218774   6.054   6.610   2.878
 5959SOL     OW18775   4.074   2.268   5.503
 5959SOL    HW118776   4.016   2.310   5.434
 5959SOL    HW218777   4.108   2.338   5.566
 5960SOL     OW18778   3.584   5.507   4.883
 5960SOL    HW118779   3.492   5.544   4.873
 5960SOL    HW218780   3.583   5.432   4.949
 5961SOL     OW18781   5.403   1.301   3.149
 5961SOL    HW118782   5.357   1.355   3.078
 5961SOL    HW218783   5.368   1.207   3.147
 5962SOL     OW18784   5.264   6.183   0.732
 5962SOL    HW118785   5.219   6.231   0.807
 5962SOL    HW218786   5.295   6.093   0.764
 5963SOL     OW18787   3.511   3.512   5.293
 5963SOL    HW118788   3.568   3.485   5.371
 5963SOL    HW218789   3.529   3.608   5.271
 5964SOL     OW18790   0.191   5.620   5.590
 5964SOL    HW118791   0.192   5.717   5.565
 5964SOL    HW218792   0.282   5.593   5.620
 5965SOL     OW18793   0.953   2.135   6.997
 5965SOL    HW118794   0.891   2.211   0.001
 5965SOL    HW218795   1.047   2.169   6.993
 5966SOL     OW18796   2.716   5.915   5.873
 5966SOL    HW118797   2.671   5.864   5.800
 5966SOL    HW218798   2.815   5.916   5.858
 5967SOL     OW18799   4.232   6.621   0.051
 5967SOL    HW118800   4.194   6.626   0.143
 5967SOL    HW218801   4.266   6.711   0.023
 5968SOL     OW18802   4.570   1.211   1.314
 5968SOL    HW118803   4.632   1.212   1.392
 5968SOL    HW218804   4.490   1.268   1.334
 5969SOL     OW18805   0.156   0.006   6.598
 5969SOL    HW118806   0.186   6.996   6.690
 5969SOL    HW218807   0.139   0.105   6.595
 5970SOL     OW18808   0.661   4.733   2.598
 5970SOL    HW118809   0.650   4.639   2.569
 5970SOL    HW218810   0.759   4.753   2.611
 5971SOL     OW18811   1.226   0.908   2.294
 5971SOL    HW118812   1.168   0.902   2.376
 5971SOL    HW218813   1.191   0.980   2.233
 5972SOL     OW18814   5.220   5.508   0.111
 5972SOL    HW118815   5.239   5.435   0.177
 5972SOL    HW218816   5.159   5.474   0.040
 5973SOL     OW18817   2.072   3.327   2.435
 5973SOL    HW118818   2.113   3.236   2.428
 5973SOL    HW218819   1.991   3.331   2.377
 5974SOL     OW18820   5.920   5.306   6.276
 5974SOL    HW118821   5.869   5.389   6.254
 5974SOL    HW218822   5.863   5.226   6.258
 5975SOL     OW18823   3.479   1.347   0.187
 5975SOL    HW118824   3.481   1.384   0.280
 5975SOL    HW218825   3.386   1.348   0.152
 5976SOL     OW18826   3.025   3.227   5.105
 5976SOL    HW118827   2.945   3.287   5.105
 5976SOL    HW218828   3.108   3.282   5.092
 5977SOL     OW18829   2.680   5.683   6.915
 5977SOL    HW118830   2.603   5.642   6.963
 5977SOL    HW218831   2.762   5.629   6.932
 5978SOL     OW18832   5.389   5.927   2.826
 5978SOL    HW118833   5.440   5.904   2.909
 5978SOL    HW218834   5.451   5.926   2.747
 5979SOL     OW18835   5.295   0.829   2.701
 5979SOL    HW118836   5.322   0.801   2.609
 5979SOL    HW218837   5.332   0.920   2.720
 5980SOL     OW18838   3.820   3.896   0.706
 5980SOL    HW118839   3.782   3.983   0.674
 5980SOL    HW218840   3.889   3.913   0.776
 5981SOL     OW18841   5.875   1.874   1.030
 5981SOL    HW118842   5.792   1.851   1.080
 5981SOL    HW218843   5.955   1.854   1.087
 5982SOL     OW18844   6.398   3.393   2.279
 5982SOL    HW118845   6.304   3.358   2.274
 5982SOL    HW218846   6.405   3.458   2.354
 5983SOL     OW18847   1.293   1.588   4.421
 5983SOL    HW118848   1.285   1.547   4.330
 5983SOL    HW218849   1.344   1.674   4.414
 5984SOL     OW18850   6.653   5.728   4.527
 5984SOL    HW118851   6.648   5.646   4.584
 5984SOL    HW218852   6.574   5.786   4.545
 5985SOL     OW18853   0.111   3.021   4.239
 5985SOL    HW118854   0.112   3.121   4.228
 5985SOL    HW218855   0.186   2.993   4.298
 5986SOL     OW18856   3.318   3.463   5.087
 5986SOL    HW118857   3.325   3.495   4.992
 5986SOL    HW218858   3.400   3.488   5.137
 5987SOL     OW18859   4.449   0.362   4.273
 5987SOL    HW118860   4.369   0.309   4.247
 5987SOL    HW218861   4.421   0.455   4.298
 5988SOL     OW18862   5.186   0.032   5.375
 5988SOL    HW118863   5.167   0.039   5.473
 5988SOL    HW218864   5.112   0.075   5.324
 5989SOL     OW18865   2.886   6.254   6.980
 5989SOL    HW118866   2.797   6.228   6.940
 5989SOL    HW218867   2.948   6.176   6.974
 5990SOL     OW18868   3.805   4.346   0.236
 5990SOL    HW118869   3.721   4.398   0.256
 5990SOL    HW218870   3.837   4.370   0.144
 5991SOL     OW18871   3.220   4.873   6.953
 5991SOL    HW118872   3.189   4.797   7.010
 5991SOL    HW218873   3.281   4.931   7.007
 5992SOL     OW18874   3.418   0.134   3.074
 5992SOL    HW118875   3.362   0.146   2.992
 5992SOL    HW218876   3.382   0.059   3.129
 5993SOL     OW18877   2.833   6.176   6.547
 5993SOL    HW118878   2.787   6.258   6.581
 5993SOL    HW218879   2.812   6.163   6.451
 5994SOL     OW18880   6.201   2.337   2.252
 5994SOL    HW118881   6.301   2.336   2.259
 5994SOL    HW218882   6.169   2.431   2.237
 5995SOL     OW18883   5.273   4.840   3.354
 5995SOL    HW118884   5.225   4.793   3.428
 5995SOL    HW218885   5.372   4.834   3.370
 5996SOL     OW18886   1.083   6.628   0.701
 5996SOL    HW118887   1.112   6.711   0.748
 5996SOL    HW218888   1.014   6.581   0.757
 5997SOL     OW18889   1.002   5.479   2.423
 5997SOL    HW118890   0.915   5.522   2.400
 5997SOL    HW218891   1.003   5.455   2.520
 5998SOL     OW18892   5.875   1.821   2.728
 5998SOL    HW118893   5.943   1.759   2.688
 5998SOL    HW218894   5.856   1.895   2.664
 5999SOL     OW18895   1.711   1.760   2.281
 5999SOL    HW118896   1.745   1.698   2.210
 5999SOL    HW218897   1.674   1.842   2.237
 6000SOL     OW18898   4.378   6.685   1.261
 6000SOL    HW118899   4.407   6.662   1.168
 6000SOL    HW218900   4.287   6.727   1.258
 6001SOL     OW18901   0.586   3.790   6.954
 6001SOL    HW118902   0.519   3.832   7.014
 6001SOL    HW218903   0.637   3.861   6.905
 6002SOL     OW18904   6.141   7.011   1.037
 6002SOL    HW118905   6.090   7.005   1.123
 6002SOL    HW218906   6.140   6.923   0.991
 6003SOL     OW18907   6.788   2.220   3.920
 6003SOL    HW118908   6.747   2.149   3.977
 6003SOL    HW218909   6.855   2.271   3.974
 6004SOL     OW18910   0.610   3.652   2.959
 6004SOL    HW118911   0.710   3.640   2.957
 6004SOL    HW218912   0.566   3.574   2.915
 6005SOL     OW18913   5.009   5.529   4.641
 6005SOL    HW118914   4.947   5.601   4.674
 6005SOL    HW218915   5.079   5.512   4.709
 6006SOL     OW18916   3.266   0.699   6.343
 6006SOL    HW118917   3.247   0.607   6.308
 6006SOL    HW218918   3.246   0.766   6.272
 6007SOL     OW18919   4.983   3.574   5.215
 6007SOL    HW118920   4.940   3.598   5.128
 6007SOL    HW218921   4.912   3.549   5.281
 6008SOL     OW18922   2.056   4.881   5.434
 6008SOL    HW118923   2.079   4.834   5.349
 6008SOL    HW218924   2.110   4.842   5.509
 6009SOL     OW18925   3.660   0.418   3.882
 6009SOL    HW118926   3.757   0.416   3.860
 6009SOL    HW218927   3.629   0.325   3.902
 6010SOL     OW18928   1.443   4.430   3.767
 6010SOL    HW118929   1.489   4.362   3.709
 6010SOL    HW218930   1.347   4.404   3.780
 6011SOL     OW18931   5.068   3.282   2.472
 6011SOL    HW118932   4.999   3.230   2.522
 6011SOL    HW218933   5.128   3.329   2.536
 6012SOL     OW18934   5.405   1.347   0.090
 6012SOL    HW118935   5.380   1.322   0.183
 6012SOL    HW218936   5.329   1.394   0.046
 6013SOL     OW18937   5.454   2.345   3.321
 6013SOL    HW118938   5.457   2.258   3.271
 6013SOL    HW218939   5.359   2.367   3.344
 6014SOL     OW18940   4.036   3.739   1.170
 6014SOL    HW118941   4.128   3.776   1.159
 6014SOL    HW218942   4.002   3.706   1.082
 6015SOL     OW18943   5.298   2.758   4.255
 6015SOL    HW118944   5.341   2.696   4.189
 6015SOL    HW218945   5.337   2.850   4.244
 6016SOL     OW18946   5.970   1.860   6.025
 6016SOL    HW118947   5.909   1.912   6.084
 6016SOL    HW218948   5.960   1.762   6.044
 6017SOL     OW18949   0.024   4.154   2.734
 6017SOL    HW118950   0.066   4.094   2.802
 6017SOL    HW218951   6.967   4.104   2.686
 6018SOL     OW18952   3.131   0.477   6.213
 6018SOL    HW118953   3.059   0.532   6.256
 6018SOL    HW218954   3.133   0.495   6.114
 6019SOL     OW18955   6.571   2.007   4.244
 6019SOL    HW118956   6.497   1.982   4.181
 6019SOL    HW218957   6.658   2.002   4.195
 6020SOL     OW18958   1.960   4.793   1.114
 6020SOL    HW118959   2.047   4.820   1.155
 6020SOL    HW218960   1.918   4.721   1.169
 6021SOL     OW18961   4.620   0.737   2.392
 6021SOL    HW118962   4.675   0.811   2.429
 6021SOL    HW218963   4.527   0.743   2.429
 6022SOL     OW18964   4.178   2.267   3.810
 6022SOL    HW118965   4.228   2.306   3.888
 6022SOL    HW218966   4.227   2.286   3.726
 6023SOL     OW18967   6.701   0.217   2.249
 6023SOL    HW118968   6.623   0.221   2.311
 6023SOL    HW218969   6.667   0.211   2.154
 6024SOL     OW18970   1.009   4.856   3.198
 6024SOL    HW118971   1.020   4.793   3.275
 6024SOL    HW218972   1.050   4.816   3.116
 6025SOL     OW18973   3.534   1.451   2.750
 6025SOL    HW118974   3.482   1.383   2.697
 6025SOL    HW218975   3.622   1.467   2.706
 6026SOL     OW18976   0.222   4.170   5.206
 6026SOL    HW118977   0.251   4.195   5.114
 6026SOL    HW218978   0.299   4.132   5.257
 6027SOL     OW18979   1.429   4.078   6.361
 6027SOL    HW118980   1.381   4.130   6.290
 6027SOL    HW218981   1.506   4.029   6.319
 6028SOL     OW18982   0.701   4.882   6.820
 6028SOL    HW118983   0.702   4.965   6.765
 6028SOL    HW218984   0.682   4.803   6.761
 6029SOL     OW18985   2.247   6.045   5.234
 6029SOL    HW118986   2.156   6.017   5.264
 6029SOL    HW218987   2.316   5.987   5.277
 6030SOL     OW18988   3.951   5.947   2.957
 6030SOL    HW118989   3.932   5.996   3.042
 6030SOL    HW218990   3.915   5.999   2.880
 6031SOL     OW18991   3.521   5.462   3.220
 6031SOL    HW118992   3.448   5.530   3.226
 6031SOL    HW218993   3.506   5.391   3.289
 6032SOL     OW18994   2.443   4.600   3.023
 6032SOL    HW118995   2.462   4.643   3.112
 6032SOL    HW218996   2.429   4.671   2.954
 6033SOL     OW18997   3.153   1.477   2.663
 6033SOL    HW118998   3.227   1.410   2.659
 6033SOL    HW218999   3.183   1.561   2.618
 6034SOL     OW19000   1.008   5.208   4.922
 6034SOL    HW119001   0.930   5.248   4.970
 6034SOL    HW219002   1.087   5.208   4.984
 6035SOL     OW19003   6.804   0.775   2.489
 6035SOL    HW119004   6.898   0.742   2.481
 6035SOL    HW219005   6.767   0.750   2.579
 6036SOL     OW19006   6.358   5.837   4.226
 6036SOL    HW119007   6.282   5.900   4.219
 6036SOL    HW219008   6.328   5.754   4.274
 6037SOL     OW19009   4.520   4.746   6.025
 6037SOL    HW119010   4.530   4.758   6.124
 6037SOL    HW219011   4.609   4.722   5.986
 6038SOL     OW19012   1.637   2.461   6.009
 6038SOL    HW119013   1.720   2.482   6.060
 6038SOL    HW219014   1.587   2.545   5.991
 6039SOL     OW19015   3.097   3.384   2.469
 6039SOL    HW119016   3.023   3.355   2.531
 6039SOL    HW219017   3.156   3.306   2.450
 6040SOL     OW19018   0.955   1.976   6.510
 6040SOL    HW119019   0.856   1.984   6.507
 6040SOL    HW219020   0.992   2.029   6.586
 6041SOL     OW19021   2.315   0.535   4.945
 6041SOL    HW119022   2.274   0.592   4.874
 6041SOL    HW219023   2.249   0.465   4.974
 6042SOL     OW19024   5.511   5.709   1.723
 6042SOL    HW119025   5.560   5.696   1.810
 6042SOL    HW219026   5.483   5.805   1.715
 6043SOL     OW19027   0.937   4.378   5.771
 6043SOL    HW119028   0.843   4.386   5.739
 6043SOL    HW219029   0.937   4.354   5.868
 6044SOL     OW19030   1.491   2.058   1.674
 6044SOL    HW119031   1.473   1.990   1.746
 6044SOL    HW219032   1.517   2.145   1.716
 6045SOL     OW19033   6.519   4.800   1.611
 6045SOL    HW119034   6.567   4.844   1.535
 6045SOL    HW219035   6.514   4.862   1.689
 6046SOL     OW19036   4.288   1.917   0.198
 6046SOL    HW119037   4.352   1.862   0.145
 6046SOL    HW219038   4.295   2.013   0.171
 6047SOL     OW19039   5.475   2.483   2.249
 6047SOL    HW119040   5.471   2.433   2.163
 6047SOL    HW219041   5.503   2.578   2.232
 6048SOL     OW19042   5.065   5.751   4.440
 6048SOL    HW119043   5.035   5.659   4.464
 6048SOL    HW219044   5.153   5.769   4.484
 6049SOL     OW19045   5.854   3.470   6.063
 6049SOL    HW119046   5.799   3.434   6.138
 6049SOL    HW219047   5.883   3.563   6.085
 6050SOL     OW19048   2.999   5.338   4.390
 6050SOL    HW119049   3.051   5.270   4.338
 6050SOL    HW219050   3.063   5.399   4.437
 6051SOL     OW19051   2.664   1.014   4.279
 6051SOL    HW119052   2.596   1.071   4.324
 6051SOL    HW219053   2.635   0.996   4.185
 6052SOL     OW19054   5.921   6.986   0.651
 6052SOL    HW119055   5.838   0.026   0.655
 6052SOL    HW219056   5.997   0.019   0.694
 6053SOL     OW19057   4.212   0.954   6.246
 6053SOL    HW119058   4.124   0.965   6.201
 6053SOL    HW219059   4.240   1.042   6.285
 6054SOL     OW19060   2.847   3.607   0.535
 6054SOL    HW119061   2.752   3.639   0.530
 6054SOL    HW219062   2.869   3.583   0.630
 6055SOL     OW19063   4.814   0.900   5.615
 6055SOL    HW119064   4.846   0.991   5.639
 6055SOL    HW219065   4.876   0.859   5.548
 6056SOL     OW19066   4.843   2.611   4.768
 6056SOL    HW119067   4.804   2.622   4.677
 6056SOL    HW219068   4.791   2.543   4.819
 6057SOL     OW19069   4.948   2.584   4.097
 6057SOL    HW119070   5.008   2.510   4.066
 6057SOL    HW219071   5.002   2.651   4.148
 6058SOL     OW19072   4.813   3.021   1.202
 6058SOL    HW119073   4.728   3.051   1.159
 6058SOL    HW219074   4.872   2.980   1.132
 6059SOL     OW19075   5.252   5.087   5.185
 6059SOL    HW119076   5.215   5.152   5.251
 6059SOL    HW219077   5.221   5.110   5.093
 6060SOL     OW19078   2.789   3.973   6.495
 6060SOL    HW119079   2.858   3.901   6.482
 6060SOL    HW219080   2.710   3.954   6.436
 6061SOL     OW19081   3.732   2.193   1.247
 6061SOL    HW119082   3.792   2.233   1.316
 6061SOL    HW219083   3.682   2.116   1.286
 6062SOL     OW19084   2.431   1.692   5.220
 6062SOL    HW119085   2.452   1.744   5.303
 6062SOL    HW219086   2.346   1.726   5.181
 6063SOL     OW19087   3.987   1.702   6.443
 6063SOL    HW119088   4.067   1.762   6.445
 6063SOL    HW219089   3.904   1.758   6.446
 6064SOL     OW19090   1.765   5.973   1.113
 6064SOL    HW119091   1.781   5.936   1.022
 6064SOL    HW219092   1.683   5.932   1.152
 6065SOL     OW19093   6.120   6.867   1.697
 6065SOL    HW119094   6.116   6.842   1.794
 6065SOL    HW219095   6.146   6.787   1.644
 6066SOL     OW19096   4.873   1.996   6.082
 6066SOL    HW119097   4.885   2.080   6.029
 6066SOL    HW219098   4.801   2.009   6.150
 6067SOL     OW19099   5.387   1.639   5.925
 6067SOL    HW119100   5.303   1.648   5.871
 6067SOL    HW219101   5.376   1.687   6.012
 6068SOL     OW19102   5.723   3.005   4.860
 6068SOL    HW119103   5.727   2.969   4.767
 6068SOL    HW219104   5.724   3.105   4.856
 6069SOL     OW19105   6.591   3.270   5.031
 6069SOL    HW119106   6.652   3.203   4.988
 6069SOL    HW219107   6.591   3.354   4.977
 6070SOL     OW19108   2.331   2.303   0.685
 6070SOL    HW119109   2.375   2.313   0.775
 6070SOL    HW219110   2.343   2.210   0.652
 6071SOL     OW19111   5.981   4.910   4.669
 6071SOL    HW119112   6.015   4.863   4.750
 6071SOL    HW219113   5.899   4.962   4.692
 6072SOL     OW19114   0.424   0.001   1.780
 6072SOL    HW119115   0.480   0.071   1.736
 6072SOL    HW219116   0.337   0.042   1.809
 6073SOL     OW19117   6.513   4.178   0.411
 6073SOL    HW119118   6.524   4.081   0.430
 6073SOL    HW219119   6.416   4.201   0.410
 6074SOL     OW19120   1.115   5.920   4.200
 6074SOL    HW119121   1.083   5.974   4.122
 6074SOL    HW219122   1.091   5.968   4.285
 6075SOL     OW19123   6.645   1.542   6.267
 6075SOL    HW119124   6.583   1.497   6.331
 6075SOL    HW219125   6.626   1.641   6.266
 6076SOL     OW19126   2.160   5.725   4.420
 6076SOL    HW119127   2.206   5.694   4.503
 6076SOL    HW219128   2.064   5.696   4.422
 6077SOL     OW19129   5.743   5.948   1.611
 6077SOL    HW119130   5.819   6.012   1.614
 6077SOL    HW219131   5.742   5.902   1.522
 6078SOL     OW19132   3.635   5.344   1.263
 6078SOL    HW119133   3.680   5.408   1.326
 6078SOL    HW219134   3.606   5.263   1.314
 6079SOL     OW19135   3.966   3.067   6.524
 6079SOL    HW119136   4.022   3.028   6.451
 6079SOL    HW219137   3.903   3.134   6.486
 6080SOL     OW19138   0.094   0.898   1.678
 6080SOL    HW119139   0.032   0.822   1.696
 6080SOL    HW219140   0.184   0.863   1.651
 6081SOL     OW19141   6.487   3.034   5.678
 6081SOL    HW119142   6.424   3.047   5.602
 6081SOL    HW219143   6.501   2.937   5.694
 6082SOL     OW19144   2.107   1.985   3.393
 6082SOL    HW119145   2.165   1.992   3.475
 6082SOL    HW219146   2.156   2.021   3.314
 6083SOL     OW19147   0.648   4.576   6.930
 6083SOL    HW119148   0.693   4.487   6.923
 6083SOL    HW219149   0.657   4.611   0.007
 6084SOL     OW19150   0.454   5.960   3.119
 6084SOL    HW119151   0.441   6.049   3.076
 6084SOL    HW219152   0.367   5.910   3.119
 6085SOL     OW19153   0.712   4.367   0.386
 6085SOL    HW119154   0.654   4.291   0.356
 6085SOL    HW219155   0.759   4.406   0.307
 6086SOL     OW19156   3.426   1.063   6.002
 6086SOL    HW119157   3.515   1.084   5.961
 6086SOL    HW219158   3.424   1.097   6.096
 6087SOL     OW19159   3.991   5.847   0.765
 6087SOL    HW119160   3.934   5.911   0.714
 6087SOL    HW219161   4.009   5.766   0.709
 6088SOL     OW19162   5.764   6.004   4.364
 6088SOL    HW119163   5.824   6.070   4.319
 6088SOL    HW219164   5.750   5.925   4.304
 6089SOL     OW19165   6.450   3.536   1.031
 6089SOL    HW119166   6.370   3.479   1.010
 6089SOL    HW219167   6.427   3.632   1.019
 6090SOL     OW19168   2.474   6.179   5.581
 6090SOL    HW119169   2.564   6.222   5.573
 6090SOL    HW219170   2.421   6.199   5.499
 6091SOL     OW19171   1.742   1.577   1.732
 6091SOL    HW119172   1.664   1.524   1.767
 6091SOL    HW219173   1.733   1.673   1.760
 6092SOL     OW19174   3.482   6.824   2.821
 6092SOL    HW119175   3.553   6.894   2.828
 6092SOL    HW219176   3.393   6.867   2.806
 6093SOL     OW19177   1.610   2.711   2.958
 6093SOL    HW119178   1.662   2.791   2.928
 6093SOL    HW219179   1.541   2.688   2.889
 6094SOL     OW19180   3.856   0.865   1.429
 6094SOL    HW119181   3.780   0.810   1.392
 6094SOL    HW219182   3.857   0.954   1.384
 6095SOL     OW19183   5.158   3.373   6.738
 6095SOL    HW119184   5.191   3.385   6.832
 6095SOL    HW219185   5.100   3.451   6.713
 6096SOL     OW19186   5.908   0.332   3.626
 6096SOL    HW119187   5.996   0.378   3.642
 6096SOL    HW219188   5.922   0.257   3.561
 6097SOL     OW19189   1.976   0.025   2.223
 6097SOL    HW119190   1.888   6.994   2.215
 6097SOL    HW219191   2.038   7.008   2.151
 6098SOL     OW19192   1.405   2.849   6.379
 6098SOL    HW119193   1.373   2.754   6.382
 6098SOL    HW219194   1.330   2.909   6.351
 6099SOL     OW19195   6.829   5.819   0.609
 6099SOL    HW119196   6.869   5.758   0.540
 6099SOL    HW219197   6.892   5.827   0.686
 6100SOL     OW19198   4.673   3.376   0.410
 6100SOL    HW119199   4.681   3.304   0.341
 6100SOL    HW219200   4.602   3.441   0.382
 6101SOL     OW19201   5.986   1.918   3.994
 6101SOL    HW119202   6.067   1.905   3.937
 6101SOL    HW219203   5.930   1.834   3.990
 6102SOL     OW19204   3.298   6.505   3.312
 6102SOL    HW119205   3.384   6.482   3.266
 6102SOL    HW219206   3.296   6.603   3.331
 6103SOL     OW19207   6.973   2.455   2.562
 6103SOL    HW119208   6.877   2.465   2.589
 6103SOL    HW219209   6.999   2.358   2.569
 6104SOL     OW19210   5.933   1.384   5.370
 6104SOL    HW119211   5.926   1.475   5.330
 6104SOL    HW219212   5.932   1.315   5.297
 6105SOL     OW19213   1.742   0.320   6.006
 6105SOL    HW119214   1.832   0.309   5.962
 6105SOL    HW219215   1.685   0.241   5.984
 6106SOL     OW19216   2.354   3.988   5.433
 6106SOL    HW119217   2.345   3.975   5.335
 6106SOL    HW219218   2.328   3.903   5.481
 6107SOL     OW19219   2.576   4.620   4.633
 6107SOL    HW119220   2.501   4.653   4.576
 6107SOL    HW219221   2.561   4.523   4.655
 6108SOL     OW19222   0.423   2.701   2.018
 6108SOL    HW119223   0.415   2.737   1.925
 6108SOL    HW219224   0.343   2.644   2.039
 6109SOL     OW19225   5.113   3.081   6.103
 6109SOL    HW119226   5.206   3.117   6.114
 6109SOL    HW219227   5.081   3.100   6.010
 6110SOL     OW19228   4.156   3.435   0.258
 6110SOL    HW119229   4.132   3.337   0.257
 6110SOL    HW219230   4.154   3.471   0.165
 6111SOL     OW19231   2.319   4.126   2.212
 6111SOL    HW119232   2.367   4.078   2.286
 6111SOL    HW219233   2.300   4.062   2.138
 6112SOL     OW19234   3.194   6.922   2.838
 6112SOL    HW119235   3.137   6.846   2.807
 6112SOL    HW219236   3.170   7.004   2.787
 6113SOL     OW19237   1.703   1.268   6.292
 6113SOL    HW119238   1.679   1.324   6.212
 6113SOL    HW219239   1.795   1.231   6.281
 6114SOL     OW19240   5.034   5.246   1.092
 6114SOL    HW119241   5.009   5.342   1.106
 6114SOL    HW219242   5.111   5.223   1.152
 6115SOL     OW19243   4.776   6.857   3.561
 6115SOL    HW119244   4.839   6.783   3.537
 6115SOL    HW219245   4.695   6.819   3.607
 6116SOL     OW19246   2.667   0.194   0.765
 6116SOL    HW119247   2.610   0.186   0.683
 6116SOL    HW219248   2.762   0.205   0.738
 6117SOL     OW19249   0.452   0.612   5.681
 6117SOL    HW119250   0.467   0.633   5.585
 6117SOL    HW219251   0.540   0.599   5.727
 6118SOL     OW19252   6.146   0.332   1.837
 6118SOL    HW119253   6.108   0.331   1.745
 6118SOL    HW219254   6.159   0.426   1.867
 6119SOL     OW19255   1.508   3.831   5.548
 6119SOL    HW119256   1.462   3.760   5.495
 6119SOL    HW219257   1.440   3.879   5.604
 6120SOL     OW19258   3.861   6.964   4.047
 6120SOL    HW119259   3.889   6.908   4.125
 6120SOL    HW219260   3.773   6.933   4.013
 6121SOL     OW19261   1.041   3.051   4.964
 6121SOL    HW119262   1.000   3.109   5.034
 6121SOL    HW219263   0.975   2.982   4.935
 6122SOL     OW19264   4.015   6.887   1.715
 6122SOL    HW119265   4.001   6.973   1.667
 6122SOL    HW219266   4.018   6.903   1.814
 6123SOL     OW19267   6.525   0.534   6.548
 6123SOL    HW119268   6.460   0.479   6.495
 6123SOL    HW219269   6.474   0.592   6.612
 6124SOL     OW19270   2.307   1.036   6.782
 6124SOL    HW119271   2.276   1.058   6.874
 6124SOL    HW219272   2.299   1.117   6.724
 6125SOL     OW19273   1.241   5.797   0.069
 6125SOL    HW119274   1.338   5.807   0.047
 6125SOL    HW219275   1.229   5.795   0.169
 6126SOL     OW19276   0.175   6.783   4.471
 6126SOL    HW119277   0.089   6.732   4.472
 6126SOL    HW219278   0.187   6.824   4.381
 6127SOL     OW19279   3.520   0.067   2.134
 6127SOL    HW119280   3.494   0.003   2.205
 6127SOL    HW219281   3.541   0.156   2.175
 6128SOL     OW19282   6.758   3.094   7.013
 6128SOL    HW119283   6.712   3.017   0.041
 6128SOL    HW219284   6.855   3.092   0.020
 6129SOL     OW19285   6.786   3.682   2.874
 6129SOL    HW119286   6.761   3.779   2.873
 6129SOL    HW219287   6.753   3.640   2.959
 6130SOL     OW19288   6.326   2.218   3.484
 6130SOL    HW119289   6.404   2.278   3.500
 6130SOL    HW219290   6.320   2.196   3.387
 6131SOL     OW19291   6.872   1.419   5.351
 6131SOL    HW119292   6.880   1.350   5.423
 6131SOL    HW219293   6.862   1.373   5.262
 6132SOL     OW19294   4.659   1.481   0.747
 6132SOL    HW119295   4.608   1.562   0.717
 6132SOL    HW219296   4.595   1.417   0.790
 6133SOL     OW19297   0.838   2.381   2.198
 6133SOL    HW119298   0.876   2.302   2.247
 6133SOL    HW219299   0.763   2.419   2.252
 6134SOL     OW19300   3.700   4.557   6.493
 6134SOL    HW119301   3.624   4.609   6.453
 6134SOL    HW219302   3.769   4.620   6.527
 6135SOL     OW19303   0.399   0.143   2.183
 6135SOL    HW119304   0.461   0.076   2.224
 6135SOL    HW219305   0.441   0.180   2.100
 6136SOL     OW19306   0.637   2.163   2.728
 6136SOL    HW119307   0.698   2.141   2.652
 6136SOL    HW219308   0.618   2.079   2.780
 6137SOL     OW19309   5.688   2.729   3.723
 6137SOL    HW119310   5.705   2.815   3.676
 6137SOL    HW219311   5.624   2.745   3.799
 6138SOL     OW19312   5.012   6.191   2.457
 6138SOL    HW119313   4.986   6.157   2.547
 6138SOL    HW219314   4.930   6.209   2.403
 6139SOL     OW19315   1.627   1.867   5.680
 6139SOL    HW119316   1.537   1.906   5.700
 6139SOL    HW219317   1.653   1.804   5.753
 6140SOL     OW19318   0.551   6.713   1.768
 6140SOL    HW119319   0.454   6.734   1.780
 6140SOL    HW219320   0.584   6.759   1.685
 6141SOL     OW19321   6.494   5.519   6.520
 6141SOL    HW119322   6.459   5.431   6.489
 6141SOL    HW219323   6.442   5.550   6.600
 6142SOL     OW19324   0.570   5.383   0.973
 6142SOL    HW119325   0.594   5.480   0.979
 6142SOL    HW219326   0.504   5.369   0.899
 6143SOL     OW19327   6.803   4.175   0.752
 6143SOL    HW119328   6.713   4.131   0.754
 6143SOL    HW219329   6.793   4.274   0.749
 6144SOL     OW19330   6.554   4.522   3.319
 6144SOL    HW119331   6.455   4.511   3.326
 6144SOL    HW219332   6.575   4.571   3.234
 6145SOL     OW19333   4.460   5.382   3.690
 6145SOL    HW119334   4.391   5.446   3.656
 6145SOL    HW219335   4.418   5.321   3.757
 6146SOL     OW19336   3.426   6.917   4.086
 6146SOL    HW119337   3.446   7.009   4.119
 6146SOL    HW219338   3.339   6.886   4.124
 6147SOL     OW19339   1.689   3.613   4.588
 6147SOL    HW119340   1.662   3.540   4.525
 6147SOL    HW219341   1.614   3.632   4.650
 6148SOL     OW19342   0.026   0.511   4.456
 6148SOL    HW119343   0.085   0.529   4.535
 6148SOL    HW219344   0.047   0.420   4.420
 6149SOL     OW19345   3.268   5.246   1.329
 6149SOL    HW119346   3.179   5.216   1.295
 6149SOL    HW219347   3.267   5.345   1.340
 6150SOL     OW19348   4.385   4.906   6.603
 6150SOL    HW119349   4.334   4.823   6.626
 6150SOL    HW219350   4.340   4.952   6.526
 6151SOL     OW19351   6.043   4.367   5.643
 6151SOL    HW119352   6.025   4.324   5.555
 6151SOL    HW219353   6.102   4.447   5.629
 6152SOL     OW19354   6.162   5.878   4.854
 6152SOL    HW119355   6.219   5.847   4.930
 6152SOL    HW219356   6.173   5.976   4.841
 6153SOL     OW19357   5.267   4.077   1.760
 6153SOL    HW119358   5.264   4.149   1.828
 6153SOL    HW219359   5.176   4.062   1.722
 6154SOL     OW19360   5.398   1.963   2.536
 6154SOL    HW119361   5.336   2.032   2.498
 6154SOL    HW219362   5.466   1.938   2.467
 6155SOL     OW19363   2.019   2.327   4.509
 6155SOL    HW119364   1.957   2.351   4.434
 6155SOL    HW219365   1.967   2.292   4.586
 6156SOL     OW19366   4.360   4.820   1.651
 6156SOL    HW119367   4.459   4.805   1.663
 6156SOL    HW219368   4.321   4.745   1.599
 6157SOL     OW19369   1.137   1.115   4.541
 6157SOL    HW119370   1.220   1.170   4.527
 6157SOL    HW219371   1.144   1.064   4.626
 6158SOL     OW19372   4.321   0.794   5.922
 6158SOL    HW119373   4.317   0.750   6.012
 6158SOL    HW219374   4.228   0.804   5.886
 6159SOL     OW19375   5.024   2.312   1.449
 6159SOL    HW119376   4.967   2.253   1.505
 6159SOL    HW219377   5.118   2.313   1.484
 6160SOL     OW19378   5.058   0.373   6.313
 6160SOL    HW119379   5.134   0.338   6.368
 6160SOL    HW219380   5.068   0.342   6.219
 6161SOL     OW19381   5.224   1.388   4.299
 6161SOL    HW119382   5.201   1.458   4.367
 6161SOL    HW219383   5.299   1.420   4.242
 6162SOL     OW19384   1.469   6.667   3.686
 6162SOL    HW119385   1.528   6.681   3.607
 6162SOL    HW219386   1.373   6.666   3.657
 6163SOL     OW19387   6.354   6.032   1.527
 6163SOL    HW119388   6.436   5.993   1.567
 6163SOL    HW219389   6.340   5.994   1.435
 6164SOL     OW19390   3.178   2.521   1.653
 6164SOL    HW119391   3.252   2.454   1.664
 6164SOL    HW219392   3.121   2.520   1.735
 6165SOL     OW19393   5.011   0.707   6.712
 6165SOL    HW119394   5.024   0.610   6.693
 6165SOL    HW219395   4.915   0.724   6.735
 6166SOL     OW19396   4.537   1.225   6.440
 6166SOL    HW119397   4.610   1.257   6.500
 6166SOL    HW219398   4.448   1.253   6.477
 6167SOL     OW19399   0.438   3.899   3.583
 6167SOL    HW119400   0.433   3.968   3.655
 6167SOL    HW219401   0.438   3.808   3.624
 6168SOL     OW19402   0.765   3.385   0.691
 6168SOL    HW119403   0.707   3.315   0.649
 6168SOL    HW219404   0.721   3.419   0.774
 6169SOL     OW19405   1.966   2.857   1.317
 6169SOL    HW119406   1.889   2.916   1.295
 6169SOL    HW219407   2.019   2.839   1.234
 6170SOL     OW19408   1.085   3.471   4.913
 6170SOL    HW119409   1.172   3.421   4.905
 6170SOL    HW219410   1.101   3.568   4.896
 6171SOL     OW19411   0.409   2.828   0.641
 6171SOL    HW119412   0.313   2.846   0.620
 6171SOL    HW219413   0.468   2.879   0.578
 6172SOL     OW19414   2.175   2.769   2.257
 6172SOL    HW119415   2.128   2.808   2.178
 6172SOL    HW219416   2.170   2.670   2.254
 6173SOL     OW19417   0.562   5.459   2.615
 6173SOL    HW119418   0.540   5.375   2.665
 6173SOL    HW219419   0.546   5.538   2.675
 6174SOL     OW19420   5.154   5.614   3.851
 6174SOL    HW119421   5.099   5.573   3.778
 6174SOL    HW219422   5.096   5.633   3.930
 6175SOL     OW19423   3.834   0.639   3.618
 6175SOL    HW119424   3.806   0.603   3.530
 6175SOL    HW219425   3.870   0.565   3.675
 6176SOL     OW19426   5.119   4.581   5.384
 6176SOL    HW119427   5.034   4.579   5.330
 6176SOL    HW219428   5.136   4.675   5.415
 6177SOL     OW19429   5.693   1.313   1.701
 6177SOL    HW119430   5.677   1.322   1.799
 6177SOL    HW219431   5.652   1.228   1.668
 6178SOL     OW19432   5.166   4.695   1.879
 6178SOL    HW119433   5.173   4.597   1.899
 6178SOL    HW219434   5.256   4.731   1.857
 6179SOL     OW19435   6.379   4.353   3.622
 6179SOL    HW119436   6.371   4.312   3.532
 6179SOL    HW219437   6.393   4.452   3.613
 6180SOL     OW19438   2.380   4.893   0.377
 6180SOL    HW119439   2.390   4.815   0.439
 6180SOL    HW219440   2.283   4.913   0.365
 6181SOL     OW19441   4.938   6.518   6.103
 6181SOL    HW119442   4.994   6.599   6.118
 6181SOL    HW219443   4.867   6.539   6.035
 6182SOL     OW19444   4.513   3.013   5.558
 6182SOL    HW119445   4.612   3.016   5.543
 6182SOL    HW219446   4.466   3.016   5.470
 6183SOL     OW19447   1.140   2.400   3.834
 6183SOL    HW119448   1.187   2.485   3.857
 6183SOL    HW219449   1.174   2.327   3.893
 6184SOL     OW19450   3.153   6.023   6.728
 6184SOL    HW119451   3.180   6.046   6.635
 6184SOL    HW219452   3.055   6.004   6.730
 6185SOL     OW19453   7.006   4.079   6.495
 6185SOL    HW119454   6.908   4.058   6.499
 6185SOL    HW219455   0.028   4.048   6.408
 6186SOL     OW19456   6.660   1.013   0.492
 6186SOL    HW119457   6.666   1.056   0.582
 6186SOL    HW219458   6.586   1.054   0.440
 6187SOL     OW19459   5.370   4.133   4.542
 6187SOL    HW119460   5.368   4.084   4.629
 6187SOL    HW219461   5.346   4.072   4.468
 6188SOL     OW19462   1.646   1.326   6.016
 6188SOL    HW119463   1.571   1.259   6.011
 6188SOL    HW219464   1.635   1.393   5.944
 6189SOL     OW19465   4.225   5.010   2.403
 6189SOL    HW119466   4.232   5.079   2.331
 6189SOL    HW219467   4.219   4.919   2.361
 6190SOL     OW19468   0.600   3.828   5.848
 6190SOL    HW119469   0.622   3.747   5.793
 6190SOL    HW219470   0.533   3.884   5.799
 6191SOL     OW19471   2.730   2.506   6.803
 6191SOL    HW119472   2.717   2.519   6.705
 6191SOL    HW219473   2.760   2.592   6.845
 6192SOL     OW19474   2.974   2.126   6.317
 6192SOL    HW119475   2.983   2.217   6.277
 6192SOL    HW219476   3.064   2.084   6.325
 6193SOL     OW19477   5.081   6.460   1.511
 6193SOL    HW119478   5.163   6.483   1.459
 6193SOL    HW219479   5.107   6.413   1.595
 6194SOL     OW19480   0.318   1.022   6.693
 6194SOL    HW119481   0.229   0.980   6.710
 6194SOL    HW219482   0.358   1.052   6.779
 6195SOL     OW19483   4.271   5.413   4.502
 6195SOL    HW119484   4.347   5.477   4.507
 6195SOL    HW219485   4.192   5.459   4.462
 6196SOL     OW19486   5.788   4.246   1.507
 6196SOL    HW119487   5.802   4.236   1.606
 6196SOL    HW219488   5.694   4.223   1.484
 6197SOL     OW19489   2.722   5.693   1.409
 6197SOL    HW119490   2.782   5.669   1.333
 6197SOL    HW219491   2.673   5.778   1.387
 6198SOL     OW19492   3.985   6.971   0.988
 6198SOL    HW119493   4.073   6.964   0.941
 6198SOL    HW219494   3.910   6.956   0.923
 6199SOL     OW19495   0.668   0.947   0.152
 6199SOL    HW119496   0.738   0.971   0.084
 6199SOL    HW219497   0.584   0.922   0.105
 6200SOL     OW19498   1.196   1.339   5.927
 6200SOL    HW119499   1.255   1.404   5.880
 6200SOL    HW219500   1.101   1.358   5.904
 6201SOL     OW19501   1.108   3.578   5.765
 6201SOL    HW119502   1.053   3.653   5.731
 6201SOL    HW219503   1.188   3.614   5.814
 6202SOL     OW19504   4.953   1.694   1.746
 6202SOL    HW119505   4.855   1.714   1.739
 6202SOL    HW219506   4.985   1.651   1.662
 6203SOL     OW19507   6.255   5.879   1.997
 6203SOL    HW119508   6.334   5.910   2.050
 6203SOL    HW219509   6.273   5.788   1.960
 6204SOL     OW19510   0.791   5.687   4.431
 6204SOL    HW119511   0.761   5.665   4.524
 6204SOL    HW219512   0.888   5.665   4.422
 6205SOL     OW19513   6.334   5.613   1.628
 6205SOL    HW119514   6.379   5.527   1.648
 6205SOL    HW219515   6.357   5.643   1.536
 6206SOL     OW19516   6.552   1.658   2.083
 6206SOL    HW119517   6.602   1.572   2.095
 6206SOL    HW219518   6.455   1.638   2.073
 6207SOL     OW19519   1.686   5.552   5.159
 6207SOL    HW119520   1.606   5.530   5.215
 6207SOL    HW219521   1.671   5.519   5.065
 6208SOL     OW19522   3.902   2.397   5.324
 6208SOL    HW119523   3.978   2.440   5.275
 6208SOL    HW219524   3.846   2.468   5.368
 6209SOL     OW19525   3.122   5.513   6.767
 6209SOL    HW119526   3.135   5.543   6.861
 6209SOL    HW219527   3.090   5.590   6.711
 6210SOL     OW19528   4.880   3.713   3.198
 6210SOL    HW119529   4.893   3.683   3.103
 6210SOL    HW219530   4.864   3.812   3.199
 6211SOL     OW19531   2.707   6.160   5.981
 6211SOL    HW119532   2.687   6.062   5.988
 6211SOL    HW219533   2.688   6.192   5.889
 6212SOL     OW19534   2.988   5.109   4.658
 6212SOL    HW119535   3.009   5.016   4.688
 6212SOL    HW219536   2.994   5.115   4.559
 6213SOL     OW19537   4.889   0.042   6.724
 6213SOL    HW119538   4.888   6.998   6.805
 6213SOL    HW219539   4.984   0.059   6.697
 6214SOL     OW19540   5.537   5.872   5.314
 6214SOL    HW119541   5.543   5.842   5.219
 6214SOL    HW219542   5.442   5.863   5.346
 6215SOL     OW19543   4.058   2.708   7.002
 6215SOL    HW119544   3.972   2.725   0.035
 6215SOL    HW219545   4.039   2.694   6.905
 6216SOL     OW19546   5.813   2.629   2.788
 6216SOL    HW119547   5.851   2.548   2.833
 6216SOL    HW219548   5.779   2.604   2.697
 6217SOL     OW19549   0.548   3.578   2.341
 6217SOL    HW119550   0.492   3.540   2.414
 6217SOL    HW219551   0.522   3.673   2.325
 6218SOL     OW19552   3.594   6.817   6.897
 6218SOL    HW119553   3.505   6.780   6.924
 6218SOL    HW219554   3.641   6.852   6.978
 6219SOL     OW19555   0.998   1.724   4.808
 6219SOL    HW119556   0.996   1.625   4.793
 6219SOL    HW219557   0.991   1.772   4.721
 6220SOL     OW19558   2.798   1.784   5.377
 6220SOL    HW119559   2.836   1.846   5.308
 6220SOL    HW219560   2.814   1.690   5.350
 6221SOL     OW19561   5.540   0.425   6.876
 6221SOL    HW119562   5.491   0.499   6.923
 6221SOL    HW219563   5.575   0.460   6.789
 6222SOL     OW19564   1.044   0.196   2.041
 6222SOL    HW119565   0.975   0.252   2.089
 6222SOL    HW219566   1.001   0.150   1.963
 6223SOL     OW19567   1.277   4.986   3.245
 6223SOL    HW119568   1.326   4.923   3.306
 6223SOL    HW219569   1.182   4.955   3.235
 6224SOL     OW19570   4.357   1.512   5.600
 6224SOL    HW119571   4.432   1.545   5.657
 6224SOL    HW219572   4.280   1.576   5.606
 6225SOL     OW19573   3.470   2.375   6.362
 6225SOL    HW119574   3.550   2.326   6.397
 6225SOL    HW219575   3.467   2.369   6.262
 6226SOL     OW19576   1.020   1.482   3.982
 6226SOL    HW119577   1.004   1.432   3.897
 6226SOL    HW219578   1.090   1.552   3.967
 6227SOL     OW19579   3.740   4.928   5.618
 6227SOL    HW119580   3.750   4.831   5.643
 6227SOL    HW219581   3.683   4.935   5.536
 6228SOL     OW19582   0.231   2.940   2.262
 6228SOL    HW119583   0.164   2.874   2.227
 6228SOL    HW219584   0.318   2.928   2.215
 6229SOL     OW19585   0.731   2.207   5.201
 6229SOL    HW119586   0.718   2.108   5.209
 6229SOL    HW219587   0.657   2.246   5.145
 6230SOL     OW19588   0.778   2.254   3.971
 6230SOL    HW119589   0.784   2.328   3.903
 6230SOL    HW219590   0.799   2.167   3.927
 6231SOL     OW19591   5.916   5.148   0.273
 6231SOL    HW119592   5.824   5.108   0.275
 6231SOL    HW219593   5.967   5.110   0.196
 6232SOL     OW19594   6.641   1.661   0.700
 6232SOL    HW119595   6.684   1.571   0.706
 6232SOL    HW219596   6.712   1.732   0.707
 6233SOL     OW19597   5.804   2.618   1.738
 6233SOL    HW119598   5.754   2.691   1.692
 6233SOL    HW219599   5.744   2.573   1.804
 6234SOL     OW19600   6.685   0.112   5.378
 6234SOL    HW119601   6.767   0.067   5.343
 6234SOL    HW219602   6.608   0.048   5.375
 6235SOL     OW19603   0.160   0.433   1.312
 6235SOL    HW119604   0.063   0.456   1.298
 6235SOL    HW219605   0.184   0.355   1.254
 6236SOL     OW19606   0.592   4.311   0.784
 6236SOL    HW119607   0.590   4.369   0.703
 6236SOL    HW219608   0.583   4.215   0.757
 6237SOL     OW19609   3.023   0.107   6.777
 6237SOL    HW119610   3.007   0.021   6.824
 6237SOL    HW219611   3.051   0.088   6.682
 6238SOL     OW19612   4.955   6.126   2.721
 6238SOL    HW119613   5.002   6.092   2.802
 6238SOL    HW219614   4.862   6.153   2.746
 6239SOL     OW19615   3.398   1.166   1.211
 6239SOL    HW119616   3.311   1.128   1.178
 6239SOL    HW219617   3.452   1.094   1.255
 6240SOL     OW19618   2.880   3.457   5.085
 6240SOL    HW119619   2.924   3.451   4.995
 6240SOL    HW219620   2.782   3.441   5.075
 6241SOL     OW19621   3.223   0.518   3.260
 6241SOL    HW119622   3.307   0.478   3.223
 6241SOL    HW219623   3.144   0.471   3.221
 6242SOL     OW19624   3.540   6.656   3.031
 6242SOL    HW119625   3.560   6.711   2.949
 6242SOL    HW219626   3.461   6.693   3.078
 6243SOL     OW19627   0.125   6.829   5.351
 6243SOL    HW119628   0.170   6.775   5.280
 6243SOL    HW219629   0.051   6.776   5.392
 6244SOL     OW19630   5.197   3.345   3.646
 6244SOL    HW119631   5.190   3.260   3.594
 6244SOL    HW219632   5.253   3.330   3.728
 6245SOL     OW19633   1.185   3.853   1.523
 6245SOL    HW119634   1.125   3.785   1.564
 6245SOL    HW219635   1.273   3.811   1.500
 6246SOL     OW19636   1.319   1.330   5.053
 6246SOL    HW119637   1.328   1.427   5.077
 6246SOL    HW219638   1.226   1.300   5.073
 6247SOL     OW19639   1.550   6.123   3.504
 6247SOL    HW119640   1.501   6.052   3.453
 6247SOL    HW219641   1.557   6.097   3.600
 6248SOL     OW19642   3.586   3.965   0.201
 6248SOL    HW119643   3.625   3.878   0.229
 6248SOL    HW219644   3.569   4.022   0.281
 6249SOL     OW19645   0.023   3.085   0.594
 6249SOL    HW119646   6.978   3.073   0.673
 6249SOL    HW219647   0.015   3.179   0.561
 6250SOL     OW19648   6.390   6.575   1.111
 6250SOL    HW119649   6.393   6.503   1.181
 6250SOL    HW219650   6.423   6.661   1.149
 6251SOL     OW19651   4.311   6.258   5.104
 6251SOL    HW119652   4.406   6.240   5.132
 6251SOL    HW219653   4.250   6.240   5.181
 6252SOL     OW19654   2.445   4.281   6.047
 6252SOL    HW119655   2.432   4.375   6.077
 6252SOL    HW219656   2.355   4.238   6.034
 6253SOL     OW19657   2.349   4.752   4.194
 6253SOL    HW119658   2.380   4.763   4.100
 6253SOL    HW219659   2.288   4.827   4.219
 6254SOL     OW19660   5.604   0.304   1.074
 6254SOL    HW119661   5.635   0.266   1.161
 6254SOL    HW219662   5.630   0.242   0.999
 6255SOL     OW19663   2.414   1.748   1.164
 6255SOL    HW119664   2.453   1.837   1.188
 6255SOL    HW219665   2.341   1.726   1.228
 6256SOL     OW19666   4.015   5.536   1.969
 6256SOL    HW119667   3.962   5.464   1.923
 6256SOL    HW219668   3.973   5.557   2.057
 6257SOL     OW19669   4.273   3.328   6.994
 6257SOL    HW119670   4.324   3.403   6.952
 6257SOL    HW219671   4.189   3.313   6.942
 6258SOL     OW19672   3.053   6.538   4.554
 6258SOL    HW119673   2.975   6.587   4.516
 6258SOL    HW219674   3.044   6.440   4.534
 6259SOL     OW19675   1.973   0.429   6.681
 6259SOL    HW119676   1.881   0.461   6.702
 6259SOL    HW219677   1.970   0.368   6.601
 6260SOL     OW19678   3.746   6.232   0.224
 6260SOL    HW119679   3.739   6.139   0.260
 6260SOL    HW219680   3.843   6.255   0.209
 6261SOL     OW19681   5.165   0.354   0.127
 6261SOL    HW119682   5.206   0.280   0.180
 6261SOL    HW219683   5.089   0.394   0.178
 6262SOL     OW19684   1.999   6.076   2.289
 6262SOL    HW119685   1.901   6.082   2.306
 6262SOL    HW219686   2.019   6.106   2.196
 6263SOL     OW19687   1.209   6.566   4.653
 6263SOL    HW119688   1.266   6.486   4.634
 6263SOL    HW219689   1.141   6.576   4.580
 6264SOL     OW19690   2.102   0.420   1.884
 6264SOL    HW119691   2.052   0.445   1.802
 6264SOL    HW219692   2.161   0.495   1.913
 6265SOL     OW19693   3.987   3.575   0.953
 6265SOL    HW119694   3.923   3.574   0.876
 6265SOL    HW219695   4.075   3.538   0.922
 6266SOL     OW19696   4.503   0.104   3.285
 6266SOL    HW119697   4.424   0.090   3.346
 6266SOL    HW219698   4.488   0.056   3.199
 6267SOL     OW19699   2.190   6.836   5.019
 6267SOL    HW119700   2.162   6.758   5.074
 6267SOL    HW219701   2.196   6.809   4.923
 6268SOL     OW19702   2.556   0.556   1.764
 6268SOL    HW119703   2.583   0.650   1.785
 6268SOL    HW219704   2.542   0.506   1.849
 6269SOL     OW19705   6.700   0.388   2.630
 6269SOL    HW119706   6.616   0.431   2.664
 6269SOL    HW219707   6.675   0.309   2.574
 6270SOL     OW19708   0.054   6.963   0.089
 6270SOL    HW119709   6.992   6.927   0.142
 6270SOL    HW219710   0.115   7.013   0.151
 6271SOL     OW19711   6.120   2.923   5.817
 6271SOL    HW119712   6.174   3.007   5.812
 6271SOL    HW219713   6.096   2.893   5.725
 6272SOL     OW19714   0.491   2.054   0.575
 6272SOL    HW119715   0.494   1.985   0.503
 6272SOL    HW219716   0.485   2.145   0.533
 6273SOL     OW19717   0.636   6.057   2.848
 6273SOL    HW119718   0.607   6.083   2.756
 6273SOL    HW219719   0.561   6.013   2.896
 6274SOL     OW19720   3.209   0.067   4.387
 6274SOL    HW119721   3.118   0.056   4.348
 6274SOL    HW219722   3.202   0.079   4.486
 6275SOL     OW19723   1.504   6.225   0.297
 6275SOL    HW119724   1.512   6.317   0.336
 6275SOL    HW219725   1.417   6.217   0.249
 6276SOL     OW19726   2.875   5.600   3.172
 6276SOL    HW119727   2.865   5.684   3.225
 6276SOL    HW219728   2.945   5.542   3.214
 6277SOL     OW19729   4.669   2.935   0.743
 6277SOL    HW119730   4.603   2.864   0.717
 6277SOL    HW219731   4.655   3.016   0.687
 6278SOL     OW19732   3.690   0.544   4.588
 6278SOL    HW119733   3.702   0.624   4.647
 6278SOL    HW219734   3.716   0.566   4.494
 6279SOL     OW19735   3.675   5.889   0.715
 6279SOL    HW119736   3.602   5.843   0.765
 6279SOL    HW219737   3.712   5.828   0.645
 6280SOL     OW19738   0.405   0.988   6.421
 6280SOL    HW119739   0.361   0.985   6.511
 6280SOL    HW219740   0.393   1.079   6.381
 6281SOL     OW19741   6.652   4.758   4.394
 6281SOL    HW119742   6.717   4.727   4.464
 6281SOL    HW219743   6.617   4.678   4.345
 6282SOL     OW19744   6.307   3.931   5.302
 6282SOL    HW119745   6.356   3.997   5.244
 6282SOL    HW219746   6.368   3.856   5.327
 6283SOL     OW19747   0.209   3.981   4.072
 6283SOL    HW119748   0.138   3.979   4.143
 6283SOL    HW219749   0.227   3.888   4.040
 6284SOL     OW19750   1.534   5.300   6.407
 6284SOL    HW119751   1.464   5.243   6.363
 6284SOL    HW219752   1.509   5.315   6.502
 6285SOL     OW19753   1.355   3.091   3.115
 6285SOL    HW119754   1.354   3.190   3.106
 6285SOL    HW219755   1.287   3.063   3.182
 6286SOL     OW19756   0.206   3.494   4.721
 6286SOL    HW119757   0.278   3.452   4.776
 6286SOL    HW219758   0.145   3.423   4.685
 6287SOL     OW19759   3.405   4.785   5.288
 6287SOL    HW119760   3.327   4.729   5.317
 6287SOL    HW219761   3.372   4.875   5.261
 6288SOL     OW19762   5.782   4.920   1.427
 6288SOL    HW119763   5.822   4.953   1.513
 6288SOL    HW219764   5.812   4.827   1.410
 6289SOL     OW19765   2.288   4.885   6.895
 6289SOL    HW119766   2.263   4.977   6.924
 6289SOL    HW219767   2.379   4.862   6.930
 6290SOL     OW19768   5.694   5.619   6.300
 6290SOL    HW119769   5.597   5.599   6.284
 6290SOL    HW219770   5.717   5.595   6.394
 6291SOL     OW19771   3.555   4.178   4.011
 6291SOL    HW119772   3.495   4.208   4.085
 6291SOL    HW219773   3.499   4.140   3.937
 6292SOL     OW19774   2.500   2.413   5.354
 6292SOL    HW119775   2.455   2.467   5.283
 6292SOL    HW219776   2.533   2.327   5.315
 6293SOL     OW19777   4.892   1.557   0.906
 6293SOL    HW119778   4.873   1.599   0.994
 6293SOL    HW219779   4.809   1.516   0.869
 6294SOL     OW19780   3.993   0.274   3.521
 6294SOL    HW119781   4.067   0.251   3.584
 6294SOL    HW219782   3.906   0.242   3.559
 6295SOL     OW19783   5.235   4.372   4.551
 6295SOL    HW119784   5.268   4.278   4.540
 6295SOL    HW219785   5.215   4.389   4.647
 6296SOL     OW19786   6.998   4.437   5.950
 6296SOL    HW119787   0.033   4.388   6.021
 6296SOL    HW219788   0.027   4.524   5.931
 6297SOL     OW19789   6.107   0.622   5.010
 6297SOL    HW119790   6.043   0.545   5.001
 6297SOL    HW219791   6.059   0.708   4.990
 6298SOL     OW19792   0.455   3.510   6.590
 6298SOL    HW119793   0.482   3.554   6.505
 6298SOL    HW219794   0.522   3.531   6.661
 6299SOL     OW19795   6.096   3.450   2.131
 6299SOL    HW119796   6.046   3.484   2.052
 6299SOL    HW219797   6.124   3.355   2.115
 6300SOL     OW19798   6.365   1.071   0.195
 6300SOL    HW119799   6.370   1.013   0.114
 6300SOL    HW219800   6.456   1.105   0.218
 6301SOL     OW19801   2.432   6.450   0.242
 6301SOL    HW119802   2.491   6.431   0.320
 6301SOL    HW219803   2.475   6.416   0.158
 6302SOL     OW19804   1.885   2.143   5.152
 6302SOL    HW119805   1.831   2.206   5.207
 6302SOL    HW219806   1.915   2.066   5.208
 6303SOL     OW19807   0.178   0.130   5.674
 6303SOL    HW119808   0.184   0.222   5.713
 6303SOL    HW219809   0.099   0.083   5.713
 6304SOL     OW19810   3.770   1.510   2.054
 6304SOL    HW119811   3.693   1.454   2.025
 6304SOL    HW219812   3.828   1.457   2.117
 6305SOL     OW19813   6.096   6.062   0.210
 6305SOL    HW119814   6.126   6.127   0.280
 6305SOL    HW219815   5.996   6.061   0.207
 6306SOL     OW19816   0.013   3.947   4.241
 6306SOL    HW119817   6.952   4.011   4.256
 6306SOL    HW219818   0.040   3.906   4.328
 6307SOL     OW19819   2.921   3.790   3.705
 6307SOL    HW119820   2.888   3.728   3.634
 6307SOL    HW219821   2.912   3.885   3.674
 6308SOL     OW19822   1.370   2.627   4.913
 6308SOL    HW119823   1.448   2.651   4.971
 6308SOL    HW219824   1.359   2.528   4.911
 6309SOL     OW19825   7.010   6.688   4.224
 6309SOL    HW119826   6.980   6.750   4.151
 6309SOL    HW219827   6.934   6.629   4.249
 6310SOL     OW19828   1.313   6.402   2.766
 6310SOL    HW119829   1.409   6.414   2.792
 6310SOL    HW219830   1.303   6.413   2.667
 6311SOL     OW19831   4.992   1.999   5.636
 6311SOL    HW119832   4.917   2.013   5.701
 6311SOL    HW219833   5.071   1.959   5.684
 6312SOL     OW19834   0.615   6.984   5.514
 6312SOL    HW119835   0.518   6.959   5.517
 6312SOL    HW219836   0.660   6.932   5.441
 6313SOL     OW19837   6.377   6.309   3.587
 6313SOL    HW119838   6.297   6.366   3.571
 6313SOL    HW219839   6.409   6.272   3.500
 6314SOL     OW19840   3.647   6.866   2.372
 6314SOL    HW119841   3.578   6.815   2.321
 6314SOL    HW219842   3.726   6.808   2.388
 6315SOL     OW19843   3.547   1.762   5.261
 6315SOL    HW119844   3.562   1.851   5.304
 6315SOL    HW219845   3.450   1.738   5.265
 6316SOL     OW19846   4.919   2.043   5.380
 6316SOL    HW119847   4.930   2.011   5.474
 6316SOL    HW219848   5.002   2.090   5.351
 6317SOL     OW19849   4.977   4.455   2.190
 6317SOL    HW119850   5.055   4.459   2.253
 6317SOL    HW219851   4.892   4.450   2.243
 6318SOL     OW19852   4.661   0.568   6.327
 6318SOL    HW119853   4.695   0.493   6.270
 6318SOL    HW219854   4.729   0.642   6.329
 6319SOL     OW19855   6.801   2.460   5.218
 6319SOL    HW119856   6.755   2.373   5.235
 6319SOL    HW219857   6.734   2.534   5.217
 6320SOL     OW19858   0.073   6.574   5.179
 6320SOL    HW119859   0.057   6.540   5.087
 6320SOL    HW219860   0.167   6.608   5.186
 6321SOL     OW19861   4.352   3.172   0.544
 6321SOL    HW119862   4.419   3.210   0.607
 6321SOL    HW219863   4.383   3.184   0.450
 6322SOL     OW19864   3.053   2.809   0.679
 6322SOL    HW119865   3.023   2.792   0.774
 6322SOL    HW219866   2.985   2.772   0.616
 6323SOL     OW19867   1.617   2.391   1.676
 6323SOL    HW119868   1.592   2.461   1.608
 6323SOL    HW219869   1.642   2.435   1.762
 6324SOL     OW19870   4.075   1.321   0.431
 6324SOL    HW119871   4.046   1.417   0.439
 6324SOL    HW219872   4.164   1.310   0.476
 6325SOL     OW19873   1.796   3.110   2.546
 6325SOL    HW119874   1.703   3.121   2.580
 6325SOL    HW219875   1.812   3.172   2.470
 6326SOL     OW19876   5.374   4.851   0.023
 6326SOL    HW119877   5.409   4.937   7.002
 6326SOL    HW219878   5.275   4.856   0.033
 6327SOL     OW19879   0.253   2.060   4.102
 6327SOL    HW119880   0.245   2.159   4.091
 6327SOL    HW219881   0.346   2.032   4.077
 6328SOL     OW19882   4.776   3.663   6.885
 6328SOL    HW119883   4.786   3.634   6.980
 6328SOL    HW219884   4.804   3.759   6.877
 6329SOL     OW19885   1.590   2.601   5.088
 6329SOL    HW119886   1.637   2.669   5.144
 6329SOL    HW219887   1.656   2.555   5.029
 6330SOL     OW19888   6.122   6.711   2.051
 6330SOL    HW119889   6.192   6.666   1.995
 6330SOL    HW219890   6.133   6.810   2.046
 6331SOL     OW19891   7.004   3.965   4.888
 6331SOL    HW119892   6.937   3.894   4.907
 6331SOL    HW219893   0.052   3.974   4.965
 6332SOL     OW19894   0.421   2.580   1.092
 6332SOL    HW119895   0.460   2.614   1.178
 6332SOL    HW219896   0.450   2.640   1.017
 6333SOL     OW19897   5.074   0.563   5.697
 6333SOL    HW119898   5.138   0.501   5.742
 6333SOL    HW219899   5.098   0.572   5.601
 6334SOL     OW19900   2.858   0.709   2.676
 6334SOL    HW119901   2.766   0.744   2.693
 6334SOL    HW219902   2.858   0.609   2.683
 6335SOL     OW19903   4.106   0.357   0.415
 6335SOL    HW119904   4.010   0.385   0.422
 6335SOL    HW219905   4.111   0.257   0.407
 6336SOL     OW19906   0.671   1.982   6.503
 6336SOL    HW119907   0.681   2.061   6.443
 6336SOL    HW219908   0.583   1.988   6.551
 6337SOL     OW19909   3.835   5.106   4.595
 6337SOL    HW119910   3.781   5.085   4.514
 6337SOL    HW219911   3.915   5.161   4.569
 6338SOL     OW19912   2.381   2.624   4.020
 6338SOL    HW119913   2.464   2.568   4.019
 6338SOL    HW219914   2.377   2.676   4.105
 6339SOL     OW19915   0.613   3.270   3.902
 6339SOL    HW119916   0.632   3.368   3.906
 6339SOL    HW219917   0.672   3.221   3.966
 6340SOL     OW19918   2.566   4.177   1.151
 6340SOL    HW119919   2.643   4.139   1.100
 6340SOL    HW219920   2.505   4.103   1.180
 6341SOL     OW19921   6.259   3.192   4.945
 6341SOL    HW119922   6.333   3.219   4.883
 6341SOL    HW219923   6.297   3.165   5.033
 6342SOL     OW19924   2.949   1.158   0.920
 6342SOL    HW119925   3.000   1.202   0.846
 6342SOL    HW219926   2.890   1.225   0.964
 6343SOL     OW19927   3.680   0.466   0.196
 6343SOL    HW119928   3.610   0.524   0.154
 6343SOL    HW219929   3.716   0.403   0.128
 6344SOL     OW19930   4.844   2.158   4.194
 6344SOL    HW119931   4.906   2.101   4.246
 6344SOL    HW219932   4.775   2.101   4.149
 6345SOL     OW19933   5.103   2.852   2.226
 6345SOL    HW119934   5.120   2.950   2.235
 6345SOL    HW219935   5.004   2.836   2.223
 6346SOL     OW19936   0.169   5.482   4.977
 6346SOL    HW119937   0.249   5.540   4.964
 6346SOL    HW219938   0.119   5.511   5.059
 6347SOL     OW19939   1.603   1.664   0.451
 6347SOL    HW119940   1.641   1.745   0.495
 6347SOL    HW219941   1.515   1.641   0.493
 6348SOL     OW19942   1.213   3.091   0.029
 6348SOL    HW119943   1.252   3.097   6.953
 6348SOL    HW219944   1.178   3.181   0.056
 6349SOL     OW19945   2.275   1.265   0.868
 6349SOL    HW119946   2.224   1.208   0.804
 6349SOL    HW219947   2.304   1.210   0.946
 6350SOL     OW19948   0.944   5.131   4.174
 6350SOL    HW119949   0.850   5.159   4.159
 6350SOL    HW219950   0.997   5.146   4.090
 6351SOL     OW19951   6.089   3.429   3.443
 6351SOL    HW119952   6.017   3.496   3.463
 6351SOL    HW219953   6.058   3.338   3.469
 6352SOL     OW19954   2.562   0.508   5.050
 6352SOL    HW119955   2.481   0.539   5.000
 6352SOL    HW219956   2.537   0.432   5.110
 6353SOL     OW19957   1.264   6.060   6.074
 6353SOL    HW119958   1.327   6.067   5.997
 6353SOL    HW219959   1.218   6.148   6.086
 6354SOL     OW19960   3.594   5.871   2.698
 6354SOL    HW119961   3.620   5.805   2.769
 6354SOL    HW219962   3.634   5.960   2.720
 6355SOL     OW19963   2.861   5.455   6.723
 6355SOL    HW119964   2.957   5.447   6.748
 6355SOL    HW219965   2.843   5.402   6.641
 6356SOL     OW19966   5.789   4.428   0.427
 6356SOL    HW119967   5.695   4.413   0.396
 6356SOL    HW219968   5.821   4.517   0.395
 6357SOL     OW19969   5.594   4.079   2.379
 6357SOL    HW119970   5.671   4.026   2.344
 6357SOL    HW219971   5.522   4.083   2.310
 6358SOL     OW19972   0.269   2.004   6.286
 6358SOL    HW119973   0.220   1.917   6.297
 6358SOL    HW219974   0.264   2.056   6.371
 6359SOL     OW19975   5.870   6.473   0.512
 6359SOL    HW119976   5.912   6.563   0.524
 6359SOL    HW219977   5.917   6.406   0.568
 6360SOL     OW19978   1.059   3.625   4.589
 6360SOL    HW119979   0.984   3.675   4.548
 6360SOL    HW219980   1.084   3.668   4.676
 6361SOL     OW19981   1.018   1.195   0.457
 6361SOL    HW119982   1.068   1.109   0.449
 6361SOL    HW219983   1.034   1.235   0.547
 6362SOL     OW19984   0.678   5.908   6.314
 6362SOL    HW119985   0.665   5.965   6.233
 6362SOL    HW219986   0.693   5.813   6.286
 6363SOL     OW19987   2.670   5.829   3.807
 6363SOL    HW119988   2.713   5.875   3.884
 6363SOL    HW219989   2.728   5.752   3.777
 6364SOL     OW19990   3.065   2.828   5.573
 6364SOL    HW119991   3.147   2.875   5.541
 6364SOL    HW219992   3.029   2.771   5.499
 6365SOL     OW19993   5.136   6.022   3.943
 6365SOL    HW119994   5.226   6.066   3.949
 6365SOL    HW219995   5.146   5.924   3.961
 6366SOL     OW19996   0.848   5.782   5.464
 6366SOL    HW119997   0.860   5.811   5.369
 6366SOL    HW219998   0.753   5.796   5.492
 6367SOL     OW19999   3.448   2.095   3.086
 6367SOL    HW120000   3.418   2.056   2.999
 6367SOL    HW220001   3.368   2.117   3.142
 6368SOL     OW20002   3.828   4.961   4.129
 6368SOL    HW120003   3.857   5.027   4.061
 6368SOL    HW220004   3.897   4.889   4.137
 6369SOL     OW20005   1.340   0.828   4.673
 6369SOL    HW120006   1.314   0.820   4.577
 6369SOL    HW220007   1.370   0.739   4.708
 6370SOL     OW20008   5.050   4.020   3.428
 6370SOL    HW120009   4.982   4.079   3.471
 6370SOL    HW220010   5.031   3.925   3.452
 6371SOL     OW20011   5.611   4.876   2.895
 6371SOL    HW120012   5.574   4.960   2.933
 6371SOL    HW220013   5.654   4.896   2.807
 6372SOL     OW20014   1.019   0.864   1.998
 6372SOL    HW120015   1.053   0.899   1.910
 6372SOL    HW220016   1.096   0.830   2.052
 6373SOL     OW20017   5.420   4.568   3.225
 6373SOL    HW120018   5.465   4.634   3.285
 6373SOL    HW220019   5.414   4.606   3.132
 6374SOL     OW20020   4.387   3.531   1.362
 6374SOL    HW120021   4.442   3.574   1.290
 6374SOL    HW220022   4.448   3.492   1.432
 6375SOL     OW20023   6.992   2.738   2.118
 6375SOL    HW120024   7.003   2.662   2.182
 6375SOL    HW220025   6.906   2.786   2.136
 6376SOL     OW20026   4.548   2.275   6.311
 6376SOL    HW120027   4.610   2.352   6.301
 6376SOL    HW220028   4.459   2.308   6.342
 6377SOL     OW20029   6.458   1.272   5.232
 6377SOL    HW120030   6.476   1.319   5.146
 6377SOL    HW220031   6.499   1.323   5.307
 6378SOL     OW20032   5.637   4.834   3.726
 6378SOL    HW120033   5.726   4.858   3.765
 6378SOL    HW220034   5.590   4.770   3.786
 6379SOL     OW20035   0.778   4.253   5.251
 6379SOL    HW120036   0.809   4.312   5.325
 6379SOL    HW220037   0.690   4.285   5.218
 6380SOL     OW20038   0.447   2.186   4.854
 6380SOL    HW120039   0.375   2.244   4.817
 6380SOL    HW220040   0.419   2.090   4.847
 6381SOL     OW20041   4.255   3.056   0.832
 6381SOL    HW120042   4.300   3.034   0.745
 6381SOL    HW220043   4.181   2.991   0.848
 6382SOL     OW20044   3.418   1.832   0.049
 6382SOL    HW120045   3.434   1.920   0.005
 6382SOL    HW220046   3.383   1.767   6.996
 6383SOL     OW20047   2.544   2.445   2.369
 6383SOL    HW120048   2.583   2.434   2.278
 6383SOL    HW220049   2.612   2.420   2.438
 6384SOL     OW20050   5.855   3.658   2.890
 6384SOL    HW120051   5.863   3.609   2.803
 6384SOL    HW220052   5.796   3.605   2.952
 6385SOL     OW20053   6.734   3.807   3.356
 6385SOL    HW120054   6.656   3.863   3.328
 6385SOL    HW220055   6.774   3.765   3.275
 6386SOL     OW20056   2.493   3.270   6.704
 6386SOL    HW120057   2.415   3.229   6.751
 6386SOL    HW220058   2.479   3.369   6.697
 6387SOL     OW20059   6.123   1.844   6.847
 6387SOL    HW120060   6.070   1.919   6.807
 6387SOL    HW220061   6.158   1.872   6.937
 6388SOL     OW20062   5.148   5.657   1.359
 6388SOL    HW120063   5.203   5.703   1.290
 6388SOL    HW220064   5.126   5.722   1.432
 6389SOL     OW20065   0.700   0.009   0.638
 6389SOL    HW120066   0.682   0.094   0.590
 6389SOL    HW220067   0.726   0.028   0.732
 6390SOL     OW20068   6.111   0.442   5.341
 6390SOL    HW120069   6.201   0.463   5.305
 6390SOL    HW220070   6.121   0.392   5.428
 6391SOL     OW20071   1.845   0.821   6.581
 6391SOL    HW120072   1.858   0.896   6.516
 6391SOL    HW220073   1.792   0.852   6.659
 6392SOL     OW20074   2.929   4.776   2.906
 6392SOL    HW120075   2.832   4.755   2.924
 6392SOL    HW220076   2.964   4.832   2.981
 6393SOL     OW20077   6.922   5.771   2.142
 6393SOL    HW120078   6.916   5.829   2.223
 6393SOL    HW220079   6.948   5.826   2.063
 6394SOL     OW20080   1.694   5.314   0.685
 6394SOL    HW120081   1.611   5.259   0.700
 6394SOL    HW220082   1.772   5.252   0.676
 6395SOL     OW20083   6.363   3.477   1.828
 6395SOL    HW120084   6.294   3.549   1.835
 6395SOL    HW220085   6.450   3.511   1.864
 6396SOL     OW20086   6.574   3.606   6.210
 6396SOL    HW120087   6.573   3.700   6.176
 6396SOL    HW220088   6.596   3.544   6.135
 6397SOL     OW20089   5.646   0.946   1.502
 6397SOL    HW120090   5.653   0.866   1.443
 6397SOL    HW220091   5.731   0.956   1.555
 6398SOL     OW20092   3.041   6.922   1.847
 6398SOL    HW120093   3.126   6.943   1.896
 6398SOL    HW220094   2.963   6.935   1.908
 6399SOL     OW20095   1.447   0.226   6.702
 6399SOL    HW120096   1.375   0.164   6.733
 6399SOL    HW220097   1.513   0.241   6.776
 6400SOL     OW20098   1.768   4.802   2.356
 6400SOL    HW120099   1.833   4.757   2.416
 6400SOL    HW220100   1.816   4.869   2.300
 6401SOL     OW20101   5.343   5.631   2.917
 6401SOL    HW120102   5.286   5.712   2.907
 6401SOL    HW220103   5.440   5.657   2.912
 6402SOL     OW20104   2.054   2.978   3.368
 6402SOL    HW120105   2.027   2.963   3.272
 6402SOL    HW220106   2.142   2.936   3.385
 6403SOL     OW20107   5.823   6.241   5.652
 6403SOL    HW120108   5.888   6.316   5.641
 6403SOL    HW220109   5.730   6.278   5.652
 6404SOL     OW20110   4.565   1.191   2.906
 6404SOL    HW120111   4.549   1.192   2.807
 6404SOL    HW220112   4.489   1.144   2.952
 6405SOL     OW20113   4.219   0.936   4.282
 6405SOL    HW120114   4.148   0.991   4.238
 6405SOL    HW220115   4.286   0.907   4.213
 6406SOL     OW20116   0.384   2.670   2.609
 6406SOL    HW120117   0.350   2.764   2.609
 6406SOL    HW220118   0.474   2.667   2.566
 6407SOL     OW20119   2.299   0.276   4.661
 6407SOL    HW120120   2.301   0.192   4.716
 6407SOL    HW220121   2.217   0.329   4.683
 6408SOL     OW20122   5.039   1.529   1.534
 6408SOL    HW120123   5.123   1.549   1.584
 6408SOL    HW220124   5.036   1.432   1.510
 6409SOL     OW20125   6.854   4.805   3.428
 6409SOL    HW120126   6.886   4.723   3.475
 6409SOL    HW220127   6.754   4.805   3.425
 6410SOL     OW20128   2.046   0.942   6.399
 6410SOL    HW120129   2.039   0.857   6.450
 6410SOL    HW220130   2.139   0.953   6.365
 6411SOL     OW20131   0.742   2.575   2.524
 6411SOL    HW120132   0.823   2.516   2.521
 6411SOL    HW220133   0.754   2.643   2.597
 6412SOL     OW20134   1.705   0.918   6.304
 6412SOL    HW120135   1.782   0.982   6.307
 6412SOL    HW220136   1.739   0.826   6.281
 6413SOL     OW20137   3.465   4.942   3.775
 6413SOL    HW120138   3.366   4.934   3.784
 6413SOL    HW220139   3.508   4.928   3.865
 6414SOL     OW20140   4.969   1.020   6.719
 6414SOL    HW120141   4.981   0.933   6.671
 6414SOL    HW220142   5.051   1.040   6.773
 6415SOL     OW20143   1.350   3.117   4.008
 6415SOL    HW120144   1.327   3.104   4.104
 6415SOL    HW220145   1.326   3.210   3.980
 6416SOL     OW20146   2.208   6.705   6.109
 6416SOL    HW120147   2.195   6.647   6.029
 6416SOL    HW220148   2.273   6.777   6.088
 6417SOL     OW20149   5.882   3.880   0.752
 6417SOL    HW120150   5.851   3.879   0.656
 6417SOL    HW220151   5.976   3.912   0.756
 6418SOL     OW20152   4.765   4.232   3.154
 6418SOL    HW120153   4.712   4.265   3.076
 6418SOL    HW220154   4.806   4.144   3.131
 6419SOL     OW20155   1.194   5.046   2.871
 6419SOL    HW120156   1.179   5.138   2.835
 6419SOL    HW220157   1.285   5.041   2.911
 6420SOL     OW20158   2.301   1.020   4.079
 6420SOL    HW120159   2.391   1.063   4.089
 6420SOL    HW220160   2.298   0.934   4.131
 6421SOL     OW20161   4.313   0.124   1.555
 6421SOL    HW120162   4.329   0.037   1.601
 6421SOL    HW220163   4.395   0.149   1.502
 6422SOL     OW20164   6.708   1.830   4.962
 6422SOL    HW120165   6.660   1.798   5.044
 6422SOL    HW220166   6.805   1.839   4.983
 6423SOL     OW20167   5.166   5.066   4.936
 6423SOL    HW120168   5.068   5.068   4.915
 6423SOL    HW220169   5.210   5.146   4.896
 6424SOL     OW20170   0.793   3.908   4.736
 6424SOL    HW120171   0.876   3.936   4.786
 6424SOL    HW220172   0.717   3.967   4.763
 6425SOL     OW20173   6.680   5.937   3.038
 6425SOL    HW120174   6.667   5.849   2.991
 6425SOL    HW220175   6.747   5.926   3.111
 6426SOL     OW20176   6.671   5.328   3.218
 6426SOL    HW120177   6.611   5.310   3.140
 6426SOL    HW220178   6.705   5.242   3.255
 6427SOL     OW20179   3.555   4.169   3.446
 6427SOL    HW120180   3.502   4.128   3.520
 6427SOL    HW220181   3.495   4.184   3.367
 6428SOL     OW20182   6.145   3.628   0.254
 6428SOL    HW120183   6.163   3.535   0.285
 6428SOL    HW220184   6.051   3.653   0.275
 6429SOL     OW20185   6.915   1.118   5.436
 6429SOL    HW120186   6.928   1.111   5.535
 6429SOL    HW220187   6.837   1.061   5.409
 6430SOL     OW20188   6.397   1.270   4.149
 6430SOL    HW120189   6.428   1.359   4.184
 6430SOL    HW220190   6.378   1.278   4.052
 6431SOL     OW20191   4.280   5.938   3.613
 6431SOL    HW120192   4.344   5.862   3.608
 6431SOL    HW220193   4.302   5.995   3.692
 6432SOL     OW20194   4.345   4.906   5.747
 6432SOL    HW120195   4.434   4.860   5.741
 6432SOL    HW220196   4.277   4.852   5.698
 6433SOL     OW20197   2.567   4.933   6.959
 6433SOL    HW120198   2.550   5.008   0.007
 6433SOL    HW220199   2.656   4.946   6.916
 6434SOL     OW20200   3.036   0.277   6.387
 6434SOL    HW120201   3.049   0.343   6.313
 6434SOL    HW220202   3.100   0.201   6.376
 6435SOL     OW20203   5.988   6.310   0.711
 6435SOL    HW120204   5.933   6.309   0.795
 6435SOL    HW220205   5.983   6.219   0.668
 6436SOL     OW20206   1.441   3.208   2.689
 6436SOL    HW120207   1.369   3.277   2.702
 6436SOL    HW220208   1.525   3.239   2.732
 6437SOL     OW20209   1.338   2.283   0.601
 6437SOL    HW120210   1.410   2.214   0.598
 6437SOL    HW220211   1.325   2.322   0.510
 6438SOL     OW20212   0.762   4.708   5.817
 6438SOL    HW120213   0.702   4.772   5.769
 6438SOL    HW220214   0.721   4.617   5.817
 6439SOL     OW20215   5.239   0.443   2.102
 6439SOL    HW120216   5.154   0.396   2.124
 6439SOL    HW220217   5.220   0.521   2.042
 6440SOL     OW20218   2.991   1.458   5.774
 6440SOL    HW120219   2.991   1.480   5.871
 6440SOL    HW220220   2.897   1.455   5.740
 6441SOL     OW20221   0.565   0.675   1.545
 6441SOL    HW120222   0.662   0.681   1.523
 6441SOL    HW220223   0.514   0.643   1.465
 6442SOL     OW20224   3.061   1.791   5.236
 6442SOL    HW120225   3.011   1.740   5.167
 6442SOL    HW220226   3.090   1.879   5.198
 6443SOL     OW20227   3.441   3.199   5.473
 6443SOL    HW120228   3.463   3.226   5.379
 6443SOL    HW220229   3.495   3.252   5.537
 6444SOL     OW20230   5.841   2.594   4.714
 6444SOL    HW120231   5.896   2.515   4.741
 6444SOL    HW220232   5.745   2.568   4.706
 6445SOL     OW20233   3.785   3.274   3.363
 6445SOL    HW120234   3.837   3.351   3.400
 6445SOL    HW220235   3.820   3.188   3.401
 6446SOL     OW20236   0.497   1.881   0.355
 6446SOL    HW120237   0.577   1.838   0.312
 6446SOL    HW220238   0.415   1.859   0.303
 6447SOL     OW20239   0.121   4.519   2.786
 6447SOL    HW120240   0.062   4.475   2.854
 6447SOL    HW220241   0.212   4.533   2.824
 6448SOL     OW20242   5.427   5.007   1.347
 6448SOL    HW120243   5.455   4.938   1.414
 6448SOL    HW220244   5.400   5.091   1.394
 6449SOL     OW20245   3.414   5.488   1.920
 6449SOL    HW120246   3.362   5.527   1.995
 6449SOL    HW220247   3.425   5.390   1.934
 6450SOL     OW20248   1.535   2.833   0.930
 6450SOL    HW120249   1.538   2.735   0.950
 6450SOL    HW220250   1.514   2.883   1.014
 6451SOL     OW20251   2.179   0.647   6.226
 6451SOL    HW120252   2.213   0.679   6.315
 6451SOL    HW220253   2.172   0.725   6.164
 6452SOL     OW20254   4.766   4.119   2.681
 6452SOL    HW120255   4.770   4.097   2.584
 6452SOL    HW220256   4.797   4.041   2.735
 6453SOL     OW20257   2.416   0.124   1.739
 6453SOL    HW120258   2.339   0.069   1.705
 6453SOL    HW220259   2.432   0.202   1.679
 6454SOL     OW20260   1.166   1.208   3.050
 6454SOL    HW120261   1.089   1.202   3.114
 6454SOL    HW220262   1.236   1.142   3.075
 6455SOL     OW20263   6.511   3.274   3.372
 6455SOL    HW120264   6.440   3.272   3.442
 6455SOL    HW220265   6.498   3.354   3.313
 6456SOL     OW20266   1.593   1.520   3.887
 6456SOL    HW120267   1.543   1.581   3.948
 6456SOL    HW220268   1.529   1.460   3.839
 6457SOL     OW20269   5.461   0.403   1.369
 6457SOL    HW120270   5.413   0.373   1.287
 6457SOL    HW220271   5.543   0.348   1.382
 6458SOL     OW20272   1.565   4.957   4.124
 6458SOL    HW120273   1.643   4.911   4.082
 6458SOL    HW220274   1.555   4.926   4.219
 6459SOL     OW20275   6.145   3.166   2.074
 6459SOL    HW120276   6.088   3.168   1.991
 6459SOL    HW220277   6.240   3.149   2.048
 6460SOL     OW20278   5.816   6.106   6.310
 6460SOL    HW120279   5.761   6.099   6.226
 6460SOL    HW220280   5.800   6.195   6.353
 6461SOL     OW20281   2.678   4.471   7.005
 6461SOL    HW120282   2.748   4.434   6.944
 6461SOL    HW220283   2.588   4.441   6.974
 6462SOL     OW20284   1.571   2.880   4.657
 6462SOL    HW120285   1.540   2.785   4.659
 6462SOL    HW220286   1.492   2.941   4.650
 6463SOL     OW20287   5.384   0.542   0.649
 6463SOL    HW120288   5.452   0.477   0.683
 6463SOL    HW220289   5.311   0.552   0.717
 6464SOL     OW20290   2.147   5.605   5.151
 6464SOL    HW120291   2.161   5.506   5.164
 6464SOL    HW220292   2.048   5.624   5.149
 6465SOL     OW20293   6.775   2.805   2.463
 6465SOL    HW120294   6.871   2.794   2.438
 6465SOL    HW220295   6.727   2.853   2.390
 6466SOL     OW20296   5.602   1.379   6.158
 6466SOL    HW120297   5.702   1.374   6.167
 6466SOL    HW220298   5.563   1.416   6.242
 6467SOL     OW20299   4.057   0.459   1.042
 6467SOL    HW120300   3.976   0.509   1.074
 6467SOL    HW220301   4.122   0.449   1.117
 6468SOL     OW20302   3.268   6.512   1.528
 6468SOL    HW120303   3.214   6.432   1.555
 6468SOL    HW220304   3.288   6.568   1.608
 6469SOL     OW20305   3.957   2.162   3.449
 6469SOL    HW120306   3.966   2.244   3.506
 6469SOL    HW220307   3.985   2.184   3.355
 6470SOL     OW20308   6.174   2.961   1.065
 6470SOL    HW120309   6.127   2.874   1.048
 6470SOL    HW220310   6.130   3.033   1.012
 6471SOL     OW20311   0.337   6.631   5.477
 6471SOL    HW120312   0.351   6.670   5.568
 6471SOL    HW220313   0.288   6.545   5.485
 6472SOL     OW20314   6.538   5.951   2.226
 6472SOL    HW120315   6.533   5.871   2.286
 6472SOL    HW220316   6.505   6.031   2.275
 6473SOL     OW20317   2.678   1.729   4.728
 6473SOL    HW120318   2.713   1.823   4.730
 6473SOL    HW220319   2.618   1.713   4.805
 6474SOL     OW20320   4.373   5.926   5.433
 6474SOL    HW120321   4.322   5.844   5.457
 6474SOL    HW220322   4.426   5.909   5.350
 6475SOL     OW20323   5.728   4.560   3.753
 6475SOL    HW120324   5.682   4.471   3.760
 6475SOL    HW220325   5.729   4.604   3.843
 6476SOL     OW20326   5.427   3.130   0.520
 6476SOL    HW120327   5.424   3.045   0.573
 6476SOL    HW220328   5.427   3.108   0.422
 6477SOL     OW20329   6.583   5.490   0.021
 6477SOL    HW120330   6.606   5.404   0.066
 6477SOL    HW220331   6.507   5.475   6.973
 6478SOL     OW20332   3.233   6.665   2.350
 6478SOL    HW120333   3.287   6.581   2.345
 6478SOL    HW220334   3.262   6.718   2.430
 6479SOL     OW20335   4.083   5.617   4.343
 6479SOL    HW120336   4.075   5.712   4.312
 6479SOL    HW220337   4.045   5.556   4.273
 6480SOL     OW20338   2.749   1.092   6.894
 6480SOL    HW120339   2.828   1.048   6.935
 6480SOL    HW220340   2.665   1.054   6.932
 6481SOL     OW20341   3.478   2.129   1.745
 6481SOL    HW120342   3.416   2.070   1.796
 6481SOL    HW220343   3.527   2.189   1.808
 6482SOL     OW20344   6.312   2.283   6.525
 6482SOL    HW120345   6.288   2.339   6.604
 6482SOL    HW220346   6.305   2.186   6.548
 6483SOL     OW20347   6.715   6.980   3.388
 6483SOL    HW120348   6.701   7.006   3.293
 6483SOL    HW220349   6.759   6.890   3.392
 6484SOL     OW20350   3.199   0.766   2.763
 6484SOL    HW120351   3.194   0.862   2.733
 6484SOL    HW220352   3.116   0.718   2.734
 6485SOL     OW20353   2.274   5.184   3.772
 6485SOL    HW120354   2.282   5.280   3.799
 6485SOL    HW220355   2.183   5.169   3.732
 6486SOL     OW20356   0.991   4.507   2.287
 6486SOL    HW120357   1.021   4.597   2.320
 6486SOL    HW220358   1.062   4.467   2.231
 6487SOL     OW20359   1.095   6.649   5.501
 6487SOL    HW120360   1.061   6.570   5.552
 6487SOL    HW220361   1.057   6.733   5.541
 6488SOL     OW20362   4.020   5.912   4.265
 6488SOL    HW120363   4.089   5.973   4.225
 6488SOL    HW220364   4.031   5.910   4.364
 6489SOL     OW20365   3.802   3.250   6.218
 6489SOL    HW120366   3.727   3.192   6.185
 6489SOL    HW220367   3.790   3.268   6.315
 6490SOL     OW20368   4.003   1.016   6.040
 6490SOL    HW120369   3.990   1.107   6.081
 6490SOL    HW220370   3.919   0.962   6.052
 6491SOL     OW20371   3.076   0.345   1.138
 6491SOL    HW120372   3.066   0.263   1.082
 6491SOL    HW220373   3.106   0.318   1.230
 6492SOL     OW20374   3.661   4.157   5.579
 6492SOL    HW120375   3.566   4.185   5.591
 6492SOL    HW220376   3.721   4.220   5.628
 6493SOL     OW20377   1.309   4.310   6.224
 6493SOL    HW120378   1.353   4.338   6.139
 6493SOL    HW220379   1.218   4.274   6.203
 6494SOL     OW20380   0.162   6.972   2.969
 6494SOL    HW120381   0.077   6.983   3.021
 6494SOL    HW220382   0.199   0.046   2.946
 6495SOL     OW20383   0.231   0.933   4.102
 6495SOL    HW120384   0.219   0.842   4.140
 6495SOL    HW220385   0.183   1.000   4.159
 6496SOL     OW20386   5.825   1.161   2.949
 6496SOL    HW120387   5.817   1.254   2.984
 6496SOL    HW220388   5.868   1.163   2.859
 6497SOL     OW20389   1.097   0.576   1.518
 6497SOL    HW120390   1.107   0.494   1.574
 6497SOL    HW220391   1.159   0.571   1.440
 6498SOL     OW20392   1.067   3.352   4.497
 6498SOL    HW120393   1.071   3.452   4.503
 6498SOL    HW220394   1.049   3.314   4.588
 6499SOL     OW20395   5.367   4.076   5.522
 6499SOL    HW120396   5.457   4.063   5.480
 6499SOL    HW220397   5.298   4.083   5.450
 6500SOL     OW20398   6.727   4.024   3.790
 6500SOL    HW120399   6.669   3.950   3.755
 6500SOL    HW220400   6.811   4.029   3.735
 6501SOL     OW20401   6.650   1.157   0.745
 6501SOL    HW120402   6.674   1.096   0.820
 6501SOL    HW220403   6.554   1.184   0.753
 6502SOL     OW20404   6.936   3.697   2.563
 6502SOL    HW120405   6.920   3.599   2.575
 6502SOL    HW220406   0.008   3.722   2.603
 6503SOL     OW20407   5.277   0.970   3.720
 6503SOL    HW120408   5.258   1.002   3.813
 6503SOL    HW220409   5.192   0.943   3.676
 6504SOL     OW20410   3.571   6.276   6.015
 6504SOL    HW120411   3.478   6.241   6.026
 6504SOL    HW220412   3.597   6.327   6.098
 6505SOL     OW20413   5.902   6.280   5.994
 6505SOL    HW120414   5.815   6.243   5.963
 6505SOL    HW220415   5.889   6.371   6.032
 6506SOL     OW20416   6.973   2.869   2.830
 6506SOL    HW120417   0.004   2.791   2.788
 6506SOL    HW220418   6.876   2.867   2.806
 6507SOL     OW20419   2.648   5.609   6.626
 6507SOL    HW120420   2.641   5.672   6.703
 6507SOL    HW220421   2.739   5.567   6.626
 6508SOL     OW20422   1.595   0.685   2.823
 6508SOL    HW120423   1.618   0.696   2.920
 6508SOL    HW220424   1.495   0.677   2.813
 6509SOL     OW20425   4.616   2.316   4.638
 6509SOL    HW120426   4.676   2.279   4.567
 6509SOL    HW220427   4.670   2.338   4.719
 6510SOL     OW20428   6.230   4.810   6.867
 6510SOL    HW120429   6.279   4.866   6.800
 6510SOL    HW220430   6.232   4.714   6.838
 6511SOL     OW20431   4.113   0.735   4.431
 6511SOL    HW120432   4.115   0.768   4.525
 6511SOL    HW220433   4.135   0.810   4.369
 6512SOL     OW20434   3.687   6.629   2.043
 6512SOL    HW120435   3.678   6.590   2.134
 6512SOL    HW220436   3.690   6.729   2.049
 6513SOL     OW20437   2.778   5.499   3.486
 6513SOL    HW120438   2.733   5.433   3.546
 6513SOL    HW220439   2.716   5.523   3.411
 6514SOL     OW20440   5.665   1.342   4.659
 6514SOL    HW120441   5.584   1.365   4.714
 6514SOL    HW220442   5.717   1.269   4.705
 6515SOL     OW20443   1.220   3.545   3.375
 6515SOL    HW120444   1.155   3.510   3.442
 6515SOL    HW220445   1.176   3.616   3.320
 6516SOL     OW20446   0.452   3.229   1.502
 6516SOL    HW120447   0.365   3.280   1.505
 6516SOL    HW220448   0.437   3.141   1.456
 6517SOL     OW20449   0.036   1.701   1.814
 6517SOL    HW120450   0.046   1.791   1.771
 6517SOL    HW220451   6.994   1.709   1.895
 6518SOL     OW20452   0.422   0.176   1.127
 6518SOL    HW120453   0.501   0.156   1.184
 6518SOL    HW220454   0.421   0.274   1.106
 6519SOL     OW20455   0.643   1.455   2.777
 6519SOL    HW120456   0.741   1.471   2.766
 6519SOL    HW220457   0.593   1.497   2.701
 6520SOL     OW20458   0.197   5.104   0.247
 6520SOL    HW120459   0.238   5.151   0.169
 6520SOL    HW220460   0.135   5.032   0.214
 6521SOL     OW20461   1.709   2.596   4.597
 6521SOL    HW120462   1.790   2.641   4.635
 6521SOL    HW220463   1.689   2.633   4.507
 6522SOL     OW20464   3.502   4.739   5.833
 6522SOL    HW120465   3.577   4.720   5.769
 6522SOL    HW220466   3.443   4.810   5.795
 6523SOL     OW20467   3.918   1.098   6.910
 6523SOL    HW120468   3.825   1.066   6.930
 6523SOL    HW220469   3.969   1.108   6.995
 6524SOL     OW20470   2.342   3.651   1.202
 6524SOL    HW120471   2.322   3.663   1.300
 6524SOL    HW220472   2.417   3.586   1.191
 6525SOL     OW20473   1.945   4.636   2.514
 6525SOL    HW120474   2.042   4.658   2.512
 6525SOL    HW220475   1.917   4.616   2.608
 6526SOL     OW20476   1.348   0.421   1.564
 6526SOL    HW120477   1.270   0.362   1.585
 6526SOL    HW220478   1.323   0.485   1.492
 6527SOL     OW20479   6.844   2.147   6.574
 6527SOL    HW120480   6.764   2.201   6.546
 6527SOL    HW220481   6.890   2.193   6.649
 6528SOL     OW20482   5.769   1.641   5.290
 6528SOL    HW120483   5.702   1.582   5.336
 6528SOL    HW220484   5.780   1.612   5.195
 6529SOL     OW20485   1.722   0.523   2.628
 6529SOL    HW120486   1.730   0.429   2.662
 6529SOL    HW220487   1.679   0.580   2.698
 6530SOL     OW20488   6.808   1.748   1.314
 6530SOL    HW120489   6.764   1.745   1.404
 6530SOL    HW220490   6.740   1.768   1.244
 6531SOL     OW20491   4.988   3.283   4.933
 6531SOL    HW120492   5.009   3.375   4.898
 6531SOL    HW220493   5.052   3.260   5.007
 6532SOL     OW20494   1.029   1.386   1.191
 6532SOL    HW120495   0.935   1.405   1.220
 6532SOL    HW220496   1.088   1.383   1.271
 6533SOL     OW20497   4.371   6.584   0.354
 6533SOL    HW120498   4.442   6.615   0.291
 6533SOL    HW220499   4.398   6.606   0.448
 6534SOL     OW20500   4.985   4.860   1.678
 6534SOL    HW120501   5.063   4.898   1.630
 6534SOL    HW220502   5.016   4.786   1.739
 6535SOL     OW20503   6.798   4.420   4.154
 6535SOL    HW120504   6.753   4.418   4.243
 6535SOL    HW220505   6.742   4.372   4.087
 6536SOL     OW20506   0.698   1.937   5.248
 6536SOL    HW120507   0.707   1.857   5.188
 6536SOL    HW220508   0.742   1.918   5.336
 6537SOL     OW20509   6.987   4.620   6.685
 6537SOL    HW120510   6.953   4.530   6.657
 6537SOL    HW220511   6.912   4.674   6.723
 6538SOL     OW20512   1.942   3.886   5.399
 6538SOL    HW120513   2.021   3.917   5.346
 6538SOL    HW220514   1.924   3.790   5.380
 6539SOL     OW20515   4.825   0.876   6.991
 6539SOL    HW120516   4.836   0.880   6.891
 6539SOL    HW220517   4.858   0.961   0.016
 6540SOL     OW20518   4.106   2.471   6.248
 6540SOL    HW120519   4.127   2.420   6.332
 6540SOL    HW220520   4.074   2.563   6.273
 6541SOL     OW20521   5.080   1.199   4.995
 6541SOL    HW120522   5.178   1.190   5.012
 6541SOL    HW220523   5.066   1.264   4.919
 6542SOL     OW20524   0.157   2.632   3.781
 6542SOL    HW120525   0.151   2.668   3.688
 6542SOL    HW220526   0.242   2.582   3.793
 6543SOL     OW20527   4.171   3.177   5.329
 6543SOL    HW120528   4.220   3.092   5.347
 6543SOL    HW220529   4.107   3.164   5.254
 6544SOL     OW20530   1.677   6.451   3.482
 6544SOL    HW120531   1.734   6.376   3.446
 6544SOL    HW220532   1.604   6.470   3.417
 6545SOL     OW20533   4.345   0.385   0.558
 6545SOL    HW120534   4.261   0.372   0.505
 6545SOL    HW220535   4.323   0.430   0.645
 6546SOL     OW20536   2.474   3.854   5.949
 6546SOL    HW120537   2.515   3.845   5.858
 6546SOL    HW220538   2.533   3.910   6.006
 6547SOL     OW20539   4.603   1.183   6.972
 6547SOL    HW120540   4.694   1.196   6.934
 6547SOL    HW220541   4.564   1.097   6.940
 6548SOL     OW20542   1.256   3.713   1.198
 6548SOL    HW120543   1.355   3.709   1.183
 6548SOL    HW220544   1.220   3.797   1.158
 6549SOL     OW20545   4.437   0.822   1.800
 6549SOL    HW120546   4.399   0.827   1.892
 6549SOL    HW220547   4.452   0.726   1.776
 6550SOL     OW20548   6.916   6.737   4.527
 6550SOL    HW120549   6.942   6.729   4.623
 6550SOL    HW220550   6.877   6.650   4.496
 6551SOL     OW20551   2.135   3.803   2.099
 6551SOL    HW120552   2.052   3.827   2.049
 6551SOL    HW220553   2.175   3.721   2.058
 6552SOL     OW20554   1.470   0.360   0.234
 6552SOL    HW120555   1.379   0.336   0.267
 6552SOL    HW220556   1.528   0.279   0.235
 6553SOL     OW20557   6.875   2.073   3.452
 6553SOL    HW120558   6.898   2.143   3.520
 6553SOL    HW220559   6.883   1.983   3.493
 6554SOL     OW20560   1.488   0.438   4.452
 6554SOL    HW120561   1.531   0.507   4.510
 6554SOL    HW220562   1.452   0.364   4.509
 6555SOL     OW20563   4.693   2.114   2.753
 6555SOL    HW120564   4.728   2.206   2.733
 6555SOL    HW220565   4.735   2.048   2.690
 6556SOL     OW20566   5.527   4.760   3.420
 6556SOL    HW120567   5.538   4.701   3.500
 6556SOL    HW220568   5.616   4.800   3.397
 6557SOL     OW20569   2.541   0.083   2.765
 6557SOL    HW120570   2.554   0.007   2.702
 6557SOL    HW220571   2.520   0.166   2.714
 6558SOL     OW20572   6.884   4.634   0.690
 6558SOL    HW120573   6.868   4.582   0.606
 6558SOL    HW220574   6.980   4.661   0.694
 6559SOL     OW20575   0.867   4.138   0.176
 6559SOL    HW120576   0.962   4.128   0.146
 6559SOL    HW220577   0.818   4.197   0.112
 6560SOL     OW20578   4.227   5.072   1.488
 6560SOL    HW120579   4.134   5.042   1.472
 6560SOL    HW220580   4.249   5.064   1.585
 6561SOL     OW20581   3.509   4.252   1.303
 6561SOL    HW120582   3.444   4.183   1.272
 6561SOL    HW220583   3.552   4.294   1.223
 6562SOL     OW20584   6.074   2.300   0.945
 6562SOL    HW120585   6.021   2.383   0.926
 6562SOL    HW220586   6.022   2.220   0.916
 6563SOL     OW20587   5.238   5.546   5.940
 6563SOL    HW120588   5.191   5.491   6.009
 6563SOL    HW220589   5.332   5.513   5.929
 6564SOL     OW20590   6.629   3.493   2.704
 6564SOL    HW120591   6.663   3.534   2.789
 6564SOL    HW220592   6.706   3.457   2.652
 6565SOL     OW20593   5.587   1.201   2.156
 6565SOL    HW120594   5.605   1.280   2.214
 6565SOL    HW220595   5.593   1.118   2.210
 6566SOL     OW20596   3.905   6.286   1.922
 6566SOL    HW120597   3.949   6.351   1.860
 6566SOL    HW220598   3.811   6.269   1.891
 6567SOL     OW20599   4.650   0.708   2.099
 6567SOL    HW120600   4.649   0.798   2.055
 6567SOL    HW220601   4.672   0.719   2.196
 6568SOL     OW20602   3.441   1.715   3.830
 6568SOL    HW120603   3.512   1.645   3.826
 6568SOL    HW220604   3.472   1.796   3.780
 6569SOL     OW20605   2.572   3.283   0.337
 6569SOL    HW120606   2.501   3.227   0.293
 6569SOL    HW220607   2.589   3.365   0.282
 6570SOL     OW20608   2.516   0.354   2.281
 6570SOL    HW120609   2.445   0.399   2.334
 6570SOL    HW220610   2.551   0.275   2.332
 6571SOL     OW20611   3.137   5.069   2.029
 6571SOL    HW120612   3.180   5.077   2.119
 6571SOL    HW220613   3.146   4.976   1.996
 6572SOL     OW20614   6.843   4.323   4.467
 6572SOL    HW120615   6.880   4.273   4.388
 6572SOL    HW220616   6.744   4.330   4.458
 6573SOL     OW20617   0.523   1.642   2.376
 6573SOL    HW120618   0.596   1.577   2.354
 6573SOL    HW220619   0.473   1.609   2.456
 6574SOL     OW20620   2.261   5.756   2.720
 6574SOL    HW120621   2.241   5.839   2.772
 6574SOL    HW220622   2.244   5.676   2.777
 6575SOL     OW20623   0.682   6.715   3.767
 6575SOL    HW120624   0.621   6.651   3.719
 6575SOL    HW220625   0.761   6.664   3.802
 6576SOL     OW20626   2.167   6.275   0.002
 6576SOL    HW120627   2.113   6.328   6.952
 6576SOL    HW220628   2.264   6.284   6.995
 6577SOL     OW20629   1.031   2.166   3.452
 6577SOL    HW120630   1.072   2.097   3.512
 6577SOL    HW220631   1.053   2.257   3.486
 6578SOL     OW20632   0.809   6.111   2.572
 6578SOL    HW120633   0.752   6.193   2.562
 6578SOL    HW220634   0.883   6.114   2.504
 6579SOL     OW20635   0.431   3.377   3.445
 6579SOL    HW120636   0.504   3.434   3.481
 6579SOL    HW220637   0.428   3.386   3.345
 6580SOL     OW20638   0.035   1.923   0.363
 6580SOL    HW120639   0.049   1.938   0.460
 6580SOL    HW220640   6.964   1.874   0.349
 6581SOL     OW20641   2.241   0.470   0.302
 6581SOL    HW120642   2.247   0.381   0.348
 6581SOL    HW220643   2.309   0.532   0.341
 6582SOL     OW20644   0.019   1.223   2.882
 6582SOL    HW120645   6.953   1.214   2.939
 6582SOL    HW220646   7.015   1.189   2.790
 6583SOL     OW20647   4.869   0.128   6.278
 6583SOL    HW120648   4.844   0.086   6.191
 6583SOL    HW220649   4.910   0.218   6.262
 6584SOL     OW20650   4.471   2.139   0.428
 6584SOL    HW120651   4.402   2.174   0.365
 6584SOL    HW220652   4.557   2.188   0.415
 6585SOL     OW20653   6.613   6.142   0.140
 6585SOL    HW120654   6.591   6.222   0.084
 6585SOL    HW220655   6.653   6.070   0.083
 6586SOL     OW20656   5.480   1.144   6.099
 6586SOL    HW120657   5.498   1.241   6.113
 6586SOL    HW220658   5.534   1.111   6.022
 6587SOL     OW20659   2.054   5.070   5.699
 6587SOL    HW120660   2.021   4.982   5.665
 6587SOL    HW220661   2.033   5.079   5.796
 6588SOL     OW20662   0.004   2.742   1.848
 6588SOL    HW120663   7.001   2.723   1.945
 6588SOL    HW220664   6.950   2.698   1.792
 6589SOL     OW20665   4.575   0.136   1.472
 6589SOL    HW120666   4.603   0.044   1.446
 6589SOL    HW220667   4.635   0.203   1.426
 6590SOL     OW20668   6.754   1.117   0.006
 6590SOL    HW120669   6.849   1.113   6.991
 6590SOL    HW220670   6.749   1.086   0.101
 6591SOL     OW20671   6.294   5.749   3.456
 6591SOL    HW120672   6.283   5.835   3.505
 6591SOL    HW220673   6.356   5.762   3.379
 6592SOL     OW20674   5.365   6.803   2.927
 6592SOL    HW120675   5.365   6.875   2.858
 6592SOL    HW220676   5.433   6.824   2.998
 6593SOL     OW20677   2.361   2.284   3.011
 6593SOL    HW120678   2.385   2.361   2.951
 6593SOL    HW220679   2.445   2.239   3.042
 6594SOL     OW20680   3.805   1.240   6.150
 6594SOL    HW120681   3.841   1.201   6.235
 6594SOL    HW220682   3.868   1.310   6.116
 6595SOL     OW20683   1.177   4.367   6.635
 6595SOL    HW120684   1.272   4.365   6.605
 6595SOL    HW220685   1.159   4.450   6.688
 6596SOL     OW20686   3.207   6.841   4.232
 6596SOL    HW120687   3.211   6.934   4.270
 6596SOL    HW220688   3.204   6.775   4.306
 6597SOL     OW20689   1.169   5.414   1.249
 6597SOL    HW120690   1.088   5.433   1.193
 6597SOL    HW220691   1.251   5.437   1.196
 6598SOL     OW20692   1.705   4.663   3.940
 6598SOL    HW120693   1.648   4.602   3.995
 6598SOL    HW220694   1.788   4.686   3.991
 6599SOL     OW20695   4.197   6.509   6.157
 6599SOL    HW120696   4.269   6.527   6.224
 6599SOL    HW220697   4.123   6.575   6.170
 6600SOL     OW20698   3.655   6.218   5.397
 6600SOL    HW120699   3.556   6.233   5.395
 6600SOL    HW220700   3.679   6.167   5.480
 6601SOL     OW20701   1.653   1.994   5.019
 6601SOL    HW120702   1.726   2.058   5.045
 6601SOL    HW220703   1.687   1.901   5.023
 6602SOL     OW20704   1.942   1.144   1.933
 6602SOL    HW120705   1.885   1.141   1.851
 6602SOL    HW220706   1.929   1.059   1.985
 6603SOL     OW20707   0.511   3.048   3.322
 6603SOL    HW120708   0.586   3.095   3.367
 6603SOL    HW220709   0.424   3.076   3.363
 6604SOL     OW20710   1.016   6.668   1.544
 6604SOL    HW120711   1.052   6.576   1.526
 6604SOL    HW220712   0.987   6.710   1.458
 6605SOL     OW20713   5.585   5.406   1.424
 6605SOL    HW120714   5.679   5.428   1.396
 6605SOL    HW220715   5.566   5.310   1.402
 6606SOL     OW20716   0.439   5.661   2.291
 6606SOL    HW120717   0.364   5.722   2.314
 6606SOL    HW220718   0.525   5.698   2.327
 6607SOL     OW20719   1.408   4.303   2.847
 6607SOL    HW120720   1.383   4.302   2.750
 6607SOL    HW220721   1.335   4.260   2.900
 6608SOL     OW20722   6.467   6.593   7.014
 6608SOL    HW120723   6.369   6.577   7.003
 6608SOL    HW220724   6.489   6.600   0.096
 6609SOL     OW20725   5.426   0.940   0.254
 6609SOL    HW120726   5.351   0.921   0.317
 6609SOL    HW220727   5.499   0.990   0.302
 6610SOL     OW20728   2.014   6.406   0.198
 6610SOL    HW120729   1.930   6.353   0.207
 6610SOL    HW220730   2.081   6.354   0.146
 6611SOL     OW20731   4.793   3.076   3.112
 6611SOL    HW120732   4.843   3.011   3.055
 6611SOL    HW220733   4.813   3.169   3.080
 6612SOL     OW20734   6.430   2.130   6.900
 6612SOL    HW120735   6.332   2.146   6.894
 6612SOL    HW220736   6.474   2.208   6.946
 6613SOL     OW20737   6.546   6.374   5.268
 6613SOL    HW120738   6.581   6.452   5.320
 6613SOL    HW220739   6.512   6.406   5.180
 6614SOL     OW20740   4.444   5.172   6.842
 6614SOL    HW120741   4.447   5.239   6.768
 6614SOL    HW220742   4.444   5.080   6.804
 6615SOL     OW20743   1.117   5.765   1.164
 6615SOL    HW120744   1.209   5.725   1.161
 6615SOL    HW220745   1.104   5.811   1.252
 6616SOL     OW20746   4.752   0.454   6.567
 6616SOL    HW120747   4.845   0.479   6.539
 6616SOL    HW220748   4.687   0.490   6.500
 6617SOL     OW20749   4.726   5.224   3.228
 6617SOL    HW120750   4.629   5.199   3.218
 6617SOL    HW220751   4.766   5.175   3.305
 6618SOL     OW20752   1.790   2.245   2.550
 6618SOL    HW120753   1.768   2.158   2.593
 6618SOL    HW220754   1.772   2.320   2.613
 6619SOL     OW20755   5.220   0.430   2.873
 6619SOL    HW120756   5.302   0.406   2.926
 6619SOL    HW220757   5.205   0.361   2.802
 6620SOL     OW20758   1.685   2.722   5.326
 6620SOL    HW120759   1.671   2.635   5.374
 6620SOL    HW220760   1.782   2.736   5.308
 6621SOL     OW20761   3.257   3.267   6.201
 6621SOL    HW120762   3.306   3.216   6.130
 6621SOL    HW220763   3.307   3.261   6.287
 6622SOL     OW20764   5.957   6.048   2.215
 6622SOL    HW120765   5.969   6.020   2.120
 6622SOL    HW220766   5.968   5.969   2.275
 6623SOL     OW20767   3.690   3.268   4.740
 6623SOL    HW120768   3.756   3.341   4.720
 6623SOL    HW220769   3.692   3.247   4.838
 6624SOL     OW20770   0.116   4.258   5.441
 6624SOL    HW120771   0.183   4.286   5.509
 6624SOL    HW220772   0.162   4.239   5.354
 6625SOL     OW20773   4.907   1.928   4.969
 6625SOL    HW120774   4.853   1.886   5.042
 6625SOL    HW220775   4.919   2.026   4.988
 6626SOL     OW20776   3.736   6.681   5.419
 6626SOL    HW120777   3.679   6.662   5.339
 6626SOL    HW220778   3.829   6.647   5.403
 6627SOL     OW20779   1.846   6.327   5.249
 6627SOL    HW120780   1.825   6.233   5.277
 6627SOL    HW220781   1.917   6.364   5.309
 6628SOL     OW20782   6.331   4.871   4.660
 6628SOL    HW120783   6.236   4.900   4.644
 6628SOL    HW220784   6.331   4.781   4.704
 6629SOL     OW20785   4.791   6.766   6.364
 6629SOL    HW120786   4.776   6.670   6.342
 6629SOL    HW220787   4.776   6.781   6.461
 6630SOL     OW20788   3.567   1.875   1.601
 6630SOL    HW120789   3.640   1.818   1.637
 6630SOL    HW220790   3.579   1.969   1.633
 6631SOL     OW20791   2.337   5.782   4.203
 6631SOL    HW120792   2.427   5.738   4.209
 6631SOL    HW220793   2.278   5.747   4.276
 6632SOL     OW20794   1.054   0.276   0.984
 6632SOL    HW120795   1.052   0.339   0.907
 6632SOL    HW220796   1.135   0.294   1.040
 6633SOL     OW20797   2.058   4.824   6.317
 6633SOL    HW120798   2.010   4.909   6.335
 6633SOL    HW220799   2.125   4.807   6.389
 6634SOL     OW20800   5.025   1.458   4.750
 6634SOL    HW120801   4.935   1.479   4.786
 6634SOL    HW220802   5.090   1.528   4.778
 6635SOL     OW20803   4.624   4.355   2.764
 6635SOL    HW120804   4.623   4.256   2.751
 6635SOL    HW220805   4.572   4.398   2.691
 6636SOL     OW20806   5.177   1.723   6.694
 6636SOL    HW120807   5.148   1.655   6.627
 6636SOL    HW220808   5.099   1.748   6.751
 6637SOL     OW20809   0.732   0.116   6.552
 6637SOL    HW120810   0.775   0.067   6.628
 6637SOL    HW220811   0.644   0.151   6.581
 6638SOL     OW20812   3.232   3.807   3.427
 6638SOL    HW120813   3.230   3.888   3.368
 6638SOL    HW220814   3.203   3.727   3.376
 6639SOL     OW20815   4.765   4.613   6.504
 6639SOL    HW120816   4.841   4.556   6.535
 6639SOL    HW220817   4.702   4.629   6.580
 6640SOL     OW20818   6.681   2.156   4.819
 6640SOL    HW120819   6.658   2.070   4.772
 6640SOL    HW220820   6.600   2.188   4.869
 6641SOL     OW20821   2.836   1.343   6.796
 6641SOL    HW120822   2.799   1.267   6.849
 6641SOL    HW220823   2.846   1.423   6.855
 6642SOL     OW20824   2.204   6.039   6.768
 6642SOL    HW120825   2.139   5.963   6.767
 6642SOL    HW220826   2.268   6.028   6.844
 6643SOL     OW20827   5.278   6.422   0.345
 6643SOL    HW120828   5.363   6.401   0.394
 6643SOL    HW220829   5.301   6.461   0.255
 6644SOL     OW20830   2.744   5.093   1.214
 6644SOL    HW120831   2.663   5.152   1.224
 6644SOL    HW220832   2.762   5.079   1.117
 6645SOL     OW20833   5.747   4.195   0.680
 6645SOL    HW120834   5.841   4.211   0.650
 6645SOL    HW220835   5.721   4.264   0.747
 6646SOL     OW20836   4.377   0.891   5.118
 6646SOL    HW120837   4.413   0.870   5.209
 6646SOL    HW220838   4.336   0.809   5.079
 6647SOL     OW20839   5.002   0.461   1.341
 6647SOL    HW120840   5.017   0.505   1.253
 6647SOL    HW220841   4.978   0.530   1.410
 6648SOL     OW20842   3.495   6.360   3.822
 6648SOL    HW120843   3.501   6.444   3.875
 6648SOL    HW220844   3.530   6.376   3.729
 6649SOL     OW20845   5.954   1.942   6.586
 6649SOL    HW120846   5.935   1.970   6.492
 6649SOL    HW220847   5.964   1.843   6.589
 6650SOL     OW20848   3.684   1.144   5.898
 6650SOL    HW120849   3.748   1.170   5.826
 6650SOL    HW220850   3.723   1.170   5.987
 6651SOL     OW20851   2.357   0.597   6.003
 6651SOL    HW120852   2.450   0.560   6.008
 6651SOL    HW220853   2.312   0.587   6.092
 6652SOL     OW20854   0.220   4.343   6.953
 6652SOL    HW120855   0.306   4.330   7.003
 6652SOL    HW220856   0.150   4.378   0.000
 6653SOL     OW20857   4.006   4.391   1.479
 6653SOL    HW120858   3.963   4.306   1.509
 6653SOL    HW220859   3.958   4.427   1.400
 6654SOL     OW20860   2.107   5.388   1.379
 6654SOL    HW120861   2.051   5.305   1.381
 6654SOL    HW220862   2.089   5.439   1.295
 6655SOL     OW20863   1.076   6.306   3.791
 6655SOL    HW120864   1.095   6.311   3.890
 6655SOL    HW220865   1.151   6.256   3.746
 6656SOL     OW20866   5.683   2.394   3.447
 6656SOL    HW120867   5.717   2.325   3.510
 6656SOL    HW220868   5.595   2.366   3.410
 6657SOL     OW20869   5.236   4.726   6.158
 6657SOL    HW120870   5.240   4.767   6.067
 6657SOL    HW220871   5.267   4.632   6.154
 6658SOL     OW20872   5.094   0.929   4.825
 6658SOL    HW120873   5.060   1.007   4.772
 6658SOL    HW220874   5.102   0.955   4.922
 6659SOL     OW20875   2.556   2.441   0.589
 6659SOL    HW120876   2.543   2.403   0.497
 6659SOL    HW220877   2.472   2.427   0.642
 6660SOL     OW20878   1.564   4.491   1.187
 6660SOL    HW120879   1.531   4.461   1.277
 6660SOL    HW220880   1.531   4.583   1.169
 6661SOL     OW20881   1.625   0.271   5.122
 6661SOL    HW120882   1.695   0.315   5.179
 6661SOL    HW220883   1.536   0.313   5.141
 6662SOL     OW20884   0.912   0.390   0.536
 6662SOL    HW120885   0.965   0.475   0.538
 6662SOL    HW220886   0.972   0.313   0.556
 6663SOL     OW20887   6.463   6.218   4.592
 6663SOL    HW120888   6.522   6.177   4.522
 6663SOL    HW220889   6.503   6.202   4.682
 6664SOL     OW20890   2.252   6.774   0.523
 6664SOL    HW120891   2.225   6.695   0.468
 6664SOL    HW220892   2.323   6.826   0.476
 6665SOL     OW20893   1.868   6.333   4.551
 6665SOL    HW120894   1.892   6.237   4.537
 6665SOL    HW220895   1.811   6.342   4.633
 6666SOL     OW20896   5.891   6.221   6.941
 6666SOL    HW120897   5.913   6.229   6.844
 6666SOL    HW220898   5.814   6.159   6.952
 6667SOL     OW20899   6.525   6.734   6.046
 6667SOL    HW120900   6.456   6.769   5.984
 6667SOL    HW220901   6.601   6.799   6.053
 6668SOL     OW20902   6.976   5.743   1.042
 6668SOL    HW120903   7.007   5.804   1.115
 6668SOL    HW220904   0.039   5.719   0.984
 6669SOL     OW20905   2.646   1.989   2.074
 6669SOL    HW120906   2.652   1.890   2.066
 6669SOL    HW220907   2.585   2.013   2.150
 6670SOL     OW20908   3.250   1.645   5.365
 6670SOL    HW120909   3.231   1.646   5.463
 6670SOL    HW220910   3.170   1.678   5.315
 6671SOL     OW20911   4.171   6.906   0.793
 6671SOL    HW120912   4.104   6.888   0.721
 6671SOL    HW220913   4.221   6.822   0.813
 6672SOL     OW20914   6.655   2.987   6.535
 6672SOL    HW120915   6.666   3.043   6.617
 6672SOL    HW220916   6.588   3.030   6.474
 6673SOL     OW20917   4.851   4.480   4.066
 6673SOL    HW120918   4.823   4.400   4.013
 6673SOL    HW220919   4.771   4.516   4.116
 6674SOL     OW20920   0.901   3.517   6.864
 6674SOL    HW120921   0.831   3.578   6.828
 6674SOL    HW220922   0.954   3.565   6.934
 6675SOL     OW20923   5.865   3.891   0.491
 6675SOL    HW120924   5.941   3.844   0.446
 6675SOL    HW220925   5.820   3.953   0.426
 6676SOL     OW20926   0.734   3.748   5.466
 6676SOL    HW120927   0.762   3.711   5.377
 6676SOL    HW220928   0.642   3.716   5.488
 6677SOL     OW20929   1.086   1.957   6.175
 6677SOL    HW120930   1.015   1.913   6.230
 6677SOL    HW220931   1.095   1.909   6.088
 6678SOL     OW20932   3.643   3.652   0.043
 6678SOL    HW120933   3.679   3.671   0.134
 6678SOL    HW220934   3.625   3.739   7.011
 6679SOL     OW20935   3.125   0.680   4.302
 6679SOL    HW120936   3.136   0.633   4.215
 6679SOL    HW220937   3.048   0.641   4.352
 6680SOL     OW20938   4.672   6.867   6.640
 6680SOL    HW120939   4.677   6.966   6.641
 6680SOL    HW220940   4.738   6.829   6.706
 6681SOL     OW20941   4.108   5.461   0.982
 6681SOL    HW120942   4.167   5.391   0.941
 6681SOL    HW220943   4.132   5.473   1.078
 6682SOL     OW20944   1.515   4.309   0.996
 6682SOL    HW120945   1.468   4.229   1.032
 6682SOL    HW220946   1.531   4.374   1.071
 6683SOL     OW20947   6.077   3.102   5.370
 6683SOL    HW120948   6.081   3.137   5.276
 6683SOL    HW220949   6.040   3.172   5.430
 6684SOL     OW20950   3.275   6.082   2.106
 6684SOL    HW120951   3.203   6.116   2.167
 6684SOL    HW220952   3.279   6.139   2.024
 6685SOL     OW20953   5.298   2.841   5.858
 6685SOL    HW120954   5.386   2.845   5.905
 6685SOL    HW220955   5.304   2.889   5.771
 6686SOL     OW20956   5.042   5.285   4.152
 6686SOL    HW120957   5.038   5.340   4.235
 6686SOL    HW220958   5.082   5.195   4.173
 6687SOL     OW20959   0.707   3.240   1.232
 6687SOL    HW120960   0.615   3.258   1.266
 6687SOL    HW220961   0.758   3.187   1.300
 6688SOL     OW20962   6.018   4.404   1.400
 6688SOL    HW120963   5.927   4.365   1.383
 6688SOL    HW220964   6.087   4.350   1.353
 6689SOL     OW20965   3.933   3.526   6.595
 6689SOL    HW120966   4.010   3.571   6.550
 6689SOL    HW220967   3.913   3.440   6.547
 6690SOL     OW20968   0.199   0.673   1.167
 6690SOL    HW120969   0.189   0.584   1.212
 6690SOL    HW220970   0.208   0.745   1.237
 6691SOL     OW20971   2.782   0.217   1.895
 6691SOL    HW120972   2.803   0.297   1.839
 6691SOL    HW220973   2.859   0.195   1.954
 6692SOL     OW20974   4.079   3.499   3.991
 6692SOL    HW120975   4.011   3.571   4.005
 6692SOL    HW220976   4.068   3.428   4.060
 6693SOL     OW20977   3.515   2.005   5.371
 6693SOL    HW120978   3.540   2.039   5.462
 6693SOL    HW220979   3.485   2.081   5.314
 6694SOL     OW20980   4.231   5.542   1.278
 6694SOL    HW120981   4.235   5.493   1.366
 6694SOL    HW220982   4.257   5.637   1.292
 6695SOL     OW20983   3.073   1.979   6.927
 6695SOL    HW120984   3.151   2.041   6.938
 6695SOL    HW220985   3.049   1.941   0.001
 6696SOL     OW20986   3.221   3.036   4.685
 6696SOL    HW120987   3.288   2.974   4.644
 6696SOL    HW220988   3.227   3.031   4.784
 6697SOL     OW20989   4.445   2.130   3.025
 6697SOL    HW120990   4.354   2.104   2.994
 6697SOL    HW220991   4.457   2.229   3.015
 6698SOL     OW20992   3.240   1.995   0.465
 6698SOL    HW120993   3.174   2.065   0.494
 6698SOL    HW220994   3.294   1.965   0.544
 6699SOL     OW20995   2.695   5.617   5.761
 6699SOL    HW120996   2.748   5.534   5.776
 6699SOL    HW220997   2.742   5.676   5.695
 6700SOL     OW20998   0.520   0.904   1.197
 6700SOL    HW120999   0.447   0.909   1.128
 6700SOL    HW221000   0.573   0.988   1.195
 6701SOL     OW21001   5.818   5.306   1.781
 6701SOL    HW121002   5.886   5.347   1.721
 6701SOL    HW221003   5.817   5.354   1.869
 6702SOL     OW21004   2.854   2.149   1.459
 6702SOL    HW121005   2.922   2.183   1.524
 6702SOL    HW221006   2.885   2.167   1.365
 6703SOL     OW21007   5.911   0.816   0.459
 6703SOL    HW121008   5.895   0.727   0.417
 6703SOL    HW221009   5.928   0.884   0.387
 6704SOL     OW21010   3.814   1.638   3.183
 6704SOL    HW121011   3.913   1.653   3.184
 6704SOL    HW221012   3.788   1.583   3.263
 6705SOL     OW21013   6.306   3.889   1.537
 6705SOL    HW121014   6.374   3.815   1.532
 6705SOL    HW221015   6.339   3.961   1.598
 6706SOL     OW21016   1.752   4.694   1.495
 6706SOL    HW121017   1.753   4.793   1.509
 6706SOL    HW221018   1.662   4.658   1.517
 6707SOL     OW21019   6.195   6.507   3.424
 6707SOL    HW121020   6.106   6.542   3.455
 6707SOL    HW221021   6.181   6.445   3.347
 6708SOL     OW21022   6.707   4.502   0.866
 6708SOL    HW121023   6.623   4.450   0.850
 6708SOL    HW221024   6.750   4.523   0.777
 6709SOL     OW21025   2.195   6.607   2.358
 6709SOL    HW121026   2.177   6.526   2.415
 6709SOL    HW221027   2.149   6.596   2.270
 6710SOL     OW21028   4.028   1.429   6.355
 6710SOL    HW121029   4.019   1.527   6.376
 6710SOL    HW221030   4.042   1.417   6.257
 6711SOL     OW21031   4.842   6.308   5.796
 6711SOL    HW121032   4.871   6.238   5.861
 6711SOL    HW221033   4.893   6.392   5.813
 6712SOL     OW21034   5.418   4.152   0.411
 6712SOL    HW121035   5.445   4.117   0.501
 6712SOL    HW221036   5.430   4.080   0.342
 6713SOL     OW21037   2.088   0.281   2.715
 6713SOL    HW121038   2.099   0.181   2.708
 6713SOL    HW221039   2.139   0.325   2.641
 6714SOL     OW21040   6.507   1.064   5.999
 6714SOL    HW121041   6.527   1.027   5.909
 6714SOL    HW221042   6.496   0.989   6.064
 6715SOL     OW21043   0.509   0.271   0.587
 6715SOL    HW121044   0.566   0.354   0.592
 6715SOL    HW221045   0.493   0.237   0.679
 6716SOL     OW21046   0.462   5.439   2.049
 6716SOL    HW121047   0.447   5.514   2.114
 6716SOL    HW221048   0.528   5.375   2.087
 6717SOL     OW21049   3.613   2.583   6.670
 6717SOL    HW121050   3.597   2.651   6.742
 6717SOL    HW221051   3.702   2.600   6.627
 6718SOL     OW21052   5.292   0.922   1.075
 6718SOL    HW121053   5.328   0.960   0.990
 6718SOL    HW221054   5.359   0.936   1.148
 6719SOL     OW21055   2.971   6.455   6.800
 6719SOL    HW121056   2.938   6.387   6.866
 6719SOL    HW221057   2.996   6.538   6.849
 6720SOL     OW21058   1.916   0.567   4.534
 6720SOL    HW121059   1.979   0.644   4.526
 6720SOL    HW221060   1.882   0.542   4.443
 6721SOL     OW21061   6.969   6.418   0.370
 6721SOL    HW121062   6.878   6.382   0.352
 6721SOL    HW221063   7.003   6.466   0.290
 6722SOL     OW21064   6.562   2.992   1.804
 6722SOL    HW121065   6.642   3.027   1.754
 6722SOL    HW221066   6.491   2.965   1.739
 6723SOL     OW21067   2.029   6.586   4.601
 6723SOL    HW121068   2.010   6.488   4.605
 6723SOL    HW221069   1.947   6.637   4.625
 6724SOL     OW21070   2.144   3.657   5.810
 6724SOL    HW121071   2.209   3.599   5.860
 6724SOL    HW221072   2.182   3.680   5.721
 6725SOL     OW21073   0.181   3.716   1.594
 6725SOL    HW121074   0.281   3.719   1.585
 6725SOL    HW221075   0.156   3.674   1.682
 6726SOL     OW21076   0.958   2.648   4.882
 6726SOL    HW121077   0.909   2.610   4.960
 6726SOL    HW221078   0.931   2.743   4.867
 6727SOL     OW21079   0.607   4.871   5.358
 6727SOL    HW121080   0.634   4.855   5.264
 6727SOL    HW221081   0.685   4.853   5.419
 6728SOL     OW21082   3.411   2.059   2.127
 6728SOL    HW121083   3.438   2.073   2.222
 6728SOL    HW221084   3.473   2.109   2.067
 6729SOL     OW21085   6.535   0.544   2.293
 6729SOL    HW121086   6.492   0.493   2.218
 6729SOL    HW221087   6.468   0.565   2.363
 6730SOL     OW21088   1.541   6.836   1.262
 6730SOL    HW121089   1.602   6.761   1.238
 6730SOL    HW221090   1.596   6.918   1.283
 6731SOL     OW21091   1.128   6.382   1.164
 6731SOL    HW121092   1.031   6.402   1.150
 6731SOL    HW221093   1.155   6.306   1.104
 6732SOL     OW21094   5.236   4.447   5.095
 6732SOL    HW121095   5.154   4.416   5.143
 6732SOL    HW221096   5.313   4.450   5.159
 6733SOL     OW21097   3.640   5.446   6.208
 6733SOL    HW121098   3.639   5.545   6.222
 6733SOL    HW221099   3.560   5.420   6.153
 6734SOL     OW21100   5.822   2.425   4.077
 6734SOL    HW121101   5.765   2.423   3.995
 6734SOL    HW221102   5.918   2.413   4.052
 6735SOL     OW21103   6.827   4.205   4.925
 6735SOL    HW121104   6.812   4.288   4.872
 6735SOL    HW221105   6.875   4.137   4.869
 6736SOL     OW21106   3.239   3.904   0.247
 6736SOL    HW121107   3.148   3.879   0.282
 6736SOL    HW221108   3.238   3.902   0.147
 6737SOL     OW21109   1.451   2.589   0.984
 6737SOL    HW121110   1.468   2.545   1.072
 6737SOL    HW221111   1.504   2.543   0.913
 6738SOL     OW21112   1.449   5.895   3.390
 6738SOL    HW121113   1.354   5.873   3.412
 6738SOL    HW221114   1.463   5.887   3.292
 6739SOL     OW21115   4.390   5.884   4.517
 6739SOL    HW121116   4.384   5.791   4.481
 6739SOL    HW221117   4.465   5.932   4.471
 6740SOL     OW21118   0.656   0.026   5.103
 6740SOL    HW121119   0.609   6.984   5.036
 6740SOL    HW221120   0.754   0.027   5.083
 6741SOL     OW21121   4.334   1.811   5.026
 6741SOL    HW121122   4.424   1.847   5.000
 6741SOL    HW221123   4.316   1.835   5.122
 6742SOL     OW21124   5.624   6.082   2.729
 6742SOL    HW121125   5.629   6.174   2.768
 6742SOL    HW221126   5.665   6.016   2.792
 6743SOL     OW21127   4.034   4.748   6.608
 6743SOL    HW121128   3.996   4.786   6.692
 6743SOL    HW221129   4.008   4.806   6.531
 6744SOL     OW21130   6.177   4.199   5.911
 6744SOL    HW121131   6.184   4.298   5.917
 6744SOL    HW221132   6.130   4.164   5.992
 6745SOL     OW21133   0.132   6.713   3.698
 6745SOL    HW121134   0.191   6.713   3.617
 6745SOL    HW221135   0.179   6.760   3.773
 6746SOL     OW21136   1.000   0.961   3.552
 6746SOL    HW121137   0.953   1.031   3.605
 6746SOL    HW221138   1.099   0.969   3.567
 6747SOL     OW21139   5.436   1.397   4.810
 6747SOL    HW121140   5.406   1.386   4.905
 6747SOL    HW221141   5.397   1.481   4.772
 6748SOL     OW21142   3.154   1.750   3.929
 6748SOL    HW121143   3.237   1.698   3.909
 6748SOL    HW221144   3.179   1.845   3.950
 6749SOL     OW21145   3.711   4.914   0.481
 6749SOL    HW121146   3.778   4.846   0.513
 6749SOL    HW221147   3.620   4.889   0.514
 6750SOL     OW21148   3.445   1.797   4.610
 6750SOL    HW121149   3.376   1.790   4.538
 6750SOL    HW221150   3.415   1.863   4.679
 6751SOL     OW21151   4.718   6.784   3.122
 6751SOL    HW121152   4.721   6.881   3.146
 6751SOL    HW221153   4.623   6.755   3.113
 6752SOL     OW21154   1.430   1.035   3.087
 6752SOL    HW121155   1.443   1.077   3.176
 6752SOL    HW221156   1.495   1.074   3.021
 6753SOL     OW21157   2.999   0.614   6.435
 6753SOL    HW121158   2.985   0.698   6.488
 6753SOL    HW221159   3.074   0.562   6.476
 6754SOL     OW21160   6.878   1.929   0.998
 6754SOL    HW121161   6.929   2.003   1.041
 6754SOL    HW221162   6.839   1.870   1.069
 6755SOL     OW21163   3.941   0.781   2.482
 6755SOL    HW121164   4.023   0.837   2.480
 6755SOL    HW221165   3.937   0.724   2.401
 6756SOL     OW21166   3.733   5.971   5.308
 6756SOL    HW121167   3.677   5.966   5.225
 6756SOL    HW221168   3.741   6.066   5.337
 6757SOL     OW21169   4.113   2.057   0.709
 6757SOL    HW121170   4.072   2.126   0.770
 6757SOL    HW221171   4.208   2.081   0.690
 6758SOL     OW21172   6.239   1.809   2.371
 6758SOL    HW121173   6.199   1.727   2.328
 6758SOL    HW221174   6.260   1.876   2.300
 6759SOL     OW21175   1.179   4.141   4.406
 6759SOL    HW121176   1.258   4.186   4.447
 6759SOL    HW221177   1.202   4.046   4.385
 6760SOL     OW21178   6.600   4.021   2.463
 6760SOL    HW121179   6.574   4.030   2.367
 6760SOL    HW221180   6.581   3.928   2.495
 6761SOL     OW21181   6.538   2.769   5.507
 6761SOL    HW121182   6.564   2.675   5.482
 6761SOL    HW221183   6.614   2.812   5.556
 6762SOL     OW21184   0.960   4.946   5.301
 6762SOL    HW121185   0.967   4.984   5.209
 6762SOL    HW221186   0.957   4.846   5.296
 6763SOL     OW21187   0.395   5.291   3.635
 6763SOL    HW121188   0.356   5.296   3.727
 6763SOL    HW221189   0.324   5.263   3.570
 6764SOL     OW21190   1.420   5.509   1.126
 6764SOL    HW121191   1.412   5.456   1.041
 6764SOL    HW221192   1.436   5.605   1.104
 6765SOL     OW21193   5.435   4.658   3.848
 6765SOL    HW121194   5.405   4.621   3.760
 6765SOL    HW221195   5.443   4.584   3.915
 6766SOL     OW21196   5.060   6.753   5.999
 6766SOL    HW121197   5.139   6.770   6.059
 6766SOL    HW221198   5.016   6.840   5.977
 6767SOL     OW21199   2.227   1.576   1.048
 6767SOL    HW121200   2.286   1.505   1.085
 6767SOL    HW221201   2.272   1.665   1.060
 6768SOL     OW21202   1.540   6.563   4.310
 6768SOL    HW121203   1.519   6.631   4.240
 6768SOL    HW221204   1.630   6.583   4.349
 6769SOL     OW21205   2.693   0.515   6.177
 6769SOL    HW121206   2.698   0.419   6.205
 6769SOL    HW221207   2.677   0.520   6.078
 6770SOL     OW21208   5.470   1.604   3.489
 6770SOL    HW121209   5.406   1.586   3.415
 6770SOL    HW221210   5.557   1.635   3.451
 6771SOL     OW21211   3.783   1.478   2.607
 6771SOL    HW121212   3.865   1.527   2.577
 6771SOL    HW221213   3.809   1.390   2.647
 6772SOL     OW21214   4.517   2.499   2.578
 6772SOL    HW121215   4.496   2.435   2.504
 6772SOL    HW221216   4.443   2.498   2.645
 6773SOL     OW21217   0.207   5.948   1.997
 6773SOL    HW121218   0.146   6.002   1.938
 6773SOL    HW221219   0.212   5.854   1.963
 6774SOL     OW21220   1.196   3.920   5.315
 6774SOL    HW121221   1.229   4.008   5.282
 6774SOL    HW221222   1.205   3.852   5.242
 6775SOL     OW21223   2.800   2.258   2.385
 6775SOL    HW121224   2.842   2.214   2.305
 6775SOL    HW221225   2.809   2.358   2.377
 6776SOL     OW21226   4.586   3.322   7.010
 6776SOL    HW121227   4.511   3.264   6.978
 6776SOL    HW221228   4.670   3.299   6.961
 6777SOL     OW21229   4.965   4.551   0.725
 6777SOL    HW121230   5.026   4.520   0.652
 6777SOL    HW221231   4.919   4.635   0.696
 6778SOL     OW21232   6.771   5.606   2.001
 6778SOL    HW121233   6.821   5.664   2.065
 6778SOL    HW221234   6.814   5.609   1.911
 6779SOL     OW21235   5.485   5.951   5.879
 6779SOL    HW121236   5.550   5.923   5.807
 6779SOL    HW221237   5.537   5.982   5.959
 6780SOL     OW21238   1.697   2.524   2.298
 6780SOL    HW121239   1.600   2.538   2.279
 6780SOL    HW221240   1.713   2.539   2.396
 6781SOL     OW21241   6.429   2.277   4.076
 6781SOL    HW121242   6.503   2.341   4.094
 6781SOL    HW221243   6.372   2.266   4.158
 6782SOL     OW21244   1.014   0.800   3.058
 6782SOL    HW121245   0.987   0.794   3.154
 6782SOL    HW221246   0.941   0.843   3.005
 6783SOL     OW21247   6.671   1.321   5.855
 6783SOL    HW121248   6.614   1.252   5.900
 6783SOL    HW221249   6.762   1.283   5.837
 6784SOL     OW21250   1.761   3.325   0.869
 6784SOL    HW121251   1.768   3.304   0.967
 6784SOL    HW221252   1.853   3.329   0.830
 6785SOL     OW21253   5.951   5.667   4.821
 6785SOL    HW121254   5.901   5.710   4.896
 6785SOL    HW221255   6.029   5.723   4.796
 6786SOL     OW21256   1.730   1.942   0.572
 6786SOL    HW121257   1.811   1.945   0.513
 6786SOL    HW221258   1.759   1.941   0.668
 6787SOL     OW21259   2.733   2.538   0.297
 6787SOL    HW121260   2.668   2.611   0.320
 6787SOL    HW221261   2.701   2.489   0.216
 6788SOL     OW21262   1.474   4.366   1.425
 6788SOL    HW121263   1.493   4.290   1.486
 6788SOL    HW221264   1.378   4.364   1.397
 6789SOL     OW21265   0.991   5.350   3.406
 6789SOL    HW121266   0.985   5.413   3.329
 6789SOL    HW221267   0.949   5.262   3.381
 6790SOL     OW21268   0.762   3.714   0.794
 6790SOL    HW121269   0.849   3.725   0.745
 6790SOL    HW221270   0.768   3.636   0.856
 6791SOL     OW21271   3.690   1.933   2.117
 6791SOL    HW121272   3.669   2.021   2.075
 6791SOL    HW221273   3.607   1.877   2.120
 6792SOL     OW21274   5.554   6.960   4.368
 6792SOL    HW121275   5.630   6.896   4.380
 6792SOL    HW221276   5.505   6.939   4.284
 6793SOL     OW21277   1.686   1.286   0.211
 6793SOL    HW121278   1.779   1.321   0.222
 6793SOL    HW221279   1.648   1.319   0.125
 6794SOL     OW21280   4.707   1.308   5.361
 6794SOL    HW121281   4.711   1.214   5.328
 6794SOL    HW221282   4.692   1.307   5.460
 6795SOL     OW21283   1.452   6.485   1.137
 6795SOL    HW121284   1.411   6.570   1.101
 6795SOL    HW221285   1.379   6.426   1.173
 6796SOL     OW21286   5.646   1.227   3.251
 6796SOL    HW121287   5.555   1.259   3.224
 6796SOL    HW221288   5.647   1.212   3.350
 6797SOL     OW21289   6.749   2.048   1.704
 6797SOL    HW121290   6.738   1.959   1.747
 6797SOL    HW221291   6.753   2.119   1.775
 6798SOL     OW21292   6.385   6.222   1.737
 6798SOL    HW121293   6.402   6.188   1.829
 6798SOL    HW221294   6.437   6.167   1.671
 6799SOL     OW21295   7.014   0.583   2.267
 6799SOL    HW121296   0.081   0.547   2.224
 6799SOL    HW221297   7.010   0.682   2.254
 6800SOL     OW21298   2.264   2.491   2.213
 6800SOL    HW121299   2.230   2.414   2.159
 6800SOL    HW221300   2.312   2.555   2.153
 6801SOL     OW21301   0.995   0.053   3.115
 6801SOL    HW121302   0.955   0.140   3.144
 6801SOL    HW221303   1.006   7.009   3.194
 6802SOL     OW21304   3.638   6.198   1.569
 6802SOL    HW121305   3.621   6.132   1.495
 6802SOL    HW221306   3.720   6.251   1.548
 6803SOL     OW21307   3.980   3.883   5.736
 6803SOL    HW121308   3.959   3.785   5.729
 6803SOL    HW221309   4.041   3.899   5.814
 6804SOL     OW21310   3.605   5.152   3.696
 6804SOL    HW121311   3.544   5.077   3.720
 6804SOL    HW221312   3.696   5.133   3.731
 6805SOL     OW21313   0.414   4.978   6.629
 6805SOL    HW121314   0.341   4.993   6.562
 6805SOL    HW221315   0.402   4.888   6.671
 6806SOL     OW21316   6.545   1.130   2.930
 6806SOL    HW121317   6.558   1.086   3.019
 6806SOL    HW221318   6.626   1.115   2.873
 6807SOL     OW21319   2.984   3.078   1.372
 6807SOL    HW121320   3.007   3.172   1.398
 6807SOL    HW221321   3.014   3.061   1.278
 6808SOL     OW21322   6.571   1.816   6.260
 6808SOL    HW121323   6.476   1.788   6.245
 6808SOL    HW221324   6.587   1.905   6.217
 6809SOL     OW21325   0.724   3.203   0.957
 6809SOL    HW121326   0.708   3.194   1.055
 6809SOL    HW221327   0.808   3.156   0.932
 6810SOL     OW21328   2.134   1.277   2.133
 6810SOL    HW121329   2.233   1.273   2.128
 6810SOL    HW221330   2.095   1.239   2.049
 6811SOL     OW21331   5.562   4.168   1.717
 6811SOL    HW121332   5.540   4.125   1.629
 6811SOL    HW221333   5.478   4.179   1.770
 6812SOL     OW21334   3.241   3.389   4.531
 6812SOL    HW121335   3.331   3.346   4.532
 6812SOL    HW221336   3.229   3.443   4.614
 6813SOL     OW21337   5.676   3.923   2.808
 6813SOL    HW121338   5.767   3.883   2.823
 6813SOL    HW221339   5.606   3.858   2.836
 6814SOL     OW21340   3.986   2.152   6.134
 6814SOL    HW121341   3.989   2.119   6.040
 6814SOL    HW221342   4.006   2.250   6.136
 6815SOL     OW21343   3.479   6.018   0.544
 6815SOL    HW121344   3.533   5.979   0.618
 6815SOL    HW221345   3.398   5.961   0.529
 6816SOL     OW21346   6.523   0.896   6.204
 6816SOL    HW121347   6.592   0.867   6.270
 6816SOL    HW221348   6.486   0.816   6.157
 6817SOL     OW21349   2.389   2.463   2.681
 6817SOL    HW121350   2.305   2.416   2.708
 6817SOL    HW221351   2.366   2.540   2.620
 6818SOL     OW21352   2.435   6.319   1.051
 6818SOL    HW121353   2.496   6.354   1.122
 6818SOL    HW221354   2.388   6.237   1.083
 6819SOL     OW21355   3.676   1.453   3.350
 6819SOL    HW121356   3.614   1.374   3.347
 6819SOL    HW221357   3.731   1.448   3.434
 6820SOL     OW21358   1.871   6.340   1.363
 6820SOL    HW121359   1.802   6.290   1.312
 6820SOL    HW221360   1.958   6.290   1.359
 6821SOL     OW21361   4.048   2.177   5.192
 6821SOL    HW121362   3.964   2.225   5.218
 6821SOL    HW221363   4.028   2.080   5.178
 6822SOL     OW21364   5.743   2.369   5.708
 6822SOL    HW121365   5.667   2.382   5.644
 6822SOL    HW221366   5.776   2.275   5.703
 6823SOL     OW21367   5.295   3.854   5.673
 6823SOL    HW121368   5.310   3.768   5.624
 6823SOL    HW221369   5.331   3.930   5.620
 6824SOL     OW21370   1.354   1.641   0.060
 6824SOL    HW121371   1.290   1.568   0.038
 6824SOL    HW221372   1.321   1.727   0.019
 6825SOL     OW21373   5.446   0.257   0.398
 6825SOL    HW121374   5.457   0.332   0.334
 6825SOL    HW221375   5.373   0.196   0.366
 6826SOL     OW21376   2.018   3.341   3.325
 6826SOL    HW121377   1.959   3.419   3.302
 6826SOL    HW221378   2.051   3.299   3.241
 6827SOL     OW21379   4.781   5.024   6.027
 6827SOL    HW121380   4.848   5.033   6.101
 6827SOL    HW221381   4.700   5.080   6.048
 6828SOL     OW21382   3.355   1.137   1.813
 6828SOL    HW121383   3.428   1.083   1.770
 6828SOL    HW221384   3.320   1.088   1.892
 6829SOL     OW21385   4.836   5.974   4.573
 6829SOL    HW121386   4.753   5.972   4.517
 6829SOL    HW221387   4.827   6.046   4.643
 6830SOL     OW21388   4.701   0.555   3.274
 6830SOL    HW121389   4.655   0.494   3.209
 6830SOL    HW221390   4.649   0.557   3.360
 6831SOL     OW21391   1.003   0.693   6.742
 6831SOL    HW121392   1.091   0.709   6.697
 6831SOL    HW221393   0.933   0.673   6.674
 6832SOL     OW21394   2.342   4.181   0.696
 6832SOL    HW121395   2.339   4.273   0.657
 6832SOL    HW221396   2.284   4.120   0.642
 6833SOL     OW21397   3.307   4.764   6.208
 6833SOL    HW121398   3.217   4.769   6.165
 6833SOL    HW221399   3.364   4.839   6.173
 6834SOL     OW21400   5.271   6.966   0.540
 6834SOL    HW121401   5.240   6.898   0.473
 6834SOL    HW221402   5.259   6.930   0.632
 6835SOL     OW21403   4.459   0.465   4.701
 6835SOL    HW121404   4.557   0.462   4.719
 6835SOL    HW221405   4.429   0.377   4.663
 6836SOL     OW21406   3.073   4.605   0.539
 6836SOL    HW121407   3.078   4.563   0.449
 6836SOL    HW221408   3.041   4.699   0.530
 6837SOL     OW21409   0.654   1.952   2.914
 6837SOL    HW121410   0.670   2.014   2.992
 6837SOL    HW221411   0.596   1.876   2.944
 6838SOL     OW21412   3.571   6.375   0.359
 6838SOL    HW121413   3.655   6.354   0.309
 6838SOL    HW221414   3.518   6.291   0.372
 6839SOL     OW21415   5.581   1.436   5.876
 6839SOL    HW121416   5.604   1.415   5.971
 6839SOL    HW221417   5.502   1.497   5.874
 6840SOL     OW21418   3.223   0.549   4.066
 6840SOL    HW121419   3.302   0.505   4.108
 6840SOL    HW221420   3.253   0.603   3.988
 6841SOL     OW21421   4.216   4.713   0.480
 6841SOL    HW121422   4.313   4.692   0.466
 6841SOL    HW221423   4.162   4.661   0.414
 6842SOL     OW21424   2.645   3.623   0.824
 6842SOL    HW121425   2.733   3.584   0.797
 6842SOL    HW221426   2.645   3.721   0.804
 6843SOL     OW21427   6.230   6.453   1.756
 6843SOL    HW121428   6.270   6.367   1.724
 6843SOL    HW221429   6.157   6.481   1.693
 6844SOL     OW21430   4.755   0.208   3.654
 6844SOL    HW121431   4.730   0.179   3.561
 6844SOL    HW221432   4.699   0.157   3.720
 6845SOL     OW21433   6.142   4.990   3.939
 6845SOL    HW121434   6.231   4.977   3.983
 6845SOL    HW221435   6.108   5.082   3.960
 6846SOL     OW21436   3.962   2.845   0.444
 6846SOL    HW121437   4.051   2.816   0.409
 6846SOL    HW221438   3.949   2.943   0.426
 6847SOL     OW21439   0.169   4.331   3.514
 6847SOL    HW121440   0.141   4.380   3.596
 6847SOL    HW221441   0.098   4.340   3.444
 6848SOL     OW21442   4.555   6.759   3.713
 6848SOL    HW121443   4.455   6.759   3.711
 6848SOL    HW221444   4.586   6.701   3.788
 6849SOL     OW21445   4.190   4.886   4.824
 6849SOL    HW121446   4.153   4.853   4.737
 6849SOL    HW221447   4.196   4.986   4.822
 6850SOL     OW21448   6.230   4.488   2.022
 6850SOL    HW121449   6.177   4.507   1.940
 6850SOL    HW221450   6.262   4.574   2.062
 6851SOL     OW21451   0.821   2.429   2.977
 6851SOL    HW121452   0.737   2.437   2.924
 6851SOL    HW221453   0.798   2.422   3.075
 6852SOL     OW21454   2.607   5.040   0.725
 6852SOL    HW121455   2.639   5.006   0.637
 6852SOL    HW221456   2.507   5.035   0.727
 6853SOL     OW21457   6.535   3.915   0.396
 6853SOL    HW121458   6.590   3.833   0.380
 6853SOL    HW221459   6.443   3.901   0.359
 6854SOL     OW21460   4.690   2.045   6.286
 6854SOL    HW121461   4.744   2.041   6.370
 6854SOL    HW221462   4.632   2.126   6.287
 6855SOL     OW21463   3.855   5.486   3.389
 6855SOL    HW121464   3.833   5.439   3.304
 6855SOL    HW221465   3.807   5.443   3.465
 6856SOL     OW21466   5.579   3.472   5.290
 6856SOL    HW121467   5.576   3.377   5.321
 6856SOL    HW221468   5.504   3.489   5.226
 6857SOL     OW21469   3.428   2.598   0.197
 6857SOL    HW121470   3.339   2.585   0.241
 6857SOL    HW221471   3.500   2.560   0.254
 6858SOL     OW21472   3.921   3.759   3.480
 6858SOL    HW121473   3.853   3.685   3.479
 6858SOL    HW221474   3.947   3.779   3.575
 6859SOL     OW21475   0.304   0.924   1.037
 6859SOL    HW121476   0.219   0.976   1.041
 6859SOL    HW221477   0.284   0.830   1.009
 6860SOL     OW21478   6.929   4.735   1.512
 6860SOL    HW121479   0.004   4.695   1.500
 6860SOL    HW221480   6.932   4.832   1.487
 6861SOL     OW21481   4.364   4.741   0.083
 6861SOL    HW121482   4.297   4.789   0.027
 6861SOL    HW221483   4.375   4.648   0.050
 6862SOL     OW21484   1.777   4.881   5.495
 6862SOL    HW121485   1.875   4.897   5.486
 6862SOL    HW221486   1.747   4.814   5.428
 6863SOL     OW21487   5.767   0.082   5.981
 6863SOL    HW121488   5.795   0.131   6.064
 6863SOL    HW221489   5.733   7.007   6.005
 6864SOL     OW21490   2.725   5.624   4.426
 6864SOL    HW121491   2.744   5.529   4.449
 6864SOL    HW221492   2.676   5.628   4.339
 6865SOL     OW21493   1.395   6.339   3.595
 6865SOL    HW121494   1.427   6.377   3.682
 6865SOL    HW221495   1.448   6.257   3.573
 6866SOL     OW21496   6.275   4.917   3.559
 6866SOL    HW121497   6.283   4.934   3.461
 6866SOL    HW221498   6.349   4.962   3.608
 6867SOL     OW21499   2.479   3.911   1.707
 6867SOL    HW121500   2.575   3.886   1.695
 6867SOL    HW221501   2.454   3.980   1.639
 6868SOL     OW21502   1.138   5.412   6.079
 6868SOL    HW121503   1.084   5.334   6.048
 6868SOL    HW221504   1.178   5.458   6.000
 6869SOL     OW21505   6.027   1.402   5.619
 6869SOL    HW121506   5.995   1.417   5.525
 6869SOL    HW221507   5.964   1.446   5.683
 6870SOL     OW21508   0.380   5.147   1.858
 6870SOL    HW121509   0.404   5.068   1.802
 6870SOL    HW221510   0.433   5.226   1.828
 6871SOL     OW21511   6.065   4.574   3.475
 6871SOL    HW121512   6.123   4.530   3.407
 6871SOL    HW221513   6.094   4.546   3.567
 6872SOL     OW21514   0.221   2.548   1.414
 6872SOL    HW121515   0.301   2.590   1.371
 6872SOL    HW221516   0.182   2.480   1.352
 6873SOL     OW21517   6.689   3.746   5.240
 6873SOL    HW121518   6.630   3.733   5.319
 6873SOL    HW221519   6.759   3.675   5.238
 6874SOL     OW21520   0.349   5.797   2.790
 6874SOL    HW121521   0.291   5.871   2.824
 6874SOL    HW221522   0.382   5.819   2.698
 6875SOL     OW21523   2.568   2.560   2.903
 6875SOL    HW121524   2.542   2.656   2.896
 6875SOL    HW221525   2.559   2.517   2.813
 6876SOL     OW21526   3.359   6.816   3.635
 6876SOL    HW121527   3.321   6.899   3.675
 6876SOL    HW221528   3.327   6.737   3.688
 6877SOL     OW21529   2.828   4.012   0.984
 6877SOL    HW121530   2.908   4.005   0.924
 6877SOL    HW221531   2.819   4.107   1.016
 6878SOL     OW21532   3.307   1.065   5.164
 6878SOL    HW121533   3.351   1.103   5.245
 6878SOL    HW221534   3.347   1.105   5.082
 6879SOL     OW21535   0.810   2.345   1.099
 6879SOL    HW121536   0.748   2.274   1.066
 6879SOL    HW221537   0.869   2.309   1.171
 6880SOL     OW21538   1.550   4.857   4.419
 6880SOL    HW121539   1.649   4.869   4.418
 6880SOL    HW221540   1.523   4.811   4.503
 6881SOL     OW21541   1.677   4.226   0.565
 6881SOL    HW121542   1.760   4.279   0.585
 6881SOL    HW221543   1.651   4.172   0.646
 6882SOL     OW21544   2.734   0.521   0.053
 6882SOL    HW121545   2.685   0.490   6.987
 6882SOL    HW221546   2.775   0.610   0.035
 6883SOL     OW21547   4.877   1.199   0.484
 6883SOL    HW121548   4.859   1.114   0.533
 6883SOL    HW221549   4.811   1.209   0.409
 6884SOL     OW21550   2.155   4.329   4.093
 6884SOL    HW121551   2.124   4.275   4.172
 6884SOL    HW221552   2.253   4.317   4.081
 6885SOL     OW21553   3.949   5.074   3.905
 6885SOL    HW121554   4.004   5.127   3.840
 6885SOL    HW221555   3.963   4.976   3.889
 6886SOL     OW21556   0.038   1.067   4.241
 6886SOL    HW121557   0.005   1.027   4.327
 6886SOL    HW221558   6.980   1.064   4.173
 6887SOL     OW21559   5.148   5.745   6.266
 6887SOL    HW121560   5.076   5.678   6.245
 6887SOL    HW221561   5.124   5.832   6.223
 6888SOL     OW21562   5.300   6.211   6.948
 6888SOL    HW121563   5.272   6.249   6.859
 6888SOL    HW221564   5.251   6.125   6.963
 6889SOL     OW21565   2.246   2.295   5.193
 6889SOL    HW121566   2.245   2.350   5.110
 6889SOL    HW221567   2.202   2.345   5.267
 6890SOL     OW21568   4.731   6.222   1.822
 6890SOL    HW121569   4.775   6.307   1.794
 6890SOL    HW221570   4.633   6.239   1.835
 6891SOL     OW21571   2.109   4.596   3.050
 6891SOL    HW121572   2.021   4.599   3.097
 6891SOL    HW221573   2.155   4.509   3.068
 6892SOL     OW21574   3.175   2.103   3.140
 6892SOL    HW121575   3.092   2.158   3.143
 6892SOL    HW221576   3.171   2.034   3.212
 6893SOL     OW21577   4.170   4.315   6.920
 6893SOL    HW121578   4.237   4.339   6.849
 6893SOL    HW221579   4.194   4.227   6.961
 6894SOL     OW21580   6.547   4.538   1.351
 6894SOL    HW121581   6.455   4.527   1.315
 6894SOL    HW221582   6.574   4.456   1.401
 6895SOL     OW21583   3.301   4.919   0.282
 6895SOL    HW121584   3.345   4.942   0.368
 6895SOL    HW221585   3.339   4.976   0.209
 6896SOL     OW21586   2.534   6.900   3.992
 6896SOL    HW121587   2.438   6.916   3.968
 6896SOL    HW221588   2.578   6.846   3.921
 6897SOL     OW21589   4.893   3.920   5.887
 6897SOL    HW121590   4.886   3.841   5.948
 6897SOL    HW221591   4.884   4.004   5.941
 6898SOL     OW21592   3.366   1.403   1.537
 6898SOL    HW121593   3.452   1.359   1.511
 6898SOL    HW221594   3.289   1.350   1.502
 6899SOL     OW21595   5.404   6.274   1.218
 6899SOL    HW121596   5.409   6.177   1.241
 6899SOL    HW221597   5.465   6.325   1.279
 6900SOL     OW21598   6.216   6.469   5.380
 6900SOL    HW121599   6.119   6.443   5.377
 6900SOL    HW221600   6.271   6.396   5.340
 6901SOL     OW21601   0.070   6.329   6.294
 6901SOL    HW121602   6.990   6.319   6.266
 6901SOL    HW221603   0.114   6.239   6.295
 6902SOL     OW21604   5.598   6.086   6.669
 6902SOL    HW121605   5.560   6.175   6.645
 6902SOL    HW221606   5.605   6.030   6.586
 6903SOL     OW21607   2.850   5.614   4.731
 6903SOL    HW121608   2.774   5.679   4.724
 6903SOL    HW221609   2.818   5.530   4.774
 6904SOL     OW21610   5.545   0.638   4.596
 6904SOL    HW121611   5.489   0.706   4.643
 6904SOL    HW221612   5.492   0.554   4.584
 6905SOL     OW21613   5.891   6.557   6.477
 6905SOL    HW121614   5.957   6.559   6.402
 6905SOL    HW221615   5.940   6.563   6.564
 6906SOL     OW21616   4.266   1.204   4.029
 6906SOL    HW121617   4.226   1.250   3.950
 6906SOL    HW221618   4.269   1.268   4.106
 6907SOL     OW21619   5.206   2.656   1.690
 6907SOL    HW121620   5.124   2.695   1.732
 6907SOL    HW221621   5.286   2.680   1.744
 6908SOL     OW21622   0.935   5.462   6.287
 6908SOL    HW121623   0.996   5.418   6.222
 6908SOL    HW221624   0.940   5.415   6.375
 6909SOL     OW21625   5.188   4.509   1.370
 6909SOL    HW121626   5.153   4.477   1.458
 6909SOL    HW221627   5.146   4.456   1.296
 6910SOL     OW21628   0.041   2.206   3.253
 6910SOL    HW121629   6.960   2.182   3.265
 6910SOL    HW221630   0.063   2.283   3.313
 6911SOL     OW21631   4.391   6.072   3.821
 6911SOL    HW121632   4.350   6.163   3.827
 6911SOL    HW221633   4.491   6.080   3.825
 6912SOL     OW21634   4.072   4.144   6.733
 6912SOL    HW121635   4.034   4.189   6.652
 6912SOL    HW221636   4.088   4.212   6.805
 6913SOL     OW21637   5.129   5.743   4.114
 6913SOL    HW121638   5.042   5.770   4.157
 6913SOL    HW221639   5.164   5.662   4.161
 6914SOL     OW21640   5.815   3.379   4.595
 6914SOL    HW121641   5.850   3.472   4.608
 6914SOL    HW221642   5.874   3.330   4.530
 6915SOL     OW21643   5.974   2.769   2.027
 6915SOL    HW121644   6.018   2.791   1.940
 6915SOL    HW221645   6.012   2.827   2.099
 6916SOL     OW21646   6.344   2.657   0.339
 6916SOL    HW121647   6.438   2.629   0.320
 6916SOL    HW221648   6.294   2.580   0.379
 6917SOL     OW21649   3.526   6.208   1.041
 6917SOL    HW121650   3.530   6.306   1.060
 6917SOL    HW221651   3.595   6.185   0.972
 6918SOL     OW21652   0.288   2.990   4.003
 6918SOL    HW121653   0.301   3.089   4.010
 6918SOL    HW221654   0.241   2.956   4.085
 6919SOL     OW21655   6.868   5.855   3.282
 6919SOL    HW121656   6.800   5.791   3.319
 6919SOL    HW221657   6.956   5.837   3.324
 6920SOL     OW21658   4.176   6.108   5.326
 6920SOL    HW121659   4.240   6.062   5.388
 6920SOL    HW221660   4.112   6.041   5.289
 6921SOL     OW21661   5.553   5.245   3.844
 6921SOL    HW121662   5.559   5.161   3.898
 6921SOL    HW221663   5.469   5.243   3.789
 6922SOL     OW21664   2.036   5.912   5.343
 6922SOL    HW121665   1.996   5.846   5.279
 6922SOL    HW221666   2.040   5.871   5.435
 6923SOL     OW21667   4.741   5.442   3.062
 6923SOL    HW121668   4.756   5.355   3.110
 6923SOL    HW221669   4.801   5.446   2.982
 6924SOL     OW21670   2.583   3.727   6.760
 6924SOL    HW121671   2.534   3.655   6.809
 6924SOL    HW221672   2.604   3.695   6.667
 6925SOL     OW21673   5.005   6.129   4.177
 6925SOL    HW121674   5.044   6.113   4.087
 6925SOL    HW221675   4.970   6.042   4.214
 6926SOL     OW21676   3.427   2.879   0.948
 6926SOL    HW121677   3.523   2.904   0.961
 6926SOL    HW221678   3.368   2.947   0.991
 6927SOL     OW21679   4.109   2.976   6.079
 6927SOL    HW121680   4.128   3.043   6.150
 6927SOL    HW221681   4.092   3.023   5.992
 6928SOL     OW21682   6.122   5.532   0.637
 6928SOL    HW121683   6.029   5.507   0.665
 6928SOL    HW221684   6.140   5.627   0.663
 6929SOL     OW21685   5.792   5.307   1.050
 6929SOL    HW121686   5.733   5.267   0.980
 6929SOL    HW221687   5.739   5.320   1.134
 6930SOL     OW21688   0.459   0.061   2.646
 6930SOL    HW121689   0.521   0.028   2.718
 6930SOL    HW221690   0.512   0.096   2.569
 6931SOL     OW21691   1.915   0.740   2.404
 6931SOL    HW121692   1.981   0.737   2.328
 6931SOL    HW221693   1.959   0.708   2.487
 6932SOL     OW21694   4.413   6.698   0.707
 6932SOL    HW121695   4.493   6.641   0.690
 6932SOL    HW221696   4.331   6.640   0.712
 6933SOL     OW21697   3.428   6.112   4.531
 6933SOL    HW121698   3.397   6.066   4.448
 6933SOL    HW221699   3.418   6.051   4.610
 6934SOL     OW21700   5.324   3.361   6.245
 6934SOL    HW121701   5.342   3.296   6.171
 6934SOL    HW221702   5.289   3.312   6.325
 6935SOL     OW21703   4.870   5.396   2.554
 6935SOL    HW121704   4.790   5.362   2.504
 6935SOL    HW221705   4.881   5.494   2.536
 6936SOL     OW21706   6.067   1.579   3.308
 6936SOL    HW121707   6.073   1.628   3.395
 6936SOL    HW221708   6.013   1.496   3.320
 6937SOL     OW21709   6.855   6.123   6.913
 6937SOL    HW121710   6.864   6.217   6.881
 6937SOL    HW221711   6.769   6.085   6.878
 6938SOL     OW21712   5.177   3.366   5.148
 6938SOL    HW121713   5.117   3.436   5.187
 6938SOL    HW221714   5.172   3.282   5.202
 6939SOL     OW21715   1.475   4.922   1.889
 6939SOL    HW121716   1.401   4.854   1.881
 6939SOL    HW221717   1.516   4.916   1.980
 6940SOL     OW21718   4.158   0.213   6.588
 6940SOL    HW121719   4.210   0.223   6.673
 6940SOL    HW221720   4.221   0.200   6.511
 6941SOL     OW21721   3.613   3.956   1.936
 6941SOL    HW121722   3.705   3.982   1.906
 6941SOL    HW221723   3.554   4.037   1.938
 6942SOL     OW21724   5.502   7.015   1.092
 6942SOL    HW121725   5.503   6.915   1.103
 6942SOL    HW221726   5.567   0.025   1.020
 6943SOL     OW21727   3.889   5.600   0.368
 6943SOL    HW121728   3.822   5.669   0.342
 6943SOL    HW221729   3.960   5.593   0.299
 6944SOL     OW21730   0.650   4.125   6.572
 6944SOL    HW121731   0.559   4.111   6.534
 6944SOL    HW221732   0.706   4.044   6.557
 6945SOL     OW21733   6.154   1.058   6.709
 6945SOL    HW121734   6.091   1.061   6.631
 6945SOL    HW221735   6.205   0.971   6.707
 6946SOL     OW21736   5.486   6.569   0.892
 6946SOL    HW121737   5.526   6.634   0.828
 6946SOL    HW221738   5.468   6.482   0.845
 6947SOL     OW21739   3.189   5.996   6.448
 6947SOL    HW121740   3.098   5.989   6.406
 6947SOL    HW221741   3.237   6.074   6.410
 6948SOL     OW21742   0.222   0.288   0.814
 6948SOL    HW121743   0.297   0.352   0.828
 6948SOL    HW221744   0.143   0.336   0.776
 6949SOL     OW21745   3.984   0.089   2.660
 6949SOL    HW121746   3.965   0.102   2.758
 6949SOL    HW221747   3.898   0.084   2.610
 6950SOL     OW21748   2.088   2.024   5.003
 6950SOL    HW121749   2.057   2.026   4.908
 6950SOL    HW221750   2.028   2.081   5.059
 6951SOL     OW21751   6.721   5.714   6.089
 6951SOL    HW121752   6.780   5.767   6.150
 6951SOL    HW221753   6.728   5.617   6.111
 6952SOL     OW21754   1.115   6.096   3.247
 6952SOL    HW121755   1.020   6.092   3.278
 6952SOL    HW221756   1.120   6.153   3.165
 6953SOL     OW21757   4.540   6.329   0.821
 6953SOL    HW121758   4.616   6.325   0.886
 6953SOL    HW221759   4.557   6.400   0.753
 6954SOL     OW21760   6.729   3.547   3.077
 6954SOL    HW121761   6.793   3.524   3.150
 6954SOL    HW221762   6.641   3.503   3.095
 6955SOL     OW21763   6.131   0.182   2.402
 6955SOL    HW121764   6.086   0.238   2.333
 6955SOL    HW221765   6.137   0.088   2.370
 6956SOL     OW21766   5.742   5.500   3.647
 6956SOL    HW121767   5.705   5.521   3.556
 6956SOL    HW221768   5.730   5.403   3.666
 6957SOL     OW21769   6.521   5.002   0.899
 6957SOL    HW121770   6.448   5.051   0.852
 6957SOL    HW221771   6.596   4.984   0.836
 6958SOL     OW21772   3.451   2.889   4.504
 6958SOL    HW121773   3.502   2.942   4.436
 6958SOL    HW221774   3.435   2.797   4.470
 6959SOL     OW21775   1.876   2.436   4.293
 6959SOL    HW121776   1.777   2.422   4.285
 6959SOL    HW221777   1.922   2.388   4.218
 6960SOL     OW21778   2.531   4.413   1.412
 6960SOL    HW121779   2.538   4.384   1.508
 6960SOL    HW221780   2.578   4.347   1.354
 6961SOL     OW21781   6.043   1.713   3.554
 6961SOL    HW121782   6.010   1.736   3.646
 6961SOL    HW221783   6.065   1.798   3.505
 6962SOL     OW21784   5.154   6.305   1.724
 6962SOL    HW121785   5.056   6.314   1.736
 6962SOL    HW221786   5.181   6.209   1.739
 6963SOL     OW21787   5.214   5.848   0.979
 6963SOL    HW121788   5.152   5.871   1.054
 6963SOL    HW221789   5.183   5.766   0.933
 6964SOL     OW21790   3.336   0.761   5.000
 6964SOL    HW121791   3.362   0.672   4.963
 6964SOL    HW221792   3.414   0.823   4.995
 6965SOL     OW21793   0.832   1.799   0.604
 6965SOL    HW121794   0.922   1.805   0.560
 6965SOL    HW221795   0.763   1.778   0.535
 6966SOL     OW21796   0.352   2.324   3.363
 6966SOL    HW121797   0.362   2.285   3.271
 6966SOL    HW221798   0.363   2.423   3.358
 6967SOL     OW21799   2.420   1.015   5.579
 6967SOL    HW121800   2.503   1.068   5.593
 6967SOL    HW221801   2.440   0.936   5.521
 6968SOL     OW21802   4.082   6.679   2.987
 6968SOL    HW121803   4.009   6.730   3.031
 6968SOL    HW221804   4.044   6.620   2.916
 6969SOL     OW21805   3.692   2.225   0.993
 6969SOL    HW121806   3.704   2.210   1.091
 6969SOL    HW221807   3.630   2.302   0.977
 6970SOL     OW21808   4.162   4.155   5.670
 6970SOL    HW121809   4.100   4.104   5.611
 6970SOL    HW221810   4.135   4.251   5.672
 6971SOL     OW21811   6.709   4.176   2.013
 6971SOL    HW121812   6.773   4.142   1.944
 6971SOL    HW221813   6.690   4.273   1.996
 6972SOL     OW21814   5.184   4.223   3.197
 6972SOL    HW121815   5.262   4.192   3.142
 6972SOL    HW221816   5.121   4.275   3.140
 6973SOL     OW21817   0.887   2.916   4.231
 6973SOL    HW121818   0.805   2.860   4.231
 6973SOL    HW221819   0.950   2.884   4.302
 6974SOL     OW21820   2.893   3.670   2.957
 6974SOL    HW121821   2.892   3.589   3.015
 6974SOL    HW221822   2.952   3.654   2.878
 6975SOL     OW21823   1.824   6.480   6.323
 6975SOL    HW121824   1.906   6.443   6.366
 6975SOL    HW221825   1.743   6.448   6.372
 6976SOL     OW21826   4.881   5.651   5.066
 6976SOL    HW121827   4.898   5.566   5.016
 6976SOL    HW221828   4.795   5.691   5.035
 6977SOL     OW21829   3.947   3.102   1.803
 6977SOL    HW121830   3.896   3.016   1.809
 6977SOL    HW221831   3.958   3.140   1.895
 6978SOL     OW21832   5.754   1.333   1.966
 6978SOL    HW121833   5.731   1.424   2.001
 6978SOL    HW221834   5.707   1.263   2.021
 6979SOL     OW21835   0.779   4.349   1.152
 6979SOL    HW121836   0.706   4.342   1.221
 6979SOL    HW221837   0.744   4.394   1.070
 6980SOL     OW21838   1.771   0.799   3.959
 6980SOL    HW121839   1.678   0.798   3.996
 6980SOL    HW221840   1.795   0.892   3.930
 6981SOL     OW21841   3.634   2.903   5.590
 6981SOL    HW121842   3.697   2.976   5.617
 6981SOL    HW221843   3.647   2.882   5.493
 6982SOL     OW21844   1.418   0.384   5.361
 6982SOL    HW121845   1.360   0.335   5.297
 6982SOL    HW221846   1.362   0.418   5.437
 6983SOL     OW21847   3.414   2.108   3.692
 6983SOL    HW121848   3.423   2.126   3.594
 6983SOL    HW221849   3.319   2.086   3.713
 6984SOL     OW21850   2.244   2.102   3.198
 6984SOL    HW121851   2.318   2.062   3.252
 6984SOL    HW221852   2.279   2.179   3.145
 6985SOL     OW21853   6.075   5.458   1.415
 6985SOL    HW121854   6.171   5.441   1.394
 6985SOL    HW221855   6.019   5.385   1.376
 6986SOL     OW21856   2.321   0.109   5.522
 6986SOL    HW121857   2.287   0.062   5.440
 6986SOL    HW221858   2.334   0.206   5.502
 6987SOL     OW21859   5.894   0.958   6.113
 6987SOL    HW121860   5.948   1.025   6.163
 6987SOL    HW221861   5.902   0.869   6.158
 6988SOL     OW21862   0.563   0.674   5.457
 6988SOL    HW121863   0.650   0.626   5.455
 6988SOL    HW221864   0.552   0.727   5.373
 6989SOL     OW21865   1.026   3.675   3.215
 6989SOL    HW121866   0.979   3.613   3.151
 6989SOL    HW221867   0.959   3.718   3.275
 6990SOL     OW21868   4.764   2.417   1.141
 6990SOL    HW121869   4.775   2.391   1.236
 6990SOL    HW221870   4.689   2.364   1.100
 6991SOL     OW21871   3.996   4.968   2.880
 6991SOL    HW121872   4.013   5.062   2.852
 6991SOL    HW221873   3.909   4.936   2.841
 6992SOL     OW21874   5.263   6.481   6.311
 6992SOL    HW121875   5.316   6.516   6.388
 6992SOL    HW221876   5.268   6.546   6.235
 6993SOL     OW21877   5.033   0.754   2.663
 6993SOL    HW121878   5.008   0.661   2.691
 6993SOL    HW221879   5.118   0.781   2.708
 6994SOL     OW21880   0.103   2.334   4.319
 6994SOL    HW121881   0.192   2.288   4.323
 6994SOL    HW221882   0.041   2.294   4.387
 6995SOL     OW21883   6.944   4.664   6.262
 6995SOL    HW121884   0.002   4.631   6.320
 6995SOL    HW221885   6.982   4.697   6.175
 6996SOL     OW21886   1.122   6.794   0.106
 6996SOL    HW121887   1.077   6.800   0.017
 6996SOL    HW221888   1.143   6.698   0.126
 6997SOL     OW21889   0.083   5.855   5.157
 6997SOL    HW121890   0.064   5.950   5.182
 6997SOL    HW221891   0.059   5.841   5.061
 6998SOL     OW21892   2.057   0.893   1.733
 6998SOL    HW121893   2.108   0.819   1.775
 6998SOL    HW221894   1.964   0.896   1.770
 6999SOL     OW21895   2.657   2.059   6.823
 6999SOL    HW121896   2.580   2.111   6.860
 6999SOL    HW221897   2.635   1.961   6.826
 7000SOL     OW21898   4.760   6.879   0.842
 7000SOL    HW121899   4.663   6.897   0.860
 7000SOL    HW221900   4.809   6.966   0.838
 7001SOL     OW21901   1.481   3.192   5.468
 7001SOL    HW121902   1.482   3.198   5.368
 7001SOL    HW221903   1.389   3.169   5.499
 7002SOL     OW21904   1.732   5.309   3.858
 7002SOL    HW121905   1.750   5.370   3.781
 7002SOL    HW221906   1.660   5.244   3.834
 7003SOL     OW21907   4.035   5.130   0.308
 7003SOL    HW121908   4.050   5.047   0.361
 7003SOL    HW221909   4.011   5.106   0.214
 7004SOL     OW21910   1.484   5.176   2.235
 7004SOL    HW121911   1.427   5.231   2.296
 7004SOL    HW221912   1.449   5.082   2.232
 7005SOL     OW21913   1.497   0.160   0.953
 7005SOL    HW121914   1.532   0.206   0.871
 7005SOL    HW221915   1.454   0.227   1.014
 7006SOL     OW21916   5.255   4.786   4.176
 7006SOL    HW121917   5.295   4.721   4.241
 7006SOL    HW221918   5.187   4.740   4.120
 7007SOL     OW21919   4.159   0.916   3.661
 7007SOL    HW121920   4.184   0.829   3.617
 7007SOL    HW221921   4.240   0.973   3.670
 7008SOL     OW21922   0.325   3.729   4.780
 7008SOL    HW121923   0.364   3.760   4.693
 7008SOL    HW221924   0.270   3.647   4.765
 7009SOL     OW21925   5.710   5.846   2.208
 7009SOL    HW121926   5.626   5.793   2.215
 7009SOL    HW221927   5.771   5.822   2.283
 7010SOL     OW21928   5.356   4.131   3.959
 7010SOL    HW121929   5.420   4.148   4.035
 7010SOL    HW221930   5.310   4.044   3.972
 7011SOL     OW21931   3.058   6.770   6.635
 7011SOL    HW121932   3.050   6.717   6.551
 7011SOL    HW221933   3.011   6.722   6.709
 7012SOL     OW21934   0.096   1.953   1.691
 7012SOL    HW121935   0.152   1.915   1.618
 7012SOL    HW221936   0.152   1.967   1.772
 7013SOL     OW21937   0.385   0.531   0.271
 7013SOL    HW121938   0.374   0.561   0.176
 7013SOL    HW221939   0.475   0.489   0.282
 7014SOL     OW21940   4.202   3.436   0.879
 7014SOL    HW121941   4.230   3.455   0.973
 7014SOL    HW221942   4.219   3.340   0.858
 7015SOL     OW21943   6.492   4.368   1.732
 7015SOL    HW121944   6.430   4.444   1.713
 7015SOL    HW221945   6.444   4.281   1.718
 7016SOL     OW21946   3.230   4.773   1.351
 7016SOL    HW121947   3.234   4.863   1.396
 7016SOL    HW221948   3.312   4.721   1.373
 7017SOL     OW21949   2.115   5.146   2.902
 7017SOL    HW121950   2.156   5.211   2.838
 7017SOL    HW221951   2.050   5.088   2.853
 7018SOL     OW21952   5.693   3.338   3.884
 7018SOL    HW121953   5.745   3.423   3.890
 7018SOL    HW221954   5.709   3.283   3.967
 7019SOL     OW21955   3.829   4.106   0.384
 7019SOL    HW121956   3.822   4.188   0.327
 7019SOL    HW221957   3.873   4.033   0.332
 7020SOL     OW21958   6.656   4.929   6.593
 7020SOL    HW121959   6.703   5.010   6.628
 7020SOL    HW221960   6.717   4.878   6.532
 7021SOL     OW21961   1.371   2.004   5.862
 7021SOL    HW121962   1.395   2.031   5.955
 7021SOL    HW221963   1.308   2.070   5.823
 7022SOL     OW21964   4.697   6.683   5.674
 7022SOL    HW121965   4.695   6.782   5.659
 7022SOL    HW221966   4.657   6.637   5.595
 7023SOL     OW21967   6.612   2.480   3.825
 7023SOL    HW121968   6.691   2.501   3.767
 7023SOL    HW221969   6.643   2.442   3.912
 7024SOL     OW21970   2.965   3.935   5.279
 7024SOL    HW121971   2.871   3.943   5.246
 7024SOL    HW221972   3.005   3.850   5.244
 7025SOL     OW21973   3.162   0.916   0.628
 7025SOL    HW121974   3.133   0.866   0.546
 7025SOL    HW221975   3.234   0.981   0.603
 7026SOL     OW21976   3.232   1.876   2.192
 7026SOL    HW121977   3.293   1.949   2.160
 7026SOL    HW221978   3.150   1.917   2.233
 7027SOL     OW21979   2.544   5.593   4.211
 7027SOL    HW121980   2.573   5.547   4.126
 7027SOL    HW221981   2.518   5.524   4.278
 7028SOL     OW21982   3.198   2.014   4.139
 7028SOL    HW121983   3.207   2.048   4.233
 7028SOL    HW221984   3.158   2.086   4.082
 7029SOL     OW21985   4.986   4.934   5.164
 7029SOL    HW121986   5.048   4.910   5.090
 7029SOL    HW221987   5.019   4.894   5.250
 7030SOL     OW21988   1.303   0.548   4.984
 7030SOL    HW121989   1.291   0.586   5.075
 7030SOL    HW221990   1.227   0.488   4.962
 7031SOL     OW21991   3.495   5.743   5.765
 7031SOL    HW121992   3.475   5.796   5.683
 7031SOL    HW221993   3.594   5.727   5.771
 7032SOL     OW21994   3.690   1.570   3.873
 7032SOL    HW121995   3.756   1.501   3.843
 7032SOL    HW221996   3.738   1.640   3.927
 7033SOL     OW21997   1.541   2.190   3.523
 7033SOL    HW121998   1.466   2.235   3.475
 7033SOL    HW221999   1.542   2.218   3.619
 7034SOL     OW22000   6.562   0.579   3.433
 7034SOL    HW122001   6.466   0.600   3.413
 7034SOL    HW222002   6.578   0.481   3.420
 7035SOL     OW22003   1.337   6.824   0.709
 7035SOL    HW122004   1.355   6.756   0.780
 7035SOL    HW222005   1.301   6.907   0.751
 7036SOL     OW22006   0.006   0.244   2.927
 7036SOL    HW122007   0.071   0.205   2.862
 7036SOL    HW222008   0.038   0.226   3.021
 7037SOL     OW22009   1.670   1.125   6.508
 7037SOL    HW122010   1.761   1.125   6.548
 7037SOL    HW222011   1.671   1.175   6.421
 7038SOL     OW22012   2.376   3.169   5.507
 7038SOL    HW122013   2.432   3.122   5.438
 7038SOL    HW222014   2.305   3.223   5.461
 7039SOL     OW22015   2.220   5.282   2.183
 7039SOL    HW122016   2.131   5.239   2.170
 7039SOL    HW222017   2.268   5.287   2.096
 7040SOL     OW22018   5.673   2.063   5.909
 7040SOL    HW122019   5.695   2.120   5.830
 7040SOL    HW222020   5.574   2.053   5.916
 7041SOL     OW22021   6.080   1.093   1.693
 7041SOL    HW122022   6.178   1.100   1.715
 7041SOL    HW222023   6.057   1.160   1.623
 7042SOL     OW22024   4.497   4.898   5.222
 7042SOL    HW122025   4.416   4.858   5.181
 7042SOL    HW222026   4.558   4.933   5.150
 7043SOL     OW22027   2.416   4.466   2.780
 7043SOL    HW122028   2.422   4.504   2.873
 7043SOL    HW222029   2.386   4.371   2.785
 7044SOL     OW22030   5.537   4.791   4.486
 7044SOL    HW122031   5.620   4.737   4.473
 7044SOL    HW222032   5.458   4.739   4.453
 7045SOL     OW22033   5.002   5.555   3.263
 7045SOL    HW122034   5.002   5.550   3.163
 7045SOL    HW222035   4.918   5.516   3.298
 7046SOL     OW22036   2.911   1.005   3.306
 7046SOL    HW122037   2.899   0.915   3.262
 7046SOL    HW222038   2.823   1.053   3.308
 7047SOL     OW22039   6.236   1.289   2.494
 7047SOL    HW122040   6.140   1.298   2.518
 7047SOL    HW222041   6.292   1.287   2.578
 7048SOL     OW22042   5.269   6.958   3.306
 7048SOL    HW122043   5.235   6.873   3.266
 7048SOL    HW222044   5.197   0.012   3.304
 7049SOL     OW22045   3.471   1.710   0.639
 7049SOL    HW122046   3.486   1.687   0.735
 7049SOL    HW222047   3.557   1.741   0.598
 7050SOL     OW22048   4.308   3.485   1.678
 7050SOL    HW122049   4.272   3.427   1.750
 7050SOL    HW222050   4.406   3.469   1.667
 7051SOL     OW22051   6.157   6.564   0.981
 7051SOL    HW122052   6.248   6.573   1.022
 7051SOL    HW222053   6.094   6.525   1.048
 7052SOL     OW22054   5.708   1.682   3.334
 7052SOL    HW122055   5.754   1.770   3.346
 7052SOL    HW222056   5.729   1.644   3.244
 7053SOL     OW22057   1.759   2.957   5.437
 7053SOL    HW122058   1.697   2.991   5.508
 7053SOL    HW222059   1.718   2.877   5.393
 7054SOL     OW22060   6.731   6.857   0.434
 7054SOL    HW122061   6.817   6.807   0.444
 7054SOL    HW222062   6.746   6.954   0.452
 7055SOL     OW22063   2.923   6.829   6.207
 7055SOL    HW122064   2.876   6.862   6.289
 7055SOL    HW222065   2.870   6.756   6.165
 7056SOL     OW22066   0.365   4.556   1.548
 7056SOL    HW122067   0.403   4.496   1.618
 7056SOL    HW222068   0.266   4.542   1.543
 7057SOL     OW22069   2.565   4.830   4.361
 7057SOL    HW122070   2.497   4.816   4.289
 7057SOL    HW222071   2.657   4.816   4.323
 7058SOL     OW22072   5.467   4.467   5.248
 7058SOL    HW122073   5.492   4.559   5.277
 7058SOL    HW222074   5.526   4.401   5.296
 7059SOL     OW22075   0.582   1.527   3.739
 7059SOL    HW122076   0.648   1.533   3.815
 7059SOL    HW222077   0.518   1.452   3.757
 7060SOL     OW22078   3.582   0.094   1.587
 7060SOL    HW122079   3.577   0.084   1.686
 7060SOL    HW222080   3.620   0.011   1.547
 7061SOL     OW22081   0.162   3.458   3.863
 7061SOL    HW122082   0.114   3.514   3.931
 7061SOL    HW222083   0.095   3.408   3.809
 7062SOL     OW22084   3.833   1.225   5.680
 7062SOL    HW122085   3.794   1.167   5.608
 7062SOL    HW222086   3.838   1.319   5.647
 7063SOL     OW22087   1.403   6.899   2.270
 7063SOL    HW122088   1.324   6.870   2.324
 7063SOL    HW222089   1.407   6.999   2.267
 7064SOL     OW22090   4.047   1.839   0.270
 7064SOL    HW122091   4.141   1.860   0.241
 7064SOL    HW222092   4.023   1.895   0.349
 7065SOL     OW22093   5.126   3.763   6.138
 7065SOL    HW122094   5.175   3.703   6.201
 7065SOL    HW222095   5.090   3.710   6.062
 7066SOL     OW22096   4.566   6.982   0.032
 7066SOL    HW122097   4.559   0.042   0.098
 7066SOL    HW222098   4.475   6.963   7.010
 7067SOL     OW22099   1.573   2.803   5.740
 7067SOL    HW122100   1.480   2.781   5.708
 7067SOL    HW222101   1.589   2.902   5.730
 7068SOL     OW22102   6.599   4.829   4.809
 7068SOL    HW122103   6.634   4.747   4.763
 7068SOL    HW222104   6.504   4.845   4.780
 7069SOL     OW22105   5.615   2.348   4.469
 7069SOL    HW122106   5.561   2.376   4.389
 7069SOL    HW222107   5.701   2.306   4.438
 7070SOL     OW22108   0.113   6.855   4.951
 7070SOL    HW122109   0.190   6.813   4.998
 7070SOL    HW222110   0.119   6.954   4.957
 7071SOL     OW22111   3.479   5.848   5.519
 7071SOL    HW122112   3.538   5.800   5.455
 7071SOL    HW222113   3.439   5.928   5.474
 7072SOL     OW22114   1.288   6.225   0.107
 7072SOL    HW122115   1.309   6.258   0.015
 7072SOL    HW222116   1.209   6.165   0.104
 7073SOL     OW22117   5.410   6.936   3.612
 7073SOL    HW122118   5.418   6.885   3.526
 7073SOL    HW222119   5.486   6.912   3.672
 7074SOL     OW22120   5.608   2.742   2.117
 7074SOL    HW122121   5.635   2.691   2.035
 7074SOL    HW222122   5.671   2.719   2.192
 7075SOL     OW22123   2.080   4.462   5.065
 7075SOL    HW122124   2.030   4.507   4.991
 7075SOL    HW222125   2.077   4.363   5.051
 7076SOL     OW22126   5.588   2.908   6.738
 7076SOL    HW122127   5.554   2.883   6.829
 7076SOL    HW222128   5.687   2.895   6.736
 7077SOL     OW22129   2.042   4.761   3.838
 7077SOL    HW122130   2.043   4.779   3.740
 7077SOL    HW222131   2.055   4.663   3.854
 7078SOL     OW22132   6.510   6.605   2.032
 7078SOL    HW122133   6.497   6.514   2.070
 7078SOL    HW222134   6.601   6.638   2.058
 7079SOL     OW22135   0.100   6.366   4.510
 7079SOL    HW122136   0.149   6.413   4.437
 7079SOL    HW222137   0.014   6.329   4.475
 7080SOL     OW22138   3.601   0.892   4.979
 7080SOL    HW122139   3.638   0.879   5.071
 7080SOL    HW222140   3.598   0.990   4.958
 7081SOL     OW22141   1.770   6.234   6.993
 7081SOL    HW122142   1.851   6.175   6.986
 7081SOL    HW222143   1.703   6.190   0.037
 7082SOL     OW22144   6.536   4.530   0.089
 7082SOL    HW122145   6.584   4.494   0.169
 7082SOL    HW222146   6.552   4.468   0.012
 7083SOL     OW22147   1.301   6.991   1.174
 7083SOL    HW122148   1.372   6.927   1.203
 7083SOL    HW222149   1.343   0.063   1.150
 7084SOL     OW22150   0.549   5.096   5.137
 7084SOL    HW122151   0.516   5.009   5.099
 7084SOL    HW222152   0.471   5.156   5.152
 7085SOL     OW22153   0.713   1.193   2.458
 7085SOL    HW122154   0.776   1.191   2.381
 7085SOL    HW222155   0.631   1.244   2.434
 7086SOL     OW22156   6.074   0.012   5.920
 7086SOL    HW122157   5.986   0.025   5.966
 7086SOL    HW222158   6.057   6.998   5.825
 7087SOL     OW22159   6.265   3.809   4.157
 7087SOL    HW122160   6.255   3.710   4.148
 7087SOL    HW222161   6.330   3.842   4.088
 7088SOL     OW22162   5.055   2.838   4.160
 7088SOL    HW122163   5.133   2.797   4.206
 7088SOL    HW222164   5.086   2.913   4.102
 7089SOL     OW22165   2.663   2.194   4.488
 7089SOL    HW122166   2.605   2.258   4.437
 7089SOL    HW222167   2.750   2.182   4.441
 7090SOL     OW22168   1.796   0.619   6.963
 7090SOL    HW122169   1.871   0.670   6.921
 7090SOL    HW222170   1.719   0.681   6.981
 7091SOL     OW22171   0.280   2.052   1.135
 7091SOL    HW122172   0.183   2.072   1.154
 7091SOL    HW222173   0.331   2.138   1.128
 7092SOL     OW22174   4.081   3.243   5.559
 7092SOL    HW122175   4.106   3.212   5.468
 7092SOL    HW222176   3.994   3.202   5.585
 7093SOL     OW22177   3.533   3.808   2.152
 7093SOL    HW122178   3.537   3.740   2.079
 7093SOL    HW222179   3.563   3.897   2.117
 7094SOL     OW22180   6.996   6.010   5.752
 7094SOL    HW122181   0.003   6.057   5.667
 7094SOL    HW222182   0.064   5.974   5.793
 7095SOL     OW22183   3.662   4.621   5.656
 7095SOL    HW122184   3.686   4.525   5.667
 7095SOL    HW222185   3.630   4.637   5.562
 7096SOL     OW22186   6.656   1.375   2.699
 7096SOL    HW122187   6.697   1.285   2.714
 7096SOL    HW222188   6.720   1.446   2.728
 7097SOL     OW22189   4.718   1.195   1.521
 7097SOL    HW122190   4.715   1.119   1.585
 7097SOL    HW222191   4.708   1.281   1.570
 7098SOL     OW22192   2.236   5.442   5.745
 7098SOL    HW122193   2.262   5.364   5.689
 7098SOL    HW222194   2.138   5.456   5.741
 7099SOL     OW22195   3.717   1.139   5.258
 7099SOL    HW122196   3.788   1.189   5.208
 7099SOL    HW222197   3.758   1.091   5.336
 7100SOL     OW22198   6.985   3.609   0.076
 7100SOL    HW122199   6.947   3.524   0.039
 7100SOL    HW222200   7.003   3.598   0.174
 7101SOL     OW22201   2.604   1.788   5.583
 7101SOL    HW122202   2.657   1.771   5.500
 7101SOL    HW222203   2.575   1.883   5.586
 7102SOL     OW22204   5.007   0.029   0.786
 7102SOL    HW122205   4.982   6.968   0.728
 7102SOL    HW222206   5.104   0.022   0.811
 7103SOL     OW22207   5.545   5.375   2.111
 7103SOL    HW122208   5.472   5.402   2.048
 7103SOL    HW222209   5.507   5.319   2.185
 7104SOL     OW22210   6.732   3.944   2.876
 7104SOL    HW122211   6.660   3.982   2.934
 7104SOL    HW222212   6.741   4.000   2.793
 7105SOL     OW22213   2.837   3.675   5.520
 7105SOL    HW122214   2.869   3.609   5.453
 7105SOL    HW222215   2.910   3.740   5.541
 7106SOL     OW22216   3.714   3.519   1.828
 7106SOL    HW122217   3.738   3.446   1.765
 7106SOL    HW222218   3.777   3.596   1.817
 7107SOL     OW22219   4.879   0.982   0.728
 7107SOL    HW122220   4.845   0.917   0.661
 7107SOL    HW222221   4.918   0.933   0.806
 7108SOL     OW22222   3.024   6.032   2.869
 7108SOL    HW122223   3.060   6.025   2.776
 7108SOL    HW222224   2.963   6.111   2.875
 7109SOL     OW22225   2.108   6.901   5.777
 7109SOL    HW122226   2.178   6.941   5.836
 7109SOL    HW222227   2.146   6.821   5.730
 7110SOL     OW22228   2.667   5.882   4.435
 7110SOL    HW122229   2.602   5.915   4.366
 7110SOL    HW222230   2.679   5.783   4.424
 7111SOL     OW22231   1.077   2.879   5.190
 7111SOL    HW122232   1.060   2.911   5.097
 7111SOL    HW222233   1.162   2.827   5.192
 7112SOL     OW22234   1.985   4.927   4.696
 7112SOL    HW122235   2.012   4.861   4.766
 7112SOL    HW222236   2.059   4.937   4.630
 7113SOL     OW22237   3.182   4.087   4.614
 7113SOL    HW122238   3.088   4.053   4.615
 7113SOL    HW222239   3.206   4.119   4.523
 7114SOL     OW22240   5.386   5.415   0.416
 7114SOL    HW122241   5.385   5.383   0.511
 7114SOL    HW222242   5.443   5.496   0.409
 7115SOL     OW22243   5.289   3.050   7.003
 7115SOL    HW122244   5.203   3.015   6.966
 7115SOL    HW222245   5.352   2.974   0.003
 7116SOL     OW22246   6.011   4.777   3.066
 7116SOL    HW122247   6.104   4.779   3.101
 7116SOL    HW222248   5.993   4.689   3.023
 7117SOL     OW22249   0.875   6.534   4.638
 7117SOL    HW122250   0.906   6.569   4.550
 7117SOL    HW222251   0.817   6.454   4.623
 7118SOL     OW22252   2.873   5.079   6.667
 7118SOL    HW122253   2.904   4.998   6.617
 7118SOL    HW222254   2.796   5.121   6.619
 7119SOL     OW22255   4.957   1.501   4.102
 7119SOL    HW122256   4.912   1.466   4.020
 7119SOL    HW222257   5.041   1.549   4.076
 7120SOL     OW22258   3.270   2.016   1.897
 7120SOL    HW122259   3.183   2.065   1.894
 7120SOL    HW222260   3.315   2.033   1.984
 7121SOL     OW22261   0.278   6.866   3.890
 7121SOL    HW122262   0.247   6.786   3.942
 7121SOL    HW222263   0.348   6.915   3.943
 7122SOL     OW22264   1.531   0.854   6.063
 7122SOL    HW122265   1.556   0.901   6.147
 7122SOL    HW222266   1.441   0.885   6.032
 7123SOL     OW22267   1.205   4.598   3.659
 7123SOL    HW122268   1.172   4.626   3.749
 7123SOL    HW222269   1.305   4.598   3.660
 7124SOL     OW22270   6.992   1.563   1.570
 7124SOL    HW122271   0.019   1.620   1.640
 7124SOL    HW222272   0.042   1.546   1.496
 7125SOL     OW22273   0.544   0.165   0.863
 7125SOL    HW122274   0.633   0.194   0.898
 7125SOL    HW222275   0.481   0.151   0.939
 7126SOL     OW22276   3.387   5.065   0.064
 7126SOL    HW122277   3.460   5.102   0.120
 7126SOL    HW222278   3.337   5.139   0.020
 7127SOL     OW22279   1.938   5.464   6.369
 7127SOL    HW122280   1.960   5.375   6.329
 7127SOL    HW222281   1.839   5.472   6.382
 7128SOL     OW22282   3.072   4.280   6.530
 7128SOL    HW122283   2.987   4.331   6.544
 7128SOL    HW222284   3.054   4.199   6.474
 7129SOL     OW22285   2.247   1.196   0.288
 7129SOL    HW122286   2.326   1.158   0.336
 7129SOL    HW222287   2.213   1.276   0.337
 7130SOL     OW22288   3.736   5.806   4.238
 7130SOL    HW122289   3.828   5.829   4.270
 7130SOL    HW222290   3.714   5.859   4.157
 7131SOL     OW22291   2.425   0.793   1.512
 7131SOL    HW122292   2.515   0.821   1.546
 7131SOL    HW222293   2.360   0.868   1.524
 7132SOL     OW22294   3.229   3.868   0.554
 7132SOL    HW122295   3.260   3.885   0.460
 7132SOL    HW222296   3.284   3.795   0.594
 7133SOL     OW22297   4.545   5.144   5.540
 7133SOL    HW122298   4.562   5.120   5.635
 7133SOL    HW222299   4.548   5.062   5.483
 7134SOL     OW22300   4.620   6.684   1.392
 7134SOL    HW122301   4.628   6.766   1.448
 7134SOL    HW222302   4.530   6.681   1.349
 7135SOL     OW22303   1.277   2.657   3.319
 7135SOL    HW122304   1.275   2.726   3.392
 7135SOL    HW222305   1.371   2.635   3.297
 7136SOL     OW22306   2.565   1.366   6.986
 7136SOL    HW122307   2.593   1.271   7.001
 7136SOL    HW222308   2.500   1.370   6.910
 7137SOL     OW22309   2.980   1.065   0.081
 7137SOL    HW122310   2.910   1.092   0.146
 7137SOL    HW222311   3.039   0.995   0.121
 7138SOL     OW22312   2.757   1.912   0.400
 7138SOL    HW122313   2.691   1.983   0.377
 7138SOL    HW222314   2.798   1.931   0.488
 7139SOL     OW22315   5.726   4.553   1.539
 7139SOL    HW122316   5.748   4.455   1.545
 7139SOL    HW222317   5.628   4.566   1.553
 7140SOL     OW22318   6.882   4.091   1.809
 7140SOL    HW122319   6.903   4.187   1.789
 7140SOL    HW222320   6.937   4.032   1.749
 7141SOL     OW22321   3.951   6.241   0.810
 7141SOL    HW122322   3.918   6.200   0.895
 7141SOL    HW222323   3.976   6.337   0.827
 7142SOL     OW22324   4.146   6.491   3.246
 7142SOL    HW122325   4.200   6.551   3.304
 7142SOL    HW222326   4.142   6.529   3.153
 7143SOL     OW22327   1.795   2.952   6.589
 7143SOL    HW122328   1.740   3.008   6.528
 7143SOL    HW222329   1.771   2.856   6.579
 7144SOL     OW22330   1.704   2.044   2.715
 7144SOL    HW122331   1.637   1.974   2.690
 7144SOL    HW222332   1.723   2.040   2.813
 7145SOL     OW22333   3.992   0.025   6.705
 7145SOL    HW122334   4.047   0.093   6.656
 7145SOL    HW222335   4.017   6.949   6.673
 7146SOL     OW22336   1.598   6.692   6.386
 7146SOL    HW122337   1.648   6.620   6.338
 7146SOL    HW222338   1.618   6.687   6.483
 7147SOL     OW22339   6.748   6.574   3.258
 7147SOL    HW122340   6.660   6.527   3.268
 7147SOL    HW222341   6.778   6.567   3.163
 7148SOL     OW22342   6.722   6.360   1.189
 7148SOL    HW122343   6.723   6.452   1.228
 7148SOL    HW222344   6.629   6.336   1.162
 7149SOL     OW22345   0.244   6.343   4.046
 7149SOL    HW122346   0.294   6.270   3.998
 7149SOL    HW222347   0.266   6.339   4.143
 7150SOL     OW22348   3.517   3.203   0.692
 7150SOL    HW122349   3.433   3.153   0.713
 7150SOL    HW222350   3.501   3.262   0.613
 7151SOL     OW22351   3.260   6.667   0.571
 7151SOL    HW122352   3.265   6.767   0.562
 7151SOL    HW222353   3.199   6.644   0.647
 7152SOL     OW22354   6.615   0.774   5.236
 7152SOL    HW122355   6.700   0.761   5.184
 7152SOL    HW222356   6.541   0.722   5.193
 7153SOL     OW22357   4.022   5.133   1.242
 7153SOL    HW122358   3.955   5.147   1.169
 7153SOL    HW222359   4.017   5.210   1.307
 7154SOL     OW22360   4.909   6.541   3.267
 7154SOL    HW122361   4.936   6.619   3.211
 7154SOL    HW222362   4.812   6.522   3.255
 7155SOL     OW22363   2.803   3.002   0.882
 7155SOL    HW122364   2.796   3.093   0.841
 7155SOL    HW222365   2.781   2.933   0.813
 7156SOL     OW22366   6.835   3.200   3.113
 7156SOL    HW122367   6.793   3.251   3.037
 7156SOL    HW222368   6.909   3.143   3.077
 7157SOL     OW22369   0.379   4.040   1.330
 7157SOL    HW122370   0.322   4.037   1.412
 7157SOL    HW222371   0.470   4.004   1.352
 7158SOL     OW22372   1.112   0.359   4.511
 7158SOL    HW122373   1.035   0.328   4.566
 7158SOL    HW222374   1.198   0.333   4.554
 7159SOL     OW22375   0.637   4.785   3.984
 7159SOL    HW122376   0.562   4.778   3.918
 7159SOL    HW222377   0.634   4.875   4.028
 7160SOL     OW22378   5.910   0.174   2.653
 7160SOL    HW122379   5.863   0.259   2.629
 7160SOL    HW222380   5.946   0.131   2.570
 7161SOL     OW22381   3.006   3.919   3.028
 7161SOL    HW122382   2.950   3.837   3.032
 7161SOL    HW222383   3.013   3.951   2.934
 7162SOL     OW22384   1.311   5.194   6.300
 7162SOL    HW122385   1.286   5.124   6.233
 7162SOL    HW222386   1.255   5.275   6.286
 7163SOL     OW22387   2.616   6.888   2.601
 7163SOL    HW122388   2.572   6.832   2.671
 7163SOL    HW222389   2.629   6.833   2.518
 7164SOL     OW22390   3.022   0.191   4.694
 7164SOL    HW122391   2.964   0.162   4.618
 7164SOL    HW222392   3.113   0.151   4.685
 7165SOL     OW22393   6.433   6.765   2.340
 7165SOL    HW122394   6.388   6.679   2.315
 7165SOL    HW222395   6.529   6.747   2.360
 7166SOL     OW22396   4.884   1.678   1.172
 7166SOL    HW122397   4.811   1.721   1.225
 7166SOL    HW222398   4.973   1.699   1.214
 7167SOL     OW22399   5.127   2.980   4.573
 7167SOL    HW122400   5.072   3.027   4.642
 7167SOL    HW222401   5.142   3.041   4.496
 7168SOL     OW22402   1.946   2.494   3.017
 7168SOL    HW122403   1.982   2.525   2.929
 7168SOL    HW222404   1.880   2.420   3.002
 7169SOL     OW22405   0.005   3.756   5.625
 7169SOL    HW122406   7.015   3.728   5.530
 7169SOL    HW222407   6.976   3.687   5.682
 7170SOL     OW22408   4.554   6.734   2.343
 7170SOL    HW122409   4.460   6.742   2.375
 7170SOL    HW222410   4.611   6.802   2.389
 7171SOL     OW22411   6.506   3.963   0.034
 7171SOL    HW122412   6.512   3.908   0.117
 7171SOL    HW222413   6.430   4.027   0.043
 7172SOL     OW22414   2.025   0.124   5.149
 7172SOL    HW122415   1.957   0.109   5.221
 7172SOL    HW222416   2.006   0.063   5.072
 7173SOL     OW22417   6.379   4.365   6.924
 7173SOL    HW122418   6.302   4.409   6.971
 7173SOL    HW222419   6.380   4.268   6.946
 7174SOL     OW22420   1.431   3.557   0.540
 7174SOL    HW122421   1.449   3.653   0.516
 7174SOL    HW222422   1.336   3.548   0.571
 7175SOL     OW22423   5.859   2.946   5.316
 7175SOL    HW122424   5.808   2.945   5.230
 7175SOL    HW222425   5.933   3.013   5.311
 7176SOL     OW22426   6.893   1.526   3.501
 7176SOL    HW122427   6.912   1.555   3.407
 7176SOL    HW222428   6.960   1.567   3.563
 7177SOL     OW22429   0.953   4.494   4.977
 7177SOL    HW122430   0.855   4.474   4.979
 7177SOL    HW222431   0.995   4.449   4.899
 7178SOL     OW22432   6.587   1.421   5.437
 7178SOL    HW122433   6.684   1.420   5.414
 7178SOL    HW222434   6.574   1.469   5.524
 7179SOL     OW22435   2.149   3.553   4.590
 7179SOL    HW122436   2.144   3.652   4.573
 7179SOL    HW222437   2.237   3.531   4.633
 7180SOL     OW22438   2.257   5.132   7.000
 7180SOL    HW122439   2.314   5.202   6.957
 7180SOL    HW222440   2.161   5.151   6.981
 7181SOL     OW22441   1.799   0.564   0.220
 7181SOL    HW122442   1.793   0.466   0.241
 7181SOL    HW222443   1.786   0.577   0.121
 7182SOL     OW22444   6.986   3.544   4.372
 7182SOL    HW122445   6.977   3.583   4.280
 7182SOL    HW222446   7.015   3.616   4.435
 7183SOL     OW22447   1.580   5.814   1.302
 7183SOL    HW122448   1.646   5.742   1.321
 7183SOL    HW222449   1.540   5.846   1.389
 7184SOL     OW22450   6.670   0.860   4.075
 7184SOL    HW122451   6.580   0.834   4.110
 7184SOL    HW222452   6.685   0.816   3.986
 7185SOL     OW22453   5.817   0.917   5.121
 7185SOL    HW122454   5.729   0.956   5.096
 7185SOL    HW222455   5.868   0.893   5.038
 7186SOL     OW22456   6.424   1.782   1.826
 7186SOL    HW122457   6.395   1.740   1.912
 7186SOL    HW222458   6.391   1.876   1.821
 7187SOL     OW22459   3.098   4.156   5.419
 7187SOL    HW122460   3.060   4.084   5.361
 7187SOL    HW222461   3.170   4.118   5.477
 7188SOL     OW22462   5.029   6.567   6.927
 7188SOL    HW122463   4.988   6.497   6.869
 7188SOL    HW222464   5.114   6.600   6.885
 7189SOL     OW22465   6.247   1.504   4.996
 7189SOL    HW122466   6.284   1.427   5.048
 7189SOL    HW222467   6.167   1.472   4.944
 7190SOL     OW22468   6.803   5.111   1.714
 7190SOL    HW122469   6.802   5.026   1.768
 7190SOL    HW222470   6.712   5.127   1.676
 7191SOL     OW22471   1.447   4.531   2.580
 7191SOL    HW122472   1.454   4.591   2.660
 7191SOL    HW222473   1.443   4.586   2.497
 7192SOL     OW22474   2.206   4.180   5.966
 7192SOL    HW122475   2.216   4.081   5.954
 7192SOL    HW222476   2.196   4.223   5.876
 7193SOL     OW22477   1.453   2.524   2.182
 7193SOL    HW122478   1.430   2.612   2.139
 7193SOL    HW222479   1.441   2.450   2.115
 7194SOL     OW22480   2.019   2.573   0.795
 7194SOL    HW122481   2.019   2.542   0.890
 7194SOL    HW222482   1.925   2.595   0.768
 7195SOL     OW22483   0.565   4.150   6.846
 7195SOL    HW122484   0.599   4.147   6.752
 7195SOL    HW222485   0.466   4.139   6.847
 7196SOL     OW22486   2.279   3.725   1.769
 7196SOL    HW122487   2.367   3.770   1.760
 7196SOL    HW222488   2.291   3.633   1.806
 7197SOL     OW22489   0.372   2.733   5.352
 7197SOL    HW122490   0.338   2.782   5.432
 7197SOL    HW222491   0.465   2.700   5.370
 7198SOL     OW22492   0.665   0.749   0.601
 7198SOL    HW122493   0.735   0.797   0.655
 7198SOL    HW222494   0.666   0.652   0.625
 7199SOL     OW22495   1.333   0.187   1.993
 7199SOL    HW122496   1.251   0.154   1.946
 7199SOL    HW222497   1.317   0.186   2.092
 7200SOL     OW22498   2.432   2.708   6.955
 7200SOL    HW122499   2.358   2.711   6.888
 7200SOL    HW222500   2.518   2.733   6.910
 7201SOL     OW22501   1.076   6.308   4.077
 7201SOL    HW122502   1.081   6.229   4.138
 7201SOL    HW222503   0.980   6.330   4.058
 7202SOL     OW22504   5.282   6.729   0.167
 7202SOL    HW122505   5.379   6.738   0.147
 7202SOL    HW222506   5.244   6.652   0.116
 7203SOL     OW22507   0.002   1.113   0.706
 7203SOL    HW122508   6.989   1.058   0.784
 7203SOL    HW222509   0.009   1.209   0.734
 7204SOL     OW22510   0.303   0.497   6.036
 7204SOL    HW122511   0.335   0.499   6.130
 7204SOL    HW222512   0.288   0.402   6.007
 7205SOL     OW22513   1.792   3.849   4.515
 7205SOL    HW122514   1.812   3.906   4.595
 7205SOL    HW222515   1.765   3.758   4.546
 7206SOL     OW22516   1.333   0.186   2.266
 7206SOL    HW122517   1.391   0.197   2.347
 7206SOL    HW222518   1.238   0.181   2.295
 7207SOL     OW22519   3.015   0.330   3.469
 7207SOL    HW122520   3.104   0.313   3.427
 7207SOL    HW222521   3.028   0.360   3.564
 7208SOL     OW22522   4.098   6.931   3.647
 7208SOL    HW122523   4.174   6.942   3.711
 7208SOL    HW222524   4.013   6.959   3.692
 7209SOL     OW22525   2.692   3.141   1.664
 7209SOL    HW122526   2.783   3.119   1.698
 7209SOL    HW222527   2.660   3.226   1.705
 7210SOL     OW22528   4.172   1.058   2.731
 7210SOL    HW122529   4.075   1.083   2.737
 7210SOL    HW222530   4.196   0.998   2.807
 7211SOL     OW22531   1.580   6.714   4.674
 7211SOL    HW122532   1.532   6.780   4.616
 7211SOL    HW222533   1.623   6.645   4.617
 7212SOL     OW22534   0.328   6.305   4.958
 7212SOL    HW122535   0.332   6.339   5.052
 7212SOL    HW222536   0.410   6.250   4.939
 7213SOL     OW22537   4.090   6.054   6.528
 7213SOL    HW122538   4.090   5.956   6.507
 7213SOL    HW222539   4.088   6.068   6.627
 7214SOL     OW22540   0.171   0.176   4.607
 7214SOL    HW122541   0.215   0.090   4.581
 7214SOL    HW222542   0.076   0.159   4.634
 7215SOL     OW22543   6.978   3.315   3.734
 7215SOL    HW122544   6.896   3.286   3.783
 7215SOL    HW222545   6.975   3.277   3.641
 7216SOL     OW22546   2.924   0.405   0.407
 7216SOL    HW122547   2.843   0.433   0.355
 7216SOL    HW222548   3.006   0.421   0.351
 7217SOL     OW22549   1.818   4.097   3.611
 7217SOL    HW122550   1.907   4.058   3.636
 7217SOL    HW222551   1.787   4.158   3.684
 7218SOL     OW22552   6.299   2.594   4.450
 7218SOL    HW122553   6.347   2.587   4.363
 7218SOL    HW222554   6.332   2.523   4.513
 7219SOL     OW22555   3.864   6.850   3.063
 7219SOL    HW122556   3.855   6.914   3.139
 7219SOL    HW222557   3.810   6.883   2.985
 7220SOL     OW22558   0.153   4.139   4.723
 7220SOL    HW122559   0.157   4.123   4.624
 7220SOL    HW222560   0.089   4.074   4.764
 7221SOL     OW22561   3.290   5.729   4.476
 7221SOL    HW122562   3.389   5.740   4.470
 7221SOL    HW222563   3.250   5.734   4.384
 7222SOL     OW22564   6.106   6.875   3.056
 7222SOL    HW122565   6.201   6.850   3.075
 7222SOL    HW222566   6.101   6.921   2.967
 7223SOL     OW22567   3.406   1.279   0.710
 7223SOL    HW122568   3.455   1.271   0.797
 7223SOL    HW222569   3.308   1.272   0.726
 7224SOL     OW22570   5.349   1.975   4.211
 7224SOL    HW122571   5.400   1.890   4.225
 7224SOL    HW222572   5.409   2.053   4.230
 7225SOL     OW22573   1.182   6.047   0.747
 7225SOL    HW122574   1.222   6.131   0.710
 7225SOL    HW222575   1.254   5.979   0.762
 7226SOL     OW22576   6.128   0.627   1.860
 7226SOL    HW122577   6.132   0.627   1.960
 7226SOL    HW222578   6.057   0.690   1.829
 7227SOL     OW22579   2.860   1.799   0.867
 7227SOL    HW122580   2.889   1.860   0.941
 7227SOL    HW222581   2.909   1.712   0.874
 7228SOL     OW22582   1.066   2.183   2.618
 7228SOL    HW122583   1.159   2.219   2.623
 7228SOL    HW222584   1.003   2.257   2.594
 7229SOL     OW22585   1.038   5.944   5.617
 7229SOL    HW122586   1.083   6.002   5.549
 7229SOL    HW222587   0.965   5.892   5.573
 7230SOL     OW22588   3.244   5.200   5.299
 7230SOL    HW122589   3.179   5.272   5.322
 7230SOL    HW222590   3.269   5.208   5.202
 7231SOL     OW22591   4.074   0.624   6.627
 7231SOL    HW122592   4.079   0.561   6.550
 7231SOL    HW222593   4.107   0.714   6.598
 7232SOL     OW22594   4.961   5.890   3.195
 7232SOL    HW122595   5.015   5.853   3.271
 7232SOL    HW222596   4.864   5.891   3.220
 7233SOL     OW22597   1.089   1.590   3.454
 7233SOL    HW122598   1.146   1.580   3.536
 7233SOL    HW222599   1.111   1.518   3.389
 7234SOL     OW22600   5.410   2.303   3.658
 7234SOL    HW122601   5.341   2.234   3.676
 7234SOL    HW222602   5.499   2.259   3.644
 7235SOL     OW22603   0.223   5.115   2.993
 7235SOL    HW122604   0.322   5.104   2.984
 7235SOL    HW222605   0.177   5.054   2.928
 7236SOL     OW22606   2.619   1.965   1.775
 7236SOL    HW122607   2.576   2.015   1.850
 7236SOL    HW222608   2.718   1.967   1.786
 7237SOL     OW22609   3.957   6.994   4.643
 7237SOL    HW122610   3.905   6.962   4.721
 7237SOL    HW222611   3.927   6.946   4.560
 7238SOL     OW22612   4.291   1.357   6.957
 7238SOL    HW122613   4.318   1.289   0.010
 7238SOL    HW222614   4.239   1.430   7.001
 7239SOL     OW22615   0.944   2.149   2.286
 7239SOL    HW122616   1.041   2.168   2.270
 7239SOL    HW222617   0.934   2.056   2.320
 7240SOL     OW22618   1.174   0.876   6.271
 7240SOL    HW122619   1.186   0.908   6.177
 7240SOL    HW222620   1.206   0.782   6.280
 7241SOL     OW22621   1.591   0.552   0.916
 7241SOL    HW122622   1.599   0.580   0.820
 7241SOL    HW222623   1.682   0.552   0.958
 7242SOL     OW22624   0.104   5.939   6.876
 7242SOL    HW122625   0.056   5.993   6.944
 7242SOL    HW222626   0.167   5.998   6.825
 7243SOL     OW22627   6.238   4.393   6.217
 7243SOL    HW122628   6.334   4.390   6.244
 7243SOL    HW222629   6.223   4.470   6.155
 7244SOL     OW22630   6.882   0.770   2.007
 7244SOL    HW122631   6.848   0.861   1.984
 7244SOL    HW222632   6.819   0.725   2.070
 7245SOL     OW22633   1.420   2.785   5.321
 7245SOL    HW122634   1.516   2.757   5.319
 7245SOL    HW222635   1.367   2.726   5.260
 7246SOL     OW22636   0.538   0.029   3.935
 7246SOL    HW122637   0.628   0.034   3.892
 7246SOL    HW222638   0.501   0.122   3.944
 7247SOL     OW22639   2.611   1.009   4.004
 7247SOL    HW122640   2.642   0.928   3.955
 7247SOL    HW222641   2.599   1.084   3.940
 7248SOL     OW22642   2.587   1.518   3.018
 7248SOL    HW122643   2.622   1.557   2.933
 7248SOL    HW222644   2.581   1.419   3.010
 7249SOL     OW22645   6.644   5.087   2.538
 7249SOL    HW122646   6.693   5.166   2.501
 7249SOL    HW222647   6.655   5.009   2.477
 7250SOL     OW22648   5.511   6.864   6.280
 7250SOL    HW122649   5.437   6.871   6.347
 7250SOL    HW222650   5.569   6.785   6.302
 7251SOL     OW22651   0.725   6.401   5.439
 7251SOL    HW122652   0.696   6.443   5.353
 7251SOL    HW222653   0.673   6.316   5.454
 7252SOL     OW22654   3.945   3.229   2.041
 7252SOL    HW122655   3.847   3.249   2.035
 7252SOL    HW222656   3.967   3.200   2.134
 7253SOL     OW22657   1.341   5.974   6.834
 7253SOL    HW122658   1.338   5.898   6.769
 7253SOL    HW222659   1.420   5.963   6.895
 7254SOL     OW22660   4.739   4.963   4.066
 7254SOL    HW122661   4.787   4.927   4.146
 7254SOL    HW222662   4.805   4.980   3.993
 7255SOL     OW22663   3.137   4.099   1.122
 7255SOL    HW122664   3.129   4.186   1.074
 7255SOL    HW222665   3.117   4.024   1.059
 7256SOL     OW22666   3.108   5.529   4.568
 7256SOL    HW122667   3.147   5.611   4.525
 7256SOL    HW222668   3.027   5.555   4.620
 7257SOL     OW22669   5.752   1.879   3.071
 7257SOL    HW122670   5.756   1.918   3.162
 7257SOL    HW222671   5.657   1.879   3.038
 7258SOL     OW22672   4.845   1.511   3.107
 7258SOL    HW122673   4.867   1.583   3.173
 7258SOL    HW222674   4.898   1.429   3.128
 7259SOL     OW22675   2.091   4.000   0.928
 7259SOL    HW122676   2.009   3.965   0.973
 7259SOL    HW222677   2.105   4.096   0.955
 7260SOL     OW22678   4.206   1.849   1.307
 7260SOL    HW122679   4.143   1.886   1.376
 7260SOL    HW222680   4.283   1.911   1.296
 7261SOL     OW22681   1.410   2.527   1.470
 7261SOL    HW122682   1.407   2.488   1.378
 7261SOL    HW222683   1.342   2.482   1.528
 7262SOL     OW22684   4.932   2.317   6.277
 7262SOL    HW122685   4.860   2.307   6.346
 7262SOL    HW222686   5.021   2.311   6.322
 7263SOL     OW22687   1.014   0.455   0.189
 7263SOL    HW122688   1.002   0.477   0.092
 7263SOL    HW222689   0.929   0.472   0.238
 7264SOL     OW22690   5.585   1.977   6.663
 7264SOL    HW122691   5.592   1.907   6.592
 7264SOL    HW222692   5.588   2.068   6.622
 7265SOL     OW22693   5.964   5.702   5.542
 7265SOL    HW122694   6.035   5.772   5.548
 7265SOL    HW222695   5.876   5.745   5.527
 7266SOL     OW22696   5.499   5.980   1.750
 7266SOL    HW122697   5.587   5.980   1.704
 7266SOL    HW222698   5.513   5.965   1.848
 7267SOL     OW22699   6.349   6.513   5.069
 7267SOL    HW122700   6.261   6.472   5.095
 7267SOL    HW222701   6.389   6.461   4.994
 7268SOL     OW22702   6.006   5.324   3.389
 7268SOL    HW122703   6.072   5.299   3.460
 7268SOL    HW222704   6.043   5.301   3.299
 7269SOL     OW22705   6.685   6.697   6.609
 7269SOL    HW122706   6.754   6.677   6.540
 7269SOL    HW222707   6.729   6.740   6.688
 7270SOL     OW22708   1.955   3.634   5.298
 7270SOL    HW122709   1.995   3.571   5.230
 7270SOL    HW222710   1.866   3.598   5.328
 7271SOL     OW22711   0.742   6.287   3.297
 7271SOL    HW122712   0.800   6.208   3.318
 7271SOL    HW222713   0.732   6.295   3.197
 7272SOL     OW22714   6.129   5.569   2.119
 7272SOL    HW122715   6.152   5.648   2.177
 7272SOL    HW222716   6.181   5.574   2.034
 7273SOL     OW22717   6.175   4.783   2.139
 7273SOL    HW122718   6.142   4.770   2.233
 7273SOL    HW222719   6.148   4.873   2.106
 7274SOL     OW22720   0.699   5.340   6.765
 7274SOL    HW122721   0.637   5.393   6.824
 7274SOL    HW222722   0.657   5.330   6.674
 7275SOL     OW22723   6.913   6.561   2.449
 7275SOL    HW122724   6.915   6.585   2.546
 7275SOL    HW222725   6.893   6.463   2.440
 7276SOL     OW22726   3.905   1.024   2.771
 7276SOL    HW122727   3.945   0.933   2.775
 7276SOL    HW222728   3.815   1.023   2.815
 7277SOL     OW22729   4.279   0.696   3.543
 7277SOL    HW122730   4.344   0.622   3.559
 7277SOL    HW222731   4.194   0.659   3.506
 7278SOL     OW22732   3.158   2.912   1.216
 7278SOL    HW122733   3.125   2.833   1.268
 7278SOL    HW222734   3.137   2.899   1.119
 7279SOL     OW22735   3.894   4.187   6.152
 7279SOL    HW122736   3.968   4.169   6.216
 7279SOL    HW222737   3.891   4.114   6.083
 7280SOL     OW22738   0.315   1.495   3.556
 7280SOL    HW122739   0.374   1.506   3.476
 7280SOL    HW222740   0.229   1.543   3.541
 7281SOL     OW22741   1.961   1.013   0.913
 7281SOL    HW122742   2.027   1.045   0.846
 7281SOL    HW222743   1.868   1.023   0.876
 7282SOL     OW22744   6.602   5.901   1.613
 7282SOL    HW122745   6.604   5.857   1.703
 7282SOL    HW222746   6.696   5.925   1.586
 7283SOL     OW22747   4.871   0.422   2.440
 7283SOL    HW122748   4.903   0.493   2.378
 7283SOL    HW222749   4.773   0.405   2.423
 7284SOL     OW22750   0.162   2.462   5.858
 7284SOL    HW122751   0.222   2.421   5.790
 7284SOL    HW222752   0.083   2.503   5.813
 7285SOL     OW22753   5.402   3.036   2.499
 7285SOL    HW122754   5.334   3.063   2.567
 7285SOL    HW222755   5.358   2.982   2.427
 7286SOL     OW22756   1.451   1.136   0.850
 7286SOL    HW122757   1.541   1.096   0.868
 7286SOL    HW222758   1.433   1.208   0.917
 7287SOL     OW22759   0.468   2.271   5.362
 7287SOL    HW122760   0.418   2.346   5.406
 7287SOL    HW222761   0.505   2.302   5.275
 7288SOL     OW22762   1.674   1.805   1.897
 7288SOL    HW122763   1.702   1.738   1.966
 7288SOL    HW222764   1.728   1.888   1.907
 7289SOL     OW22765   5.820   1.521   3.576
 7289SOL    HW122766   5.767   1.509   3.492
 7289SOL    HW222767   5.889   1.592   3.562
 7290SOL     OW22768   3.308   1.865   5.729
 7290SOL    HW122769   3.277   1.936   5.665
 7290SOL    HW222770   3.255   1.781   5.713
 7291SOL     OW22771   0.748   7.002   0.197
 7291SOL    HW122772   0.717   0.039   0.118
 7291SOL    HW222773   0.804   6.925   0.166
 7292SOL     OW22774   3.175   0.015   3.095
 7292SOL    HW122775   3.181   6.966   3.019
 7292SOL    HW222776   3.112   0.089   3.071
 7293SOL     OW22777   1.588   1.620   4.617
 7293SOL    HW122778   1.534   1.674   4.552
 7293SOL    HW222779   1.560   1.641   4.710
 7294SOL     OW22780   2.615   4.478   0.262
 7294SOL    HW122781   2.633   4.458   0.166
 7294SOL    HW222782   2.561   4.562   0.269
 7295SOL     OW22783   6.094   4.271   1.074
 7295SOL    HW122784   6.075   4.229   1.162
 7295SOL    HW222785   6.193   4.271   1.057
 7296SOL     OW22786   3.117   6.260   1.567
 7296SOL    HW122787   3.058   6.259   1.647
 7296SOL    HW222788   3.146   6.167   1.545
 7297SOL     OW22789   3.721   6.903   1.479
 7297SOL    HW122790   3.773   6.861   1.554
 7297SOL    HW222791   3.773   6.895   1.394
 7298SOL     OW22792   5.031   5.357   6.039
 7298SOL    HW122793   4.993   5.425   5.976
 7298SOL    HW222794   5.006   5.382   6.133
 7299SOL     OW22795   0.994   2.430   1.496
 7299SOL    HW122796   1.081   2.421   1.545
 7299SOL    HW222797   0.989   2.360   1.424
 7300SOL     OW22798   0.545   6.970   2.342
 7300SOL    HW122799   0.626   6.969   2.399
 7300SOL    HW222800   0.465   6.944   2.397
 7301SOL     OW22801   6.294   1.965   4.642
 7301SOL    HW122802   6.338   1.977   4.553
 7301SOL    HW222803   6.359   1.926   4.707
 7302SOL     OW22804   0.585   2.508   5.809
 7302SOL    HW122805   0.591   2.417   5.767
 7302SOL    HW222806   0.676   2.545   5.824
 7303SOL     OW22807   4.131   0.946   6.826
 7303SOL    HW122808   4.185   0.936   6.910
 7303SOL    HW222809   4.057   1.011   6.842
 7304SOL     OW22810   2.972   5.522   1.360
 7304SOL    HW122811   3.071   5.505   1.368
 7304SOL    HW222812   2.923   5.459   1.420
 7305SOL     OW22813   5.051   1.966   1.483
 7305SOL    HW122814   5.148   1.959   1.459
 7305SOL    HW222815   5.043   1.975   1.582
 7306SOL     OW22816   4.013   1.490   1.588
 7306SOL    HW122817   3.953   1.567   1.568
 7306SOL    HW222818   4.108   1.519   1.583
 7307SOL     OW22819   2.706   6.393   2.562
 7307SOL    HW122820   2.755   6.468   2.518
 7307SOL    HW222821   2.752   6.307   2.544
 7308SOL     OW22822   6.712   2.502   4.637
 7308SOL    HW122823   6.761   2.584   4.669
 7308SOL    HW222824   6.756   2.420   4.675
 7309SOL     OW22825   3.639   5.038   0.882
 7309SOL    HW122826   3.720   5.079   0.923
 7309SOL    HW222827   3.632   5.066   0.787
 7310SOL     OW22828   2.318   3.815   0.065
 7310SOL    HW122829   2.395   3.851   0.012
 7310SOL    HW222830   2.351   3.789   0.156
 7311SOL     OW22831   1.945   1.770   1.098
 7311SOL    HW122832   1.912   1.718   1.176
 7311SOL    HW222833   2.003   1.712   1.041
 7312SOL     OW22834   0.753   3.233   4.719
 7312SOL    HW122835   0.840   3.262   4.758
 7312SOL    HW222836   0.766   3.149   4.666
 7313SOL     OW22837   2.156   0.795   1.251
 7313SOL    HW122838   2.122   0.803   1.157
 7313SOL    HW222839   2.175   0.699   1.271
 7314SOL     OW22840   0.144   5.014   6.496
 7314SOL    HW122841   0.156   4.920   6.465
 7314SOL    HW222842   0.170   5.077   6.423
 7315SOL     OW22843   5.726   5.793   1.926
 7315SOL    HW122844   5.710   5.806   2.023
 7315SOL    HW222845   5.759   5.699   1.910
 7316SOL     OW22846   3.688   3.156   6.741
 7316SOL    HW122847   3.754   3.144   6.815
 7316SOL    HW222848   3.609   3.096   6.757
 7317SOL     OW22849   4.456   1.669   1.849
 7317SOL    HW122850   4.362   1.703   1.854
 7317SOL    HW222851   4.510   1.708   1.923
 7318SOL     OW22852   2.967   0.338   2.156
 7318SOL    HW122853   3.050   0.389   2.179
 7318SOL    HW222854   2.974   0.245   2.190
 7319SOL     OW22855   6.865   3.906   6.924
 7319SOL    HW122856   6.943   3.897   6.862
 7319SOL    HW222857   6.892   3.878   0.001
 7320SOL     OW22858   1.027   3.549   2.277
 7320SOL    HW122859   0.968   3.601   2.215
 7320SOL    HW222860   1.095   3.499   2.223
 7321SOL     OW22861   1.204   6.310   6.116
 7321SOL    HW122862   1.138   6.385   6.122
 7321SOL    HW222863   1.297   6.346   6.124
 7322SOL     OW22864   6.715   2.786   2.730
 7322SOL    HW122865   6.717   2.819   2.636
 7322SOL    HW222866   6.625   2.803   2.770
 7323SOL     OW22867   1.924   2.600   1.390
 7323SOL    HW122868   1.839   2.604   1.442
 7323SOL    HW222869   1.943   2.690   1.351
 7324SOL     OW22870   5.701   5.865   1.089
 7324SOL    HW122871   5.773   5.920   1.048
 7324SOL    HW222872   5.613   5.910   1.076
 7325SOL     OW22873   2.401   0.295   6.173
 7325SOL    HW122874   2.490   0.252   6.182
 7325SOL    HW222875   2.393   0.369   6.240
 7326SOL     OW22876   2.701   6.418   6.633
 7326SOL    HW122877   2.765   6.452   6.702
 7326SOL    HW222878   2.728   6.452   6.543
 7327SOL     OW22879   6.457   2.245   5.700
 7327SOL    HW122880   6.462   2.306   5.779
 7327SOL    HW222881   6.368   2.199   5.700
 7328SOL     OW22882   4.271   6.786   6.721
 7328SOL    HW122883   4.218   6.736   6.652
 7328SOL    HW222884   4.335   6.847   6.676
 7329SOL     OW22885   1.109   3.735   0.881
 7329SOL    HW122886   1.207   3.722   0.866
 7329SOL    HW222887   1.065   3.645   0.890
 7330SOL     OW22888   2.081   2.692   0.044
 7330SOL    HW122889   2.018   2.686   6.982
 7330SOL    HW222890   2.158   2.630   0.030
 7331SOL     OW22891   5.639   6.419   1.288
 7331SOL    HW122892   5.699   6.340   1.307
 7331SOL    HW222893   5.684   6.481   1.224
 7332SOL     OW22894   3.489   5.867   0.026
 7332SOL    HW122895   3.390   5.853   0.024
 7332SOL    HW222896   3.509   5.965   0.023
 7333SOL     OW22897   6.476   3.397   3.096
 7333SOL    HW122898   6.381   3.380   3.070
 7333SOL    HW222899   6.537   3.345   3.037
 7334SOL     OW22900   1.788   5.910   6.168
 7334SOL    HW122901   1.845   5.985   6.135
 7334SOL    HW222902   1.843   5.827   6.177
 7335SOL     OW22903   0.473   2.760   3.390
 7335SOL    HW122904   0.506   2.718   3.305
 7335SOL    HW222905   0.481   2.859   3.383
 7336SOL     OW22906   1.758   6.663   2.580
 7336SOL    HW122907   1.700   6.745   2.577
 7336SOL    HW222908   1.702   6.583   2.560
 7337SOL     OW22909   0.721   2.903   1.281
 7337SOL    HW122910   0.679   2.945   1.200
 7337SOL    HW222911   0.790   2.965   1.318
 7338SOL     OW22912   4.722   1.535   1.937
 7338SOL    HW122913   4.630   1.556   1.970
 7338SOL    HW222914   4.781   1.615   1.948
 7339SOL     OW22915   5.855   0.704   4.728
 7339SOL    HW122916   5.858   0.677   4.632
 7339SOL    HW222917   5.786   0.649   4.776
 7340SOL     OW22918   3.154   1.383   0.501
 7340SOL    HW122919   3.152   1.467   0.447
 7340SOL    HW222920   3.188   1.308   0.444
 7341SOL     OW22921   0.685   4.422   5.696
 7341SOL    HW122922   0.604   4.413   5.755
 7341SOL    HW222923   0.660   4.469   5.612
 7342SOL     OW22924   0.214   0.308   6.760
 7342SOL    HW122925   0.142   0.241   6.779
 7342SOL    HW222926   0.193   0.393   6.808
 7343SOL     OW22927   5.712   4.757   2.067
 7343SOL    HW122928   5.684   4.813   2.145
 7343SOL    HW222929   5.734   4.816   1.989
 7344SOL     OW22930   0.576   1.220   5.770
 7344SOL    HW122931   0.637   1.298   5.786
 7344SOL    HW222932   0.609   1.140   5.821
 7345SOL     OW22933   4.890   5.496   5.305
 7345SOL    HW122934   4.838   5.534   5.229
 7345SOL    HW222935   4.826   5.466   5.377
 7346SOL     OW22936   4.682   4.933   1.267
 7346SOL    HW122937   4.766   4.957   1.217
 7346SOL    HW222938   4.617   5.008   1.259
 7347SOL     OW22939   0.142   2.575   1.114
 7347SOL    HW122940   0.241   2.566   1.114
 7347SOL    HW222941   0.110   2.596   1.022
 7348SOL     OW22942   1.295   3.746   3.956
 7348SOL    HW122943   1.373   3.729   4.016
 7348SOL    HW222944   1.325   3.746   3.861
 7349SOL     OW22945   4.881   2.014   1.252
 7349SOL    HW122946   4.920   2.080   1.187
 7349SOL    HW222947   4.947   1.997   1.325
 7350SOL     OW22948   1.612   3.068   5.695
 7350SOL    HW122949   1.532   3.105   5.647
 7350SOL    HW222950   1.633   3.127   5.774
 7351SOL     OW22951   4.975   6.726   4.703
 7351SOL    HW122952   5.070   6.728   4.735
 7351SOL    HW222953   4.967   6.778   4.618
 7352SOL     OW22954   1.907   2.487   3.290
 7352SOL    HW122955   1.888   2.518   3.197
 7352SOL    HW222956   1.845   2.412   3.313
 7353SOL     OW22957   0.817   0.702   6.006
 7353SOL    HW122958   0.823   0.660   6.097
 7353SOL    HW222959   0.721   0.720   5.985
 7354SOL     OW22960   0.091   1.517   5.798
 7354SOL    HW122961   0.082   1.417   5.790
 7354SOL    HW222962   0.186   1.539   5.821
 7355SOL     OW22963   2.402   0.905   0.801
 7355SOL    HW122964   2.342   0.944   0.731
 7355SOL    HW222965   2.474   0.971   0.824
 7356SOL     OW22966   3.896   3.784   6.243
 7356SOL    HW122967   3.845   3.756   6.162
 7356SOL    HW222968   3.840   3.769   6.325
 7357SOL     OW22969   4.311   6.633   1.567
 7357SOL    HW122970   4.322   6.627   1.468
 7357SOL    HW222971   4.393   6.597   1.612
 7358SOL     OW22972   6.218   3.828   3.166
 7358SOL    HW122973   6.206   3.870   3.255
 7358SOL    HW222974   6.282   3.751   3.174
 7359SOL     OW22975   2.287   1.916   6.256
 7359SOL    HW122976   2.342   1.973   6.317
 7359SOL    HW222977   2.347   1.864   6.196
 7360SOL     OW22978   3.207   3.680   5.251
 7360SOL    HW122979   3.266   3.728   5.316
 7360SOL    HW222980   3.252   3.597   5.219
 7361SOL     OW22981   4.605   6.916   1.624
 7361SOL    HW122982   4.657   6.883   1.702
 7361SOL    HW222983   4.507   6.917   1.647
 7362SOL     OW22984   1.379   4.786   4.805
 7362SOL    HW122985   1.473   4.753   4.798
 7362SOL    HW222986   1.348   4.781   4.900
 7363SOL     OW22987   4.565   1.907   1.478
 7363SOL    HW122988   4.597   1.960   1.399
 7363SOL    HW222989   4.491   1.956   1.523
 7364SOL     OW22990   4.432   0.656   1.352
 7364SOL    HW122991   4.435   0.754   1.373
 7364SOL    HW222992   4.360   0.613   1.407
 7365SOL     OW22993   1.274   5.778   1.861
 7365SOL    HW122994   1.278   5.760   1.959
 7365SOL    HW222995   1.365   5.764   1.821
 7366SOL     OW22996   2.196   5.239   6.647
 7366SOL    HW122997   2.181   5.336   6.628
 7366SOL    HW222998   2.142   5.184   6.584
 7367SOL     OW22999   4.946   2.864   1.012
 7367SOL    HW123000   4.927   2.771   0.982
 7367SOL    HW223001   5.033   2.894   0.973
 7368SOL     OW23002   3.773   2.937   2.737
 7368SOL    HW123003   3.817   2.848   2.730
 7368SOL    HW223004   3.712   2.938   2.817
 7369SOL     OW23005   3.913   2.953   6.761
 7369SOL    HW123006   3.999   2.902   6.757
 7369SOL    HW223007   3.902   3.006   6.677
 7370SOL     OW23008   1.996   0.778   4.128
 7370SOL    HW123009   2.072   0.744   4.074
 7370SOL    HW223010   1.931   0.825   4.068
 7371SOL     OW23011   1.677   6.467   4.002
 7371SOL    HW123012   1.681   6.412   4.085
 7371SOL    HW223013   1.701   6.411   3.923
 7372SOL     OW23014   4.335   1.243   4.820
 7372SOL    HW123015   4.372   1.291   4.900
 7372SOL    HW223016   4.401   1.247   4.745
 7373SOL     OW23017   6.028   2.337   3.840
 7373SOL    HW123018   6.093   2.262   3.823
 7373SOL    HW223019   6.066   2.422   3.804
 7374SOL     OW23020   2.434   1.568   5.627
 7374SOL    HW123021   2.454   1.518   5.543
 7374SOL    HW223022   2.480   1.657   5.623
 7375SOL     OW23023   1.965   2.794   3.156
 7375SOL    HW123024   2.046   2.840   3.120
 7375SOL    HW223025   1.981   2.696   3.164
 7376SOL     OW23026   2.689   1.272   0.749
 7376SOL    HW123027   2.726   1.361   0.721
 7376SOL    HW223028   2.710   1.204   0.680
 7377SOL     OW23029   5.547   4.363   0.251
 7377SOL    HW123030   5.483   4.430   0.215
 7377SOL    HW223031   5.498   4.299   0.311
 7378SOL     OW23032   6.924   1.178   5.949
 7378SOL    HW123033   6.966   1.090   5.973
 7378SOL    HW223034   6.961   1.250   6.007
 7379SOL     OW23035   3.221   1.537   3.093
 7379SOL    HW123036   3.286   1.562   3.165
 7379SOL    HW223037   3.161   1.465   3.126
 7380SOL     OW23038   6.838   4.396   4.722
 7380SOL    HW123039   6.843   4.362   4.628
 7380SOL    HW223040   6.776   4.475   4.725
 7381SOL     OW23041   4.513   3.868   1.343
 7381SOL    HW123042   4.434   3.834   1.394
 7381SOL    HW223043   4.587   3.889   1.407
 7382SOL     OW23044   6.948   6.486   5.883
 7382SOL    HW123045   6.992   6.571   5.855
 7382SOL    HW223046   6.854   6.505   5.911
 7383SOL     OW23047   1.036   0.020   1.155
 7383SOL    HW123048   1.134   0.007   1.166
 7383SOL    HW223049   1.014   0.117   1.166
 7384SOL     OW23050   5.752   0.370   2.859
 7384SOL    HW123051   5.718   0.276   2.859
 7384SOL    HW223052   5.679   0.432   2.829
 7385SOL     OW23053   4.120   6.202   2.195
 7385SOL    HW123054   4.042   6.239   2.246
 7385SOL    HW223055   4.134   6.107   2.221
 7386SOL     OW23056   0.773   1.995   5.738
 7386SOL    HW123057   0.788   2.081   5.786
 7386SOL    HW223058   0.674   1.982   5.724
 7387SOL     OW23059   5.594   6.127   4.053
 7387SOL    HW123060   5.543   6.116   4.138
 7387SOL    HW223061   5.550   6.073   3.981
 7388SOL     OW23062   0.224   5.014   2.517
 7388SOL    HW123063   0.262   4.965   2.438
 7388SOL    HW223064   0.149   4.962   2.557
 7389SOL     OW23065   6.953   3.654   6.643
 7389SOL    HW123066   0.010   3.587   6.629
 7389SOL    HW223067   6.866   3.617   6.610
 7390SOL     OW23068   1.163   1.620   6.862
 7390SOL    HW123069   1.184   1.594   6.768
 7390SOL    HW223070   1.193   1.714   6.877
 7391SOL     OW23071   4.078   3.736   4.232
 7391SOL    HW123072   4.058   3.820   4.182
 7391SOL    HW223073   4.113   3.666   4.168
 7392SOL     OW23074   2.459   6.111   0.199
 7392SOL    HW123075   2.413   6.185   0.150
 7392SOL    HW223076   2.538   6.148   0.248
 7393SOL     OW23077   6.111   4.971   2.872
 7393SOL    HW123078   6.046   5.046   2.884
 7393SOL    HW223079   6.076   4.889   2.917
 7394SOL     OW23080   2.195   2.566   5.815
 7394SOL    HW123081   2.255   2.579   5.735
 7394SOL    HW223082   2.211   2.639   5.881
 7395SOL     OW23083   1.612   2.338   0.335
 7395SOL    HW123084   1.549   2.416   0.338
 7395SOL    HW223085   1.668   2.338   0.418
 7396SOL     OW23086   1.030   0.151   0.674
 7396SOL    HW123087   1.059   0.102   0.592
 7396SOL    HW223088   0.936   0.124   0.697
 7397SOL     OW23089   4.424   5.284   4.692
 7397SOL    HW123090   4.498   5.349   4.708
 7397SOL    HW223091   4.391   5.293   4.598
 7398SOL     OW23092   2.553   5.084   4.488
 7398SOL    HW123093   2.566   4.988   4.463
 7398SOL    HW223094   2.583   5.143   4.413
 7399SOL     OW23095   1.247   2.391   5.230
 7399SOL    HW123096   1.304   2.345   5.298
 7399SOL    HW223097   1.155   2.351   5.231
 7400SOL     OW23098   3.875   2.040   5.665
 7400SOL    HW123099   3.779   2.058   5.644
 7400SOL    HW223100   3.931   2.115   5.631
 7401SOL     OW23101   1.409   1.633   4.831
 7401SOL    HW123102   1.468   1.596   4.902
 7401SOL    HW223103   1.369   1.557   4.779
 7402SOL     OW23104   2.487   6.016   6.663
 7402SOL    HW123105   2.428   5.935   6.651
 7402SOL    HW223106   2.489   6.068   6.578
 7403SOL     OW23107   2.149   3.909   2.332
 7403SOL    HW123108   2.122   4.004   2.349
 7403SOL    HW223109   2.118   3.882   2.241
 7404SOL     OW23110   2.349   5.438   1.514
 7404SOL    HW123111   2.317   5.465   1.605
 7404SOL    HW223112   2.271   5.414   1.457
 7405SOL     OW23113   3.690   5.086   4.356
 7405SOL    HW123114   3.603   5.057   4.314
 7405SOL    HW223115   3.766   5.058   4.298
 7406SOL     OW23116   0.137   2.662   3.002
 7406SOL    HW123117   0.159   2.746   3.053
 7406SOL    HW223118   0.221   2.626   2.961
 7407SOL     OW23119   1.083   0.107   4.870
 7407SOL    HW123120   1.174   0.148   4.874
 7407SOL    HW223121   1.054   0.101   4.774
 7408SOL     OW23122   3.159   3.868   6.999
 7408SOL    HW123123   3.134   3.835   6.908
 7408SOL    HW223124   3.123   3.960   7.012
 7409SOL     OW23125   6.554   2.372   6.971
 7409SOL    HW123126   6.540   2.442   6.901
 7409SOL    HW223127   6.623   2.403   0.021
 7410SOL     OW23128   6.793   0.107   0.520
 7410SOL    HW123129   6.825   0.190   0.475
 7410SOL    HW223130   6.708   0.126   0.569
 7411SOL     OW23131   2.290   6.943   6.004
 7411SOL    HW123132   2.260   0.015   6.042
 7411SOL    HW223133   2.388   6.946   5.985
 7412SOL     OW23134   4.731   0.259   2.083
 7412SOL    HW123135   4.756   0.167   2.114
 7412SOL    HW223136   4.796   0.288   2.012
 7413SOL     OW23137   5.476   5.514   3.838
 7413SOL    HW123138   5.540   5.438   3.846
 7413SOL    HW223139   5.385   5.484   3.867
 7414SOL     OW23140   0.581   0.689   3.996
 7414SOL    HW123141   0.558   0.786   3.984
 7414SOL    HW223142   0.501   0.633   3.976
 7415SOL     OW23143   2.149   5.016   3.963
 7415SOL    HW123144   2.216   5.064   3.907
 7415SOL    HW223145   2.107   4.943   3.910
 7416SOL     OW23146   1.786   1.252   2.735
 7416SOL    HW123147   1.779   1.171   2.677
 7416SOL    HW223148   1.832   1.325   2.685
 7417SOL     OW23149   1.595   0.771   0.059
 7417SOL    HW123150   1.540   0.692   0.032
 7417SOL    HW223151   1.569   0.800   0.151
 7418SOL     OW23152   2.297   5.610   0.504
 7418SOL    HW123153   2.203   5.639   0.485
 7418SOL    HW223154   2.348   5.687   0.544
 7419SOL     OW23155   6.373   2.676   4.993
 7419SOL    HW123156   6.354   2.662   4.896
 7419SOL    HW223157   6.302   2.735   5.033
 7420SOL     OW23158   0.618   6.857   1.338
 7420SOL    HW123159   0.520   6.866   1.354
 7420SOL    HW223160   0.668   6.893   1.416
 7421SOL     OW23161   3.822   4.353   0.710
 7421SOL    HW123162   3.781   4.262   0.703
 7421SOL    HW223163   3.761   4.421   0.670
 7422SOL     OW23164   0.070   3.342   2.249
 7422SOL    HW123165   0.119   3.311   2.167
 7422SOL    HW223166   0.080   3.273   2.321
 7423SOL     OW23167   5.916   3.198   5.714
 7423SOL    HW123168   5.956   3.185   5.805
 7423SOL    HW223169   5.876   3.112   5.683
 7424SOL     OW23170   6.607   6.581   5.617
 7424SOL    HW123171   6.626   6.494   5.663
 7424SOL    HW223172   6.631   6.656   5.679
 7425SOL     OW23173   4.318   5.895   6.738
 7425SOL    HW123174   4.269   5.982   6.739
 7425SOL    HW223175   4.257   5.821   6.767
 7426SOL     OW23176   3.187   1.626   5.674
 7426SOL    HW123177   3.105   1.579   5.705
 7426SOL    HW223178   3.257   1.560   5.651
 7427SOL     OW23179   4.191   0.301   3.738
 7427SOL    HW123180   4.213   0.231   3.806
 7427SOL    HW223181   4.274   0.349   3.712
 7428SOL     OW23182   4.084   1.331   5.480
 7428SOL    HW123183   4.004   1.390   5.493
 7428SOL    HW223184   4.130   1.319   5.568
 7429SOL     OW23185   0.615   6.324   4.283
 7429SOL    HW123186   0.621   6.356   4.378
 7429SOL    HW223187   0.540   6.258   4.275
 7430SOL     OW23188   1.342   2.897   0.483
 7430SOL    HW123189   1.249   2.879   0.451
 7430SOL    HW223190   1.339   2.966   0.556
 7431SOL     OW23191   1.292   2.858   3.495
 7431SOL    HW123192   1.255   2.950   3.504
 7431SOL    HW223193   1.381   2.853   3.541
 7432SOL     OW23194   0.824   0.881   2.888
 7432SOL    HW123195   0.802   0.888   2.791
 7432SOL    HW223196   0.755   0.930   2.941
 7433SOL     OW23197   4.686   6.329   5.562
 7433SOL    HW123198   4.708   6.423   5.536
 7433SOL    HW223199   4.717   6.313   5.656
 7434SOL     OW23200   4.834   5.942   5.727
 7434SOL    HW123201   4.886   5.979   5.650
 7434SOL    HW223202   4.898   5.911   5.798
 7435SOL     OW23203   3.472   5.747   0.862
 7435SOL    HW123204   3.425   5.665   0.896
 7435SOL    HW223205   3.404   5.816   0.837
 7436SOL     OW23206   5.210   3.959   5.948
 7436SOL    HW123207   5.165   3.889   6.003
 7436SOL    HW223208   5.215   3.930   5.853
 7437SOL     OW23209   1.654   6.035   0.168
 7437SOL    HW123210   1.581   6.085   0.215
 7437SOL    HW223211   1.719   6.000   0.236
 7438SOL     OW23212   0.975   5.839   7.000
 7438SOL    HW123213   1.074   5.833   7.007
 7438SOL    HW223214   0.951   5.907   6.930
 7439SOL     OW23215   2.298   6.279   5.777
 7439SOL    HW123216   2.326   6.243   5.688
 7439SOL    HW223217   2.356   6.356   5.801
 7440SOL     OW23218   6.932   2.880   4.038
 7440SOL    HW123219   6.995   2.956   4.025
 7440SOL    HW223220   6.838   2.915   4.038
 7441SOL     OW23221   5.299   6.596   3.901
 7441SOL    HW123222   5.365   6.530   3.936
 7441SOL    HW223223   5.334   6.689   3.915
 7442SOL     OW23224   6.241   1.515   6.030
 7442SOL    HW123225   6.237   1.421   6.066
 7442SOL    HW223226   6.328   1.529   5.984
 7443SOL     OW23227   0.194   6.058   1.735
 7443SOL    HW123228   0.275   6.097   1.692
 7443SOL    HW223229   0.119   6.125   1.732
 7444SOL     OW23230   5.486   2.374   5.574
 7444SOL    HW123231   5.473   2.419   5.663
 7444SOL    HW223232   5.439   2.285   5.575
 7445SOL     OW23233   4.000   0.854   0.986
 7445SOL    HW123234   4.035   0.844   1.079
 7445SOL    HW223235   3.962   0.946   0.974
 7446SOL     OW23236   5.887   3.321   0.533
 7446SOL    HW123237   5.955   3.315   0.606
 7446SOL    HW223238   5.806   3.268   0.558
 7447SOL     OW23239   0.345   3.342   6.821
 7447SOL    HW123240   0.361   3.399   6.741
 7447SOL    HW223241   0.396   3.379   6.899
 7448SOL     OW23242   6.483   6.755   5.122
 7448SOL    HW123243   6.433   6.678   5.083
 7448SOL    HW223244   6.562   6.721   5.174
 7449SOL     OW23245   0.674   3.792   2.119
 7449SOL    HW123246   0.598   3.832   2.171
 7449SOL    HW223247   0.675   3.829   2.027
 7450SOL     OW23248   5.302   2.507   4.638
 7450SOL    HW123249   5.257   2.543   4.557
 7450SOL    HW223250   5.233   2.489   4.709
 7451SOL     OW23251   6.675   0.083   3.138
 7451SOL    HW123252   6.589   0.042   3.109
 7451SOL    HW223253   6.673   0.182   3.119
 7452SOL     OW23254   6.659   6.660   4.743
 7452SOL    HW123255   6.672   6.758   4.737
 7452SOL    HW223256   6.729   6.613   4.690
 7453SOL     OW23257   5.077   0.028   5.634
 7453SOL    HW123258   5.091   6.981   5.711
 7453SOL    HW223259   5.105   0.120   5.661
 7454SOL     OW23260   0.686   2.695   1.968
 7454SOL    HW123261   0.738   2.726   2.047
 7454SOL    HW223262   0.589   2.686   1.993
 7455SOL     OW23263   6.868   2.388   2.165
 7455SOL    HW123264   6.809   2.452   2.115
 7455SOL    HW223265   6.951   2.435   2.193
 7456SOL     OW23266   0.878   1.342   3.743
 7456SOL    HW123267   0.819   1.329   3.664
 7456SOL    HW223268   0.827   1.321   3.826
 7457SOL     OW23269   3.649   0.006   6.061
 7457SOL    HW123270   3.642   6.922   6.054
 7457SOL    HW223271   3.725   0.030   6.121
 7458SOL     OW23272   1.427   6.449   5.633
 7458SOL    HW123273   1.353   6.436   5.698
 7458SOL    HW223274   1.455   6.360   5.597
 7459SOL     OW23275   4.444   0.471   2.157
 7459SOL    HW123276   4.467   0.400   2.090
 7459SOL    HW223277   4.516   0.540   2.157
 7460SOL     OW23278   1.132   5.297   0.889
 7460SOL    HW123279   1.084   5.376   0.926
 7460SOL    HW223280   1.225   5.323   0.865
 7461SOL     OW23281   5.550   0.955   6.304
 7461SOL    HW123282   5.527   1.021   6.233
 7461SOL    HW223283   5.466   0.926   6.351
 7462SOL     OW23284   1.846   4.012   2.240
 7462SOL    HW123285   1.862   3.914   2.232
 7462SOL    HW223286   1.748   4.030   2.233
 7463SOL     OW23287   2.307   5.042   0.710
 7463SOL    HW123288   2.211   5.020   0.727
 7463SOL    HW223289   2.313   5.127   0.657
 7464SOL     OW23290   5.454   0.176   6.033
 7464SOL    HW123291   5.478   0.273   6.045
 7464SOL    HW223292   5.486   0.124   6.113
 7465SOL     OW23293   1.670   5.672   6.888
 7465SOL    HW123294   1.676   5.654   6.790
 7465SOL    HW223295   1.617   5.598   6.931
 7466SOL     OW23296   6.997   0.756   5.196
 7466SOL    HW123297   6.965   0.664   5.218
 7466SOL    HW223298   0.036   0.792   5.272
 7467SOL     OW23299   0.780   1.451   1.267
 7467SOL    HW123300   0.757   1.427   1.361
 7467SOL    HW223301   0.697   1.484   1.220
 7468SOL     OW23302   5.922   2.925   3.375
 7468SOL    HW123303   5.853   2.902   3.307
 7468SOL    HW223304   5.878   2.938   3.464
 7469SOL     OW23305   6.781   0.713   0.751
 7469SOL    HW123306   6.725   0.631   0.763
 7469SOL    HW223307   6.800   0.727   0.654
 7470SOL     OW23308   6.516   3.903   3.216
 7470SOL    HW123309   6.479   3.813   3.193
 7470SOL    HW223310   6.504   3.965   3.139
 7471SOL     OW23311   5.359   6.605   5.847
 7471SOL    HW123312   5.287   6.650   5.794
 7471SOL    HW223313   5.381   6.517   5.805
 7472SOL     OW23314   6.322   6.924   4.690
 7472SOL    HW123315   6.318   6.992   4.763
 7472SOL    HW223316   6.285   6.837   4.722
 7473SOL     OW23317   6.073   5.248   4.036
 7473SOL    HW123318   6.026   5.290   3.958
 7473SOL    HW223319   6.141   5.311   4.071
 7474SOL     OW23320   0.955   1.475   5.869
 7474SOL    HW123321   0.974   1.547   5.802
 7474SOL    HW223322   0.856   1.462   5.876
 7475SOL     OW23323   5.198   2.333   2.731
 7475SOL    HW123324   5.212   2.311   2.634
 7475SOL    HW223325   5.154   2.422   2.739
 7476SOL     OW23326   3.320   0.695   3.828
 7476SOL    HW123327   3.268   0.755   3.767
 7476SOL    HW223328   3.369   0.751   3.895
 7477SOL     OW23329   0.442   1.302   5.377
 7477SOL    HW123330   0.478   1.209   5.386
 7477SOL    HW223331   0.352   1.307   5.421
 7478SOL     OW23332   5.245   4.573   5.667
 7478SOL    HW123333   5.183   4.614   5.601
 7478SOL    HW223334   5.326   4.538   5.620
 7479SOL     OW23335   3.998   2.172   2.235
 7479SOL    HW123336   3.916   2.228   2.244
 7479SOL    HW223337   4.024   2.136   2.325
 7480SOL     OW23338   1.101   3.932   2.159
 7480SOL    HW123339   1.034   3.936   2.233
 7480SOL    HW223340   1.097   4.017   2.106
 7481SOL     OW23341   6.300   5.589   1.013
 7481SOL    HW123342   6.392   5.585   0.974
 7481SOL    HW223343   6.261   5.680   0.998
 7482SOL     OW23344   4.702   2.679   2.970
 7482SOL    HW123345   4.682   2.594   3.018
 7482SOL    HW223346   4.659   2.678   2.879
 7483SOL     OW23347   4.714   2.872   4.499
 7483SOL    HW123348   4.647   2.800   4.515
 7483SOL    HW223349   4.698   2.914   4.410
 7484SOL     OW23350   1.686   6.990   4.297
 7484SOL    HW123351   1.772   6.942   4.319
 7484SOL    HW223352   1.632   6.934   4.235
 7485SOL     OW23353   3.530   0.011   4.587
 7485SOL    HW123354   3.557   0.107   4.594
 7485SOL    HW223355   3.434   0.001   4.613
 7486SOL     OW23356   1.755   6.664   0.472
 7486SOL    HW123357   1.694   6.596   0.433
 7486SOL    HW223358   1.762   6.742   0.411
 7487SOL     OW23359   1.881   6.835   3.719
 7487SOL    HW123360   1.801   6.860   3.664
 7487SOL    HW223361   1.910   6.742   3.697
 7488SOL     OW23362   2.808   6.575   3.934
 7488SOL    HW123363   2.727   6.605   3.885
 7488SOL    HW223364   2.786   6.497   3.992
 7489SOL     OW23365   5.206   2.512   5.293
 7489SOL    HW123366   5.121   2.505   5.345
 7489SOL    HW223367   5.185   2.534   5.198
 7490SOL     OW23368   1.476   0.275   2.482
 7490SOL    HW123369   1.473   0.275   2.582
 7490SOL    HW223370   1.555   0.222   2.452
 7491SOL     OW23371   5.468   2.813   6.978
 7491SOL    HW123372   5.382   2.772   6.946
 7491SOL    HW223373   5.511   2.751   0.029
 7492SOL     OW23374   1.916   0.693   3.035
 7492SOL    HW123375   1.954   0.636   2.962
 7492SOL    HW223376   1.919   0.789   3.007
 7493SOL     OW23377   0.285   3.772   6.608
 7493SOL    HW123378   0.341   3.690   6.606
 7493SOL    HW223379   0.225   3.771   6.688
 7494SOL     OW23380   5.160   1.273   2.694
 7494SOL    HW123381   5.134   1.369   2.702
 7494SOL    HW223382   5.109   1.219   2.762
 7495SOL     OW23383   1.638   1.933   6.576
 7495SOL    HW123384   1.659   1.963   6.483
 7495SOL    HW223385   1.666   2.003   6.641
 7496SOL     OW23386   6.038   3.295   4.810
 7496SOL    HW123387   5.999   3.224   4.751
 7496SOL    HW223388   6.117   3.258   4.859
 7497SOL     OW23389   2.128   4.386   6.206
 7497SOL    HW123390   2.203   4.415   6.146
 7497SOL    HW223391   2.042   4.424   6.172
 7498SOL     OW23392   3.225   0.380   5.130
 7498SOL    HW123393   3.169   0.340   5.058
 7498SOL    HW223394   3.168   0.441   5.186
 7499SOL     OW23395   3.349   1.097   2.941
 7499SOL    HW123396   3.333   1.193   2.964
 7499SOL    HW223397   3.300   1.038   3.005
 7500SOL     OW23398   3.582   5.678   2.933
 7500SOL    HW123399   3.583   5.684   3.033
 7500SOL    HW223400   3.605   5.585   2.905
 7501SOL     OW23401   5.170   3.802   4.761
 7501SOL    HW123402   5.076   3.816   4.792
 7501SOL    HW223403   5.227   3.779   4.840
 7502SOL     OW23404   2.944   0.433   4.683
 7502SOL    HW123405   3.009   0.498   4.722
 7502SOL    HW223406   2.984   0.341   4.683
 7503SOL     OW23407   1.385   0.423   1.018
 7503SOL    HW123408   1.473   0.453   0.982
 7503SOL    HW223409   1.316   0.494   1.001
 7504SOL     OW23410   1.049   6.926   3.348
 7504SOL    HW123411   1.147   6.909   3.353
 7504SOL    HW223412   1.011   6.932   3.440
 7505SOL     OW23413   1.581   2.787   6.033
 7505SOL    HW123414   1.502   2.834   6.070
 7505SOL    HW223415   1.593   2.810   5.936
 7506SOL     OW23416   4.859   1.264   3.393
 7506SOL    HW123417   4.874   1.177   3.438
 7506SOL    HW223418   4.781   1.257   3.331
 7507SOL     OW23419   0.251   1.121   2.773
 7507SOL    HW123420   0.341   1.151   2.805
 7507SOL    HW223421   0.180   1.154   2.835
 7508SOL     OW23422   1.252   0.108   1.617
 7508SOL    HW123423   1.245   0.008   1.617
 7508SOL    HW223424   1.342   0.135   1.581
 7509SOL     OW23425   6.070   4.478   0.490
 7509SOL    HW123426   6.102   4.522   0.406
 7509SOL    HW223427   5.990   4.422   0.469
 7510SOL     OW23428   3.739   3.550   5.489
 7510SOL    HW123429   3.663   3.572   5.551
 7510SOL    HW223430   3.824   3.545   5.542
 7511SOL     OW23431   2.584   6.327   3.803
 7511SOL    HW123432   2.657   6.295   3.743
 7511SOL    HW223433   2.533   6.400   3.757
 7512SOL     OW23434   2.611   6.703   6.825
 7512SOL    HW123435   2.663   6.729   6.906
 7512SOL    HW223436   2.604   6.780   6.762
 7513SOL     OW23437   1.815   0.986   1.410
 7513SOL    HW123438   1.873   0.907   1.429
 7513SOL    HW223439   1.742   0.992   1.478
 7514SOL     OW23440   2.622   5.530   1.725
 7514SOL    HW123441   2.679   5.459   1.683
 7514SOL    HW223442   2.673   5.616   1.729
 7515SOL     OW23443   6.861   5.391   4.408
 7515SOL    HW123444   6.806   5.467   4.444
 7515SOL    HW223445   6.906   5.420   4.323
 7516SOL     OW23446   6.591   5.975   5.409
 7516SOL    HW123447   6.566   6.028   5.328
 7516SOL    HW223448   6.598   5.878   5.384
 7517SOL     OW23449   0.272   2.563   0.734
 7517SOL    HW123450   0.331   2.598   0.806
 7517SOL    HW223451   0.292   2.466   0.719
 7518SOL     OW23452   4.267   4.813   3.956
 7518SOL    HW123453   4.273   4.760   3.872
 7518SOL    HW223454   4.358   4.848   3.981
 7519SOL     OW23455   0.365   6.182   3.383
 7519SOL    HW123456   0.417   6.213   3.304
 7519SOL    HW223457   0.325   6.092   3.363
 7520SOL     OW23458   1.978   6.937   2.542
 7520SOL    HW123459   2.022   6.895   2.463
 7520SOL    HW223460   1.887   6.898   2.555
 7521SOL     OW23461   4.641   3.804   5.756
 7521SOL    HW123462   4.724   3.849   5.788
 7521SOL    HW223463   4.663   3.714   5.718
 7522SOL     OW23464   1.348   1.464   5.736
 7522SOL    HW123465   1.420   1.509   5.788
 7522SOL    HW223466   1.303   1.531   5.677
 7523SOL     OW23467   6.094   0.511   6.580
 7523SOL    HW123468   6.103   0.519   6.680
 7523SOL    HW223469   6.092   0.414   6.554
 7524SOL     OW23470   1.242   2.632   5.154
 7524SOL    HW123471   1.246   2.553   5.215
 7524SOL    HW223472   1.283   2.608   5.066
 7525SOL     OW23473   3.559   0.624   6.310
 7525SOL    HW123474   3.595   0.572   6.387
 7525SOL    HW223475   3.551   0.721   6.336
 7526SOL     OW23476   3.283   3.614   1.663
 7526SOL    HW123477   3.295   3.565   1.576
 7526SOL    HW223478   3.355   3.683   1.672
 7527SOL     OW23479   3.006   5.959   3.529
 7527SOL    HW123480   2.906   5.966   3.518
 7527SOL    HW223481   3.049   6.043   3.497
 7528SOL     OW23482   5.870   2.507   0.922
 7528SOL    HW123483   5.823   2.485   0.837
 7528SOL    HW223484   5.809   2.488   0.999
 7529SOL     OW23485   5.141   1.635   4.451
 7529SOL    HW123486   5.141   1.730   4.481
 7529SOL    HW223487   5.051   1.595   4.465
 7530SOL     OW23488   0.043   3.206   1.997
 7530SOL    HW123489   0.009   3.134   1.936
 7530SOL    HW223490   6.982   3.263   2.028
 7531SOL     OW23491   5.641   3.286   4.834
 7531SOL    HW123492   5.694   3.312   4.753
 7531SOL    HW223493   5.568   3.353   4.850
 7532SOL     OW23494   4.611   5.734   6.798
 7532SOL    HW123495   4.541   5.764   6.734
 7532SOL    HW223496   4.654   5.813   6.841
 7533SOL     OW23497   3.479   1.030   1.527
 7533SOL    HW123498   3.504   0.971   1.451
 7533SOL    HW223499   3.382   1.016   1.550
 7534SOL     OW23500   4.378   6.639   5.367
 7534SOL    HW123501   4.342   6.547   5.349
 7534SOL    HW223502   4.352   6.700   5.292
 7535SOL     OW23503   1.992   0.972   4.823
 7535SOL    HW123504   1.953   0.912   4.753
 7535SOL    HW223505   1.951   0.951   4.912
 7536SOL     OW23506   5.046   4.697   4.007
 7536SOL    HW123507   4.968   4.654   4.053
 7536SOL    HW223508   5.031   4.697   3.908
 7537SOL     OW23509   2.776   5.799   1.648
 7537SOL    HW123510   2.719   5.877   1.672
 7537SOL    HW223511   2.754   5.769   1.555
 7538SOL     OW23512   1.679   2.252   1.152
 7538SOL    HW123513   1.764   2.293   1.186
 7538SOL    HW223514   1.679   2.254   1.052
 7539SOL     OW23515   1.815   3.621   3.845
 7539SOL    HW123516   1.812   3.587   3.752
 7539SOL    HW223517   1.725   3.658   3.870
 7540SOL     OW23518   4.303   0.528   4.459
 7540SOL    HW123519   4.212   0.567   4.446
 7540SOL    HW223520   4.327   0.531   4.557
 7541SOL     OW23521   0.667   4.510   5.009
 7541SOL    HW123522   0.712   4.524   4.921
 7541SOL    HW223523   0.692   4.585   5.071
 7542SOL     OW23524   1.307   4.986   6.816
 7542SOL    HW123525   1.367   4.928   6.761
 7542SOL    HW223526   1.213   4.976   6.785
 7543SOL     OW23527   4.133   1.582   5.871
 7543SOL    HW123528   4.046   1.600   5.917
 7543SOL    HW223529   4.196   1.659   5.887
 7544SOL     OW23530   6.839   2.050   2.580
 7544SOL    HW123531   6.847   2.123   2.513
 7544SOL    HW223532   6.858   1.962   2.536
 7545SOL     OW23533   0.426   5.168   0.382
 7545SOL    HW123534   0.419   5.261   0.419
 7545SOL    HW223535   0.336   5.138   0.351
 7546SOL     OW23536   3.291   2.496   1.392
 7546SOL    HW123537   3.377   2.473   1.346
 7546SOL    HW223538   3.303   2.487   1.491
 7547SOL     OW23539   4.990   1.923   0.451
 7547SOL    HW123540   5.081   1.950   0.484
 7547SOL    HW223541   4.965   1.836   0.493
 7548SOL     OW23542   4.983   1.721   6.875
 7548SOL    HW123543   5.027   1.713   6.964
 7548SOL    HW223544   4.893   1.763   6.886
 7549SOL     OW23545   3.608   2.886   6.535
 7549SOL    HW123546   3.658   2.897   6.449
 7549SOL    HW223547   3.663   2.922   6.611
 7550SOL     OW23548   2.372   5.057   3.522
 7550SOL    HW123549   2.418   4.970   3.540
 7550SOL    HW223550   2.344   5.098   3.609
 7551SOL     OW23551   5.649   3.491   6.495
 7551SOL    HW123552   5.671   3.394   6.486
 7551SOL    HW223553   5.732   3.545   6.480
 7552SOL     OW23554   1.519   5.890   2.798
 7552SOL    HW123555   1.566   5.824   2.739
 7552SOL    HW223556   1.554   5.883   2.891
 7553SOL     OW23557   4.358   6.347   5.438
 7553SOL    HW123558   4.264   6.314   5.424
 7553SOL    HW223559   4.367   6.381   5.532
 7554SOL     OW23560   4.955   1.097   0.074
 7554SOL    HW123561   5.008   1.097   0.159
 7554SOL    HW223562   5.017   1.109   7.012
 7555SOL     OW23563   2.146   4.717   6.075
 7555SOL    HW123564   2.070   4.684   6.019
 7555SOL    HW223565   2.110   4.762   6.157
 7556SOL     OW23566   2.465   2.786   0.561
 7556SOL    HW123567   2.443   2.724   0.486
 7556SOL    HW223568   2.398   2.775   0.635
 7557SOL     OW23569   5.173   1.076   5.463
 7557SOL    HW123570   5.111   1.131   5.519
 7557SOL    HW223571   5.139   0.982   5.457
 7558SOL     OW23572   1.717   2.683   4.337
 7558SOL    HW123573   1.813   2.660   4.322
 7558SOL    HW223574   1.660   2.635   4.270
 7559SOL     OW23575   4.610   3.576   0.719
 7559SOL    HW123576   4.689   3.631   0.743
 7559SOL    HW223577   4.600   3.501   0.784
 7560SOL     OW23578   5.466   6.254   0.959
 7560SOL    HW123579   5.438   6.162   0.932
 7560SOL    HW223580   5.440   6.270   1.054
 7561SOL     OW23581   1.012   2.868   6.774
 7561SOL    HW123582   1.069   2.867   6.692
 7561SOL    HW223583   0.944   2.941   6.766
 7562SOL     OW23584   0.550   5.839   4.626
 7562SOL    HW123585   0.485   5.863   4.698
 7562SOL    HW223586   0.504   5.843   4.537
 7563SOL     OW23587   3.196   0.304   1.401
 7563SOL    HW123588   3.288   0.319   1.365
 7563SOL    HW223589   3.199   0.235   1.474
 7564SOL     OW23590   3.709   6.839   3.370
 7564SOL    HW123591   3.728   6.759   3.314
 7564SOL    HW223592   3.711   6.813   3.467
 7565SOL     OW23593   5.411   3.151   6.754
 7565SOL    HW123594   5.470   3.070   6.754
 7565SOL    HW223595   5.366   3.160   6.842
 7566SOL     OW23596   6.562   4.733   3.080
 7566SOL    HW123597   6.577   4.825   3.117
 7566SOL    HW223598   6.649   4.695   3.048
 7567SOL     OW23599   1.952   1.933   5.337
 7567SOL    HW123600   1.892   1.875   5.392
 7567SOL    HW223601   2.033   1.957   5.390
 7568SOL     OW23602   5.171   5.781   3.342
 7568SOL    HW123603   5.145   5.685   3.330
 7568SOL    HW223604   5.219   5.792   3.429
 7569SOL     OW23605   3.845   4.897   5.977
 7569SOL    HW123606   3.803   4.985   5.954
 7569SOL    HW223607   3.781   4.844   6.034
 7570SOL     OW23608   5.332   3.736   4.992
 7570SOL    HW123609   5.364   3.643   4.972
 7570SOL    HW223610   5.408   3.788   5.031
 7571SOL     OW23611   4.239   4.766   3.245
 7571SOL    HW123612   4.140   4.777   3.258
 7571SOL    HW223613   4.259   4.762   3.148
 7572SOL     OW23614   4.238   1.155   1.473
 7572SOL    HW123615   4.287   1.103   1.403
 7572SOL    HW223616   4.249   1.108   1.561
 7573SOL     OW23617   0.139   0.469   5.425
 7573SOL    HW123618   0.216   0.532   5.436
 7573SOL    HW223619   0.123   0.454   5.327
 7574SOL     OW23620   5.332   0.623   5.094
 7574SOL    HW123621   5.238   0.603   5.069
 7574SOL    HW223622   5.358   0.569   5.174
 7575SOL     OW23623   5.260   0.969   6.139
 7575SOL    HW123624   5.277   0.907   6.062
 7575SOL    HW223625   5.330   1.040   6.140
 7576SOL     OW23626   4.931   3.400   0.502
 7576SOL    HW123627   4.963   3.308   0.526
 7576SOL    HW223628   4.836   3.395   0.470
 7577SOL     OW23629   0.832   6.871   6.973
 7577SOL    HW123630   0.838   6.772   6.991
 7577SOL    HW223631   0.741   6.893   6.939
 7578SOL     OW23632   2.822   5.401   1.588
 7578SOL    HW123633   2.893   5.373   1.652
 7578SOL    HW223634   2.767   5.321   1.563
 7579SOL     OW23635   0.432   1.019   2.598
 7579SOL    HW123636   0.478   0.931   2.616
 7579SOL    HW223637   0.341   1.018   2.640
 7580SOL     OW23638   0.784   3.785   4.216
 7580SOL    HW123639   0.824   3.797   4.306
 7580SOL    HW223640   0.721   3.708   4.216
 7581SOL     OW23641   0.159   1.652   2.427
 7581SOL    HW123642   0.119   1.742   2.441
 7581SOL    HW223643   0.254   1.652   2.459
 7582SOL     OW23644   3.746   1.173   1.762
 7582SOL    HW123645   3.692   1.170   1.678
 7582SOL    HW223646   3.841   1.193   1.740
 7583SOL     OW23647   6.096   2.948   2.256
 7583SOL    HW123648   6.037   2.937   2.337
 7583SOL    HW223649   6.088   3.042   2.222
 7584SOL     OW23650   3.343   0.616   2.400
 7584SOL    HW123651   3.379   0.701   2.362
 7584SOL    HW223652   3.327   0.627   2.498
 7585SOL     OW23653   1.878   2.678   6.864
 7585SOL    HW123654   1.888   2.773   6.833
 7585SOL    HW223655   1.830   2.625   6.794
 7586SOL     OW23656   2.695   0.569   3.656
 7586SOL    HW123657   2.699   0.476   3.693
 7586SOL    HW223658   2.788   0.600   3.635
 7587SOL     OW23659   2.364   1.995   0.067
 7587SOL    HW123660   2.348   1.935   0.145
 7587SOL    HW223661   2.438   1.958   0.010
 7588SOL     OW23662   1.192   2.725   3.732
 7588SOL    HW123663   1.201   2.749   3.635
 7588SOL    HW223664   1.241   2.792   3.787
 7589SOL     OW23665   0.418   0.341   2.399
 7589SOL    HW123666   0.370   0.257   2.371
 7589SOL    HW223667   0.431   0.400   2.320
 7590SOL     OW23668   3.415   2.630   6.465
 7590SOL    HW123669   3.434   2.534   6.443
 7590SOL    HW223670   3.489   2.668   6.521
 7591SOL     OW23671   6.705   3.809   0.933
 7591SOL    HW123672   6.698   3.877   0.860
 7591SOL    HW223673   6.613   3.787   0.966
 7592SOL     OW23674   0.047   5.589   5.192
 7592SOL    HW123675   0.074   5.685   5.198
 7592SOL    HW223676   0.099   5.536   5.258
 7593SOL     OW23677   6.433   2.963   0.315
 7593SOL    HW123678   6.347   2.913   0.297
 7593SOL    HW223679   6.440   2.983   0.412
 7594SOL     OW23680   1.459   4.251   2.546
 7594SOL    HW123681   1.362   4.243   2.523
 7594SOL    HW223682   1.485   4.348   2.547
 7595SOL     OW23683   6.042   2.654   5.939
 7595SOL    HW123684   5.947   2.629   5.921
 7595SOL    HW223685   6.053   2.752   5.928
 7596SOL     OW23686   4.021   6.280   3.343
 7596SOL    HW123687   4.059   6.363   3.303
 7596SOL    HW223688   4.091   6.235   3.399
 7597SOL     OW23689   2.131   7.005   2.948
 7597SOL    HW123690   2.057   0.044   2.986
 7597SOL    HW223691   2.181   6.960   3.022
 7598SOL     OW23692   6.478   0.892   3.161
 7598SOL    HW123693   6.423   0.875   3.079
 7598SOL    HW223694   6.540   0.815   3.175
 7599SOL     OW23695   5.620   1.917   2.397
 7599SOL    HW123696   5.669   1.831   2.391
 7599SOL    HW223697   5.680   1.987   2.435
 7600SOL     OW23698   1.481   1.756   3.330
 7600SOL    HW123699   1.430   1.801   3.403
 7600SOL    HW223700   1.450   1.661   3.322
 7601SOL     OW23701   1.965   4.357   2.467
 7601SOL    HW123702   1.954   4.443   2.518
 7601SOL    HW223703   1.881   4.337   2.417
 7602SOL     OW23704   2.391   3.520   6.826
 7602SOL    HW123705   2.337   3.561   6.899
 7602SOL    HW223706   2.337   3.520   6.741
 7603SOL     OW23707   1.416   5.899   6.220
 7603SOL    HW123708   1.331   5.938   6.185
 7603SOL    HW223709   1.431   5.930   6.314
 7604SOL     OW23710   1.993   3.458   4.373
 7604SOL    HW123711   2.045   3.503   4.446
 7604SOL    HW223712   1.946   3.527   4.318
 7605SOL     OW23713   1.132   0.990   1.765
 7605SOL    HW123714   1.229   0.979   1.746
 7605SOL    HW223715   1.116   1.079   1.807
 7606SOL     OW23716   6.068   3.896   4.884
 7606SOL    HW123717   6.014   3.970   4.842
 7606SOL    HW223718   6.007   3.836   4.936
 7607SOL     OW23719   3.252   5.271   6.990
 7607SOL    HW123720   3.201   5.304   0.054
 7607SOL    HW223721   3.188   5.230   6.925
 7608SOL     OW23722   3.658   4.044   1.410
 7608SOL    HW123723   3.573   3.994   1.421
 7608SOL    HW223724   3.639   4.139   1.387
 7609SOL     OW23725   1.535   2.895   4.287
 7609SOL    HW123726   1.553   2.807   4.332
 7609SOL    HW223727   1.621   2.934   4.255
 7610SOL     OW23728   4.180   4.560   6.163
 7610SOL    HW123729   4.206   4.642   6.112
 7610SOL    HW223730   4.160   4.486   6.098
 7611SOL     OW23731   5.927   3.992   1.723
 7611SOL    HW123732   5.876   3.984   1.809
 7611SOL    HW223733   5.905   3.914   1.664
 7612SOL     OW23734   4.915   3.222   2.093
 7612SOL    HW123735   4.861   3.157   2.039
 7612SOL    HW223736   4.864   3.307   2.104
 7613SOL     OW23737   0.025   2.780   1.292
 7613SOL    HW123738   0.096   2.799   1.360
 7613SOL    HW223739   0.048   2.695   1.243
 7614SOL     OW23740   5.485   3.471   0.889
 7614SOL    HW123741   5.436   3.431   0.967
 7614SOL    HW223742   5.517   3.562   0.912
 7615SOL     OW23743   3.657   4.945   6.979
 7615SOL    HW123744   3.567   4.968   0.002
 7615SOL    HW223745   3.691   5.022   6.926
 7616SOL     OW23746   6.234   6.253   4.427
 7616SOL    HW123747   6.138   6.238   4.452
 7616SOL    HW223748   6.287   6.273   4.509
 7617SOL     OW23749   4.071   6.497   2.786
 7617SOL    HW123750   3.987   6.442   2.783
 7617SOL    HW223751   4.102   6.515   2.693
 7618SOL     OW23752   0.184   2.230   6.004
 7618SOL    HW123753   0.230   2.175   5.934
 7618SOL    HW223754   0.164   2.321   5.966
 7619SOL     OW23755   6.786   3.118   4.900
 7619SOL    HW123756   6.882   3.104   4.879
 7619SOL    HW223757   6.732   3.112   4.816
 7620SOL     OW23758   3.980   5.645   1.307
 7620SOL    HW123759   3.960   5.675   1.213
 7620SOL    HW223760   4.063   5.590   1.307
 7621SOL     OW23761   6.424   0.903   0.923
 7621SOL    HW123762   6.515   0.895   0.965
 7621SOL    HW223763   6.421   0.985   0.865
 7622SOL     OW23764   3.774   5.167   6.573
 7622SOL    HW123765   3.797   5.103   6.500
 7622SOL    HW223766   3.760   5.259   6.535
 7623SOL     OW23767   4.956   3.557   6.695
 7623SOL    HW123768   4.974   3.653   6.672
 7623SOL    HW223769   4.915   3.551   6.786
 7624SOL     OW23770   0.058   3.768   5.097
 7624SOL    HW123771   0.032   3.683   5.052
 7624SOL    HW223772   0.138   3.807   5.052
 7625SOL     OW23773   5.195   0.566   0.861
 7625SOL    HW123774   5.115   0.524   0.903
 7625SOL    HW223775   5.226   0.643   0.917
 7626SOL     OW23776   6.541   0.209   4.363
 7626SOL    HW123777   6.558   0.207   4.265
 7626SOL    HW223778   6.628   0.218   4.412
 7627SOL     OW23779   5.174   3.055   0.277
 7627SOL    HW123780   5.192   2.957   0.289
 7627SOL    HW223781   5.245   3.095   0.218
 7628SOL     OW23782   3.411   2.393   1.630
 7628SOL    HW123783   3.398   2.294   1.630
 7628SOL    HW223784   3.472   2.419   1.705
 7629SOL     OW23785   0.195   5.034   3.766
 7629SOL    HW123786   0.201   5.083   3.679
 7629SOL    HW223787   0.256   5.078   3.832
 7630SOL     OW23788   0.665   0.114   1.232
 7630SOL    HW123789   0.693   0.018   1.234
 7630SOL    HW223790   0.745   0.172   1.248
 7631SOL     OW23791   0.456   1.552   6.011
 7631SOL    HW123792   0.523   1.614   5.968
 7631SOL    HW223793   0.491   1.458   6.008
 7632SOL     OW23794   4.585   4.188   1.433
 7632SOL    HW123795   4.615   4.109   1.488
 7632SOL    HW223796   4.505   4.162   1.379
 7633SOL     OW23797   5.344   0.054   2.036
 7633SOL    HW123798   5.415   7.004   2.060
 7633SOL    HW223799   5.263   0.036   2.092
 7634SOL     OW23800   1.699   1.607   2.075
 7634SOL    HW123801   1.774   1.549   2.043
 7634SOL    HW223802   1.622   1.550   2.103
 7635SOL     OW23803   3.647   4.898   5.373
 7635SOL    HW123804   3.737   4.867   5.344
 7635SOL    HW223805   3.576   4.845   5.325
 7636SOL     OW23806   1.672   3.163   4.009
 7636SOL    HW123807   1.764   3.162   3.969
 7636SOL    HW223808   1.655   3.077   4.056
 7637SOL     OW23809   2.910   6.194   2.207
 7637SOL    HW123810   2.898   6.125   2.135
 7637SOL    HW223811   2.991   6.249   2.187
 7638SOL     OW23812   2.122   6.039   1.399
 7638SOL    HW123813   2.221   6.050   1.401
 7638SOL    HW223814   2.094   5.998   1.313
 7639SOL     OW23815   0.436   1.844   1.266
 7639SOL    HW123816   0.533   1.868   1.265
 7639SOL    HW223817   0.382   1.924   1.240
 7640SOL     OW23818   3.306   1.551   6.053
 7640SOL    HW123819   3.319   1.459   6.017
 7640SOL    HW223820   3.209   1.568   6.068
 7641SOL     OW23821   1.566   3.754   2.069
 7641SOL    HW123822   1.485   3.786   2.019
 7641SOL    HW223823   1.613   3.685   2.015
 7642SOL     OW23824   3.657   2.119   2.619
 7642SOL    HW123825   3.699   2.031   2.643
 7642SOL    HW223826   3.728   2.190   2.620
 7643SOL     OW23827   4.624   2.313   3.345
 7643SOL    HW123828   4.653   2.343   3.435
 7643SOL    HW223829   4.542   2.256   3.353
 7644SOL     OW23830   4.374   2.603   1.743
 7644SOL    HW123831   4.327   2.674   1.691
 7644SOL    HW223832   4.453   2.642   1.789
 7645SOL     OW23833   5.210   3.710   5.299
 7645SOL    HW123834   5.244   3.676   5.387
 7645SOL    HW223835   5.130   3.656   5.272
 7646SOL     OW23836   1.745   3.249   3.368
 7646SOL    HW123837   1.845   3.244   3.371
 7646SOL    HW223838   1.707   3.158   3.353
 7647SOL     OW23839   6.844   2.486   3.522
 7647SOL    HW123840   6.934   2.495   3.480
 7647SOL    HW223841   6.844   2.405   3.581
 7648SOL     OW23842   2.519   1.762   3.152
 7648SOL    HW123843   2.527   1.822   3.072
 7648SOL    HW223844   2.553   1.671   3.128
 7649SOL     OW23845   0.837   0.713   3.615
 7649SOL    HW123846   0.824   0.690   3.712
 7649SOL    HW223847   0.901   0.789   3.607
 7650SOL     OW23848   5.501   1.294   0.525
 7650SOL    HW123849   5.498   1.339   0.615
 7650SOL    HW223850   5.409   1.263   0.501
 7651SOL     OW23851   2.053   0.537   3.774
 7651SOL    HW123852   2.073   0.449   3.731
 7651SOL    HW223853   1.962   0.568   3.747
 7652SOL     OW23854   6.021   2.876   4.953
 7652SOL    HW123855   6.067   2.872   5.042
 7652SOL    HW223856   5.922   2.885   4.967
 7653SOL     OW23857   0.172   1.922   6.944
 7653SOL    HW123858   0.151   1.825   6.950
 7653SOL    HW223859   0.263   1.935   6.907
 7654SOL     OW23860   4.839   3.002   4.709
 7654SOL    HW123861   4.850   3.099   4.691
 7654SOL    HW223862   4.792   2.958   4.633
 7655SOL     OW23863   4.495   6.440   3.037
 7655SOL    HW123864   4.570   6.402   2.982
 7655SOL    HW223865   4.412   6.388   3.019
 7656SOL     OW23866   3.460   3.877   6.991
 7656SOL    HW123867   3.507   3.931   0.045
 7656SOL    HW223868   3.362   3.877   7.011
 7657SOL     OW23869   1.082   2.400   3.579
 7657SOL    HW123870   1.127   2.400   3.668
 7657SOL    HW223871   1.004   2.463   3.581
 7658SOL     OW23872   3.131   0.438   6.614
 7658SOL    HW123873   3.042   0.446   6.659
 7658SOL    HW223874   3.125   0.368   6.542
 7659SOL     OW23875   5.430   4.844   6.370
 7659SOL    HW123876   5.374   4.840   6.287
 7659SOL    HW223877   5.519   4.802   6.353
 7660SOL     OW23878   0.217   5.810   3.160
 7660SOL    HW123879   0.162   5.798   3.243
 7660SOL    HW223880   0.276   5.730   3.148
 7661SOL     OW23881   5.287   2.074   4.863
 7661SOL    HW123882   5.349   2.102   4.790
 7661SOL    HW223883   5.262   2.153   4.919
 7662SOL     OW23884   1.803   2.953   4.521
 7662SOL    HW123885   1.715   2.926   4.561
 7662SOL    HW223886   1.805   3.052   4.511
 7663SOL     OW23887   6.635   5.822   5.872
 7663SOL    HW123888   6.668   5.791   5.961
 7663SOL    HW223889   6.711   5.823   5.806
 7664SOL     OW23890   4.135   0.516   1.758
 7664SOL    HW123891   4.049   0.468   1.776
 7664SOL    HW223892   4.144   0.593   1.821
 7665SOL     OW23893   5.827   0.860   4.382
 7665SOL    HW123894   5.906   0.881   4.324
 7665SOL    HW223895   5.744   0.897   4.340
 7666SOL     OW23896   0.686   5.041   2.231
 7666SOL    HW123897   0.598   5.075   2.199
 7666SOL    HW223898   0.676   4.945   2.257
 7667SOL     OW23899   4.369   0.280   2.505
 7667SOL    HW123900   4.464   0.292   2.534
 7667SOL    HW223901   4.338   0.362   2.458
 7668SOL     OW23902   3.141   5.079   0.690
 7668SOL    HW123903   3.171   4.988   0.717
 7668SOL    HW223904   3.042   5.080   0.679
 7669SOL     OW23905   4.632   0.916   4.988
 7669SOL    HW123906   4.648   1.009   4.956
 7669SOL    HW223907   4.535   0.905   5.012
 7670SOL     OW23908   0.797   4.648   0.480
 7670SOL    HW123909   0.781   4.725   0.418
 7670SOL    HW223910   0.757   4.668   0.569
 7671SOL     OW23911   3.584   1.336   1.914
 7671SOL    HW123912   3.630   1.260   1.868
 7671SOL    HW223913   3.485   1.317   1.917
 7672SOL     OW23914   0.147   6.303   2.778
 7672SOL    HW123915   0.088   6.266   2.706
 7672SOL    HW223916   0.094   6.317   2.861
 7673SOL     OW23917   1.293   6.709   1.386
 7673SOL    HW123918   1.368   6.763   1.349
 7673SOL    HW223919   1.208   6.730   1.337
 7674SOL     OW23920   4.622   0.828   3.367
 7674SOL    HW123921   4.687   0.797   3.298
 7674SOL    HW223922   4.644   0.785   3.455
 7675SOL     OW23923   6.042   6.694   2.704
 7675SOL    HW123924   6.063   6.673   2.609
 7675SOL    HW223925   6.055   6.791   2.721
 7676SOL     OW23926   2.341   1.808   0.557
 7676SOL    HW123927   2.420   1.758   0.520
 7676SOL    HW223928   2.298   1.753   0.628
 7677SOL     OW23929   1.294   4.597   1.483
 7677SOL    HW123930   1.381   4.552   1.464
 7677SOL    HW223931   1.306   4.697   1.483
 7678SOL     OW23932   2.461   2.826   5.387
 7678SOL    HW123933   2.440   2.906   5.332
 7678SOL    HW223934   2.376   2.786   5.421
 7679SOL     OW23935   3.212   6.585   5.769
 7679SOL    HW123936   3.288   6.587   5.704
 7679SOL    HW223937   3.131   6.626   5.726
 7680SOL     OW23938   1.630   0.660   0.664
 7680SOL    HW123939   1.720   0.703   0.663
 7680SOL    HW223940   1.608   0.627   0.572
 7681SOL     OW23941   2.479   0.564   1.144
 7681SOL    HW123942   2.503   0.477   1.102
 7681SOL    HW223943   2.522   0.639   1.094
 7682SOL     OW23944   3.645   0.305   2.257
 7682SOL    HW123945   3.734   0.260   2.256
 7682SOL    HW223946   3.658   0.404   2.255
 7683SOL     OW23947   6.240   2.244   4.265
 7683SOL    HW123948   6.191   2.330   4.270
 7683SOL    HW223949   6.175   2.169   4.249
 7684SOL     OW23950   4.038   1.960   1.486
 7684SOL    HW123951   4.005   1.891   1.551
 7684SOL    HW223952   3.960   2.003   1.440
 7685SOL     OW23953   2.994   1.562   6.062
 7685SOL    HW123954   3.014   1.649   6.017
 7685SOL    HW223955   2.985   1.577   6.161
 7686SOL     OW23956   0.145   6.335   3.094
 7686SOL    HW123957   0.119   6.428   3.067
 7686SOL    HW223958   0.128   6.324   3.192
 7687SOL     OW23959   6.257   5.428   4.133
 7687SOL    HW123960   6.252   5.514   4.082
 7687SOL    HW223961   6.347   5.421   4.177
 7688SOL     OW23962   0.926   6.128   5.140
 7688SOL    HW123963   0.929   6.205   5.203
 7688SOL    HW223964   1.015   6.118   5.095
 7689SOL     OW23965   5.908   6.359   2.284
 7689SOL    HW123966   5.901   6.452   2.248
 7689SOL    HW223967   5.927   6.296   2.208
 7690SOL     OW23968   5.226   4.212   0.027
 7690SOL    HW123969   5.205   4.203   0.124
 7690SOL    HW223970   5.222   4.122   6.998
 7691SOL     OW23971   4.870   3.722   4.158
 7691SOL    HW123972   4.770   3.730   4.153
 7691SOL    HW223973   4.895   3.625   4.168
 7692SOL     OW23974   0.755   6.073   2.002
 7692SOL    HW123975   0.692   5.996   1.990
 7692SOL    HW223976   0.780   6.111   1.913
 7693SOL     OW23977   3.259   0.070   1.980
 7693SOL    HW123978   3.219   0.140   1.922
 7693SOL    HW223979   3.330   0.111   2.037
 7694SOL     OW23980   5.282   3.877   4.045
 7694SOL    HW123981   5.299   3.811   3.971
 7694SOL    HW223982   5.184   3.880   4.066
 7695SOL     OW23983   4.498   6.931   0.912
 7695SOL    HW123984   4.410   6.893   0.940
 7695SOL    HW223985   4.488   0.013   0.893
 7696SOL     OW23986   0.202   0.751   5.994
 7696SOL    HW123987   0.258   0.796   6.063
 7696SOL    HW223988   0.221   0.653   5.994
 7697SOL     OW23989   2.312   0.059   3.356
 7697SOL    HW123990   2.355   6.999   3.404
 7697SOL    HW223991   2.224   0.030   3.318
 7698SOL     OW23992   5.438   2.032   3.838
 7698SOL    HW123993   5.365   2.052   3.773
 7698SOL    HW223994   5.452   1.933   3.843
 7699SOL     OW23995   3.301   6.192   6.058
 7699SOL    HW123996   3.319   6.123   5.988
 7699SOL    HW223997   3.226   6.162   6.117
 7700SOL     OW23998   4.632   5.699   3.108
 7700SOL    HW123999   4.669   5.734   3.022
 7700SOL    HW224000   4.656   5.602   3.118
 7701SOL     OW24001   6.289   1.941   0.025
 7701SOL    HW124002   6.316   1.981   0.112
 7701SOL    HW224003   6.328   1.995   6.966
 7702SOL     OW24004   3.794   6.249   5.017
 7702SOL    HW124005   3.884   6.269   4.980
 7702SOL    HW224006   3.753   6.173   4.966
 7703SOL     OW24007   6.121   6.117   6.144
 7703SOL    HW124008   6.033   6.146   6.106
 7703SOL    HW224009   6.169   6.060   6.077
 7704SOL     OW24010   5.863   0.423   4.311
 7704SOL    HW124011   5.835   0.486   4.383
 7704SOL    HW224012   5.800   0.430   4.234
 7705SOL     OW24013   2.543   6.099   0.608
 7705SOL    HW124014   2.587   6.019   0.648
 7705SOL    HW224015   2.500   6.074   0.521
 7706SOL     OW24016   3.432   3.765   4.954
 7706SOL    HW124017   3.427   3.702   4.876
 7706SOL    HW224018   3.343   3.808   4.967
 7707SOL     OW24019   0.143   4.675   5.854
 7707SOL    HW124020   0.162   4.718   5.942
 7707SOL    HW224021   0.190   4.726   5.782
 7708SOL     OW24022   0.823   6.802   5.632
 7708SOL    HW124023   0.776   6.881   5.670
 7708SOL    HW224024   0.775   6.718   5.658
 7709SOL     OW24025   6.831   4.704   2.675
 7709SOL    HW124026   6.866   4.624   2.724
 7709SOL    HW224027   6.734   4.716   2.695
 7710SOL     OW24028   3.543   2.759   0.419
 7710SOL    HW124029   3.579   2.745   0.511
 7710SOL    HW224030   3.443   2.750   0.420
 7711SOL     OW24031   5.590   6.791   5.834
 7711SOL    HW124032   5.602   6.815   5.738
 7711SOL    HW224033   5.510   6.732   5.844
 7712SOL     OW24034   0.160   5.225   1.403
 7712SOL    HW124035   0.167   5.289   1.479
 7712SOL    HW224036   0.224   5.250   1.331
 7713SOL     OW24037   1.457   3.851   0.508
 7713SOL    HW124038   1.369   3.858   0.555
 7713SOL    HW224039   1.461   3.919   0.434
 7714SOL     OW24040   0.519   4.472   5.456
 7714SOL    HW124041   0.437   4.427   5.492
 7714SOL    HW224042   0.536   4.441   5.363
 7715SOL     OW24043   3.253   2.340   0.382
 7715SOL    HW124044   3.157   2.369   0.389
 7715SOL    HW224045   3.267   2.294   0.295
 7716SOL     OW24046   6.998   4.850   1.765
 7716SOL    HW124047   6.982   4.923   1.698
 7716SOL    HW224048   6.936   4.774   1.747
 7717SOL     OW24049   1.884   0.741   6.174
 7717SOL    HW124050   1.959   0.805   6.156
 7717SOL    HW224051   1.912   0.674   6.243
 7718SOL     OW24052   6.810   4.435   3.393
 7718SOL    HW124053   6.833   4.465   3.486
 7718SOL    HW224054   6.716   4.460   3.372
 7719SOL     OW24055   0.423   4.055   5.369
 7719SOL    HW124056   0.510   4.048   5.417
 7719SOL    HW224057   0.381   3.965   5.362
 7720SOL     OW24058   6.625   2.306   6.464
 7720SOL    HW124059   6.645   2.354   6.379
 7720SOL    HW224060   6.526   2.301   6.477
 7721SOL     OW24061   0.278   5.220   2.320
 7721SOL    HW124062   0.286   5.305   2.374
 7721SOL    HW224063   0.258   5.144   2.382
 7722SOL     OW24064   1.145   3.943   3.496
 7722SOL    HW124065   1.219   4.007   3.515
 7722SOL    HW224066   1.156   3.906   3.403
 7723SOL     OW24067   4.633   3.459   6.392
 7723SOL    HW124068   4.660   3.539   6.338
 7723SOL    HW224069   4.599   3.387   6.330
 7724SOL     OW24070   2.549   3.949   0.839
 7724SOL    HW124071   2.636   3.979   0.878
 7724SOL    HW224072   2.485   3.928   0.913
 7725SOL     OW24073   6.351   1.677   2.582
 7725SOL    HW124074   6.327   1.755   2.523
 7725SOL    HW224075   6.422   1.623   2.537
 7726SOL     OW24076   1.864   5.249   5.779
 7726SOL    HW124077   1.863   5.346   5.754
 7726SOL    HW224078   1.933   5.202   5.725
 7727SOL     OW24079   6.529   1.990   2.675
 7727SOL    HW124080   6.625   2.010   2.653
 7727SOL    HW224081   6.471   2.063   2.638
 7728SOL     OW24082   2.221   2.968   5.290
 7728SOL    HW124083   2.141   3.026   5.275
 7728SOL    HW224084   2.300   3.006   5.241
 7729SOL     OW24085   6.090   1.976   1.271
 7729SOL    HW124086   6.133   2.063   1.244
 7729SOL    HW224087   6.094   1.966   1.370
 7730SOL     OW24088   6.810   4.957   0.066
 7730SOL    HW124089   6.838   4.919   6.994
 7730SOL    HW224090   6.783   5.053   0.054
 7731SOL     OW24091   5.992   1.078   6.924
 7731SOL    HW124092   6.045   1.099   7.006
 7731SOL    HW224093   6.055   1.065   6.847
 7732SOL     OW24094   4.735   6.717   0.601
 7732SOL    HW124095   4.755   6.743   0.695
 7732SOL    HW224096   4.818   6.680   0.558
 7733SOL     OW24097   5.438   6.012   2.458
 7733SOL    HW124098   5.538   6.011   2.462
 7733SOL    HW224099   5.403   6.085   2.516
 7734SOL     OW24100   1.346   4.766   4.025
 7734SOL    HW124101   1.411   4.842   4.037
 7734SOL    HW224102   1.287   4.760   4.105
 7735SOL     OW24103   5.050   6.299   6.215
 7735SOL    HW124104   5.102   6.332   6.294
 7735SOL    HW224105   4.989   6.372   6.183
 7736SOL     OW24106   2.657   2.873   6.859
 7736SOL    HW124107   2.664   2.950   6.922
 7736SOL    HW224108   2.739   2.817   6.866
 7737SOL     OW24109   2.631   6.485   2.833
 7737SOL    HW124110   2.661   6.447   2.745
 7737SOL    HW224111   2.551   6.543   2.818
 7738SOL     OW24112   3.080   5.635   0.003
 7738SOL    HW124113   3.142   5.623   0.081
 7738SOL    HW224114   2.987   5.612   0.031
 7739SOL     OW24115   0.076   2.299   1.884
 7739SOL    HW124116   0.132   2.305   1.801
 7739SOL    HW224117   7.009   2.354   1.872
 7740SOL     OW24118   2.861   0.702   3.284
 7740SOL    HW124119   2.804   0.621   3.276
 7740SOL    HW224120   2.935   0.698   3.217
 7741SOL     OW24121   0.199   4.985   5.947
 7741SOL    HW124122   0.274   5.025   5.895
 7741SOL    HW224123   0.119   4.973   5.887
 7742SOL     OW24124   4.208   2.038   2.976
 7742SOL    HW124125   4.190   1.983   2.895
 7742SOL    HW224126   4.129   2.033   3.037
 7743SOL     OW24127   5.415   2.006   0.319
 7743SOL    HW124128   5.380   1.979   0.229
 7743SOL    HW224129   5.345   1.992   0.388
 7744SOL     OW24130   0.810   0.502   4.352
 7744SOL    HW124131   0.755   0.426   4.386
 7744SOL    HW224132   0.824   0.568   4.426
 7745SOL     OW24133   3.982   1.293   6.577
 7745SOL    HW124134   3.979   1.346   6.492
 7745SOL    HW224135   3.952   1.350   6.653
 7746SOL     OW24136   1.003   0.722   0.354
 7746SOL    HW124137   0.904   0.728   0.343
 7746SOL    HW224138   1.043   0.684   0.270
 7747SOL     OW24139   5.882   6.049   0.994
 7747SOL    HW124140   5.938   6.016   0.918
 7747SOL    HW224141   5.876   6.149   0.990
 7748SOL     OW24142   2.898   3.660   4.607
 7748SOL    HW124143   2.940   3.589   4.663
 7748SOL    HW224144   2.799   3.663   4.627
 7749SOL     OW24145   3.274   3.462   5.842
 7749SOL    HW124146   3.198   3.473   5.907
 7749SOL    HW224147   3.243   3.485   5.750
 7750SOL     OW24148   6.921   5.663   0.418
 7750SOL    HW124149   6.920   5.671   0.319
 7750SOL    HW224150   6.981   5.588   0.446
 7751SOL     OW24151   1.646   2.846   2.626
 7751SOL    HW124152   1.627   2.931   2.577
 7751SOL    HW224153   1.711   2.864   2.700
 7752SOL     OW24154   5.770   6.319   5.345
 7752SOL    HW124155   5.728   6.383   5.408
 7752SOL    HW224156   5.865   6.303   5.372
 7753SOL     OW24157   2.041   0.687   4.823
 7753SOL    HW124158   2.040   0.711   4.920
 7753SOL    HW224159   2.132   0.707   4.785
 7754SOL     OW24160   4.950   0.094   1.582
 7754SOL    HW124161   5.016   0.163   1.553
 7754SOL    HW224162   4.926   0.036   1.505
 7755SOL     OW24163   1.385   2.335   5.869
 7755SOL    HW124164   1.440   2.289   5.938
 7755SOL    HW224165   1.293   2.295   5.867
 7756SOL     OW24166   3.326   5.698   1.734
 7756SOL    HW124167   3.342   5.632   1.807
 7756SOL    HW224168   3.233   5.686   1.698
 7757SOL     OW24169   5.773   6.034   5.337
 7757SOL    HW124170   5.765   6.133   5.349
 7757SOL    HW224171   5.689   5.999   5.294
 7758SOL     OW24172   1.366   1.660   6.070
 7758SOL    HW124173   1.390   1.738   6.128
 7758SOL    HW224174   1.370   1.576   6.124
 7759SOL     OW24175   1.131   2.138   5.415
 7759SOL    HW124176   1.132   2.041   5.439
 7759SOL    HW224177   1.222   2.177   5.433
 7760SOL     OW24178   5.580   3.621   2.588
 7760SOL    HW124179   5.502   3.667   2.630
 7760SOL    HW224180   5.555   3.590   2.497
 7761SOL     OW24181   0.906   0.348   5.936
 7761SOL    HW124182   0.905   0.311   5.843
 7761SOL    HW224183   0.830   0.309   5.988
 7762SOL     OW24184   4.631   0.768   3.869
 7762SOL    HW124185   4.588   0.711   3.939
 7762SOL    HW224186   4.719   0.802   3.904
 7763SOL     OW24187   0.908   1.041   6.703
 7763SOL    HW124188   0.929   0.969   6.637
 7763SOL    HW224189   0.993   1.087   6.730
 7764SOL     OW24190   3.373   2.910   3.166
 7764SOL    HW124191   3.359   2.847   3.089
 7764SOL    HW224192   3.459   2.888   3.212
 7765SOL     OW24193   6.333   3.000   3.994
 7765SOL    HW124194   6.370   2.916   3.954
 7765SOL    HW224195   6.299   2.980   4.086
 7766SOL     OW24196   5.859   2.836   6.746
 7766SOL    HW124197   5.813   2.751   6.721
 7766SOL    HW224198   5.928   2.859   6.677
 7767SOL     OW24199   4.575   5.419   2.846
 7767SOL    HW124200   4.634   5.430   2.925
 7767SOL    HW224201   4.540   5.509   2.818
 7768SOL     OW24202   4.406   4.516   1.913
 7768SOL    HW124203   4.420   4.484   1.819
 7768SOL    HW224204   4.451   4.453   1.976
 7769SOL     OW24205   4.990   2.844   3.054
 7769SOL    HW124206   4.916   2.810   3.112
 7769SOL    HW224207   5.058   2.891   3.111
 7770SOL     OW24208   1.641   4.128   2.713
 7770SOL    HW124209   1.692   4.074   2.646
 7770SOL    HW224210   1.558   4.165   2.672
 7771SOL     OW24211   3.421   2.223   5.238
 7771SOL    HW124212   3.335   2.263   5.207
 7771SOL    HW224213   3.477   2.293   5.282
 7772SOL     OW24214   4.947   7.015   2.413
 7772SOL    HW124215   4.855   0.030   2.388
 7772SOL    HW224216   5.004   7.009   2.331
 7773SOL     OW24217   2.384   5.726   5.038
 7773SOL    HW124218   2.316   5.661   5.073
 7773SOL    HW224219   2.344   5.817   5.034
 7774SOL     OW24220   5.367   2.108   5.593
 7774SOL    HW124221   5.307   2.068   5.663
 7774SOL    HW224222   5.396   2.037   5.530
 7775SOL     OW24223   5.242   6.055   1.733
 7775SOL    HW124224   5.338   6.035   1.751
 7775SOL    HW224225   5.184   5.992   1.786
 7776SOL     OW24226   1.721   5.002   6.671
 7776SOL    HW124227   1.644   4.950   6.707
 7776SOL    HW224228   1.721   5.094   6.711
 7777SOL     OW24229   0.575   0.046   4.290
 7777SOL    HW124230   0.572   0.002   4.379
 7777SOL    HW224231   0.670   0.061   4.263
 7778SOL     OW24232   5.292   3.818   1.036
 7778SOL    HW124233   5.260   3.860   0.951
 7778SOL    HW224234   5.257   3.869   1.114
 7779SOL     OW24235   2.486   2.482   1.872
 7779SOL    HW124236   2.405   2.469   1.815
 7779SOL    HW224237   2.568   2.480   1.814
 7780SOL     OW24238   1.088   4.354   5.169
 7780SOL    HW124239   1.018   4.282   5.165
 7780SOL    HW224240   1.074   4.418   5.093
 7781SOL     OW24241   0.952   4.493   0.256
 7781SOL    HW124242   1.035   4.547   0.273
 7781SOL    HW224243   0.956   4.454   0.164
 7782SOL     OW24244   6.637   4.578   4.666
 7782SOL    HW124245   6.552   4.546   4.707
 7782SOL    HW224246   6.634   4.562   4.567
 7783SOL     OW24247   1.144   5.832   4.999
 7783SOL    HW124248   1.113   5.742   5.030
 7783SOL    HW224249   1.145   5.834   4.899
 7784SOL     OW24250   2.900   2.615   1.316
 7784SOL    HW124251   2.988   2.650   1.349
 7784SOL    HW224252   2.845   2.585   1.394
 7785SOL     OW24253   1.954   5.551   4.201
 7785SOL    HW124254   1.898   5.501   4.135
 7785SOL    HW224255   1.899   5.623   4.243
 7786SOL     OW24256   2.825   6.398   0.201
 7786SOL    HW124257   2.847   6.345   0.120
 7786SOL    HW224258   2.792   6.489   0.173
 7787SOL     OW24259   2.228   2.751   6.759
 7787SOL    HW124260   2.238   2.783   6.665
 7787SOL    HW224261   2.160   2.807   6.807
 7788SOL     OW24262   2.450   5.483   1.172
 7788SOL    HW124263   2.511   5.453   1.245
 7788SOL    HW224264   2.491   5.562   1.125
 7789SOL     OW24265   1.957   6.814   6.160
 7789SOL    HW124266   1.923   6.879   6.093
 7789SOL    HW224267   2.038   6.767   6.124
 7790SOL     OW24268   6.005   5.823   3.572
 7790SOL    HW124269   6.016   5.749   3.639
 7790SOL    HW224270   5.918   5.811   3.523
 7791SOL     OW24271   2.375   5.535   3.901
 7791SOL    HW124272   2.327   5.532   3.989
 7791SOL    HW224273   2.430   5.453   3.890
 7792SOL     OW24274   1.905   5.186   4.787
 7792SOL    HW124275   1.934   5.094   4.763
 7792SOL    HW224276   1.889   5.239   4.703
 7793SOL     OW24277   3.558   0.750   0.488
 7793SOL    HW124278   3.496   0.681   0.449
 7793SOL    HW224279   3.506   0.833   0.508
 7794SOL     OW24280   6.202   4.425   3.015
 7794SOL    HW124281   6.214   4.469   2.926
 7794SOL    HW224282   6.140   4.347   3.005
 7795SOL     OW24283   2.064   4.467   5.351
 7795SOL    HW124284   2.139   4.480   5.415
 7795SOL    HW224285   2.098   4.475   5.257
 7796SOL     OW24286   4.063   3.532   3.682
 7796SOL    HW124287   4.030   3.619   3.646
 7796SOL    HW224288   4.117   3.549   3.765
 7797SOL     OW24289   1.281   6.934   3.029
 7797SOL    HW124290   1.359   6.995   3.016
 7797SOL    HW224291   1.215   6.977   3.091
 7798SOL     OW24292   2.586   4.073   5.529
 7798SOL    HW124293   2.517   4.015   5.487
 7798SOL    HW224294   2.611   4.147   5.467
 7799SOL     OW24295   0.870   6.387   2.754
 7799SOL    HW124296   0.949   6.445   2.774
 7799SOL    HW224297   0.879   6.300   2.803
 7800SOL     OW24298   0.803   5.515   1.564
 7800SOL    HW124299   0.762   5.452   1.499
 7800SOL    HW224300   0.767   5.497   1.656
 7801SOL     OW24301   2.430   1.752   1.687
 7801SOL    HW124302   2.450   1.654   1.680
 7801SOL    HW224303   2.504   1.798   1.737
 7802SOL     OW24304   6.030   2.668   1.070
 7802SOL    HW124305   5.992   2.685   1.161
 7802SOL    HW224306   5.971   2.605   1.020
 7803SOL     OW24307   4.782   1.768   5.957
 7803SOL    HW124308   4.715   1.797   5.889
 7803SOL    HW224309   4.839   1.845   5.983
 7804SOL     OW24310   4.659   2.124   3.810
 7804SOL    HW124311   4.745   2.175   3.801
 7804SOL    HW224312   4.679   2.027   3.825
 7805SOL     OW24313   5.696   2.828   1.598
 7805SOL    HW124314   5.631   2.895   1.633
 7805SOL    HW224315   5.775   2.876   1.558
 7806SOL     OW24316   5.808   1.701   0.209
 7806SOL    HW124317   5.897   1.747   0.213
 7806SOL    HW224318   5.820   1.604   0.231
 7807SOL     OW24319   1.501   4.762   5.471
 7807SOL    HW124320   1.556   4.754   5.388
 7807SOL    HW224321   1.405   4.772   5.447
 7808SOL     OW24322   6.288   3.206   3.523
 7808SOL    HW124323   6.344   3.124   3.537
 7808SOL    HW224324   6.196   3.189   3.560
 7809SOL     OW24325   2.824   5.178   3.694
 7809SOL    HW124326   2.768   5.241   3.641
 7809SOL    HW224327   2.773   5.093   3.709
 7810SOL     OW24328   3.551   0.251   4.352
 7810SOL    HW124329   3.589   0.160   4.372
 7810SOL    HW224330   3.531   0.298   4.438
 7811SOL     OW24331   1.798   5.438   2.333
 7811SOL    HW124332   1.733   5.374   2.291
 7811SOL    HW224333   1.867   5.386   2.384
 7812SOL     OW24334   0.442   1.817   4.259
 7812SOL    HW124335   0.493   1.738   4.226
 7812SOL    HW224336   0.345   1.797   4.260
 7813SOL     OW24337   5.257   2.706   6.782
 7813SOL    HW124338   5.210   2.793   6.791
 7813SOL    HW224339   5.194   2.631   6.805
 7814SOL     OW24340   0.339   3.725   3.369
 7814SOL    HW124341   0.346   3.812   3.418
 7814SOL    HW224342   0.343   3.649   3.435
 7815SOL     OW24343   5.430   0.993   5.569
 7815SOL    HW124344   5.352   1.040   5.527
 7815SOL    HW224345   5.456   0.915   5.512
 7816SOL     OW24346   1.818   2.455   6.393
 7816SOL    HW124347   1.844   2.463   6.297
 7816SOL    HW224348   1.899   2.437   6.449
 7817SOL     OW24349   5.270   4.951   3.118
 7817SOL    HW124350   5.279   4.925   3.214
 7817SOL    HW224351   5.343   5.015   3.094
 7818SOL     OW24352   4.232   0.617   2.047
 7818SOL    HW124353   4.327   0.594   2.065
 7818SOL    HW224354   4.219   0.716   2.058
 7819SOL     OW24355   0.295   3.660   1.937
 7819SOL    HW124356   0.264   3.655   2.032
 7819SOL    HW224357   0.250   3.588   1.884
 7820SOL     OW24358   1.171   1.805   5.918
 7820SOL    HW124359   1.224   1.872   5.866
 7820SOL    HW224360   1.233   1.744   5.967
 7821SOL     OW24361   5.601   5.727   0.290
 7821SOL    HW124362   5.529   5.765   0.348
 7821SOL    HW224363   5.687   5.774   0.310
 7822SOL     OW24364   2.240   2.273   6.370
 7822SOL    HW124365   2.260   2.200   6.434
 7822SOL    HW224366   2.320   2.290   6.313
 7823SOL     OW24367   2.704   3.980   5.224
 7823SOL    HW124368   2.609   3.958   5.201
 7823SOL    HW224369   2.713   4.079   5.239
 7824SOL     OW24370   6.287   0.468   3.996
 7824SOL    HW124371   6.330   0.382   4.023
 7824SOL    HW224372   6.214   0.490   4.060
 7825SOL     OW24373   1.671   3.225   1.103
 7825SOL    HW124374   1.640   3.228   1.198
 7825SOL    HW224375   1.595   3.202   1.043
 7826SOL     OW24376   6.215   1.452   0.766
 7826SOL    HW124377   6.216   1.357   0.735
 7826SOL    HW224378   6.133   1.498   0.733
 7827SOL     OW24379   2.831   5.370   0.968
 7827SOL    HW124380   2.743   5.323   0.958
 7827SOL    HW224381   2.816   5.464   0.999
 7828SOL     OW24382   1.538   4.532   6.625
 7828SOL    HW124383   1.512   4.436   6.626
 7828SOL    HW224384   1.637   4.540   6.631
 7829SOL     OW24385   2.822   3.740   1.408
 7829SOL    HW124386   2.785   3.658   1.364
 7829SOL    HW224387   2.915   3.721   1.439
 7830SOL     OW24388   2.491   4.652   5.585
 7830SOL    HW124389   2.587   4.642   5.611
 7830SOL    HW224390   2.440   4.569   5.608
 7831SOL     OW24391   1.706   6.241   1.163
 7831SOL    HW124392   1.644   6.293   1.104
 7831SOL    HW224393   1.721   6.150   1.125
 7832SOL     OW24394   4.529   1.070   3.348
 7832SOL    HW124395   4.586   1.147   3.319
 7832SOL    HW224396   4.580   0.985   3.341
 7833SOL     OW24397   0.542   1.303   6.388
 7833SOL    HW124398   0.532   1.313   6.487
 7833SOL    HW224399   0.567   1.392   6.348
 7834SOL     OW24400   6.368   1.823   3.621
 7834SOL    HW124401   6.417   1.910   3.621
 7834SOL    HW224402   6.356   1.792   3.526
 7835SOL     OW24403   3.336   2.218   5.639
 7835SOL    HW124404   3.297   2.152   5.575
 7835SOL    HW224405   3.313   2.191   5.732
 7836SOL     OW24406   3.218   2.984   4.940
 7836SOL    HW124407   3.293   2.953   5.000
 7836SOL    HW224408   3.133   2.938   4.967
 7837SOL     OW24409   6.618   5.839   0.201
 7837SOL    HW124410   6.597   5.931   0.232
 7837SOL    HW224411   6.548   5.776   0.235
 7838SOL     OW24412   4.062   6.745   0.243
 7838SOL    HW124413   3.998   6.770   0.315
 7838SOL    HW224414   4.143   6.804   0.249
 7839SOL     OW24415   6.030   4.739   4.919
 7839SOL    HW124416   5.994   4.776   5.005
 7839SOL    HW224417   5.973   4.662   4.890
 7840SOL     OW24418   6.157   2.582   3.727
 7840SOL    HW124419   6.137   2.558   3.632
 7840SOL    HW224420   6.240   2.534   3.756
 7841SOL     OW24421   4.155   2.237   6.848
 7841SOL    HW124422   4.151   2.286   6.760
 7841SOL    HW224423   4.121   2.144   6.836
 7842SOL     OW24424   2.489   2.030   2.701
 7842SOL    HW124425   2.574   2.060   2.657
 7842SOL    HW224426   2.419   2.016   2.631
 7843SOL     OW24427   6.366   5.649   2.940
 7843SOL    HW124428   6.276   5.637   2.982
 7843SOL    HW224429   6.437   5.628   3.008
 7844SOL     OW24430   3.657   6.530   2.332
 7844SOL    HW124431   3.583   6.483   2.380
 7844SOL    HW224432   3.722   6.566   2.400
 7845SOL     OW24433   5.220   2.025   3.430
 7845SOL    HW124434   5.137   2.007   3.482
 7845SOL    HW224435   5.212   2.113   3.383
 7846SOL     OW24436   1.159   1.192   2.249
 7846SOL    HW124437   1.177   1.194   2.348
 7846SOL    HW224438   1.188   1.278   2.208
 7847SOL     OW24439   6.784   1.931   2.958
 7847SOL    HW124440   6.704   1.876   2.981
 7847SOL    HW224441   6.821   1.900   2.870
 7848SOL     OW24442   3.663   3.737   0.322
 7848SOL    HW124443   3.733   3.705   0.386
 7848SOL    HW224444   3.582   3.679   0.329
 7849SOL     OW24445   5.577   4.333   3.794
 7849SOL    HW124446   5.651   4.293   3.849
 7849SOL    HW224447   5.494   4.341   3.850
 7850SOL     OW24448   0.248   2.555   4.875
 7850SOL    HW124449   0.252   2.479   4.810
 7850SOL    HW224450   0.160   2.553   4.923
 7851SOL     OW24451   6.812   1.362   1.834
 7851SOL    HW124452   6.760   1.411   1.764
 7851SOL    HW224453   6.905   1.346   1.801
 7852SOL     OW24454   2.635   1.784   6.249
 7852SOL    HW124455   2.631   1.760   6.346
 7852SOL    HW224456   2.674   1.876   6.238
 7853SOL     OW24457   4.625   2.130   1.283
 7853SOL    HW124458   4.635   2.219   1.329
 7853SOL    HW224459   4.715   2.088   1.272
 7854SOL     OW24460   3.797   3.352   0.276
 7854SOL    HW124461   3.709   3.340   0.230
 7854SOL    HW224462   3.814   3.275   0.337
 7855SOL     OW24463   4.742   5.617   4.020
 7855SOL    HW124464   4.681   5.634   3.942
 7855SOL    HW224465   4.817   5.558   3.991
 7856SOL     OW24466   6.377   4.916   5.300
 7856SOL    HW124467   6.393   4.891   5.204
 7856SOL    HW224468   6.416   4.846   5.360
 7857SOL     OW24469   5.486   1.794   5.607
 7857SOL    HW124470   5.556   1.731   5.641
 7857SOL    HW224471   5.423   1.744   5.547
 7858SOL     OW24472   5.758   6.241   3.886
 7858SOL    HW124473   5.809   6.168   3.841
 7858SOL    HW224474   5.686   6.201   3.943
 7859SOL     OW24475   4.540   2.728   6.723
 7859SOL    HW124476   4.495   2.776   6.648
 7859SOL    HW224477   4.473   2.668   6.768
 7860SOL     OW24478   3.491   0.164   2.654
 7860SOL    HW124479   3.418   0.117   2.606
 7860SOL    HW224480   3.468   0.261   2.665
 7861SOL     OW24481   3.582   4.852   1.671
 7861SOL    HW124482   3.659   4.904   1.708
 7861SOL    HW224483   3.574   4.765   1.721
 7862SOL     OW24484   2.105   3.868   1.342
 7862SOL    HW124485   2.071   3.959   1.320
 7862SOL    HW224486   2.205   3.871   1.348
 7863SOL     OW24487   0.327   5.230   3.937
 7863SOL    HW124488   0.390   5.303   3.963
 7863SOL    HW224489   0.327   5.159   4.008
 7864SOL     OW24490   0.623   5.439   5.280
 7864SOL    HW124491   0.590   5.501   5.209
 7864SOL    HW224492   0.556   5.366   5.295
 7865SOL     OW24493   6.323   6.140   4.035
 7865SOL    HW124494   6.303   6.237   4.028
 7865SOL    HW224495   6.272   6.100   4.111
 7866SOL     OW24496   1.540   1.484   6.431
 7866SOL    HW124497   1.603   1.418   6.389
 7866SOL    HW224498   1.450   1.474   6.390
 7867SOL     OW24499   6.370   5.990   3.599
 7867SOL    HW124500   6.313   6.066   3.567
 7867SOL    HW224501   6.381   5.997   3.698
 7868SOL     OW24502   5.500   6.018   1.318
 7868SOL    HW124503   5.572   5.949   1.328
 7868SOL    HW224504   5.479   6.057   1.408
 7869SOL     OW24505   6.238   3.953   0.294
 7869SOL    HW124506   6.177   3.921   0.222
 7869SOL    HW224507   6.235   4.053   0.298
 7870SOL     OW24508   3.976   4.823   3.780
 7870SOL    HW124509   4.066   4.790   3.810
 7870SOL    HW224510   3.977   4.837   3.681
 7871SOL     OW24511   4.767   2.984   2.367
 7871SOL    HW124512   4.784   2.931   2.284
 7871SOL    HW224513   4.675   3.025   2.363
 7872SOL     OW24514   2.125   4.436   3.381
 7872SOL    HW124515   2.169   4.525   3.386
 7872SOL    HW224516   2.145   4.394   3.292
 7873SOL     OW24517   5.679   0.811   5.778
 7873SOL    HW124518   5.694   0.907   5.800
 7873SOL    HW224519   5.708   0.754   5.856
 7874SOL     OW24520   5.366   1.920   6.817
 7874SOL    HW124521   5.318   1.853   6.760
 7874SOL    HW224522   5.443   1.958   6.766
 7875SOL     OW24523   5.045   2.947   6.884
 7875SOL    HW124524   4.992   2.952   6.968
 7875SOL    HW224525   5.001   3.002   6.813
 7876SOL     OW24526   1.084   0.350   5.016
 7876SOL    HW124527   1.142   0.311   5.088
 7876SOL    HW224528   1.040   0.277   4.965
 7877SOL     OW24529   0.734   2.046   3.184
 7877SOL    HW124530   0.806   2.112   3.164
 7877SOL    HW224531   0.760   1.992   3.264
 7878SOL     OW24532   5.803   5.019   4.947
 7878SOL    HW124533   5.730   5.015   4.878
 7878SOL    HW224534   5.810   4.929   4.992
 7879SOL     OW24535   4.486   4.856   3.293
 7879SOL    HW124536   4.395   4.823   3.266
 7879SOL    HW224537   4.556   4.801   3.247
 7880SOL     OW24538   1.454   5.131   0.775
 7880SOL    HW124539   1.460   5.157   0.872
 7880SOL    HW224540   1.461   5.031   0.768
 7881SOL     OW24541   6.542   4.336   4.473
 7881SOL    HW124542   6.510   4.360   4.564
 7881SOL    HW224543   6.572   4.240   4.472
 7882SOL     OW24544   0.887   2.580   1.810
 7882SOL    HW124545   0.799   2.621   1.836
 7882SOL    HW224546   0.893   2.488   1.849
 7883SOL     OW24547   0.923   0.827   0.711
 7883SOL    HW124548   0.989   0.818   0.636
 7883SOL    HW224549   0.894   0.922   0.718
 7884SOL     OW24550   2.146   3.688   4.208
 7884SOL    HW124551   2.236   3.652   4.234
 7884SOL    HW224552   2.130   3.774   4.255
 7885SOL     OW24553   6.568   4.689   1.928
 7885SOL    HW124554   6.591   4.784   1.950
 7885SOL    HW224555   6.637   4.651   1.866
 7886SOL     OW24556   3.328   5.368   6.700
 7886SOL    HW124557   3.271   5.435   6.747
 7886SOL    HW224558   3.272   5.289   6.674
 7887SOL     OW24559   3.483   2.817   5.169
 7887SOL    HW124560   3.392   2.808   5.210
 7887SOL    HW224561   3.475   2.834   5.071
 7888SOL     OW24562   6.572   0.424   4.873
 7888SOL    HW124563   6.552   0.335   4.914
 7888SOL    HW224564   6.486   0.465   4.841
 7889SOL     OW24565   1.501   4.965   0.274
 7889SOL    HW124566   1.571   5.008   0.331
 7889SOL    HW224567   1.540   4.941   0.185
 7890SOL     OW24568   1.028   2.622   3.264
 7890SOL    HW124569   1.003   2.715   3.238
 7890SOL    HW224570   1.127   2.617   3.280
 7891SOL     OW24571   2.107   4.023   3.626
 7891SOL    HW124572   2.106   3.930   3.663
 7891SOL    HW224573   2.143   4.021   3.533
 7892SOL     OW24574   1.798   1.075   3.829
 7892SOL    HW124575   1.884   1.105   3.872
 7892SOL    HW224576   1.818   1.039   3.738
 7893SOL     OW24577   6.586   6.117   2.843
 7893SOL    HW124578   6.503   6.161   2.877
 7893SOL    HW224579   6.625   6.059   2.915
 7894SOL     OW24580   3.834   6.683   0.429
 7894SOL    HW124581   3.822   6.674   0.330
 7894SOL    HW224582   3.766   6.628   0.476
 7895SOL     OW24583   5.508   0.357   4.668
 7895SOL    HW124584   5.466   0.267   4.679
 7895SOL    HW224585   5.583   0.367   4.734
 7896SOL     OW24586   4.704   3.422   0.926
 7896SOL    HW124587   4.632   3.422   0.996
 7896SOL    HW224588   4.793   3.426   0.971
 7897SOL     OW24589   2.914   3.895   0.173
 7897SOL    HW124590   2.965   3.973   0.137
 7897SOL    HW224591   2.933   3.885   0.271
 7898SOL     OW24592   3.924   2.129   2.767
 7898SOL    HW124593   3.883   2.179   2.842
 7898SOL    HW224594   3.890   2.035   2.766
 7899SOL     OW24595   5.749   0.337   1.321
 7899SOL    HW124596   5.787   0.342   1.414
 7899SOL    HW224597   5.818   0.366   1.256
 7900SOL     OW24598   1.627   4.546   2.181
 7900SOL    HW124599   1.602   4.609   2.254
 7900SOL    HW224600   1.726   4.538   2.177
 7901SOL     OW24601   4.853   1.572   6.669
 7901SOL    HW124602   4.917   1.565   6.594
 7901SOL    HW224603   4.901   1.602   6.752
 7902SOL     OW24604   5.983   6.476   1.166
 7902SOL    HW124605   6.002   6.378   1.159
 7902SOL    HW224606   5.886   6.491   1.145
 7903SOL     OW24607   5.622   1.476   1.039
 7903SOL    HW124608   5.536   1.429   1.056
 7903SOL    HW224609   5.675   1.426   0.971
 7904SOL     OW24610   5.373   0.384   3.376
 7904SOL    HW124611   5.354   0.303   3.432
 7904SOL    HW224612   5.410   0.457   3.434
 7905SOL     OW24613   4.884   2.238   0.144
 7905SOL    HW124614   4.917   2.144   0.154
 7905SOL    HW224615   4.935   2.299   0.205
 7906SOL     OW24616   0.404   5.330   0.750
 7906SOL    HW124617   0.429   5.400   0.683
 7906SOL    HW224618   0.324   5.279   0.718
 7907SOL     OW24619   5.537   2.185   3.001
 7907SOL    HW124620   5.470   2.130   3.051
 7907SOL    HW224621   5.533   2.162   2.904
 7908SOL     OW24622   1.194   1.475   5.355
 7908SOL    HW124623   1.137   1.508   5.280
 7908SOL    HW224624   1.199   1.546   5.426
 7909SOL     OW24625   5.634   4.328   4.840
 7909SOL    HW124626   5.596   4.370   4.758
 7909SOL    HW224627   5.717   4.278   4.817
 7910SOL     OW24628   3.011   3.772   5.768
 7910SOL    HW124629   3.032   3.800   5.674
 7910SOL    HW224630   2.985   3.676   5.769
 7911SOL     OW24631   1.875   3.448   0.105
 7911SOL    HW124632   1.804   3.436   0.174
 7911SOL    HW224633   1.964   3.425   0.144
 7912SOL     OW24634   0.072   4.755   1.019
 7912SOL    HW124635   0.088   4.848   1.052
 7912SOL    HW224636   6.996   4.725   1.046
 7913SOL     OW24637   1.734   4.455   0.857
 7913SOL    HW124638   1.645   4.442   0.901
 7913SOL    HW224639   1.786   4.370   0.864
 7914SOL     OW24640   0.208   4.179   0.249
 7914SOL    HW124641   0.179   4.247   0.316
 7914SOL    HW224642   0.141   4.174   0.175
 7915SOL     OW24643   4.990   2.743   1.830
 7915SOL    HW124644   4.912   2.771   1.774
 7915SOL    HW224645   5.007   2.811   1.901
 7916SOL     OW24646   0.984   3.990   4.898
 7916SOL    HW124647   0.990   4.083   4.860
 7916SOL    HW224648   0.967   3.995   4.996
 7917SOL     OW24649   4.136   3.689   4.745
 7917SOL    HW124650   4.083   3.713   4.826
 7917SOL    HW224651   4.228   3.727   4.752
 7918SOL     OW24652   0.369   1.522   5.712
 7918SOL    HW124653   0.424   1.523   5.795
 7918SOL    HW224654   0.319   1.435   5.706
 7919SOL     OW24655   1.867   4.309   2.867
 7919SOL    HW124656   1.863   4.314   2.967
 7919SOL    HW224657   1.774   4.306   2.830
 7920SOL     OW24658   0.365   6.072   0.855
 7920SOL    HW124659   0.325   6.002   0.797
 7920SOL    HW224660   0.459   6.047   0.878
 7921SOL     OW24661   5.467   6.708   0.467
 7921SOL    HW124662   5.378   6.717   0.424
 7921SOL    HW224663   5.514   6.628   0.431
 7922SOL     OW24664   6.985   6.782   0.453
 7922SOL    HW124665   6.966   6.710   0.520
 7922SOL    HW224666   0.006   6.741   0.369
 7923SOL     OW24667   3.468   0.342   1.947
 7923SOL    HW124668   3.423   0.369   1.862
 7923SOL    HW224669   3.525   0.262   1.931
 7924SOL     OW24670   4.264   6.955   2.152
 7924SOL    HW124671   4.198   0.015   2.143
 7924SOL    HW224672   4.349   6.991   2.191
 7925SOL     OW24673   0.619   1.709   6.698
 7925SOL    HW124674   0.683   1.748   6.631
 7925SOL    HW224675   0.619   1.610   6.690
 7926SOL     OW24676   4.787   1.854   5.224
 7926SOL    HW124677   4.827   1.927   5.280
 7926SOL    HW224678   4.824   1.766   5.253
 7927SOL     OW24679   4.194   5.464   2.435
 7927SOL    HW124680   4.105   5.418   2.429
 7927SOL    HW224681   4.219   5.500   2.345
 7928SOL     OW24682   1.280   2.015   4.570
 7928SOL    HW124683   1.287   1.995   4.668
 7928SOL    HW224684   1.298   2.112   4.555
 7929SOL     OW24685   4.306   4.889   6.259
 7929SOL    HW124686   4.248   4.845   6.191
 7929SOL    HW224687   4.389   4.835   6.274
 7930SOL     OW24688   4.061   5.679   4.722
 7930SOL    HW124689   4.111   5.613   4.778
 7930SOL    HW224690   3.966   5.684   4.754
 7931SOL     OW24691   1.741   1.961   6.999
 7931SOL    HW124692   1.667   1.984   0.046
 7931SOL    HW224693   1.814   1.915   0.034
 7932SOL     OW24694   1.404   6.393   6.515
 7932SOL    HW124695   1.378   6.405   6.420
 7932SOL    HW224696   1.356   6.313   6.553
 7933SOL     OW24697   0.045   6.039   6.228
 7933SOL    HW124698   0.132   6.032   6.276
 7933SOL    HW224699   6.987   6.005   6.286
 7934SOL     OW24700   2.462   5.087   0.190
 7934SOL    HW124701   2.414   5.028   0.255
 7934SOL    HW224702   2.401   5.111   0.115
 7935SOL     OW24703   5.947   5.455   0.267
 7935SOL    HW124704   5.853   5.465   0.235
 7935SOL    HW224705   5.959   5.364   0.308
 7936SOL     OW24706   3.840   6.320   2.319
 7936SOL    HW124707   3.865   6.257   2.245
 7936SOL    HW224708   3.758   6.371   2.294
 7937SOL     OW24709   6.826   5.928   3.601
 7937SOL    HW124710   6.897   5.961   3.538
 7937SOL    HW224711   6.773   6.006   3.635
 7938SOL     OW24712   6.539   5.504   4.294
 7938SOL    HW124713   6.523   5.581   4.355
 7938SOL    HW224714   6.537   5.418   4.346
 7939SOL     OW24715   1.640   2.549   5.521
 7939SOL    HW124716   1.702   2.598   5.583
 7939SOL    HW224717   1.565   2.509   5.573
 7940SOL     OW24718   1.890   3.798   1.960
 7940SOL    HW124719   1.903   3.708   1.919
 7940SOL    HW224720   1.827   3.791   2.037
 7941SOL     OW24721   5.861   1.109   0.705
 7941SOL    HW124722   5.876   1.181   0.637
 7941SOL    HW224723   5.800   1.039   0.666
 7942SOL     OW24724   6.334   6.222   2.964
 7942SOL    HW124725   6.315   6.290   3.035
 7942SOL    HW224726   6.256   6.217   2.902
 7943SOL     OW24727   6.161   3.381   0.720
 7943SOL    HW124728   6.228   3.334   0.663
 7943SOL    HW224729   6.119   3.455   0.667
 7944SOL     OW24730   0.244   2.428   1.675
 7944SOL    HW124731   0.199   2.451   1.588
 7944SOL    HW224732   0.315   2.360   1.660
 7945SOL     OW24733   5.927   5.708   1.687
 7945SOL    HW124734   5.847   5.767   1.703
 7945SOL    HW224735   6.008   5.766   1.673
 7946SOL     OW24736   2.493   1.417   5.363
 7946SOL    HW124737   2.484   1.492   5.297
 7946SOL    HW224738   2.525   1.335   5.317
 7947SOL     OW24739   3.832   2.008   6.295
 7947SOL    HW124740   3.884   2.059   6.227
 7947SOL    HW224741   3.779   1.936   6.249
 7948SOL     OW24742   1.051   6.779   0.965
 7948SOL    HW124743   1.087   6.870   0.985
 7948SOL    HW224744   0.954   6.787   0.940
 7949SOL     OW24745   4.447   4.597   4.757
 7949SOL    HW124746   4.377   4.663   4.731
 7949SOL    HW224747   4.430   4.566   4.851
 7950SOL     OW24748   5.629   5.048   4.722
 7950SOL    HW124749   5.587   5.054   4.632
 7950SOL    HW224750   5.563   5.009   4.787
 7951SOL     OW24751   2.323   4.245   1.839
 7951SOL    HW124752   2.234   4.270   1.801
 7951SOL    HW224753   2.315   4.157   1.885
 7952SOL     OW24754   0.564   3.478   6.948
 7952SOL    HW124755   0.593   3.529   6.866
 7952SOL    HW224756   0.500   3.534   7.000
 7953SOL     OW24757   2.265   2.768   3.832
 7953SOL    HW124758   2.191   2.712   3.796
 7953SOL    HW224759   2.313   2.719   3.905
 7954SOL     OW24760   4.439   4.155   5.630
 7954SOL    HW124761   4.340   4.145   5.632
 7954SOL    HW224762   4.475   4.119   5.544
 7955SOL     OW24763   1.182   6.696   6.822
 7955SOL    HW124764   1.237   6.732   6.747
 7955SOL    HW224765   1.087   6.724   6.810
 7956SOL     OW24766   3.720   5.860   2.456
 7956SOL    HW124767   3.694   5.857   2.552
 7956SOL    HW224768   3.667   5.791   2.405
 7957SOL     OW24769   1.214   0.551   1.874
 7957SOL    HW124770   1.194   0.500   1.957
 7957SOL    HW224771   1.146   0.529   1.804
 7958SOL     OW24772   3.972   4.968   4.987
 7958SOL    HW124773   3.975   4.915   5.072
 7958SOL    HW224774   4.040   4.932   4.923
 7959SOL     OW24775   4.369   5.756   0.847
 7959SOL    HW124776   4.369   5.676   0.788
 7959SOL    HW224777   4.303   5.744   0.920
 7960SOL     OW24778   2.848   0.798   0.036
 7960SOL    HW124779   2.931   0.793   6.995
 7960SOL    HW224780   2.866   0.854   0.116
 7961SOL     OW24781   6.961   0.808   1.380
 7961SOL    HW124782   6.903   0.844   1.452
 7961SOL    HW224783   0.040   0.837   1.396
 7962SOL     OW24784   1.104   0.478   6.875
 7962SOL    HW124785   1.199   0.476   6.843
 7962SOL    HW224786   1.056   0.553   6.829
 7963SOL     OW24787   6.750   0.267   4.045
 7963SOL    HW124788   6.797   0.275   3.957
 7963SOL    HW224789   6.801   0.206   4.105
 7964SOL     OW24790   0.123   4.715   3.968
 7964SOL    HW124791   0.086   4.647   4.032
 7964SOL    HW224792   0.220   4.695   3.952
 7965SOL     OW24793   3.481   2.432   6.095
 7965SOL    HW124794   3.384   2.442   6.074
 7965SOL    HW224795   3.531   2.510   6.058
 7966SOL     OW24796   0.768   2.787   5.271
 7966SOL    HW124797   0.857   2.752   5.244
 7966SOL    HW224798   0.711   2.711   5.305
 7967SOL     OW24799   2.934   6.414   3.626
 7967SOL    HW124800   2.929   6.328   3.676
 7967SOL    HW224801   2.962   6.487   3.689
 7968SOL     OW24802   2.094   2.541   3.488
 7968SOL    HW124803   2.026   2.506   3.423
 7968SOL    HW224804   2.144   2.617   3.445
 7969SOL     OW24805   3.878   5.282   0.502
 7969SOL    HW124806   3.931   5.238   0.429
 7969SOL    HW224807   3.879   5.381   0.488
 7970SOL     OW24808   6.641   3.149   2.468
 7970SOL    HW124809   6.585   3.129   2.548
 7970SOL    HW224810   6.738   3.140   2.493
 7971SOL     OW24811   4.419   1.672   0.867
 7971SOL    HW124812   4.327   1.681   0.905
 7971SOL    HW224813   4.476   1.619   0.930
 7972SOL     OW24814   1.889   3.097   0.635
 7972SOL    HW124815   1.948   3.147   0.698
 7972SOL    HW224816   1.938   3.019   0.597
 7973SOL     OW24817   4.637   4.776   3.893
 7973SOL    HW124818   4.646   4.815   3.984
 7973SOL    HW224819   4.589   4.841   3.834
 7974SOL     OW24820   5.827   1.499   5.773
 7974SOL    HW124821   5.808   1.565   5.700
 7974SOL    HW224822   5.746   1.489   5.831
 7975SOL     OW24823   5.906   1.174   2.512
 7975SOL    HW124824   5.890   1.173   2.413
 7975SOL    HW224825   5.828   1.215   2.557
 7976SOL     OW24826   0.483   0.543   6.421
 7976SOL    HW124827   0.523   0.545   6.512
 7976SOL    HW224828   0.524   0.470   6.367
 7977SOL     OW24829   4.891   5.928   1.701
 7977SOL    HW124830   4.878   6.017   1.744
 7977SOL    HW224831   4.974   5.885   1.738
 7978SOL     OW24832   6.225   3.477   6.409
 7978SOL    HW124833   6.134   3.510   6.435
 7978SOL    HW224834   6.221   3.378   6.393
 7979SOL     OW24835   3.979   6.528   5.423
 7979SOL    HW124836   4.027   6.483   5.498
 7979SOL    HW224837   3.944   6.459   5.360
 7980SOL     OW24838   2.412   5.329   6.861
 7980SOL    HW124839   2.431   5.417   6.905
 7980SOL    HW224840   2.398   5.344   6.763
 7981SOL     OW24841   0.776   5.297   1.899
 7981SOL    HW124842   0.737   5.312   1.990
 7981SOL    HW224843   0.712   5.331   1.830
 7982SOL     OW24844   0.133   1.640   0.050
 7982SOL    HW124845   0.152   1.546   0.079
 7982SOL    HW224846   0.045   1.669   0.088
 7983SOL     OW24847   5.752   1.609   2.082
 7983SOL    HW124848   5.673   1.561   2.121
 7983SOL    HW224849   5.784   1.679   2.146
 7984SOL     OW24850   1.650   1.174   1.044
 7984SOL    HW124851   1.572   1.215   1.091
 7984SOL    HW224852   1.721   1.242   1.030
 7985SOL     OW24853   2.240   0.669   3.598
 7985SOL    HW124854   2.182   0.622   3.664
 7985SOL    HW224855   2.311   0.607   3.566
 7986SOL     OW24856   3.387   1.309   6.904
 7986SOL    HW124857   3.472   1.330   6.855
 7986SOL    HW224858   3.364   1.213   6.889
 7987SOL     OW24859   1.635   3.143   6.941
 7987SOL    HW124860   1.715   3.111   6.992
 7987SOL    HW224861   1.638   3.242   6.933
 7988SOL     OW24862   1.352   2.342   4.147
 7988SOL    HW124863   1.449   2.328   4.170
 7988SOL    HW224864   1.319   2.425   4.192
 7989SOL     OW24865   3.539   3.211   5.212
 7989SOL    HW124866   3.545   3.150   5.133
 7989SOL    HW224867   3.627   3.211   5.261
 7990SOL     OW24868   6.931   3.269   3.456
 7990SOL    HW124869   6.994   3.284   3.380
 7990SOL    HW224870   6.845   3.232   3.422
 7991SOL     OW24871   6.424   0.225   4.010
 7991SOL    HW124872   6.523   0.217   4.024
 7991SOL    HW224873   6.402   0.203   3.915
 7992SOL     OW24874   1.408   6.336   1.727
 7992SOL    HW124875   1.418   6.374   1.635
 7992SOL    HW224876   1.426   6.238   1.725
 7993SOL     OW24877   0.389   0.225   6.368
 7993SOL    HW124878   0.420   0.207   6.461
 7993SOL    HW224879   0.302   0.274   6.371
 7994SOL     OW24880   4.612   0.047   2.839
 7994SOL    HW124881   4.592   6.979   2.786
 7994SOL    HW224882   4.710   0.052   2.855
 7995SOL     OW24883   4.607   4.874   3.539
 7995SOL    HW124884   4.699   4.907   3.518
 7995SOL    HW224885   4.554   4.867   3.455
 7996SOL     OW24886   3.264   0.100   4.678
 7996SOL    HW124887   3.300   0.048   4.756
 7996SOL    HW224888   3.288   0.196   4.688
 7997SOL     OW24889   0.693   1.374   1.916
 7997SOL    HW124890   0.624   1.321   1.966
 7997SOL    HW224891   0.654   1.410   1.832
 7998SOL     OW24892   3.418   5.871   1.437
 7998SOL    HW124893   3.447   5.805   1.368
 7998SOL    HW224894   3.497   5.896   1.494
 7999SOL     OW24895   0.742   6.860   6.185
 7999SOL    HW124896   0.677   6.813   6.127
 7999SOL    HW224897   0.816   6.898   6.130
 8000SOL     OW24898   5.063   0.267   6.829
 8000SOL    HW124899   4.967   0.253   6.853
 8000SOL    HW224900   5.109   0.315   6.904
 8001SOL     OW24901   3.349   6.014   0.973
 8001SOL    HW124902   3.435   6.061   0.992
 8001SOL    HW224903   3.273   6.076   0.991
 8002SOL     OW24904   0.547   2.251   5.746
 8002SOL    HW124905   0.534   2.163   5.793
 8002SOL    HW224906   0.612   2.240   5.671
 8003SOL     OW24907   2.891   5.202   2.733
 8003SOL    HW124908   2.891   5.127   2.667
 8003SOL    HW224909   2.964   5.266   2.711
 8004SOL     OW24910   1.967   3.047   3.636
 8004SOL    HW124911   1.924   2.980   3.697
 8004SOL    HW224912   1.981   3.007   3.546
 8005SOL     OW24913   3.428   0.357   2.421
 8005SOL    HW124914   3.385   0.438   2.382
 8005SOL    HW224915   3.505   0.328   2.363
 8006SOL     OW24916   2.196   0.582   6.703
 8006SOL    HW124917   2.104   0.550   6.679
 8006SOL    HW224918   2.244   0.511   6.753
 8007SOL     OW24919   6.781   1.275   4.392
 8007SOL    HW124920   6.813   1.220   4.470
 8007SOL    HW224921   6.746   1.215   4.321
 8008SOL     OW24922   4.605   5.964   5.832
 8008SOL    HW124923   4.699   5.953   5.802
 8008SOL    HW224924   4.552   6.011   5.761
 8009SOL     OW24925   5.804   1.008   3.178
 8009SOL    HW124926   5.835   1.026   3.085
 8009SOL    HW224927   5.728   1.069   3.201
 8010SOL     OW24928   0.439   1.077   6.921
 8010SOL    HW124929   0.455   1.157   6.978
 8010SOL    HW224930   0.414   0.999   6.979
 8011SOL     OW24931   3.363   2.009   0.722
 8011SOL    HW124932   3.317   2.010   0.810
 8011SOL    HW224933   3.462   2.009   0.736
 8012SOL     OW24934   2.194   4.508   1.482
 8012SOL    HW124935   2.219   4.576   1.414
 8012SOL    HW224936   2.225   4.538   1.573
 8013SOL     OW24937   1.171   5.134   3.475
 8013SOL    HW124938   1.155   5.232   3.475
 8013SOL    HW224939   1.184   5.102   3.381
 8014SOL     OW24940   1.179   6.792   5.111
 8014SOL    HW124941   1.222   6.702   5.105
 8014SOL    HW224942   1.161   6.827   5.019
 8015SOL     OW24943   2.481   1.148   0.460
 8015SOL    HW124944   2.540   1.229   0.457
 8015SOL    HW224945   2.521   1.075   0.405
 8016SOL     OW24946   5.431   0.426   5.781
 8016SOL    HW124947   5.441   0.419   5.880
 8016SOL    HW224948   5.474   0.510   5.748
 8017SOL     OW24949   6.243   6.747   0.531
 8017SOL    HW124950   6.241   6.661   0.581
 8017SOL    HW224951   6.241   6.823   0.596
 8018SOL     OW24952   3.255   2.133   5.878
 8018SOL    HW124953   3.157   2.115   5.884
 8018SOL    HW224954   3.306   2.050   5.900
 8019SOL     OW24955   2.381   4.531   6.100
 8019SOL    HW124956   2.450   4.564   6.165
 8019SOL    HW224957   2.312   4.603   6.086
 8020SOL     OW24958   5.938   6.727   0.544
 8020SOL    HW124959   6.020   6.735   0.488
 8020SOL    HW224960   5.928   6.808   0.600
 8021SOL     OW24961   1.719   1.788   1.366
 8021SOL    HW124962   1.816   1.775   1.383
 8021SOL    HW224963   1.695   1.884   1.378
 8022SOL     OW24964   5.094   6.476   2.681
 8022SOL    HW124965   5.005   6.450   2.644
 8022SOL    HW224966   5.094   6.462   2.780
 8023SOL     OW24967   6.079   5.307   3.122
 8023SOL    HW124968   6.177   5.295   3.141
 8023SOL    HW224969   6.045   5.229   3.069
 8024SOL     OW24970   2.852   4.918   6.900
 8024SOL    HW124971   2.848   4.977   6.819
 8024SOL    HW224972   2.909   4.960   6.970
 8025SOL     OW24973   2.419   6.419   6.682
 8025SOL    HW124974   2.510   6.425   6.643
 8025SOL    HW224975   2.389   6.510   6.710
 8026SOL     OW24976   0.966   4.371   6.422
 8026SOL    HW124977   1.048   4.358   6.478
 8026SOL    HW224978   0.988   4.432   6.345
 8027SOL     OW24979   4.536   0.880   5.333
 8027SOL    HW124980   4.514   0.950   5.400
 8027SOL    HW224981   4.555   0.794   5.379
 8028SOL     OW24982   3.262   4.903   4.455
 8028SOL    HW124983   3.322   4.967   4.503
 8028SOL    HW224984   3.187   4.877   4.516
 8029SOL     OW24985   4.997   3.207   1.215
 8029SOL    HW124986   4.925   3.137   1.222
 8029SOL    HW224987   4.982   3.261   1.132
 8030SOL     OW24988   4.114   4.446   0.138
 8030SOL    HW124989   4.046   4.519   0.145
 8030SOL    HW224990   4.139   4.433   0.042
 8031SOL     OW24991   5.504   6.443   2.654
 8031SOL    HW124992   5.578   6.420   2.590
 8031SOL    HW224993   5.544   6.467   2.742
 8032SOL     OW24994   6.515   5.228   6.745
 8032SOL    HW124995   6.464   5.148   6.776
 8032SOL    HW224996   6.610   5.202   6.726
 8033SOL     OW24997   4.725   2.628   5.839
 8033SOL    HW124998   4.812   2.578   5.843
 8033SOL    HW224999   4.665   2.594   5.911
 8034SOL     OW25000   6.287   0.473   4.877
 8034SOL    HW125001   6.236   0.534   4.937
 8034SOL    HW225002   6.229   0.445   4.800
 8035SOL     OW25003   5.103   1.888   4.536
 8035SOL    HW125004   5.033   1.905   4.606
 8035SOL    HW225005   5.083   1.944   4.456
 8036SOL     OW25006   0.940   4.350   2.746
 8036SOL    HW125007   0.870   4.311   2.687
 8036SOL    HW225008   0.899   4.418   2.806
 8037SOL     OW25009   1.771   3.109   1.589
 8037SOL    HW125010   1.829   3.189   1.579
 8037SOL    HW225011   1.788   3.067   1.678
 8038SOL     OW25012   3.474   0.376   3.194
 8038SOL    HW125013   3.465   0.450   3.127
 8038SOL    HW225014   3.439   0.291   3.155
 8039SOL     OW25015   0.753   1.766   4.199
 8039SOL    HW125016   0.768   1.706   4.278
 8039SOL    HW225017   0.797   1.854   4.216
 8040SOL     OW25018   1.939   6.440   0.525
 8040SOL    HW125019   1.939   6.539   0.507
 8040SOL    HW225020   1.885   6.394   0.455
 8041SOL     OW25021   2.829   0.938   2.266
 8041SOL    HW125022   2.863   1.032   2.264
 8041SOL    HW225023   2.878   0.886   2.335
 8042SOL     OW25024   3.148   3.047   3.663
 8042SOL    HW125025   3.180   3.038   3.569
 8042SOL    HW225026   3.097   3.133   3.672
 8043SOL     OW25027   4.347   6.789   2.545
 8043SOL    HW125028   4.417   6.786   2.616
 8043SOL    HW225029   4.299   6.876   2.549
 8044SOL     OW25030   3.717   2.922   0.884
 8044SOL    HW125031   3.716   2.869   0.798
 8044SOL    HW225032   3.777   2.876   0.950
 8045SOL     OW25033   5.409   0.758   1.685
 8045SOL    HW125034   5.490   0.769   1.742
 8045SOL    HW225035   5.329   0.791   1.734
 8046SOL     OW25036   0.247   5.140   0.963
 8046SOL    HW125037   0.249   5.125   0.865
 8046SOL    HW225038   0.340   5.130   1.000
 8047SOL     OW25039   3.704   5.400   4.664
 8047SOL    HW125040   3.682   5.436   4.755
 8047SOL    HW225041   3.701   5.301   4.666
 8048SOL     OW25042   5.008   1.190   5.679
 8048SOL    HW125043   5.082   1.256   5.666
 8048SOL    HW225044   5.018   1.145   5.768
 8049SOL     OW25045   0.495   0.177   0.057
 8049SOL    HW125046   0.526   0.095   0.009
 8049SOL    HW225047   0.468   0.247   7.006
 8050SOL     OW25048   1.823   3.854   2.814
 8050SOL    HW125049   1.920   3.841   2.837
 8050SOL    HW225050   1.809   3.947   2.782
 8051SOL     OW25051   4.406   5.550   2.598
 8051SOL    HW125052   4.324   5.511   2.558
 8051SOL    HW225053   4.485   5.529   2.540
 8052SOL     OW25054   4.654   2.087   2.002
 8052SOL    HW125055   4.558   2.073   1.977
 8052SOL    HW225056   4.686   2.175   1.965
 8053SOL     OW25057   2.873   3.627   3.488
 8053SOL    HW125058   2.844   3.533   3.472
 8053SOL    HW225059   2.935   3.655   3.414
 8054SOL     OW25060   4.604   0.255   4.485
 8054SOL    HW125061   4.658   0.332   4.517
 8054SOL    HW225062   4.541   0.286   4.413
 8055SOL     OW25063   0.325   6.983   5.507
 8055SOL    HW125064   0.278   0.018   5.579
 8055SOL    HW225065   0.259   6.924   5.459
 8056SOL     OW25066   3.770   2.060   4.016
 8056SOL    HW125067   3.689   2.105   4.054
 8056SOL    HW225068   3.851   2.090   4.066
 8057SOL     OW25069   2.792   1.905   3.222
 8057SOL    HW125070   2.839   1.958   3.152
 8057SOL    HW225071   2.717   1.854   3.180
 8058SOL     OW25072   4.512   0.567   1.802
 8058SOL    HW125073   4.594   0.543   1.854
 8058SOL    HW225074   4.513   0.520   1.714
 8059SOL     OW25075   4.233   2.189   4.304
 8059SOL    HW125076   4.286   2.246   4.368
 8059SOL    HW225077   4.146   2.164   4.347
 8060SOL     OW25078   0.145   2.302   3.692
 8060SOL    HW125079   0.169   2.392   3.655
 8060SOL    HW225080   0.212   2.235   3.661
 8061SOL     OW25081   0.385   0.792   2.429
 8061SOL    HW125082   0.370   0.700   2.393
 8061SOL    HW225083   0.297   0.840   2.436
 8062SOL     OW25084   3.409   5.116   4.590
 8062SOL    HW125085   3.362   5.196   4.553
 8062SOL    HW225086   3.502   5.112   4.553
 8063SOL     OW25087   0.844   2.617   1.102
 8063SOL    HW125088   0.852   2.628   1.201
 8063SOL    HW225089   0.805   2.527   1.082
 8064SOL     OW25090   0.222   4.191   1.788
 8064SOL    HW125091   0.168   4.266   1.828
 8064SOL    HW225092   0.318   4.218   1.783
 8065SOL     OW25093   2.955   5.787   4.402
 8065SOL    HW125094   2.862   5.751   4.408
 8065SOL    HW225095   2.984   5.818   4.492
 8066SOL     OW25096   0.495   1.981   5.787
 8066SOL    HW125097   0.480   1.971   5.885
 8066SOL    HW225098   0.411   1.957   5.738
 8067SOL     OW25099   4.727   2.830   1.764
 8067SOL    HW125100   4.710   2.920   1.803
 8067SOL    HW225101   4.662   2.764   1.802
 8068SOL     OW25102   7.005   4.140   0.540
 8068SOL    HW125103   6.933   4.144   0.610
 8068SOL    HW225104   0.039   4.226   0.539
 8069SOL     OW25105   1.912   6.491   1.100
 8069SOL    HW125106   1.877   6.457   1.013
 8069SOL    HW225107   1.911   6.417   1.167
 8070SOL     OW25108   3.388   3.688   0.356
 8070SOL    HW125109   3.362   3.773   0.311
 8070SOL    HW225110   3.336   3.612   0.317
 8071SOL     OW25111   3.011   6.259   4.814
 8071SOL    HW125112   2.962   6.180   4.851
 8071SOL    HW225113   2.984   6.342   4.863
 8072SOL     OW25114   3.712   0.855   0.030
 8072SOL    HW125115   3.797   0.810   0.003
 8072SOL    HW225116   3.718   0.885   0.125
 8073SOL     OW25117   3.733   5.714   5.438
 8073SOL    HW125118   3.713   5.810   5.424
 8073SOL    HW225119   3.718   5.664   5.352
 8074SOL     OW25120   4.013   2.281   0.377
 8074SOL    HW125121   3.941   2.284   0.447
 8074SOL    HW225122   4.022   2.371   0.334
 8075SOL     OW25123   6.751   0.761   0.488
 8075SOL    HW125124   6.682   0.707   0.440
 8075SOL    HW225125   6.722   0.857   0.493
 8076SOL     OW25126   5.793   2.107   5.682
 8076SOL    HW125127   5.873   2.049   5.697
 8076SOL    HW225128   5.734   2.065   5.612
 8077SOL     OW25129   2.254   5.681   1.306
 8077SOL    HW125130   2.321   5.611   1.279
 8077SOL    HW225131   2.270   5.706   1.401
 8078SOL     OW25132   6.230   1.729   0.357
 8078SOL    HW125133   6.317   1.778   0.353
 8078SOL    HW225134   6.164   1.773   0.296
 8079SOL     OW25135   4.501   1.638   3.231
 8079SOL    HW125136   4.507   1.575   3.153
 8079SOL    HW225137   4.535   1.728   3.203
 8080SOL     OW25138   0.309   2.766   0.269
 8080SOL    HW125139   0.323   2.677   0.313
 8080SOL    HW225140   0.250   2.823   0.326
 8081SOL     OW25141   5.225   6.606   4.313
 8081SOL    HW125142   5.180   6.567   4.393
 8081SOL    HW225143   5.221   6.706   4.318
 8082SOL     OW25144   5.267   6.764   1.708
 8082SOL    HW125145   5.211   6.758   1.625
 8082SOL    HW225146   5.312   6.853   1.711
 8083SOL     OW25147   4.964   3.971   2.470
 8083SOL    HW125148   5.036   4.040   2.474
 8083SOL    HW225149   4.990   3.894   2.529
 8084SOL     OW25150   4.761   0.465   0.120
 8084SOL    HW125151   4.686   0.447   0.184
 8084SOL    HW225152   4.775   0.384   0.062
 8085SOL     OW25153   5.688   6.702   2.427
 8085SOL    HW125154   5.608   6.710   2.367
 8085SOL    HW225155   5.709   6.605   2.442
 8086SOL     OW25156   4.326   1.136   3.665
 8086SOL    HW125157   4.412   1.187   3.672
 8086SOL    HW225158   4.290   1.144   3.572
 8087SOL     OW25159   2.771   1.030   0.635
 8087SOL    HW125160   2.830   0.991   0.706
 8087SOL    HW225161   2.706   0.960   0.603
 8088SOL     OW25162   5.375   2.940   1.627
 8088SOL    HW125163   5.333   2.943   1.536
 8088SOL    HW225164   5.375   3.031   1.666
 8089SOL     OW25165   4.981   2.651   0.669
 8089SOL    HW125166   5.072   2.686   0.646
 8089SOL    HW225167   4.912   2.714   0.634
 8090SOL     OW25168   4.527   1.947   6.898
 8090SOL    HW125169   4.514   1.848   6.897
 8090SOL    HW225170   4.443   1.991   6.931
 8091SOL     OW25171   2.483   3.361   6.207
 8091SOL    HW125172   2.400   3.344   6.259
 8091SOL    HW225173   2.525   3.447   6.238
 8092SOL     OW25174   7.003   2.716   5.209
 8092SOL    HW125175   0.045   2.778   5.156
 8092SOL    HW225176   7.010   2.623   5.171
 8093SOL     OW25177   4.734   4.949   2.485
 8093SOL    HW125178   4.646   4.993   2.500
 8093SOL    HW225179   4.722   4.850   2.483
 8094SOL     OW25180   1.481   3.248   5.212
 8094SOL    HW125181   1.398   3.228   5.159
 8094SOL    HW225182   1.557   3.192   5.179
 8095SOL     OW25183   6.474   3.879   4.843
 8095SOL    HW125184   6.484   3.829   4.929
 8095SOL    HW225185   6.402   3.838   4.788
 8096SOL     OW25186   2.840   6.167   3.737
 8096SOL    HW125187   2.931   6.129   3.753
 8096SOL    HW225188   2.793   6.114   3.667
 8097SOL     OW25189   4.609   6.390   3.929
 8097SOL    HW125190   4.631   6.485   3.908
 8097SOL    HW225191   4.675   6.353   3.994
 8098SOL     OW25192   2.268   6.928   3.838
 8098SOL    HW125193   2.192   6.990   3.855
 8098SOL    HW225194   2.233   6.834   3.831
 8099SOL     OW25195   4.402   0.501   3.916
 8099SOL    HW125196   4.319   0.460   3.953
 8099SOL    HW225197   4.442   0.563   3.983
 8100SOL     OW25198   6.043   0.231   0.282
 8100SOL    HW125199   5.984   0.157   0.248
 8100SOL    HW225200   6.130   0.228   0.233
 8101SOL     OW25201   2.157   0.073   3.588
 8101SOL    HW125202   2.195   0.041   3.502
 8101SOL    HW225203   2.181   0.009   3.661
 8102SOL     OW25204   0.536   4.908   4.328
 8102SOL    HW125205   0.612   4.844   4.330
 8102SOL    HW225206   0.450   4.858   4.313
 8103SOL     OW25207   4.435   0.537   1.080
 8103SOL    HW125208   4.488   0.480   1.143
 8103SOL    HW225209   4.404   0.620   1.128
 8104SOL     OW25210   2.831   0.075   6.087
 8104SOL    HW125211   2.881   0.125   6.017
 8104SOL    HW225212   2.891   0.008   6.130
 8105SOL     OW25213   0.686   2.438   3.505
 8105SOL    HW125214   0.608   2.380   3.527
 8105SOL    HW225215   0.762   2.417   3.567
 8106SOL     OW25216   2.101   6.328   2.654
 8106SOL    HW125217   2.166   6.320   2.731
 8106SOL    HW225218   2.128   6.265   2.582
 8107SOL     OW25219   0.434   5.913   4.888
 8107SOL    HW125220   0.359   5.936   4.950
 8107SOL    HW225221   0.517   5.961   4.918
 8108SOL     OW25222   6.367   3.099   5.197
 8108SOL    HW125223   6.411   3.188   5.184
 8108SOL    HW225224   6.374   3.072   5.293
 8109SOL     OW25225   2.133   3.798   4.494
 8109SOL    HW125226   2.067   3.817   4.422
 8109SOL    HW225227   2.187   3.880   4.512
 8110SOL     OW25228   2.991   6.275   0.453
 8110SOL    HW125229   2.931   6.353   0.431
 8110SOL    HW225230   3.032   6.240   0.369
 8111SOL     OW25231   3.832   0.926   4.485
 8111SOL    HW125232   3.831   0.906   4.387
 8111SOL    HW225233   3.739   0.951   4.515
 8112SOL     OW25234   2.310   2.254   4.764
 8112SOL    HW125235   2.348   2.285   4.677
 8112SOL    HW225236   2.252   2.326   4.803
 8113SOL     OW25237   3.503   3.256   1.105
 8113SOL    HW125238   3.488   3.341   1.155
 8113SOL    HW225239   3.601   3.245   1.086
 8114SOL     OW25240   2.275   3.997   1.964
 8114SOL    HW125241   2.312   3.947   1.885
 8114SOL    HW225242   2.230   3.933   2.026
 8115SOL     OW25243   3.446   0.168   0.529
 8115SOL    HW125244   3.465   0.220   0.445
 8115SOL    HW225245   3.503   0.087   0.531
 8116SOL     OW25246   4.647   6.067   5.027
 8116SOL    HW125247   4.621   6.078   5.123
 8116SOL    HW225248   4.650   5.970   5.004
 8117SOL     OW25249   1.678   1.236   4.148
 8117SOL    HW125250   1.753   1.277   4.095
 8117SOL    HW225251   1.716   1.188   4.227
 8118SOL     OW25252   5.902   3.025   5.958
 8118SOL    HW125253   5.987   3.000   5.911
 8118SOL    HW225254   5.923   3.059   6.050
 8119SOL     OW25255   6.264   6.182   5.044
 8119SOL    HW125256   6.180   6.236   5.041
 8119SOL    HW225257   6.288   6.153   4.952
 8120SOL     OW25258   2.688   4.733   0.080
 8120SOL    HW125259   2.634   4.794   0.022
 8120SOL    HW225260   2.685   4.640   0.042
 8121SOL     OW25261   0.317   4.980   1.436
 8121SOL    HW125262   0.378   4.972   1.357
 8121SOL    HW225263   0.245   5.047   1.415
 8122SOL     OW25264   1.808   5.712   2.358
 8122SOL    HW125265   1.859   5.715   2.444
 8122SOL    HW225266   1.819   5.623   2.315
 8123SOL     OW25267   6.665   0.124   0.022
 8123SOL    HW125268   6.641   0.087   6.948
 8123SOL    HW225269   6.684   0.222   0.014
 8124SOL     OW25270   6.691   6.186   0.952
 8124SOL    HW125271   6.769   6.148   1.001
 8124SOL    HW225272   6.676   6.133   0.868
 8125SOL     OW25273   1.276   0.983   3.507
 8125SOL    HW125274   1.333   0.975   3.589
 8125SOL    HW225275   1.329   1.025   3.434
 8126SOL     OW25276   5.777   5.083   2.606
 8126SOL    HW125277   5.831   5.007   2.643
 8126SOL    HW225278   5.789   5.164   2.663
 8127SOL     OW25279   3.309   6.277   0.023
 8127SOL    HW125280   3.281   6.342   0.095
 8127SOL    HW225281   3.279   6.185   0.048
 8128SOL     OW25282   2.668   2.997   1.113
 8128SOL    HW125283   2.592   3.062   1.123
 8128SOL    HW225284   2.713   3.012   1.025
 8129SOL     OW25285   4.361   0.653   5.621
 8129SOL    HW125286   4.319   0.744   5.630
 8129SOL    HW225287   4.377   0.615   5.712
 8130SOL     OW25288   6.902   4.170   6.884
 8130SOL    HW125289   6.891   4.071   6.880
 8130SOL    HW225290   6.947   4.195   6.970
 8131SOL     OW25291   3.893   1.535   0.728
 8131SOL    HW125292   3.881   1.613   0.667
 8131SOL    HW225293   3.867   1.451   0.681
 8132SOL     OW25294   5.532   6.351   6.629
 8132SOL    HW125295   5.569   6.347   6.722
 8132SOL    HW225296   5.433   6.358   6.633
 8133SOL     OW25297   2.963   4.988   1.605
 8133SOL    HW125298   2.930   4.944   1.688
 8133SOL    HW225299   2.889   5.040   1.563
 8134SOL     OW25300   0.942   2.577   5.168
 8134SOL    HW125301   1.021   2.637   5.179
 8134SOL    HW225302   0.959   2.491   5.215
 8135SOL     OW25303   1.772   5.833   0.865
 8135SOL    HW125304   1.782   5.741   0.827
 8135SOL    HW225305   1.757   5.899   0.791
 8136SOL     OW25306   5.057   4.923   2.930
 8136SOL    HW125307   5.141   4.939   2.983
 8136SOL    HW225308   5.037   5.004   2.874
 8137SOL     OW25309   2.894   0.993   4.846
 8137SOL    HW125310   2.881   0.894   4.857
 8137SOL    HW225311   2.987   1.010   4.813
 8138SOL     OW25312   5.498   2.505   0.382
 8138SOL    HW125313   5.499   2.426   0.444
 8138SOL    HW225314   5.582   2.557   0.392
 8139SOL     OW25315   1.833   1.689   4.597
 8139SOL    HW125316   1.893   1.609   4.605
 8139SOL    HW225317   1.738   1.659   4.592
 8140SOL     OW25318   4.380   6.902   0.554
 8140SOL    HW125319   4.384   6.987   0.607
 8140SOL    HW225320   4.406   6.825   0.613
 8141SOL     OW25321   4.410   6.900   4.856
 8141SOL    HW125322   4.393   6.840   4.934
 8141SOL    HW225323   4.372   6.990   4.874
 8142SOL     OW25324   1.675   5.255   0.041
 8142SOL    HW125325   1.587   5.217   0.013
 8142SOL    HW225326   1.738   5.180   0.062
 8143SOL     OW25327   6.366   4.952   0.505
 8143SOL    HW125328   6.267   4.941   0.514
 8143SOL    HW225329   6.399   4.896   0.428
 8144SOL     OW25330   0.515   6.439   6.103
 8144SOL    HW125331   0.449   6.417   6.031
 8144SOL    HW225332   0.514   6.367   6.173
 8145SOL     OW25333   5.626   5.368   0.616
 8145SOL    HW125334   5.611   5.288   0.558
 8145SOL    HW225335   5.570   5.444   0.583
 8146SOL     OW25336   5.640   0.567   5.452
 8146SOL    HW125337   5.676   0.483   5.493
 8146SOL    HW225338   5.713   0.616   5.406
 8147SOL     OW25339   6.374   1.053   1.800
 8147SOL    HW125340   6.469   1.079   1.783
 8147SOL    HW225341   6.370   0.961   1.839
 8148SOL     OW25342   5.508   4.994   0.782
 8148SOL    HW125343   5.478   4.948   0.866
 8148SOL    HW225344   5.438   4.983   0.712
 8149SOL     OW25345   2.070   6.747   3.378
 8149SOL    HW125346   2.054   6.706   3.288
 8149SOL    HW225347   2.015   6.701   3.446
 8150SOL     OW25348   2.021   3.357   0.345
 8150SOL    HW125349   1.926   3.329   0.336
 8150SOL    HW225350   2.033   3.408   0.430
 8151SOL     OW25351   5.968   5.000   3.295
 8151SOL    HW125352   5.910   5.052   3.357
 8151SOL    HW225353   5.925   4.912   3.274
 8152SOL     OW25354   6.256   3.107   3.168
 8152SOL    HW125355   6.200   3.184   3.198
 8152SOL    HW225356   6.265   3.041   3.243
 8153SOL     OW25357   1.200   1.675   3.930
 8153SOL    HW125358   1.233   1.651   3.839
 8153SOL    HW225359   1.190   1.775   3.936
 8154SOL     OW25360   3.665   6.075   2.320
 8154SOL    HW125361   3.735   6.106   2.255
 8154SOL    HW225362   3.700   5.996   2.371
 8155SOL     OW25363   1.452   3.233   1.977
 8155SOL    HW125364   1.420   3.297   2.047
 8155SOL    HW225365   1.527   3.179   2.012
 8156SOL     OW25366   4.394   5.972   0.681
 8156SOL    HW125367   4.392   5.917   0.765
 8156SOL    HW225368   4.373   5.914   0.602
 8157SOL     OW25369   6.714   4.567   6.089
 8157SOL    HW125370   6.784   4.524   6.032
 8157SOL    HW225371   6.757   4.610   6.168
 8158SOL     OW25372   4.633   3.954   0.554
 8158SOL    HW125373   4.562   3.937   0.485
 8158SOL    HW225374   4.675   4.043   0.537
 8159SOL     OW25375   2.624   5.477   3.251
 8159SOL    HW125376   2.623   5.379   3.268
 8159SOL    HW225377   2.714   5.503   3.214
 8160SOL     OW25378   5.144   0.616   3.680
 8160SOL    HW125379   5.146   0.523   3.643
 8160SOL    HW225380   5.191   0.617   3.769
 8161SOL     OW25381   5.942   2.956   6.468
 8161SOL    HW125382   5.862   2.984   6.520
 8161SOL    HW225383   5.916   2.943   6.372
 8162SOL     OW25384   6.223   0.058   6.697
 8162SOL    HW125385   6.235   0.022   6.789
 8162SOL    HW225386   6.235   7.000   6.630
 8163SOL     OW25387   2.596   4.740   5.107
 8163SOL    HW125388   2.609   4.754   5.205
 8163SOL    HW225389   2.683   4.713   5.066
 8164SOL     OW25390   4.977   2.439   0.312
 8164SOL    HW125391   5.049   2.381   0.350
 8164SOL    HW225392   5.016   2.522   0.274
 8165SOL     OW25393   0.198   3.841   5.803
 8165SOL    HW125394   0.257   3.905   5.755
 8165SOL    HW225395   0.118   3.821   5.747
 8166SOL     OW25396   1.171   0.703   3.835
 8166SOL    HW125397   1.114   0.628   3.872
 8166SOL    HW225398   1.189   0.686   3.739
 8167SOL     OW25399   6.973   0.493   3.838
 8167SOL    HW125400   6.978   0.592   3.823
 8167SOL    HW225401   6.979   0.474   3.936
 8168SOL     OW25402   2.746   1.545   1.805
 8168SOL    HW125403   2.653   1.528   1.773
 8168SOL    HW225404   2.804   1.568   1.727
 8169SOL     OW25405   4.883   1.940   0.223
 8169SOL    HW125406   4.935   1.921   0.307
 8169SOL    HW225407   4.786   1.931   0.241
 8170SOL     OW25408   1.314   5.131   1.868
 8170SOL    HW125409   1.218   5.129   1.895
 8170SOL    HW225410   1.358   5.044   1.892
 8171SOL     OW25411   1.831   1.934   6.124
 8171SOL    HW125412   1.868   1.993   6.053
 8171SOL    HW225413   1.896   1.928   6.200
 8172SOL     OW25414   0.109   1.947   2.496
 8172SOL    HW125415   0.139   2.033   2.456
 8172SOL    HW225416   0.019   1.923   2.459
 8173SOL     OW25417   5.350   2.262   1.793
 8173SOL    HW125418   5.445   2.282   1.819
 8173SOL    HW225419   5.335   2.293   1.699
 8174SOL     OW25420   6.580   0.867   2.330
 8174SOL    HW125421   6.666   0.833   2.366
 8174SOL    HW225422   6.562   0.826   2.241
 8175SOL     OW25423   0.669   3.399   5.907
 8175SOL    HW125424   0.649   3.320   5.849
 8175SOL    HW225425   0.676   3.370   6.002
 8176SOL     OW25426   2.193   5.116   1.589
 8176SOL    HW125427   2.100   5.097   1.556
 8176SOL    HW225428   2.194   5.115   1.689
 8177SOL     OW25429   3.639   6.984   3.653
 8177SOL    HW125430   3.575   0.042   3.631
 8177SOL    HW225431   3.593   6.896   3.645
 8178SOL     OW25432   2.918   0.183   0.614
 8178SOL    HW125433   2.942   0.241   0.536
 8178SOL    HW225434   2.994   0.180   0.679
 8179SOL     OW25435   4.927   1.478   4.376
 8179SOL    HW125436   4.883   1.402   4.423
 8179SOL    HW225437   4.928   1.460   4.278
 8180SOL     OW25438   6.170   1.170   5.630
 8180SOL    HW125439   6.113   1.119   5.566
 8180SOL    HW225440   6.142   1.266   5.630
 8181SOL     OW25441   1.099   1.701   0.453
 8181SOL    HW125442   1.084   1.799   0.464
 8181SOL    HW225443   1.019   1.660   0.409
 8182SOL     OW25444   2.994   3.504   5.762
 8182SOL    HW125445   2.900   3.478   5.783
 8182SOL    HW225446   3.036   3.431   5.708
 8183SOL     OW25447   6.427   2.501   4.697
 8183SOL    HW125448   6.421   2.401   4.694
 8183SOL    HW225449   6.522   2.529   4.682
 8184SOL     OW25450   6.430   0.310   0.511
 8184SOL    HW125451   6.379   0.331   0.595
 8184SOL    HW225452   6.507   0.250   0.533
 8185SOL     OW25453   1.894   0.048   6.791
 8185SOL    HW125454   1.951   0.035   6.710
 8185SOL    HW225455   1.936   0.003   6.870
 8186SOL     OW25456   3.564   4.606   5.413
 8186SOL    HW125457   3.515   4.675   5.360
 8186SOL    HW225458   3.543   4.515   5.377
 8187SOL     OW25459   2.607   1.530   5.011
 8187SOL    HW125460   2.552   1.451   4.986
 8187SOL    HW225461   2.547   1.606   5.036
 8188SOL     OW25462   5.064   3.203   3.374
 8188SOL    HW125463   5.049   3.113   3.416
 8188SOL    HW225464   5.011   3.272   3.422
 8189SOL     OW25465   5.360   5.349   3.006
 8189SOL    HW125466   5.348   5.438   2.963
 8189SOL    HW225467   5.305   5.344   3.089
 8190SOL     OW25468   5.024   4.494   4.401
 8190SOL    HW125469   5.091   4.430   4.440
 8190SOL    HW225470   4.969   4.446   4.332
 8191SOL     OW25471   3.666   6.217   1.853
 8191SOL    HW125472   3.632   6.216   1.759
 8191SOL    HW225473   3.653   6.126   1.893
 8192SOL     OW25474   3.151   5.335   0.616
 8192SOL    HW125475   3.139   5.239   0.637
 8192SOL    HW225476   3.141   5.390   0.699
 8193SOL     OW25477   6.164   5.919   5.604
 8193SOL    HW125478   6.240   5.918   5.668
 8193SOL    HW225479   6.089   5.975   5.642
 8194SOL     OW25480   4.928   2.157   1.006
 8194SOL    HW125481   4.894   2.192   0.920
 8194SOL    HW225482   4.969   2.231   1.059
 8195SOL     OW25483   1.233   0.282   3.372
 8195SOL    HW125484   1.165   0.244   3.310
 8195SOL    HW225485   1.229   0.382   3.369
 8196SOL     OW25486   4.230   6.005   6.239
 8196SOL    HW125487   4.201   6.097   6.266
 8196SOL    HW225488   4.197   5.938   6.305
 8197SOL     OW25489   4.475   1.743   0.155
 8197SOL    HW125490   4.416   1.669   0.189
 8197SOL    HW225491   4.554   1.703   0.108
 8198SOL     OW25492   2.958   6.371   2.789
 8198SOL    HW125493   3.040   6.373   2.847
 8198SOL    HW225494   2.881   6.337   2.842
 8199SOL     OW25495   5.607   2.662   6.108
 8199SOL    HW125496   5.538   2.639   6.177
 8199SOL    HW225497   5.665   2.582   6.091
 8200SOL     OW25498   5.654   4.946   1.846
 8200SOL    HW125499   5.737   4.950   1.790
 8200SOL    HW225500   5.667   5.000   1.930
 8201SOL     OW25501   5.560   0.859   4.028
 8201SOL    HW125502   5.615   0.940   4.009
 8201SOL    HW225503   5.620   0.782   4.048
 8202SOL     OW25504   0.538   5.812   3.959
 8202SOL    HW125505   0.608   5.776   4.020
 8202SOL    HW225506   0.452   5.762   3.971
 8203SOL     OW25507   4.130   2.809   6.688
 8203SOL    HW125508   4.209   2.870   6.686
 8203SOL    HW225509   4.141   2.738   6.619
 8204SOL     OW25510   3.435   5.084   6.761
 8204SOL    HW125511   3.371   5.122   6.828
 8204SOL    HW225512   3.392   5.080   6.671
 8205SOL     OW25513   0.629   4.724   0.712
 8205SOL    HW125514   0.677   4.745   0.797
 8205SOL    HW225515   0.538   4.766   0.714
 8206SOL     OW25516   5.084   1.990   6.368
 8206SOL    HW125517   5.028   1.907   6.363
 8206SOL    HW225518   5.038   2.057   6.428
 8207SOL     OW25519   2.915   3.769   3.998
 8207SOL    HW125520   2.942   3.680   4.037
 8207SOL    HW225521   2.912   3.762   3.898
 8208SOL     OW25522   1.617   0.158   1.330
 8208SOL    HW125523   1.650   0.182   1.422
 8208SOL    HW225524   1.687   0.106   1.282
 8209SOL     OW25525   0.668   1.660   5.127
 8209SOL    HW125526   0.655   1.580   5.070
 8209SOL    HW225527   0.585   1.679   5.179
 8210SOL     OW25528   2.126   1.262   1.481
 8210SOL    HW125529   2.048   1.265   1.419
 8210SOL    HW225530   2.100   1.299   1.570
 8211SOL     OW25531   3.811   4.094   1.803
 8211SOL    HW125532   3.745   4.168   1.791
 8211SOL    HW225533   3.846   4.065   1.713
 8212SOL     OW25534   2.170   1.789   1.802
 8212SOL    HW125535   2.150   1.872   1.855
 8212SOL    HW225536   2.259   1.797   1.759
 8213SOL     OW25537   6.905   4.390   2.550
 8213SOL    HW125538   6.922   4.316   2.486
 8213SOL    HW225539   6.987   4.447   2.559
 8214SOL     OW25540   6.145   5.463   4.936
 8214SOL    HW125541   6.114   5.369   4.939
 8214SOL    HW225542   6.071   5.523   4.908
 8215SOL     OW25543   2.505   6.100   6.401
 8215SOL    HW125544   2.482   6.017   6.350
 8215SOL    HW225545   2.588   6.141   6.362
 8216SOL     OW25546   5.209   5.111   3.828
 8216SOL    HW125547   5.235   5.198   3.870
 8216SOL    HW225548   5.291   5.056   3.813
 8217SOL     OW25549   1.703   3.577   0.303
 8217SOL    HW125550   1.798   3.609   0.309
 8217SOL    HW225551   1.684   3.516   0.380
 8218SOL     OW25552   6.985   0.059   5.324
 8218SOL    HW125553   0.018   6.993   5.355
 8218SOL    HW225554   0.035   0.130   5.300
 8219SOL     OW25555   3.987   3.463   0.462
 8219SOL    HW125556   3.889   3.451   0.443
 8219SOL    HW225557   4.037   3.470   0.376
 8220SOL     OW25558   2.950   3.325   3.941
 8220SOL    HW125559   2.866   3.288   3.982
 8220SOL    HW225560   2.984   3.401   3.997
 8221SOL     OW25561   5.750   6.533   3.438
 8221SOL    HW125562   5.681   6.561   3.505
 8221SOL    HW225563   5.758   6.604   3.368
 8222SOL     OW25564   5.555   1.650   1.250
 8222SOL    HW125565   5.505   1.594   1.315
 8222SOL    HW225566   5.604   1.591   1.186
 8223SOL     OW25567   0.941   4.019   5.185
 8223SOL    HW125568   0.897   4.105   5.209
 8223SOL    HW225569   1.018   4.002   5.247
 8224SOL     OW25570   5.548   1.481   2.190
 8224SOL    HW125571   5.496   1.521   2.265
 8224SOL    HW225572   5.484   1.437   2.126
 8225SOL     OW25573   3.125   1.620   1.342
 8225SOL    HW125574   3.215   1.629   1.383
 8225SOL    HW225575   3.118   1.532   1.295
 8226SOL     OW25576   3.627   6.552   0.553
 8226SOL    HW125577   3.555   6.559   0.623
 8226SOL    HW225578   3.599   6.486   0.483
 8227SOL     OW25579   0.242   1.324   2.576
 8227SOL    HW125580   0.243   1.246   2.639
 8227SOL    HW225581   0.161   1.319   2.519
 8228SOL     OW25582   6.446   2.093   6.074
 8228SOL    HW125583   6.464   2.011   6.020
 8228SOL    HW225584   6.533   2.138   6.097
 8229SOL     OW25585   4.579   3.265   0.665
 8229SOL    HW125586   4.646   3.292   0.595
 8229SOL    HW225587   4.616   3.287   0.755
 8230SOL     OW25588   3.582   0.278   4.987
 8230SOL    HW125589   3.668   0.290   4.937
 8230SOL    HW225590   3.528   0.362   4.982
 8231SOL     OW25591   3.243   3.421   0.946
 8231SOL    HW125592   3.303   3.348   0.914
 8231SOL    HW225593   3.149   3.388   0.950
 8232SOL     OW25594   4.181   2.200   1.507
 8232SOL    HW125595   4.139   2.116   1.475
 8232SOL    HW225596   4.210   2.255   1.428
 8233SOL     OW25597   0.678   6.353   5.896
 8233SOL    HW125598   0.641   6.400   5.977
 8233SOL    HW225599   0.768   6.317   5.917
 8234SOL     OW25600   2.610   3.528   6.564
 8234SOL    HW125601   2.700   3.486   6.575
 8234SOL    HW225602   2.591   3.540   6.467
 8235SOL     OW25603   0.653   2.635   0.338
 8235SOL    HW125604   0.709   2.657   0.418
 8235SOL    HW225605   0.557   2.626   0.366
 8236SOL     OW25606   0.909   4.385   0.723
 8236SOL    HW125607   0.870   4.451   0.787
 8236SOL    HW225608   0.940   4.304   0.773
 8237SOL     OW25609   5.082   6.541   5.389
 8237SOL    HW125610   5.136   6.617   5.352
 8237SOL    HW225611   5.078   6.549   5.488
 8238SOL     OW25612   0.679   5.315   6.243
 8238SOL    HW125613   0.766   5.359   6.264
 8238SOL    HW225614   0.624   5.306   6.326
 8239SOL     OW25615   0.300   1.014   5.738
 8239SOL    HW125616   0.259   0.923   5.743
 8239SOL    HW225617   0.386   1.009   5.686
 8240SOL     OW25618   3.740   3.754   2.350
 8240SOL    HW125619   3.672   3.680   2.347
 8240SOL    HW225620   3.712   3.826   2.286
 8241SOL     OW25621   3.578   6.278   5.732
 8241SOL    HW125622   3.651   6.227   5.685
 8241SOL    HW225623   3.582   6.258   5.830
 8242SOL     OW25624   0.345   4.274   6.371
 8242SOL    HW125625   0.285   4.353   6.354
 8242SOL    HW225626   0.333   4.243   6.466
 8243SOL     OW25627   0.281   3.075   0.718
 8243SOL    HW125628   0.272   3.022   0.802
 8243SOL    HW225629   0.203   3.056   0.658
 8244SOL     OW25630   0.356   1.008   4.379
 8244SOL    HW125631   0.334   0.923   4.332
 8244SOL    HW225632   0.426   1.057   4.327
 8245SOL     OW25633   3.966   1.974   2.031
 8245SOL    HW125634   3.873   1.944   2.055
 8245SOL    HW225635   3.997   2.041   2.097
 8246SOL     OW25636   1.276   3.437   5.551
 8246SOL    HW125637   1.249   3.373   5.479
 8246SOL    HW225638   1.200   3.500   5.569
 8247SOL     OW25639   1.783   0.896   2.812
 8247SOL    HW125640   1.751   0.969   2.872
 8247SOL    HW225641   1.708   0.832   2.793
 8248SOL     OW25642   7.010   4.877   5.055
 8248SOL    HW125643   6.946   4.923   4.993
 8248SOL    HW225644   6.958   4.821   5.120
 8249SOL     OW25645   1.937   2.455   5.745
 8249SOL    HW125646   2.004   2.480   5.814
 8249SOL    HW225647   1.894   2.537   5.708
 8250SOL     OW25648   2.700   3.173   1.386
 8250SOL    HW125649   2.673   3.153   1.480
 8250SOL    HW225650   2.787   3.128   1.366
 8251SOL     OW25651   4.893   3.274   4.681
 8251SOL    HW125652   4.927   3.272   4.775
 8251SOL    HW225653   4.888   3.368   4.649
 8252SOL     OW25654   3.379   1.452   5.597
 8252SOL    HW125655   3.388   1.353   5.586
 8252SOL    HW225656   3.447   1.499   5.540
 8253SOL     OW25657   4.844   5.557   5.914
 8253SOL    HW125658   4.773   5.625   5.932
 8253SOL    HW225659   4.843   5.532   5.817
 8254SOL     OW25660   4.573   4.281   5.273
 8254SOL    HW125661   4.644   4.285   5.202
 8254SOL    HW225662   4.546   4.186   5.287
 8255SOL     OW25663   1.697   6.993   5.056
 8255SOL    HW125664   1.710   6.910   5.003
 8255SOL    HW225665   1.654   6.971   5.143
 8256SOL     OW25666   6.971   6.188   1.798
 8256SOL    HW125667   6.894   6.219   1.742
 8256SOL    HW225668   6.990   6.256   1.869
 8257SOL     OW25669   5.359   4.044   2.862
 8257SOL    HW125670   5.438   4.053   2.801
 8257SOL    HW225671   5.388   4.056   2.957
 8258SOL     OW25672   5.231   2.849   1.183
 8258SOL    HW125673   5.170   2.774   1.209
 8258SOL    HW225674   5.326   2.816   1.179
 8259SOL     OW25675   3.708   1.749   4.565
 8259SOL    HW125676   3.750   1.785   4.648
 8259SOL    HW225677   3.609   1.749   4.575
 8260SOL     OW25678   2.174   6.937   0.908
 8260SOL    HW125679   2.206   0.014   0.928
 8260SOL    HW225680   2.108   6.940   0.832
 8261SOL     OW25681   5.525   0.041   1.541
 8261SOL    HW125682   5.443   0.077   1.586
 8261SOL    HW225683   5.604   0.056   1.600
 8262SOL     OW25684   0.997   2.463   7.003
 8262SOL    HW125685   0.914   2.417   0.016
 8262SOL    HW225686   0.981   2.512   6.917
 8263SOL     OW25687   0.521   2.757   6.343
 8263SOL    HW125688   0.560   2.829   6.400
 8263SOL    HW225689   0.423   2.747   6.363
 8264SOL     OW25690   1.963   6.084   1.785
 8264SOL    HW125691   1.880   6.104   1.733
 8264SOL    HW225692   2.043   6.100   1.727
 8265SOL     OW25693   6.268   0.759   1.107
 8265SOL    HW125694   6.334   0.788   1.038
 8265SOL    HW225695   6.181   0.807   1.091
 8266SOL     OW25696   2.455   1.176   4.377
 8266SOL    HW125697   2.366   1.133   4.386
 8266SOL    HW225698   2.464   1.250   4.445
 8267SOL     OW25699   1.976   3.363   1.301
 8267SOL    HW125700   1.909   3.420   1.348
 8267SOL    HW225701   2.037   3.421   1.246
 8268SOL     OW25702   2.216   6.553   5.886
 8268SOL    HW125703   2.131   6.501   5.893
 8268SOL    HW225704   2.220   6.599   5.798
 8269SOL     OW25705   4.430   1.312   1.887
 8269SOL    HW125706   4.469   1.329   1.977
 8269SOL    HW225707   4.479   1.366   1.819
 8270SOL     OW25708   3.279   6.161   4.816
 8270SOL    HW125709   3.183   6.189   4.821
 8270SOL    HW225710   3.324   6.180   4.903
 8271SOL     OW25711   0.310   6.830   3.501
 8271SOL    HW125712   0.397   6.846   3.454
 8271SOL    HW225713   0.250   6.775   3.443
 8272SOL     OW25714   6.601   1.700   2.962
 8272SOL    HW125715   6.553   1.631   3.016
 8272SOL    HW225716   6.536   1.748   2.903
 8273SOL     OW25717   2.362   0.985   1.296
 8273SOL    HW125718   2.305   0.911   1.260
 8273SOL    HW225719   2.311   1.037   1.364
 8274SOL     OW25720   4.562   5.331   4.233
 8274SOL    HW125721   4.595   5.373   4.148
 8274SOL    HW225722   4.478   5.281   4.215
 8275SOL     OW25723   5.956   1.034   4.573
 8275SOL    HW125724   6.031   0.993   4.624
 8275SOL    HW225725   5.910   0.964   4.518
 8276SOL     OW25726   0.704   2.350   4.267
 8276SOL    HW125727   0.724   2.272   4.208
 8276SOL    HW225728   0.788   2.403   4.281
 8277SOL     OW25729   0.798   6.221   6.276
 8277SOL    HW125730   0.791   6.315   6.244
 8277SOL    HW225731   0.745   6.210   6.360
 8278SOL     OW25732   3.152   0.945   6.729
 8278SOL    HW125733   3.139   1.025   6.670
 8278SOL    HW225734   3.215   0.881   6.684
 8279SOL     OW25735   1.105   6.555   4.396
 8279SOL    HW125736   1.012   6.537   4.364
 8279SOL    HW225737   1.167   6.486   4.358
 8280SOL     OW25738   2.764   2.597   0.728
 8280SOL    HW125739   2.738   2.686   0.691
 8280SOL    HW225740   2.717   2.524   0.677
 8281SOL     OW25741   2.504   4.280   1.632
 8281SOL    HW125742   2.458   4.271   1.720
 8281SOL    HW225743   2.443   4.250   1.559
 8282SOL     OW25744   4.764   3.954   0.056
 8282SOL    HW125745   4.823   3.879   0.087
 8282SOL    HW225746   4.692   3.969   0.123
 8283SOL     OW25747   1.443   5.107   5.202
 8283SOL    HW125748   1.422   5.162   5.283
 8283SOL    HW225749   1.541   5.090   5.199
 8284SOL     OW25750   0.794   3.624   1.361
 8284SOL    HW125751   0.889   3.635   1.331
 8284SOL    HW225752   0.792   3.585   1.453
 8285SOL     OW25753   3.184   4.063   4.927
 8285SOL    HW125754   3.186   4.067   4.827
 8285SOL    HW225755   3.093   4.032   4.956
 8286SOL     OW25756   5.359   1.758   5.096
 8286SOL    HW125757   5.300   1.775   5.017
 8286SOL    HW225758   5.324   1.809   5.175
 8287SOL     OW25759   1.167   4.574   4.585
 8287SOL    HW125760   1.129   4.522   4.509
 8287SOL    HW225761   1.205   4.660   4.551
 8288SOL     OW25762   2.854   2.154   2.141
 8288SOL    HW125763   2.769   2.105   2.120
 8288SOL    HW225764   2.872   2.221   2.069
 8289SOL     OW25765   0.648   6.630   6.546
 8289SOL    HW125766   0.657   6.715   6.494
 8289SOL    HW225767   0.553   6.598   6.542
 8290SOL     OW25768   5.183   1.625   0.893
 8290SOL    HW125769   5.157   1.721   0.906
 8290SOL    HW225770   5.138   1.569   0.962
 8291SOL     OW25771   4.264   5.461   4.868
 8291SOL    HW125772   4.322   5.412   4.802
 8291SOL    HW225773   4.196   5.398   4.906
 8292SOL     OW25774   3.216   6.447   6.434
 8292SOL    HW125775   3.150   6.472   6.363
 8292SOL    HW225776   3.173   6.384   6.499
 8293SOL     OW25777   1.789   5.578   0.745
 8293SOL    HW125778   1.753   5.485   0.757
 8293SOL    HW225779   1.779   5.605   0.649
 8294SOL     OW25780   5.605   3.998   5.444
 8294SOL    HW125781   5.705   4.007   5.446
 8294SOL    HW225782   5.581   3.903   5.424
 8295SOL     OW25783   4.837   5.092   1.444
 8295SOL    HW125784   4.814   5.038   1.525
 8295SOL    HW225785   4.826   5.036   1.362
 8296SOL     OW25786   1.871   4.778   6.707
 8296SOL    HW125787   1.954   4.771   6.763
 8296SOL    HW225788   1.848   4.875   6.693
 8297SOL     OW25789   0.171   3.143   2.749
 8297SOL    HW125790   0.107   3.217   2.727
 8297SOL    HW225791   0.148   3.105   2.839
 8298SOL     OW25792   6.164   1.892   0.726
 8298SOL    HW125793   6.074   1.852   0.744
 8298SOL    HW225794   6.235   1.822   0.736
 8299SOL     OW25795   0.611   2.291   2.420
 8299SOL    HW125796   0.609   2.379   2.468
 8299SOL    HW225797   0.671   2.228   2.469
 8300SOL     OW25798   0.148   5.503   3.803
 8300SOL    HW125799   0.079   5.575   3.798
 8300SOL    HW225800   0.214   5.515   3.728
 8301SOL     OW25801   3.700   1.424   0.480
 8301SOL    HW125802   3.603   1.441   0.463
 8301SOL    HW225803   3.711   1.388   0.573
 8302SOL     OW25804   5.867   0.075   6.348
 8302SOL    HW125805   5.837   0.139   6.277
 8302SOL    HW225806   5.906   7.009   6.305
 8303SOL     OW25807   5.762   0.654   3.982
 8303SOL    HW125808   5.759   0.685   3.887
 8303SOL    HW225809   5.846   0.686   4.025
 8304SOL     OW25810   5.825   3.206   1.243
 8304SOL    HW125811   5.843   3.305   1.242
 8304SOL    HW225812   5.791   3.178   1.154
 8305SOL     OW25813   4.619   4.321   3.714
 8305SOL    HW125814   4.568   4.404   3.736
 8305SOL    HW225815   4.583   4.281   3.629
 8306SOL     OW25816   5.509   1.766   4.333
 8306SOL    HW125817   5.571   1.700   4.376
 8306SOL    HW225818   5.462   1.818   4.404
 8307SOL     OW25819   3.400   5.047   1.667
 8307SOL    HW125820   3.337   5.048   1.589
 8307SOL    HW225821   3.464   4.971   1.658
 8308SOL     OW25822   2.145   5.343   0.919
 8308SOL    HW125823   2.197   5.327   1.003
 8308SOL    HW225824   2.114   5.438   0.917
 8309SOL     OW25825   6.717   5.671   3.389
 8309SOL    HW125826   6.788   5.604   3.368
 8309SOL    HW225827   6.653   5.633   3.456
 8310SOL     OW25828   0.749   5.814   1.532
 8310SOL    HW125829   0.826   5.849   1.479
 8310SOL    HW225830   0.764   5.718   1.556
 8311SOL     OW25831   0.313   2.351   5.681
 8311SOL    HW125832   0.304   2.375   5.584
 8311SOL    HW225833   0.409   2.332   5.701
 8312SOL     OW25834   4.516   0.420   0.250
 8312SOL    HW125835   4.439   0.435   0.187
 8312SOL    HW225836   4.516   0.491   0.320
 8313SOL     OW25837   5.099   6.883   6.819
 8313SOL    HW125838   5.137   6.800   6.778
 8313SOL    HW225839   5.162   6.916   6.890
 8314SOL     OW25840   5.554   6.982   0.218
 8314SOL    HW125841   5.494   0.045   0.237
 8314SOL    HW225842   5.649   7.012   0.218
 8315SOL     OW25843   4.093   3.137   1.562
 8315SOL    HW125844   4.043   3.120   1.648
 8315SOL    HW225845   4.191   3.125   1.578
 8316SOL     OW25846   1.631   2.191   1.995
 8316SOL    HW125847   1.658   2.285   2.019
 8316SOL    HW225848   1.707   2.145   1.950
 8317SOL     OW25849   1.201   2.584   2.388
 8317SOL    HW125850   1.300   2.591   2.377
 8317SOL    HW225851   1.156   2.602   2.301
 8318SOL     OW25852   4.111   1.636   5.598
 8318SOL    HW125853   4.100   1.629   5.697
 8318SOL    HW225854   4.021   1.649   5.555
 8319SOL     OW25855   1.442   1.785   0.756
 8319SOL    HW125856   1.424   1.717   0.684
 8319SOL    HW225857   1.496   1.743   0.829
 8320SOL     OW25858   3.242   3.613   2.382
 8320SOL    HW125859   3.268   3.608   2.285
 8320SOL    HW225860   3.191   3.531   2.407
 8321SOL     OW25861   6.600   6.899   6.337
 8321SOL    HW125862   6.582   6.856   6.425
 8321SOL    HW225863   6.540   6.860   6.267
 8322SOL     OW25864   6.243   0.114   0.771
 8322SOL    HW125865   6.210   0.069   0.855
 8322SOL    HW225866   6.233   0.213   0.781
 8323SOL     OW25867   5.312   5.334   1.854
 8323SOL    HW125868   5.257   5.270   1.910
 8323SOL    HW225869   5.392   5.286   1.819
 8324SOL     OW25870   6.082   6.592   1.552
 8324SOL    HW125871   6.003   6.653   1.562
 8324SOL    HW225872   6.056   6.514   1.496
 8325SOL     OW25873   2.214   3.492   5.116
 8325SOL    HW125874   2.140   3.526   5.058
 8325SOL    HW225875   2.254   3.569   5.167
 8326SOL     OW25876   4.860   3.691   6.010
 8326SOL    HW125877   4.829   3.652   6.097
 8326SOL    HW225878   4.814   3.644   5.935
 8327SOL     OW25879   7.007   0.411   5.675
 8327SOL    HW125880   6.980   0.323   5.635
 8327SOL    HW225881   0.036   0.466   5.605
 8328SOL     OW25882   2.339   5.793   6.580
 8328SOL    HW125883   2.258   5.738   6.602
 8328SOL    HW225884   2.400   5.739   6.521
 8329SOL     OW25885   0.932   2.952   5.796
 8329SOL    HW125886   0.880   2.933   5.713
 8329SOL    HW225887   1.001   3.021   5.777
 8330SOL     OW25888   2.771   1.173   6.214
 8330SOL    HW125889   2.861   1.174   6.169
 8330SOL    HW225890   2.772   1.234   6.293
 8331SOL     OW25891   3.300   0.661   1.480
 8331SOL    HW125892   3.203   0.641   1.465
 8331SOL    HW225893   3.342   0.692   1.395
 8332SOL     OW25894   5.434   5.359   2.559
 8332SOL    HW125895   5.498   5.435   2.549
 8332SOL    HW225896   5.341   5.394   2.560
 8333SOL     OW25897   0.379   5.024   6.190
 8333SOL    HW125898   0.367   4.929   6.221
 8333SOL    HW225899   0.351   5.032   6.095
 8334SOL     OW25900   3.887   1.354   4.346
 8334SOL    HW125901   3.906   1.259   4.321
 8334SOL    HW225902   3.799   1.382   4.308
 8335SOL     OW25903   5.213   0.867   0.418
 8335SOL    HW125904   5.190   0.839   0.511
 8335SOL    HW225905   5.156   0.816   0.353
 8336SOL     OW25906   0.588   4.847   3.433
 8336SOL    HW125907   0.641   4.869   3.515
 8336SOL    HW225908   0.545   4.757   3.444
 8337SOL     OW25909   1.805   6.213   3.433
 8337SOL    HW125910   1.717   6.173   3.462
 8337SOL    HW225911   1.877   6.145   3.445
 8338SOL     OW25912   3.876   5.308   1.891
 8338SOL    HW125913   3.795   5.264   1.930
 8338SOL    HW225914   3.943   5.239   1.867
 8339SOL     OW25915   6.754   0.589   1.622
 8339SOL    HW125916   6.665   0.556   1.654
 8339SOL    HW225917   6.815   0.511   1.607
 8340SOL     OW25918   5.413   3.147   0.962
 8340SOL    HW125919   5.367   3.138   1.050
 8340SOL    HW225920   5.346   3.158   0.889
 8341SOL     OW25921   2.814   6.706   0.148
 8341SOL    HW125922   2.786   6.770   0.076
 8341SOL    HW225923   2.912   6.685   0.138
 8342SOL     OW25924   4.577   6.501   0.562
 8342SOL    HW125925   4.632   6.419   0.548
 8342SOL    HW225926   4.634   6.582   0.549
 8343SOL     OW25927   0.748   5.667   4.702
 8343SOL    HW125928   0.673   5.725   4.668
 8343SOL    HW225929   0.714   5.574   4.716
 8344SOL     OW25930   5.283   6.156   5.008
 8344SOL    HW125931   5.237   6.098   5.075
 8344SOL    HW225932   5.228   6.237   4.991
 8345SOL     OW25933   3.905   1.736   2.496
 8345SOL    HW125934   3.875   1.731   2.401
 8345SOL    HW225935   3.994   1.780   2.501
 8346SOL     OW25936   3.976   4.680   0.220
 8346SOL    HW125937   3.897   4.741   0.221
 8346SOL    HW225938   3.972   4.620   0.301
 8347SOL     OW25939   3.830   6.208   3.892
 8347SOL    HW125940   3.814   6.197   3.794
 8347SOL    HW225941   3.927   6.222   3.909
 8348SOL     OW25942   1.842   1.248   1.329
 8348SOL    HW125943   1.807   1.159   1.361
 8348SOL    HW225944   1.879   1.239   1.237
 8349SOL     OW25945   6.380   6.987   1.663
 8349SOL    HW125946   6.373   6.978   1.564
 8349SOL    HW225947   6.292   6.963   1.705
 8350SOL     OW25948   3.291   6.727   6.060
 8350SOL    HW125949   3.271   6.663   5.987
 8350SOL    HW225950   3.330   6.678   6.138
 8351SOL     OW25951   5.873   5.272   4.923
 8351SOL    HW125952   5.830   5.185   4.946
 8351SOL    HW225953   5.810   5.326   4.867
 8352SOL     OW25954   0.056   0.058   3.827
 8352SOL    HW125955   0.059   0.098   3.736
 8352SOL    HW225956   0.126   7.002   3.834
 8353SOL     OW25957   7.000   3.682   1.388
 8353SOL    HW125958   0.048   3.692   1.465
 8353SOL    HW225959   0.029   3.629   1.316
 8354SOL     OW25960   4.219   0.034   5.168
 8354SOL    HW125961   4.212   6.961   5.122
 8354SOL    HW225962   4.207   0.022   5.267
 8355SOL     OW25963   2.920   0.685   6.128
 8355SOL    HW125964   2.932   0.770   6.178
 8355SOL    HW225965   2.832   0.643   6.153
 8356SOL     OW25966   0.749   6.674   1.195
 8356SOL    HW125967   0.727   6.583   1.229
 8356SOL    HW225968   0.693   6.742   1.243
 8357SOL     OW25969   3.565   6.849   5.033
 8357SOL    HW125970   3.654   6.858   5.077
 8357SOL    HW225971   3.564   6.768   4.975
 8358SOL     OW25972   1.519   4.077   4.257
 8358SOL    HW125973   1.554   4.167   4.233
 8358SOL    HW225974   1.433   4.060   4.210
 8359SOL     OW25975   2.590   0.723   5.205
 8359SOL    HW125976   2.586   0.645   5.143
 8359SOL    HW225977   2.682   0.763   5.203
 8360SOL     OW25978   4.019   6.126   0.580
 8360SOL    HW125979   3.984   6.152   0.669
 8360SOL    HW225980   4.108   6.169   0.564
 8361SOL     OW25981   3.069   0.363   2.441
 8361SOL    HW125982   3.125   0.428   2.389
 8361SOL    HW225983   3.115   0.275   2.444
 8362SOL     OW25984   3.953   1.739   1.188
 8362SOL    HW125985   4.042   1.752   1.233
 8362SOL    HW225986   3.935   1.817   1.127
 8363SOL     OW25987   5.620   3.159   6.503
 8363SOL    HW125988   5.573   3.072   6.513
 8363SOL    HW225989   5.672   3.180   6.586
 8364SOL     OW25990   0.956   2.636   3.526
 8364SOL    HW125991   0.895   2.709   3.556
 8364SOL    HW225992   0.993   2.657   3.436
 8365SOL     OW25993   1.612   3.079   2.174
 8365SOL    HW125994   1.590   3.086   2.271
 8365SOL    HW225995   1.657   2.992   2.156
 8366SOL     OW25996   1.822   5.746   1.565
 8366SOL    HW125997   1.849   5.840   1.547
 8366SOL    HW225998   1.840   5.724   1.661
 8367SOL     OW25999   4.518   5.542   4.420
 8367SOL    HW126000   4.556   5.618   4.367
 8367SOL    HW226001   4.518   5.459   4.364
 8368SOL     OW26002   1.672   6.399   6.539
 8368SOL    HW126003   1.574   6.384   6.538
 8368SOL    HW226004   1.694   6.471   6.606
 8369SOL     OW26005   1.186   6.896   6.244
 8369SOL    HW126006   1.226   6.805   6.253
 8369SOL    HW226007   1.201   6.948   6.329
 8370SOL     OW26008   3.185   1.155   6.351
 8370SOL    HW126009   3.215   1.061   6.335
 8370SOL    HW226010   3.120   1.182   6.281
 8371SOL     OW26011   2.181   4.606   0.415
 8371SOL    HW126012   2.265   4.641   0.456
 8371SOL    HW226013   2.106   4.615   0.481
 8372SOL     OW26014   1.860   4.777   1.966
 8372SOL    HW126015   1.842   4.737   1.876
 8372SOL    HW226016   1.891   4.705   2.028
 8373SOL     OW26017   1.758   0.258   4.459
 8373SOL    HW126018   1.794   0.348   4.481
 8373SOL    HW226019   1.767   0.198   4.538
 8374SOL     OW26020   0.077   1.089   5.230
 8374SOL    HW126021   0.024   1.102   5.313
 8374SOL    HW226022   0.175   1.091   5.252
 8375SOL     OW26023   3.113   6.692   5.085
 8375SOL    HW126024   3.062   6.606   5.088
 8375SOL    HW226025   3.195   6.685   5.142
 8376SOL     OW26026   0.860   1.337   4.195
 8376SOL    HW126027   0.834   1.251   4.151
 8376SOL    HW226028   0.896   1.399   4.125
 8377SOL     OW26029   5.302   5.741   0.586
 8377SOL    HW126030   5.358   5.821   0.607
 8377SOL    HW226031   5.229   5.766   0.522
 8378SOL     OW26032   4.733   5.157   2.773
 8378SOL    HW126033   4.729   5.097   2.853
 8378SOL    HW226034   4.669   5.233   2.785
 8379SOL     OW26035   5.463   3.269   1.277
 8379SOL    HW126036   5.535   3.205   1.251
 8379SOL    HW226037   5.375   3.237   1.242
 8380SOL     OW26038   0.359   0.443   2.687
 8380SOL    HW126039   0.444   0.496   2.684
 8380SOL    HW226040   0.353   0.386   2.605
 8381SOL     OW26041   0.085   3.308   5.007
 8381SOL    HW126042   0.184   3.316   5.001
 8381SOL    HW226043   0.056   3.222   4.964
 8382SOL     OW26044   2.605   6.880   2.939
 8382SOL    HW126045   2.600   6.978   2.957
 8382SOL    HW226046   2.523   6.850   2.892
 8383SOL     OW26047   2.565   6.956   6.028
 8383SOL    HW126048   2.657   6.994   6.032
 8383SOL    HW226049   2.547   6.900   6.109
 8384SOL     OW26050   6.413   0.973   1.491
 8384SOL    HW126051   6.431   0.879   1.463
 8384SOL    HW226052   6.409   0.978   1.591
 8385SOL     OW26053   5.457   2.403   0.980
 8385SOL    HW126054   5.542   2.351   0.975
 8385SOL    HW226055   5.466   2.485   0.923
 8386SOL     OW26056   2.296   5.783   1.945
 8386SOL    HW126057   2.320   5.757   2.038
 8386SOL    HW226058   2.236   5.863   1.947
 8387SOL     OW26059   1.288   1.305   1.674
 8387SOL    HW126060   1.307   1.244   1.751
 8387SOL    HW226061   1.347   1.281   1.597
 8388SOL     OW26062   1.807   6.270   0.351
 8388SOL    HW126063   1.711   6.288   0.328
 8388SOL    HW226064   1.812   6.191   0.412
 8389SOL     OW26065   0.133   3.313   3.004
 8389SOL    HW126066   0.112   3.215   2.994
 8389SOL    HW226067   0.100   3.362   2.923
 8390SOL     OW26068   4.509   1.212   0.410
 8390SOL    HW126069   4.575   1.175   0.346
 8390SOL    HW226070   4.460   1.137   0.455
 8391SOL     OW26071   6.207   4.980   1.088
 8391SOL    HW126072   6.115   5.001   1.120
 8391SOL    HW226073   6.270   4.978   1.165
 8392SOL     OW26074   6.448   4.620   5.102
 8392SOL    HW126075   6.479   4.674   5.180
 8392SOL    HW226076   6.511   4.544   5.087
 8393SOL     OW26077   0.417   6.570   2.606
 8393SOL    HW126078   0.363   6.591   2.525
 8393SOL    HW226079   0.494   6.633   2.612
 8394SOL     OW26080   6.277   2.843   2.095
 8394SOL    HW126081   6.213   2.859   2.169
 8394SOL    HW226082   6.328   2.927   2.076
 8395SOL     OW26083   1.853   6.525   4.864
 8395SOL    HW126084   1.858   6.613   4.912
 8395SOL    HW226085   1.875   6.451   4.927
 8396SOL     OW26086   4.699   5.223   2.387
 8396SOL    HW126087   4.773   5.157   2.400
 8396SOL    HW226088   4.618   5.193   2.437
 8397SOL     OW26089   2.225   0.306   2.978
 8397SOL    HW126090   2.183   0.221   3.008
 8397SOL    HW226091   2.207   0.319   2.880
 8398SOL     OW26092   4.087   2.001   6.742
 8398SOL    HW126093   4.098   1.915   6.792
 8398SOL    HW226094   4.030   1.986   6.662
 8399SOL     OW26095   5.760   5.837   0.020
 8399SOL    HW126096   5.713   5.752   0.044
 8399SOL    HW226097   5.827   5.818   6.963
 8400SOL     OW26098   1.726   1.376   4.758
 8400SOL    HW126099   1.670   1.421   4.688
 8400SOL    HW226100   1.724   1.277   4.742
 8401SOL     OW26101   2.685   1.471   6.443
 8401SOL    HW126102   2.610   1.464   6.377
 8401SOL    HW226103   2.681   1.559   6.490
 8402SOL     OW26104   4.190   1.570   5.312
 8402SOL    HW126105   4.202   1.531   5.403
 8402SOL    HW226106   4.178   1.497   5.245
 8403SOL     OW26107   1.002   2.478   4.608
 8403SOL    HW126108   0.976   2.382   4.619
 8403SOL    HW226109   0.946   2.535   4.668
 8404SOL     OW26110   4.464   0.009   5.515
 8404SOL    HW126111   4.408   0.092   5.510
 8404SOL    HW226112   4.404   6.945   5.524
 8405SOL     OW26113   2.107   0.720   5.605
 8405SOL    HW126114   2.079   0.776   5.683
 8405SOL    HW226115   2.161   0.643   5.638
 8406SOL     OW26116   5.285   0.076   0.266
 8406SOL    HW126117   5.257   0.030   0.350
 8406SOL    HW226118   5.235   0.037   0.189
 8407SOL     OW26119   3.632   6.427   3.584
 8407SOL    HW126120   3.600   6.366   3.511
 8407SOL    HW226121   3.723   6.397   3.615
 8408SOL     OW26122   5.835   3.970   2.060
 8408SOL    HW126123   5.883   4.054   2.035
 8408SOL    HW226124   5.845   3.954   2.158
 8409SOL     OW26125   5.453   2.622   3.303
 8409SOL    HW126126   5.544   2.647   3.338
 8409SOL    HW226127   5.456   2.529   3.268
 8410SOL     OW26128   5.252   0.913   1.860
 8410SOL    HW126129   5.325   0.969   1.900
 8410SOL    HW226130   5.189   0.971   1.809
 8411SOL     OW26131   0.690   4.657   0.167
 8411SOL    HW126132   0.638   4.708   0.236
 8411SOL    HW226133   0.778   4.629   0.205
 8412SOL     OW26134   3.136   1.246   1.465
 8412SOL    HW126135   3.074   1.231   1.389
 8412SOL    HW226136   3.177   1.158   1.492
 8413SOL     OW26137   4.496   5.376   6.631
 8413SOL    HW126138   4.592   5.348   6.632
 8413SOL    HW226139   4.481   5.444   6.703
 8414SOL     OW26140   3.301   4.876   3.278
 8414SOL    HW126141   3.248   4.876   3.193
 8414SOL    HW226142   3.387   4.925   3.264
 8415SOL     OW26143   6.986   6.204   4.164
 8415SOL    HW126144   6.936   6.171   4.084
 8415SOL    HW226145   0.036   6.274   4.136
 8416SOL     OW26146   5.317   3.923   2.477
 8416SOL    HW126147   5.415   3.942   2.485
 8416SOL    HW226148   5.265   4.005   2.500
 8417SOL     OW26149   1.720   4.248   5.409
 8417SOL    HW126150   1.696   4.152   5.391
 8417SOL    HW226151   1.792   4.251   5.478
 8418SOL     OW26152   6.055   5.164   0.841
 8418SOL    HW126153   6.040   5.101   0.916
 8418SOL    HW226154   6.142   5.141   0.795
 8419SOL     OW26155   5.547   6.869   2.098
 8419SOL    HW126156   5.604   6.842   2.020
 8419SOL    HW226157   5.482   6.795   2.118
 8420SOL     OW26158   4.109   0.081   0.374
 8420SOL    HW126159   4.187   0.073   0.312
 8420SOL    HW226160   4.028   0.042   0.330
 8421SOL     OW26161   1.444   5.526   6.918
 8421SOL    HW126162   1.466   5.443   6.866
 8421SOL    HW226163   1.348   5.526   6.943
 8422SOL     OW26164   3.806   1.135   1.290
 8422SOL    HW126165   3.875   1.174   1.351
 8422SOL    HW226166   3.780   1.202   1.221
 8423SOL     OW26167   3.138   4.657   5.718
 8423SOL    HW126168   3.054   4.617   5.681
 8423SOL    HW226169   3.209   4.587   5.723
 8424SOL     OW26170   2.747   2.102   2.595
 8424SOL    HW126171   2.787   2.168   2.531
 8424SOL    HW226172   2.820   2.052   2.640
 8425SOL     OW26173   5.151   5.116   6.096
 8425SOL    HW126174   5.094   5.080   6.170
 8425SOL    HW226175   5.107   5.195   6.054
 8426SOL     OW26176   3.495   3.785   3.368
 8426SOL    HW126177   3.522   3.698   3.325
 8426SOL    HW226178   3.400   3.778   3.400
 8427SOL     OW26179   3.726   4.082   4.711
 8427SOL    HW126180   3.785   4.075   4.791
 8427SOL    HW226181   3.630   4.076   4.739
 8428SOL     OW26182   0.752   5.265   1.399
 8428SOL    HW126183   0.681   5.213   1.446
 8428SOL    HW226184   0.743   5.251   1.300
 8429SOL     OW26185   1.388   5.688   4.056
 8429SOL    HW126186   1.374   5.786   4.068
 8429SOL    HW226187   1.393   5.667   3.959
 8430SOL     OW26188   3.974   5.169   3.266
 8430SOL    HW126189   3.890   5.221   3.253
 8430SOL    HW226190   3.955   5.071   3.252
 8431SOL     OW26191   2.947   4.850   0.709
 8431SOL    HW126192   2.890   4.779   0.749
 8431SOL    HW226193   3.039   4.847   0.750
 8432SOL     OW26194   5.705   6.769   6.092
 8432SOL    HW126195   5.631   6.822   6.133
 8432SOL    HW226196   5.706   6.785   5.993
 8433SOL     OW26197   5.195   2.255   0.509
 8433SOL    HW126198   5.242   2.244   0.596
 8433SOL    HW226199   5.244   2.322   0.453
 8434SOL     OW26200   2.783   6.734   4.942
 8434SOL    HW126201   2.764   6.791   5.022
 8434SOL    HW226202   2.728   6.766   4.865
 8435SOL     OW26203   6.417   0.824   1.975
 8435SOL    HW126204   6.446   0.918   1.994
 8435SOL    HW226205   6.359   0.792   2.049
 8436SOL     OW26206   3.642   6.692   3.647
 8436SOL    HW126207   3.557   6.651   3.615
 8436SOL    HW226208   3.717   6.627   3.638
 8437SOL     OW26209   2.326   0.794   4.211
 8437SOL    HW126210   2.404   0.791   4.147
 8437SOL    HW226211   2.286   0.703   4.219
 8438SOL     OW26212   2.488   4.538   2.313
 8438SOL    HW126213   2.509   4.573   2.405
 8438SOL    HW226214   2.543   4.587   2.246
 8439SOL     OW26215   0.063   4.943   2.855
 8439SOL    HW126216   0.034   4.930   2.760
 8439SOL    HW226217   7.010   4.998   2.904
 8440SOL     OW26218   1.482   2.283   3.813
 8440SOL    HW126219   1.479   2.382   3.800
 8440SOL    HW226220   1.391   2.251   3.841
 8441SOL     OW26221   6.374   6.352   0.691
 8441SOL    HW126222   6.289   6.395   0.661
 8441SOL    HW226223   6.448   6.377   0.629
 8442SOL     OW26224   3.319   1.818   4.981
 8442SOL    HW126225   3.292   1.745   4.919
 8442SOL    HW226226   3.353   1.896   4.928
 8443SOL     OW26227   2.310   4.595   3.678
 8443SOL    HW126228   2.271   4.642   3.599
 8443SOL    HW226229   2.238   4.546   3.727
 8444SOL     OW26230   2.710   6.340   4.044
 8444SOL    HW126231   2.641   6.377   4.105
 8444SOL    HW226232   2.673   6.334   3.951
 8445SOL     OW26233   3.927   6.462   1.185
 8445SOL    HW126234   3.827   6.470   1.180
 8445SOL    HW226235   3.954   6.447   1.281
 8446SOL     OW26236   4.576   4.650   6.708
 8446SOL    HW126237   4.478   4.650   6.690
 8446SOL    HW226238   4.595   4.703   6.791
 8447SOL     OW26239   4.536   1.362   2.134
 8447SOL    HW126240   4.634   1.359   2.149
 8447SOL    HW226241   4.497   1.443   2.179
 8448SOL     OW26242   4.249   6.072   4.190
 8448SOL    HW126243   4.323   6.033   4.135
 8448SOL    HW226244   4.285   6.145   4.248
 8449SOL     OW26245   6.841   2.888   3.560
 8449SOL    HW126246   6.823   2.791   3.573
 8449SOL    HW226247   6.940   2.904   3.563
 8450SOL     OW26248   0.192   6.326   1.194
 8450SOL    HW126249   0.281   6.353   1.156
 8450SOL    HW226250   0.120   6.382   1.155
 8451SOL     OW26251   4.226   1.696   0.492
 8451SOL    HW126252   4.133   1.670   0.464
 8451SOL    HW226253   4.272   1.744   0.418
 8452SOL     OW26254   5.704   1.615   2.750
 8452SOL    HW126255   5.764   1.541   2.779
 8452SOL    HW226256   5.757   1.699   2.740
 8453SOL     OW26257   0.218   4.416   6.662
 8453SOL    HW126258   0.136   4.386   6.614
 8453SOL    HW226259   0.209   4.396   6.759
 8454SOL     OW26260   6.858   6.660   1.898
 8454SOL    HW126261   6.853   6.631   1.993
 8454SOL    HW226262   6.815   6.591   1.840
 8455SOL     OW26263   6.081   2.579   2.235
 8455SOL    HW126264   6.067   2.615   2.143
 8455SOL    HW226265   6.159   2.627   2.277
 8456SOL     OW26266   3.876   5.724   3.131
 8456SOL    HW126267   3.897   5.673   3.048
 8456SOL    HW226268   3.944   5.796   3.144
 8457SOL     OW26269   6.573   6.878   4.426
 8457SOL    HW126270   6.578   6.911   4.520
 8457SOL    HW226271   6.477   6.864   4.401
 8458SOL     OW26272   3.369   1.153   6.653
 8458SOL    HW126273   3.317   1.213   6.592
 8458SOL    HW226274   3.383   1.065   6.608
 8459SOL     OW26275   2.815   5.642   2.090
 8459SOL    HW126276   2.813   5.716   2.023
 8459SOL    HW226277   2.721   5.619   2.116
 8460SOL     OW26278   4.208   4.286   5.372
 8460SOL    HW126279   4.224   4.350   5.297
 8460SOL    HW226280   4.213   4.192   5.337
 8461SOL     OW26281   0.423   3.941   4.295
 8461SOL    HW126282   0.365   3.926   4.214
 8461SOL    HW226283   0.514   3.971   4.265
 8462SOL     OW26284   2.776   2.854   6.593
 8462SOL    HW126285   2.793   2.918   6.668
 8462SOL    HW226286   2.731   2.772   6.628
 8463SOL     OW26287   6.627   0.219   1.544
 8463SOL    HW126288   6.637   0.223   1.445
 8463SOL    HW226289   6.589   0.130   1.570
 8464SOL     OW26290   5.751   3.168   4.403
 8464SOL    HW126291   5.722   3.089   4.457
 8464SOL    HW226292   5.725   3.253   4.450
 8465SOL     OW26293   0.991   2.676   0.596
 8465SOL    HW126294   1.090   2.666   0.586
 8465SOL    HW226295   0.969   2.773   0.605
 8466SOL     OW26296   0.267   6.627   4.018
 8466SOL    HW126297   0.242   6.532   4.001
 8466SOL    HW226298   0.244   6.651   4.112
 8467SOL     OW26299   4.294   6.892   0.301
 8467SOL    HW126300   4.371   6.859   0.248
 8467SOL    HW226301   4.324   6.915   0.394
 8468SOL     OW26302   3.674   2.306   6.638
 8468SOL    HW126303   3.605   2.233   6.645
 8468SOL    HW226304   3.631   2.394   6.658
 8469SOL     OW26305   3.522   2.092   6.579
 8469SOL    HW126306   3.425   2.114   6.587
 8469SOL    HW226307   3.543   2.012   6.635
 8470SOL     OW26308   1.426   3.854   6.636
 8470SOL    HW126309   1.461   3.943   6.665
 8470SOL    HW226310   1.356   3.866   6.566
 8471SOL     OW26311   2.982   1.153   3.664
 8471SOL    HW126312   2.952   1.083   3.729
 8471SOL    HW226313   3.069   1.126   3.624
 8472SOL     OW26314   6.981   0.881   4.434
 8472SOL    HW126315   6.928   0.843   4.510
 8472SOL    HW226316   0.059   0.845   4.438
 8473SOL     OW26317   6.393   5.987   6.535
 8473SOL    HW126318   6.446   6.065   6.503
 8473SOL    HW226319   6.356   5.937   6.457
 8474SOL     OW26320   3.487   2.820   1.528
 8474SOL    HW126321   3.453   2.836   1.435
 8474SOL    HW226322   3.515   2.906   1.569
 8475SOL     OW26323   0.077   2.522   3.419
 8475SOL    HW126324   0.119   2.610   3.441
 8475SOL    HW226325   0.094   2.499   3.324
 8476SOL     OW26326   6.764   2.254   1.037
 8476SOL    HW126327   6.698   2.187   1.003
 8476SOL    HW226328   6.724   2.302   1.115
 8477SOL     OW26329   4.757   6.367   0.977
 8477SOL    HW126330   4.766   6.464   0.954
 8477SOL    HW226331   4.768   6.354   1.076
 8478SOL     OW26332   1.232   6.707   5.837
 8478SOL    HW126333   1.290   6.750   5.768
 8478SOL    HW226334   1.138   6.740   5.828
 8479SOL     OW26335   0.619   2.488   1.347
 8479SOL    HW126336   0.702   2.544   1.344
 8479SOL    HW226337   0.642   2.393   1.326
 8480SOL     OW26338   4.871   1.503   0.247
 8480SOL    HW126339   4.780   1.491   0.287
 8480SOL    HW226340   4.932   1.545   0.314
 8481SOL     OW26341   3.916   2.120   3.761
 8481SOL    HW126342   4.004   2.165   3.775
 8481SOL    HW226343   3.862   2.126   3.845
 8482SOL     OW26344   4.360   5.726   1.696
 8482SOL    HW126345   4.420   5.788   1.645
 8482SOL    HW226346   4.270   5.724   1.653
 8483SOL     OW26347   4.490   6.120   2.387
 8483SOL    HW126348   4.407   6.064   2.388
 8483SOL    HW226349   4.559   6.076   2.330
 8484SOL     OW26350   0.874   6.061   3.350
 8484SOL    HW126351   0.879   6.084   3.447
 8484SOL    HW226352   0.797   6.000   3.334
 8485SOL     OW26353   3.490   3.362   0.272
 8485SOL    HW126354   3.466   3.406   0.186
 8485SOL    HW226355   3.489   3.263   0.261
 8486SOL     OW26356   3.706   0.667   2.996
 8486SOL    HW126357   3.765   0.702   2.923
 8486SOL    HW226358   3.758   0.604   3.053
 8487SOL     OW26359   5.409   2.027   5.988
 8487SOL    HW126360   5.332   2.091   5.984
 8487SOL    HW226361   5.402   1.971   6.071
 8488SOL     OW26362   5.966   5.453   6.987
 8488SOL    HW126363   5.978   5.363   6.944
 8488SOL    HW226364   5.906   5.443   0.051
 8489SOL     OW26365   6.184   1.728   1.180
 8489SOL    HW126366   6.142   1.810   1.219
 8489SOL    HW226367   6.277   1.719   1.215
 8490SOL     OW26368   4.410   6.687   4.068
 8490SOL    HW126369   4.488   6.662   4.011
 8490SOL    HW226370   4.335   6.718   4.009
 8491SOL     OW26371   2.318   6.061   0.436
 8491SOL    HW126372   2.301   6.145   0.487
 8491SOL    HW226373   2.352   6.084   0.345
 8492SOL     OW26374   4.727   3.966   6.281
 8492SOL    HW126375   4.641   3.957   6.231
 8492SOL    HW226376   4.791   4.021   6.227
 8493SOL     OW26377   2.447   2.724   6.114
 8493SOL    HW126378   2.488   2.757   6.029
 8493SOL    HW226379   2.417   2.629   6.101
 8494SOL     OW26380   3.239   5.764   1.117
 8494SOL    HW126381   3.310   5.764   1.187
 8494SOL    HW226382   3.249   5.845   1.059
 8495SOL     OW26383   6.609   4.871   2.168
 8495SOL    HW126384   6.560   4.786   2.148
 8495SOL    HW226385   6.662   4.860   2.252
 8496SOL     OW26386   0.871   2.022   2.033
 8496SOL    HW126387   0.968   2.007   2.055
 8496SOL    HW226388   0.830   2.083   2.101
 8497SOL     OW26389   5.967   0.975   3.700
 8497SOL    HW126390   5.952   0.911   3.776
 8497SOL    HW226391   5.909   0.948   3.623
 8498SOL     OW26392   0.379   6.549   3.051
 8498SOL    HW126393   0.389   6.500   2.964
 8498SOL    HW226394   0.411   6.490   3.126
 8499SOL     OW26395   1.936   4.491   6.457
 8499SOL    HW126396   1.879   4.563   6.416
 8499SOL    HW226397   2.025   4.530   6.482
 8500SOL     OW26398   1.890   6.674   5.254
 8500SOL    HW126399   1.863   6.748   5.317
 8500SOL    HW226400   1.823   6.600   5.259
 8501SOL     OW26401   0.618   1.596   6.950
 8501SOL    HW126402   0.716   1.599   6.931
 8501SOL    HW226403   0.568   1.645   6.879
 8502SOL     OW26404   1.838   4.590   1.234
 8502SOL    HW126405   1.768   4.546   1.178
 8502SOL    HW226406   1.807   4.595   1.329
 8503SOL     OW26407   1.929   6.861   4.406
 8503SOL    HW126408   2.009   6.848   4.347
 8503SOL    HW226409   1.958   6.896   4.495
 8504SOL     OW26410   2.367   5.194   2.706
 8504SOL    HW126411   2.425   5.113   2.693
 8504SOL    HW226412   2.412   5.258   2.767
 8505SOL     OW26413   4.884   3.322   3.744
 8505SOL    HW126414   4.852   3.230   3.764
 8505SOL    HW226415   4.894   3.333   3.645
 8506SOL     OW26416   6.741   1.489   6.795
 8506SOL    HW126417   6.823   1.471   6.740
 8506SOL    HW226418   6.660   1.461   6.743
 8507SOL     OW26419   3.390   0.742   5.826
 8507SOL    HW126420   3.466   0.799   5.795
 8507SOL    HW226421   3.419   0.688   5.904
 8508SOL     OW26422   6.141   2.044   5.069
 8508SOL    HW126423   6.146   1.945   5.081
 8508SOL    HW226424   6.050   2.077   5.094
 8509SOL     OW26425   4.325   1.422   3.255
 8509SOL    HW126426   4.352   1.519   3.252
 8509SOL    HW226427   4.377   1.376   3.327
 8510SOL     OW26428   5.938   4.002   3.400
 8510SOL    HW126429   5.889   3.991   3.314
 8510SOL    HW226430   5.879   4.048   3.466
 8511SOL     OW26431   6.827   3.926   1.245
 8511SOL    HW126432   6.739   3.894   1.281
 8511SOL    HW226433   6.842   3.888   1.154
 8512SOL     OW26434   3.467   2.174   1.458
 8512SOL    HW126435   3.494   2.155   1.553
 8512SOL    HW226436   3.513   2.110   1.397
 8513SOL     OW26437   4.967   3.932   1.472
 8513SOL    HW126438   5.037   3.869   1.439
 8513SOL    HW226439   4.959   4.010   1.410
 8514SOL     OW26440   2.504   2.456   3.450
 8514SOL    HW126441   2.518   2.482   3.354
 8514SOL    HW226442   2.463   2.533   3.499
 8515SOL     OW26443   5.580   1.699   0.794
 8515SOL    HW126444   5.679   1.688   0.787
 8515SOL    HW226445   5.537   1.609   0.804
 8516SOL     OW26446   6.489   1.979   1.428
 8516SOL    HW126447   6.494   1.951   1.333
 8516SOL    HW226448   6.542   1.916   1.485
 8517SOL     OW26449   1.649   3.195   6.241
 8517SOL    HW126450   1.574   3.262   6.237
 8517SOL    HW226451   1.636   3.136   6.321
 8518SOL     OW26452   4.786   3.845   0.717
 8518SOL    HW126453   4.712   3.874   0.656
 8518SOL    HW226454   4.869   3.895   0.694
 8519SOL     OW26455   1.521   4.184   1.630
 8519SOL    HW126456   1.614   4.218   1.614
 8519SOL    HW226457   1.505   4.102   1.575
 8520SOL     OW26458   3.226   3.100   0.144
 8520SOL    HW126459   3.303   3.130   0.201
 8520SOL    HW226460   3.242   3.007   0.112
 8521SOL     OW26461   1.862   5.560   5.801
 8521SOL    HW126462   1.825   5.518   5.883
 8521SOL    HW226463   1.933   5.626   5.826
 8522SOL     OW26464   0.978   6.223   2.173
 8522SOL    HW126465   0.899   6.169   2.141
 8522SOL    HW226466   1.029   6.257   2.095
 8523SOL     OW26467   1.573   6.440   0.077
 8523SOL    HW126468   1.508   6.515   0.090
 8523SOL    HW226469   1.539   6.380   0.004
 8524SOL     OW26470   0.372   2.781   4.690
 8524SOL    HW126471   0.328   2.725   4.760
 8524SOL    HW226472   0.334   2.757   4.600
 8525SOL     OW26473   6.375   4.138   2.656
 8525SOL    HW126474   6.454   4.108   2.604
 8525SOL    HW226475   6.320   4.200   2.601
 8526SOL     OW26476   3.943   6.023   6.161
 8526SOL    HW126477   4.000   5.986   6.088
 8526SOL    HW226478   3.988   6.103   6.201
 8527SOL     OW26479   2.908   0.928   6.230
 8527SOL    HW126480   2.856   1.013   6.227
 8527SOL    HW226481   2.950   0.918   6.320
 8528SOL     OW26482   3.908   1.098   6.352
 8528SOL    HW126483   3.852   1.091   6.434
 8528SOL    HW226484   4.004   1.108   6.378
 8529SOL     OW26485   0.647   0.900   0.877
 8529SOL    HW126486   0.694   0.893   0.965
 8529SOL    HW226487   0.710   0.936   0.808
 8530SOL     OW26488   3.572   3.896   5.553
 8530SOL    HW126489   3.584   3.808   5.599
 8530SOL    HW226490   3.634   3.964   5.593
 8531SOL     OW26491   6.410   5.231   2.588
 8531SOL    HW126492   6.331   5.171   2.596
 8531SOL    HW226493   6.491   5.184   2.623
 8532SOL     OW26494   4.028   4.860   4.552
 8532SOL    HW126495   4.006   4.783   4.491
 8532SOL    HW226496   3.948   4.919   4.561
 8533SOL     OW26497   1.234   0.075   6.797
 8533SOL    HW126498   1.138   0.103   6.790
 8533SOL    HW226499   1.254   0.047   6.891
 8534SOL     OW26500   6.669   2.968   3.756
 8534SOL    HW126501   6.746   2.923   3.711
 8534SOL    HW226502   6.587   2.960   3.699
 8535SOL     OW26503   6.295   1.793   4.365
 8535SOL    HW126504   6.320   1.867   4.302
 8535SOL    HW226505   6.293   1.706   4.315
 8536SOL     OW26506   6.781   2.745   4.754
 8536SOL    HW126507   6.736   2.826   4.717
 8536SOL    HW226508   6.727   2.709   4.830
 8537SOL     OW26509   4.970   1.377   2.040
 8537SOL    HW126510   4.890   1.331   2.001
 8537SOL    HW226511   4.948   1.472   2.060
 8538SOL     OW26512   0.647   1.159   6.699
 8538SOL    HW126513   0.584   1.128   6.770
 8538SOL    HW226514   0.723   1.095   6.692
 8539SOL     OW26515   5.200   0.806   2.241
 8539SOL    HW126516   5.287   0.843   2.208
 8539SOL    HW226517   5.125   0.863   2.208
 8540SOL     OW26518   4.535   0.323   6.849
 8540SOL    HW126519   4.580   0.250   6.797
 8540SOL    HW226520   4.584   0.409   6.834
 8541SOL     OW26521   2.616   1.437   4.305
 8541SOL    HW126522   2.709   1.465   4.331
 8541SOL    HW226523   2.586   1.363   4.365
 8542SOL     OW26524   3.861   4.979   6.390
 8542SOL    HW126525   3.836   5.027   6.306
 8542SOL    HW226526   3.874   4.882   6.371
 8543SOL     OW26527   3.305   0.745   0.797
 8543SOL    HW126528   3.242   0.804   0.748
 8543SOL    HW226529   3.254   0.669   0.838
 8544SOL     OW26530   5.334   3.350   4.942
 8544SOL    HW126531   5.356   3.253   4.942
 8544SOL    HW226532   5.267   3.369   5.013
 8545SOL     OW26533   4.785   6.678   4.872
 8545SOL    HW126534   4.872   6.661   4.825
 8545SOL    HW226535   4.713   6.623   4.830
 8546SOL     OW26536   6.771   1.270   3.433
 8546SOL    HW126537   6.687   1.285   3.486
 8546SOL    HW226538   6.833   1.347   3.448
 8547SOL     OW26539   1.328   6.665   6.313
 8547SOL    HW126540   1.337   6.682   6.215
 8547SOL    HW226541   1.418   6.653   6.354
 8548SOL     OW26542   5.899   3.339   5.477
 8548SOL    HW126543   5.815   3.312   5.431
 8548SOL    HW226544   5.902   3.298   5.568
 8549SOL     OW26545   1.253   2.882   4.253
 8549SOL    HW126546   1.203   2.968   4.264
 8549SOL    HW226547   1.350   2.897   4.273
 8550SOL     OW26548   1.646   4.711   0.267
 8550SOL    HW126549   1.618   4.744   0.358
 8550SOL    HW226550   1.565   4.688   0.213
 8551SOL     OW26551   3.125   3.537   6.578
 8551SOL    HW126552   3.137   3.615   6.638
 8551SOL    HW226553   3.121   3.568   6.483
 8552SOL     OW26554   2.398   0.406   3.909
 8552SOL    HW126555   2.475   0.436   3.851
 8552SOL    HW226556   2.428   0.332   3.969
 8553SOL     OW26557   4.346   4.085   6.749
 8553SOL    HW126558   4.248   4.073   6.764
 8553SOL    HW226559   4.361   4.125   6.658
 8554SOL     OW26560   1.088   4.600   0.550
 8554SOL    HW126561   1.138   4.672   0.503
 8554SOL    HW226562   1.145   4.562   0.623
 8555SOL     OW26563   1.809   1.556   3.460
 8555SOL    HW126564   1.867   1.477   3.479
 8555SOL    HW226565   1.864   1.629   3.420
 8556SOL     OW26566   1.445   6.205   5.009
 8556SOL    HW126567   1.436   6.274   4.938
 8556SOL    HW226568   1.528   6.151   4.993
 8557SOL     OW26569   5.659   6.645   3.098
 8557SOL    HW126570   5.647   6.744   3.103
 8557SOL    HW226571   5.580   6.604   3.054
 8558SOL     OW26572   2.677   4.766   2.945
 8558SOL    HW126573   2.652   4.669   2.940
 8558SOL    HW226574   2.596   4.821   2.964
 8559SOL     OW26575   1.335   0.227   2.714
 8559SOL    HW126576   1.383   0.139   2.716
 8559SOL    HW226577   1.255   0.220   2.655
 8560SOL     OW26578   6.779   6.236   1.623
 8560SOL    HW126579   6.697   6.219   1.567
 8560SOL    HW226580   6.793   6.334   1.632
 8561SOL     OW26581   2.776   0.452   2.788
 8561SOL    HW126582   2.812   0.392   2.717
 8561SOL    HW226583   2.679   0.468   2.772
 8562SOL     OW26584   3.992   6.159   5.589
 8562SOL    HW126585   4.032   6.248   5.611
 8562SOL    HW226586   4.038   6.121   5.508
 8563SOL     OW26587   1.795   4.519   6.717
 8563SOL    HW126588   1.859   4.463   6.771
 8563SOL    HW226589   1.818   4.615   6.727
 8564SOL     OW26590   2.778   0.977   5.437
 8564SOL    HW126591   2.764   0.917   5.516
 8564SOL    HW226592   2.874   1.007   5.436
 8565SOL     OW26593   3.491   5.687   1.263
 8565SOL    HW126594   3.479   5.610   1.327
 8565SOL    HW226595   3.577   5.674   1.213
 8566SOL     OW26596   2.090   0.261   1.259
 8566SOL    HW126597   1.994   0.289   1.272
 8566SOL    HW226598   2.148   0.342   1.252
 8567SOL     OW26599   0.070   2.686   2.665
 8567SOL    HW126600   7.006   2.626   2.659
 8567SOL    HW226601   0.154   2.631   2.659
 8568SOL     OW26602   5.267   1.158   6.514
 8568SOL    HW126603   5.315   1.223   6.575
 8568SOL    HW226604   5.224   1.209   6.440
 8569SOL     OW26605   4.999   1.072   6.179
 8569SOL    HW126606   4.958   1.067   6.087
 8569SOL    HW226607   5.090   1.032   6.177
 8570SOL     OW26608   1.573   1.952   5.294
 8570SOL    HW126609   1.602   1.994   5.208
 8570SOL    HW226610   1.635   1.877   5.317
 8571SOL     OW26611   1.479   5.925   5.201
 8571SOL    HW126612   1.525   5.978   5.130
 8571SOL    HW226613   1.510   5.830   5.198
 8572SOL     OW26614   2.950   4.840   6.590
 8572SOL    HW126615   2.939   4.785   6.507
 8572SOL    HW226616   2.905   4.793   6.667
 8573SOL     OW26617   3.118   6.017   6.166
 8573SOL    HW126618   3.021   6.036   6.148
 8573SOL    HW226619   3.136   5.920   6.150
 8574SOL     OW26620   6.746   6.036   6.076
 8574SOL    HW126621   6.806   5.978   6.132
 8574SOL    HW226622   6.651   6.020   6.102
 8575SOL     OW26623   2.431   2.667   4.541
 8575SOL    HW126624   2.334   2.648   4.526
 8575SOL    HW226625   2.475   2.586   4.580
 8576SOL     OW26626   1.355   5.487   6.244
 8576SOL    HW126627   1.286   5.455   6.179
 8576SOL    HW226628   1.394   5.573   6.212
 8577SOL     OW26629   0.302   6.872   4.684
 8577SOL    HW126630   0.257   6.837   4.766
 8577SOL    HW226631   0.251   6.842   4.603
 8578SOL     OW26632   5.589   0.200   3.920
 8578SOL    HW126633   5.625   0.149   3.842
 8578SOL    HW226634   5.641   0.176   4.002
 8579SOL     OW26635   1.661   0.058   2.384
 8579SOL    HW126636   1.747   0.109   2.384
 8579SOL    HW226637   1.671   6.991   2.328
 8580SOL     OW26638   1.771   6.349   2.056
 8580SOL    HW126639   1.760   6.397   1.969
 8580SOL    HW226640   1.683   6.316   2.088
 8581SOL     OW26641   3.347   4.097   2.047
 8581SOL    HW126642   3.267   4.038   2.037
 8581SOL    HW226643   3.410   4.057   2.113
 8582SOL     OW26644   4.371   4.619   3.449
 8582SOL    HW126645   4.461   4.584   3.427
 8582SOL    HW226646   4.327   4.655   3.367
 8583SOL     OW26647   5.694   0.440   4.110
 8583SOL    HW126648   5.651   0.365   4.060
 8583SOL    HW226649   5.675   0.526   4.065
 8584SOL     OW26650   1.391   4.533   5.567
 8584SOL    HW126651   1.415   4.453   5.512
 8584SOL    HW226652   1.446   4.611   5.538
 8585SOL     OW26653   0.655   6.089   6.052
 8585SOL    HW126654   0.702   6.135   6.128
 8585SOL    HW226655   0.576   6.143   6.024
 8586SOL     OW26656   2.650   6.712   2.428
 8586SOL    HW126657   2.582   6.706   2.354
 8586SOL    HW226658   2.741   6.698   2.390
 8587SOL     OW26659   1.258   6.890   4.048
 8587SOL    HW126660   1.228   6.878   4.143
 8587SOL    HW226661   1.217   6.819   3.990
 8588SOL     OW26662   2.745   1.312   0.438
 8588SOL    HW126663   2.788   1.401   0.427
 8588SOL    HW226664   2.816   1.241   0.439
 8589SOL     OW26665   4.791   3.205   5.252
 8589SOL    HW126666   4.719   3.270   5.278
 8589SOL    HW226667   4.749   3.120   5.220
 8590SOL     OW26668   6.862   6.244   4.407
 8590SOL    HW126669   6.906   6.240   4.317
 8590SOL    HW226670   6.836   6.152   4.436
 8591SOL     OW26671   0.746   4.008   0.398
 8591SOL    HW126672   0.724   3.912   0.378
 8591SOL    HW226673   0.769   4.055   0.313
 8592SOL     OW26674   6.877   2.860   6.362
 8592SOL    HW126675   6.937   2.920   6.308
 8592SOL    HW226676   6.784   2.868   6.327
 8593SOL     OW26677   2.475   0.364   0.980
 8593SOL    HW126678   2.515   0.321   1.062
 8593SOL    HW226679   2.403   0.305   0.944
 8594SOL     OW26680   4.438   2.311   5.352
 8594SOL    HW126681   4.425   2.408   5.373
 8594SOL    HW226682   4.419   2.256   5.434
 8595SOL     OW26683   0.584   2.635   3.156
 8595SOL    HW126684   0.638   2.565   3.203
 8595SOL    HW226685   0.569   2.607   3.061
 8596SOL     OW26686   0.643   5.663   3.423
 8596SOL    HW126687   0.657   5.638   3.519
 8596SOL    HW226688   0.577   5.600   3.382
 8597SOL     OW26689   4.209   1.570   1.311
 8597SOL    HW126690   4.205   1.669   1.325
 8597SOL    HW226691   4.119   1.531   1.328
 8598SOL     OW26692   6.060   6.817   0.878
 8598SOL    HW126693   6.083   6.721   0.890
 8598SOL    HW226694   5.961   6.827   0.871
 8599SOL     OW26695   1.090   3.041   4.509
 8599SOL    HW126696   1.139   3.014   4.592
 8599SOL    HW226697   1.080   3.140   4.507
 8600SOL     OW26698   4.973   5.399   4.970
 8600SOL    HW126699   5.003   5.346   4.891
 8600SOL    HW226700   4.964   5.339   5.049
 8601SOL     OW26701   0.833   0.893   4.959
 8601SOL    HW126702   0.887   0.912   4.878
 8601SOL    HW226703   0.875   0.819   5.011
 8602SOL     OW26704   2.655   5.375   2.536
 8602SOL    HW126705   2.577   5.435   2.513
 8602SOL    HW226706   2.658   5.361   2.635
 8603SOL     OW26707   3.937   5.596   0.655
 8603SOL    HW126708   3.861   5.549   0.701
 8603SOL    HW226709   3.905   5.633   0.568
 8604SOL     OW26710   0.139   2.215   5.054
 8604SOL    HW126711   0.202   2.161   4.998
 8604SOL    HW226712   0.052   2.167   5.063
 8605SOL     OW26713   2.978   6.001   4.190
 8605SOL    HW126714   2.973   5.932   4.262
 8605SOL    HW226715   2.994   6.091   4.231
 8606SOL     OW26716   1.283   3.814   6.160
 8606SOL    HW126717   1.235   3.893   6.121
 8606SOL    HW226718   1.382   3.826   6.146
 8607SOL     OW26719   3.669   6.140   0.800
 8607SOL    HW126720   3.662   6.052   0.753
 8607SOL    HW226721   3.680   6.213   0.732
 8608SOL     OW26722   3.953   5.239   2.794
 8608SOL    HW126723   3.865   5.231   2.746
 8608SOL    HW226724   4.027   5.241   2.727
 8609SOL     OW26725   4.812   0.966   2.766
 8609SOL    HW126726   4.750   0.897   2.803
 8609SOL    HW226727   4.891   0.921   2.724
 8610SOL     OW26728   1.784   2.302   2.954
 8610SOL    HW126729   1.706   2.302   3.016
 8610SOL    HW226730   1.755   2.339   2.865
 8611SOL     OW26731   3.013   1.748   4.586
 8611SOL    HW126732   2.949   1.678   4.555
 8611SOL    HW226733   2.974   1.796   4.665
 8612SOL     OW26734   3.337   3.090   1.366
 8612SOL    HW126735   3.266   3.054   1.306
 8612SOL    HW226736   3.306   3.085   1.461
 8613SOL     OW26737   2.265   1.731   1.377
 8613SOL    HW126738   2.292   1.825   1.396
 8613SOL    HW226739   2.318   1.669   1.435
 8614SOL     OW26740   1.007   2.617   2.190
 8614SOL    HW126741   0.966   2.527   2.175
 8614SOL    HW226742   1.070   2.638   2.115
 8615SOL     OW26743   4.518   1.496   5.341
 8615SOL    HW126744   4.470   1.481   5.427
 8615SOL    HW226745   4.585   1.423   5.327
 8616SOL     OW26746   3.145   4.573   1.726
 8616SOL    HW126747   3.109   4.619   1.645
 8616SOL    HW226748   3.070   4.533   1.778
 8617SOL     OW26749   6.572   1.069   6.831
 8617SOL    HW126750   6.626   1.077   6.747
 8617SOL    HW226751   6.626   1.103   6.908
 8618SOL     OW26752   6.116   5.672   0.336
 8618SOL    HW126753   6.178   5.634   0.405
 8618SOL    HW226754   6.046   5.604   0.313
 8619SOL     OW26755   3.744   4.963   1.886
 8619SOL    HW126756   3.835   4.931   1.915
 8619SOL    HW226757   3.675   4.897   1.915
 8620SOL     OW26758   1.749   0.527   4.006
 8620SOL    HW126759   1.763   0.627   4.004
 8620SOL    HW226760   1.668   0.504   3.953
 8621SOL     OW26761   5.477   1.623   2.939
 8621SOL    HW126762   5.562   1.607   2.889
 8621SOL    HW226763   5.424   1.694   2.892
 8622SOL     OW26764   5.330   3.389   0.498
 8622SOL    HW126765   5.311   3.448   0.577
 8622SOL    HW226766   5.368   3.302   0.530
 8623SOL     OW26767   1.219   3.613   4.221
 8623SOL    HW126768   1.132   3.564   4.232
 8623SOL    HW226769   1.270   3.572   4.145
 8624SOL     OW26770   1.344   3.852   4.812
 8624SOL    HW126771   1.350   3.948   4.838
 8624SOL    HW226772   1.347   3.844   4.712
 8625SOL     OW26773   4.367   0.364   5.869
 8625SOL    HW126774   4.313   0.313   5.803
 8625SOL    HW226775   4.461   0.371   5.838
 8626SOL     OW26776   3.770   3.227   5.344
 8626SOL    HW126777   3.750   3.323   5.365
 8626SOL    HW226778   3.761   3.172   5.427
 8627SOL     OW26779   0.754   1.299   3.358
 8627SOL    HW126780   0.668   1.256   3.387
 8627SOL    HW226781   0.770   1.381   3.412
 8628SOL     OW26782   6.762   6.199   0.664
 8628SOL    HW126783   6.781   6.276   0.725
 8628SOL    HW226784   6.671   6.209   0.625
 8629SOL     OW26785   1.170   5.402   5.272
 8629SOL    HW126786   1.078   5.415   5.308
 8629SOL    HW226787   1.172   5.320   5.215
 8630SOL     OW26788   5.225   4.208   3.751
 8630SOL    HW126789   5.290   4.195   3.826
 8630SOL    HW226790   5.246   4.143   3.678
 8631SOL     OW26791   1.273   4.985   6.124
 8631SOL    HW126792   1.298   4.889   6.132
 8631SOL    HW226793   1.183   5.000   6.165
 8632SOL     OW26794   3.605   5.560   4.229
 8632SOL    HW126795   3.601   5.516   4.318
 8632SOL    HW226796   3.641   5.653   4.239
 8633SOL     OW26797   4.880   1.572   5.621
 8633SOL    HW126798   4.819   1.499   5.591
 8633SOL    HW226799   4.826   1.654   5.641
 8634SOL     OW26800   5.296   3.577   0.731
 8634SOL    HW126801   5.291   3.674   0.755
 8634SOL    HW226802   5.360   3.531   0.792
 8635SOL     OW26803   5.376   4.460   6.521
 8635SOL    HW126804   5.285   4.462   6.480
 8635SOL    HW226805   5.445   4.474   6.450
 8636SOL     OW26806   4.957   5.570   1.111
 8636SOL    HW126807   4.990   5.619   1.192
 8636SOL    HW226808   5.025   5.576   1.039
 8637SOL     OW26809   2.246   0.802   0.370
 8637SOL    HW126810   2.154   0.765   0.359
 8637SOL    HW226811   2.310   0.751   0.313
 8638SOL     OW26812   2.294   3.072   6.064
 8638SOL    HW126813   2.272   3.059   6.160
 8638SOL    HW226814   2.259   3.161   6.033
 8639SOL     OW26815   5.466   2.733   1.239
 8639SOL    HW126816   5.548   2.709   1.186
 8639SOL    HW226817   5.452   2.666   1.311
 8640SOL     OW26818   4.408   4.062   0.363
 8640SOL    HW126819   4.452   4.002   0.296
 8640SOL    HW226820   4.334   4.013   0.409
 8641SOL     OW26821   5.089   4.801   4.446
 8641SOL    HW126822   5.149   4.859   4.502
 8641SOL    HW226823   5.142   4.724   4.411
 8642SOL     OW26824   2.347   6.238   2.989
 8642SOL    HW126825   2.308   6.328   3.010
 8642SOL    HW226826   2.377   6.237   2.893
 8643SOL     OW26827   2.770   6.983   6.374
 8643SOL    HW126828   2.830   0.004   6.444
 8643SOL    HW226829   2.686   0.022   6.369
 8644SOL     OW26830   5.138   2.185   5.305
 8644SOL    HW126831   5.161   2.242   5.384
 8644SOL    HW226832   5.157   2.236   5.221
 8645SOL     OW26833   4.395   4.764   1.261
 8645SOL    HW126834   4.448   4.832   1.312
 8645SOL    HW226835   4.341   4.811   1.190
 8646SOL     OW26836   6.790   1.212   1.438
 8646SOL    HW126837   6.875   1.187   1.484
 8646SOL    HW226838   6.770   1.146   1.366
 8647SOL     OW26839   2.855   5.930   6.212
 8647SOL    HW126840   2.867   5.905   6.308
 8647SOL    HW226841   2.858   5.847   6.156
 8648SOL     OW26842   6.319   0.638   3.304
 8648SOL    HW126843   6.346   0.733   3.293
 8648SOL    HW226844   6.221   0.628   3.283
 8649SOL     OW26845   5.527   5.439   5.881
 8649SOL    HW126846   5.574   5.492   5.810
 8649SOL    HW226847   5.501   5.350   5.843
 8650SOL     OW26848   2.707   5.463   4.896
 8650SOL    HW126849   2.626   5.469   4.954
 8650SOL    HW226850   2.732   5.367   4.883
 8651SOL     OW26851   3.149   0.444   0.208
 8651SOL    HW126852   3.169   0.512   0.138
 8651SOL    HW226853   3.235   0.415   0.252
 8652SOL     OW26854   1.797   4.101   4.047
 8652SOL    HW126855   1.878   4.135   4.094
 8652SOL    HW226856   1.715   4.127   4.099
 8653SOL     OW26857   5.872   0.557   6.440
 8653SOL    HW126858   5.864   0.561   6.340
 8653SOL    HW226859   5.969   0.561   6.466
 8654SOL     OW26860   1.346   4.864   1.527
 8654SOL    HW126861   1.322   4.961   1.537
 8654SOL    HW226862   1.446   4.855   1.528
 8655SOL     OW26863   6.490   1.573   3.818
 8655SOL    HW126864   6.469   1.668   3.842
 8655SOL    HW226865   6.543   1.572   3.733
 8656SOL     OW26866   6.494   0.398   0.991
 8656SOL    HW126867   6.466   0.305   1.017
 8656SOL    HW226868   6.505   0.453   1.074
 8657SOL     OW26869   5.244   4.440   0.640
 8657SOL    HW126870   5.191   4.379   0.582
 8657SOL    HW226871   5.315   4.485   0.585
 8658SOL     OW26872   4.947   6.560   0.506
 8658SOL    HW126873   4.979   6.569   0.600
 8658SOL    HW226874   4.977   6.473   0.469
 8659SOL     OW26875   4.784   2.010   2.495
 8659SOL    HW126876   4.724   1.929   2.493
 8659SOL    HW226877   4.799   2.043   2.402
 8660SOL     OW26878   6.322   4.578   1.639
 8660SOL    HW126879   6.386   4.653   1.620
 8660SOL    HW226880   6.232   4.616   1.662
 8661SOL     OW26881   5.682   3.986   0.896
 8661SOL    HW126882   5.632   3.900   0.895
 8661SOL    HW226883   5.761   3.980   0.835
 8662SOL     OW26884   4.566   6.043   1.121
 8662SOL    HW126885   4.501   6.119   1.118
 8662SOL    HW226886   4.587   6.021   1.216
 8663SOL     OW26887   3.662   5.900   1.540
 8663SOL    HW126888   3.731   5.937   1.602
 8663SOL    HW226889   3.641   5.806   1.567
 8664SOL     OW26890   1.474   6.042   0.884
 8664SOL    HW126891   1.480   5.958   0.830
 8664SOL    HW226892   1.558   6.095   0.872
 8665SOL     OW26893   5.348   6.371   4.586
 8665SOL    HW126894   5.288   6.448   4.610
 8665SOL    HW226895   5.443   6.396   4.606
 8666SOL     OW26896   5.198   1.912   3.954
 8666SOL    HW126897   5.218   1.817   3.977
 8666SOL    HW226898   5.250   1.973   4.014
 8667SOL     OW26899   4.366   2.416   3.048
 8667SOL    HW126900   4.362   2.453   2.955
 8667SOL    HW226901   4.450   2.447   3.092
 8668SOL     OW26902   5.152   3.750   3.363
 8668SOL    HW126903   5.166   3.687   3.286
 8668SOL    HW226904   5.075   3.718   3.418
 8669SOL     OW26905   1.423   6.280   6.892
 8669SOL    HW126906   1.411   6.197   6.838
 8669SOL    HW226907   1.386   6.358   6.841
 8670SOL     OW26908   3.926   4.309   5.200
 8670SOL    HW126909   3.965   4.218   5.191
 8670SOL    HW226910   3.965   4.369   5.130
 8671SOL     OW26911   5.005   1.306   3.139
 8671SOL    HW126912   5.003   1.273   3.233
 8671SOL    HW226913   5.020   1.228   3.077
 8672SOL     OW26914   1.885   5.086   4.266
 8672SOL    HW126915   1.912   5.181   4.282
 8672SOL    HW226916   1.855   5.075   4.172
 8673SOL     OW26917   5.951   3.005   0.372
 8673SOL    HW126918   5.945   2.987   0.470
 8673SOL    HW226919   6.047   3.007   0.344
 8674SOL     OW26920   6.091   6.077   3.495
 8674SOL    HW126921   6.016   6.143   3.503
 8674SOL    HW226922   6.060   5.987   3.526
 8675SOL     OW26923   2.716   2.427   3.873
 8675SOL    HW126924   2.809   2.391   3.877
 8675SOL    HW226925   2.680   2.436   3.966
 8676SOL     OW26926   4.260   0.507   2.362
 8676SOL    HW126927   4.288   0.582   2.422
 8676SOL    HW226928   4.314   0.508   2.278
 8677SOL     OW26929   2.187   5.804   5.652
 8677SOL    HW126930   2.129   5.771   5.727
 8677SOL    HW226931   2.195   5.733   5.582
 8678SOL     OW26932   6.593   0.509   1.229
 8678SOL    HW126933   6.548   0.583   1.278
 8678SOL    HW226934   6.668   0.546   1.174
 8679SOL     OW26935   0.198   2.470   3.173
 8679SOL    HW126936   0.247   2.403   3.116
 8679SOL    HW226937   0.164   2.544   3.115
 8680SOL     OW26938   1.042   3.566   1.270
 8680SOL    HW126939   1.088   3.494   1.323
 8680SOL    HW226940   1.109   3.634   1.240
 8681SOL     OW26941   5.486   5.127   0.032
 8681SOL    HW126942   5.545   5.200   7.012
 8681SOL    HW226943   5.421   5.166   0.097
 8682SOL     OW26944   5.041   6.651   2.413
 8682SOL    HW126945   5.086   6.567   2.383
 8682SOL    HW226946   5.071   6.674   2.505
 8683SOL     OW26947   1.278   2.058   3.267
 8683SOL    HW126948   1.213   2.086   3.196
 8683SOL    HW226949   1.251   2.099   3.354
 8684SOL     OW26950   6.748   3.073   5.251
 8684SOL    HW126951   6.772   2.976   5.254
 8684SOL    HW226952   6.758   3.108   5.158
 8685SOL     OW26953   0.140   1.779   5.902
 8685SOL    HW126954   0.073   1.721   5.856
 8685SOL    HW226955   0.184   1.840   5.836
 8686SOL     OW26956   0.337   1.781   2.218
 8686SOL    HW126957   0.371   1.870   2.185
 8686SOL    HW226958   0.414   1.728   2.253
 8687SOL     OW26959   4.592   5.311   1.630
 8687SOL    HW126960   4.640   5.388   1.671
 8687SOL    HW226961   4.647   5.228   1.639
 8688SOL     OW26962   2.461   5.549   7.014
 8688SOL    HW126963   2.385   5.615   7.008
 8688SOL    HW226964   2.472   5.520   0.094
 8689SOL     OW26965   3.920   4.075   1.546
 8689SOL    HW126966   3.969   4.012   1.487
 8689SOL    HW226967   3.824   4.079   1.519
 8690SOL     OW26968   1.544   3.466   3.145
 8690SOL    HW126969   1.526   3.483   3.242
 8690SOL    HW226970   1.472   3.508   3.090
 8691SOL     OW26971   3.125   1.791   5.982
 8691SOL    HW126972   3.067   1.857   5.935
 8691SOL    HW226973   3.205   1.770   5.926
 8692SOL     OW26974   2.611   1.706   4.455
 8692SOL    HW126975   2.533   1.645   4.439
 8692SOL    HW226976   2.622   1.721   4.554
 8693SOL     OW26977   5.967   0.967   0.225
 8693SOL    HW126978   6.031   1.043   0.218
 8693SOL    HW226979   5.952   0.928   0.134
 8694SOL     OW26980   4.808   1.051   5.239
 8694SOL    HW126981   4.770   0.966   5.275
 8694SOL    HW226982   4.765   1.072   5.151
 8695SOL     OW26983   4.054   2.926   5.716
 8695SOL    HW126984   3.978   2.863   5.731
 8695SOL    HW226985   4.039   3.009   5.770
 8696SOL     OW26986   2.016   5.239   6.852
 8696SOL    HW126987   2.090   5.212   6.791
 8696SOL    HW226988   1.937   5.267   6.798
 8697SOL     OW26989   6.794   2.483   6.581
 8697SOL    HW126990   6.752   2.573   6.581
 8697SOL    HW226991   6.726   2.414   6.553
 8698SOL     OW26992   5.187   6.278   5.618
 8698SOL    HW126993   5.152   6.299   5.527
 8698SOL    HW226994   5.218   6.183   5.621
 8699SOL     OW26995   2.032   2.433   5.363
 8699SOL    HW126996   2.007   2.527   5.386
 8699SOL    HW226997   1.951   2.381   5.339
 8700SOL     OW26998   0.702   1.165   4.493
 8700SOL    HW126999   0.653   1.128   4.573
 8700SOL    HW227000   0.638   1.214   4.435
 8701SOL     OW27001   0.661   1.642   0.834
 8701SOL    HW127002   0.698   1.650   0.741
 8701SOL    HW227003   0.737   1.637   0.899
 8702SOL     OW27004   5.529   5.233   1.737
 8702SOL    HW127005   5.619   5.261   1.772
 8702SOL    HW227006   5.515   5.136   1.757
 8703SOL     OW27007   2.558   5.113   6.648
 8703SOL    HW127008   2.531   5.208   6.636
 8703SOL    HW227009   2.559   5.090   6.745
 8704SOL     OW27010   0.446   3.819   3.141
 8704SOL    HW127011   0.435   3.778   3.231
 8704SOL    HW227012   0.496   3.756   3.081
 8705SOL     OW27013   5.250   1.500   6.259
 8705SOL    HW127014   5.232   1.416   6.207
 8705SOL    HW227015   5.239   1.579   6.200
 8706SOL     OW27016   5.298   2.225   6.897
 8706SOL    HW127017   5.332   2.242   6.805
 8706SOL    HW227018   5.272   2.128   6.906
 8707SOL     OW27019   6.745   1.780   6.484
 8707SOL    HW127020   6.802   1.699   6.468
 8707SOL    HW227021   6.658   1.770   6.436
 8708SOL     OW27022   4.415   2.174   2.710
 8708SOL    HW127023   4.509   2.144   2.725
 8708SOL    HW227024   4.404   2.208   2.617
 8709SOL     OW27025   0.010   6.793   6.904
 8709SOL    HW127026   0.026   6.838   6.991
 8709SOL    HW227027   6.937   6.822   6.866
 8710SOL     OW27028   2.058   3.166   3.886
 8710SOL    HW127029   2.043   3.125   3.796
 8710SOL    HW227030   2.132   3.119   3.933
 8711SOL     OW27031   1.630   6.818   3.319
 8711SOL    HW127032   1.675   6.815   3.230
 8711SOL    HW227033   1.591   6.728   3.339
 8712SOL     OW27034   4.205   2.274   4.762
 8712SOL    HW127035   4.179   2.357   4.812
 8712SOL    HW227036   4.132   2.206   4.771
 8713SOL     OW27037   6.681   2.988   4.108
 8713SOL    HW127038   6.664   3.048   4.029
 8713SOL    HW227039   6.596   2.976   4.159
 8714SOL     OW27040   0.701   1.021   5.946
 8714SOL    HW127041   0.760   0.944   5.971
 8714SOL    HW227042   0.698   1.087   6.022
 8715SOL     OW27043   4.731   0.311   0.773
 8715SOL    HW127044   4.816   0.350   0.737
 8715SOL    HW227045   4.736   0.308   0.873
 8716SOL     OW27046   6.847   6.920   1.863
 8716SOL    HW127047   6.851   6.833   1.912
 8716SOL    HW227048   6.756   6.931   1.822
 8717SOL     OW27049   3.634   3.414   4.071
 8717SOL    HW127050   3.682   3.489   4.026
 8717SOL    HW227051   3.659   3.327   4.029
 8718SOL     OW27052   1.198   3.705   5.140
 8718SOL    HW127053   1.285   3.668   5.106
 8718SOL    HW227054   1.136   3.719   5.063
 8719SOL     OW27055   3.730   0.118   6.683
 8719SOL    HW127056   3.726   0.209   6.643
 8719SOL    HW227057   3.824   0.097   6.709
 8720SOL     OW27058   6.924   5.402   5.879
 8720SOL    HW127059   6.845   5.439   5.829
 8720SOL    HW227060   6.937   5.453   5.963
 8721SOL     OW27061   6.580   3.172   2.210
 8721SOL    HW127062   6.547   3.265   2.195
 8721SOL    HW227063   6.605   3.160   2.306
 8722SOL     OW27064   3.849   1.482   0.041
 8722SOL    HW127065   3.848   1.433   6.970
 8722SOL    HW227066   3.759   1.477   0.083
 8723SOL     OW27067   5.529   5.613   0.660
 8723SOL    HW127068   5.539   5.603   0.759
 8723SOL    HW227069   5.445   5.662   0.640
 8724SOL     OW27070   4.913   0.090   5.138
 8724SOL    HW127071   4.917   0.190   5.144
 8724SOL    HW227072   4.877   0.065   5.048
 8725SOL     OW27073   1.932   6.131   6.024
 8725SOL    HW127074   2.019   6.120   5.975
 8725SOL    HW227075   1.885   6.213   5.991
 8726SOL     OW27076   6.628   0.775   2.791
 8726SOL    HW127077   6.697   0.818   2.850
 8726SOL    HW227078   6.588   0.844   2.731
 8727SOL     OW27079   6.433   6.386   2.549
 8727SOL    HW127080   6.406   6.291   2.557
 8727SOL    HW227081   6.366   6.444   2.596
 8728SOL     OW27082   6.166   0.493   2.158
 8728SOL    HW127083   6.088   0.431   2.158
 8728SOL    HW227084   6.251   0.440   2.163
 8729SOL     OW27085   4.312   6.178   4.843
 8729SOL    HW127086   4.301   6.222   4.932
 8729SOL    HW227087   4.311   6.078   4.855
 8730SOL     OW27088   6.707   3.799   2.228
 8730SOL    HW127089   6.698   3.702   2.207
 8730SOL    HW227090   6.632   3.850   2.185
 8731SOL     OW27091   2.132   2.596   2.531
 8731SOL    HW127092   2.226   2.594   2.495
 8731SOL    HW227093   2.094   2.503   2.528
 8732SOL     OW27094   6.234   5.148   1.453
 8732SOL    HW127095   6.193   5.057   1.449
 8732SOL    HW227096   6.196   5.205   1.380
 8733SOL     OW27097   1.451   5.197   1.043
 8733SOL    HW127098   1.369   5.171   1.095
 8733SOL    HW227099   1.522   5.229   1.107
 8734SOL     OW27100   1.586   3.862   1.729
 8734SOL    HW127101   1.655   3.921   1.772
 8734SOL    HW227102   1.554   3.795   1.796
 8735SOL     OW27103   1.190   2.388   0.820
 8735SOL    HW127104   1.214   2.351   0.910
 8735SOL    HW227105   1.214   2.323   0.749
 8736SOL     OW27106   0.490   5.915   6.513
 8736SOL    HW127107   0.504   5.845   6.583
 8736SOL    HW227108   0.545   5.892   6.432
 8737SOL     OW27109   1.828   6.183   6.405
 8737SOL    HW127110   1.922   6.208   6.431
 8737SOL    HW227111   1.765   6.253   6.439
 8738SOL     OW27112   2.259   5.589   4.629
 8738SOL    HW127113   2.333   5.656   4.627
 8738SOL    HW227114   2.292   5.505   4.672
 8739SOL     OW27115   5.589   5.414   6.526
 8739SOL    HW127116   5.491   5.405   6.509
 8739SOL    HW227117   5.629   5.323   6.536
 8740SOL     OW27118   4.968   0.804   4.478
 8740SOL    HW127119   4.921   0.822   4.564
 8740SOL    HW227120   4.919   0.850   4.403
 8741SOL     OW27121   2.702   1.303   2.533
 8741SOL    HW127122   2.608   1.274   2.548
 8741SOL    HW227123   2.740   1.338   2.618
 8742SOL     OW27124   6.188   6.201   1.292
 8742SOL    HW127125   6.145   6.116   1.324
 8742SOL    HW227126   6.177   6.208   1.193
 8743SOL     OW27127   1.093   0.191   2.566
 8743SOL    HW127128   1.001   0.182   2.606
 8743SOL    HW227129   1.107   0.118   2.499
 8744SOL     OW27130   3.449   2.714   6.208
 8744SOL    HW127131   3.449   2.682   6.302
 8744SOL    HW227132   3.369   2.678   6.160
 8745SOL     OW27133   5.807   2.586   6.669
 8745SOL    HW127134   5.906   2.576   6.663
 8745SOL    HW227135   5.766   2.498   6.693
 8746SOL     OW27136   4.913   4.933   4.681
 8746SOL    HW127137   4.979   4.908   4.611
 8746SOL    HW227138   4.909   4.862   4.751
 8747SOL     OW27139   0.650   3.011   3.057
 8747SOL    HW127140   0.611   2.938   3.000
 8747SOL    HW227141   0.597   3.018   3.142
 8748SOL     OW27142   6.611   1.484   5.066
 8748SOL    HW127143   6.587   1.560   5.126
 8748SOL    HW227144   6.707   1.489   5.042
 8749SOL     OW27145   2.624   0.894   5.808
 8749SOL    HW127146   2.711   0.853   5.834
 8749SOL    HW227147   2.631   0.993   5.813
 8750SOL     OW27148   3.507   3.620   5.626
 8750SOL    HW127149   3.505   3.639   5.724
 8750SOL    HW227150   3.414   3.602   5.594
 8751SOL     OW27151   5.674   0.841   2.144
 8751SOL    HW127152   5.747   0.849   2.075
 8751SOL    HW227153   5.710   0.799   2.226
 8752SOL     OW27154   2.821   3.005   0.447
 8752SOL    HW127155   2.882   2.927   0.429
 8752SOL    HW227156   2.867   3.090   0.423
 8753SOL     OW27157   4.039   2.038   5.890
 8753SOL    HW127158   3.987   2.050   5.806
 8753SOL    HW227159   4.134   2.017   5.868
 8754SOL     OW27160   1.902   3.340   5.892
 8754SOL    HW127161   1.946   3.345   5.803
 8754SOL    HW227162   1.811   3.300   5.882
 8755SOL     OW27163   2.033   0.596   0.821
 8755SOL    HW127164   2.129   0.589   0.849
 8755SOL    HW227165   1.982   0.518   0.857
 8756SOL     OW27166   0.874   3.239   3.226
 8756SOL    HW127167   0.805   3.305   3.197
 8756SOL    HW227168   0.899   3.181   3.149
 8757SOL     OW27169   3.915   5.736   6.291
 8757SOL    HW127170   3.935   5.832   6.271
 8757SOL    HW227171   3.820   5.727   6.321
 8758SOL     OW27172   5.100   5.810   2.161
 8758SOL    HW127173   5.015   5.855   2.134
 8758SOL    HW227174   5.156   5.872   2.215
 8759SOL     OW27175   4.637   2.515   0.548
 8759SOL    HW127176   4.583   2.498   0.631
 8759SOL    HW227177   4.657   2.429   0.503
 8760SOL     OW27178   2.262   1.039   4.723
 8760SOL    HW127179   2.169   1.021   4.754
 8760SOL    HW227180   2.311   1.091   4.793
 8761SOL     OW27181   6.018   1.947   2.070
 8761SOL    HW127182   6.025   1.849   2.052
 8761SOL    HW227183   6.107   1.983   2.099
 8762SOL     OW27184   1.739   3.720   2.504
 8762SOL    HW127185   1.803   3.651   2.539
 8762SOL    HW227186   1.775   3.811   2.524
 8763SOL     OW27187   0.054   6.944   5.994
 8763SOL    HW127188   0.041   6.990   6.081
 8763SOL    HW227189   0.026   7.005   5.919
 8764SOL     OW27190   4.739   0.432   4.647
 8764SOL    HW127191   4.832   0.414   4.680
 8764SOL    HW227192   4.742   0.505   4.578
 8765SOL     OW27193   5.288   6.154   3.290
 8765SOL    HW127194   5.286   6.088   3.215
 8765SOL    HW227195   5.203   6.207   3.290
 8766SOL     OW27196   4.791   4.192   3.526
 8766SOL    HW127197   4.738   4.232   3.601
 8766SOL    HW227198   4.754   4.221   3.438
 8767SOL     OW27199   5.130   5.814   2.675
 8767SOL    HW127200   5.035   5.788   2.660
 8767SOL    HW227201   5.133   5.891   2.739
 8768SOL     OW27202   1.351   2.046   0.412
 8768SOL    HW127203   1.398   2.029   0.499
 8768SOL    HW227204   1.375   1.975   0.346
 8769SOL     OW27205   0.454   0.654   4.295
 8769SOL    HW127206   0.369   0.631   4.246
 8769SOL    HW227207   0.529   0.659   4.230
 8770SOL     OW27208   4.945   4.329   2.589
 8770SOL    HW127209   4.906   4.316   2.499
 8770SOL    HW227210   4.914   4.257   2.651
 8771SOL     OW27211   0.926   1.316   6.566
 8771SOL    HW127212   0.881   1.229   6.585
 8771SOL    HW227213   0.874   1.366   6.497
 8772SOL     OW27214   5.323   0.545   6.288
 8772SOL    HW127215   5.340   0.473   6.355
 8772SOL    HW227216   5.266   0.617   6.329
 8773SOL     OW27217   4.591   2.516   3.155
 8773SOL    HW127218   4.626   2.474   3.239
 8773SOL    HW227219   4.582   2.615   3.169
 8774SOL     OW27220   0.979   0.767   7.000
 8774SOL    HW127221   1.007   0.756   6.904
 8774SOL    HW227222   0.926   0.851   7.010
 8775SOL     OW27223   5.729   6.990   4.951
 8775SOL    HW127224   5.658   0.022   5.002
 8775SOL    HW227225   5.701   6.896   4.934
 8776SOL     OW27226   3.367   3.036   6.507
 8776SOL    HW127227   3.275   3.017   6.475
 8776SOL    HW227228   3.428   2.962   6.479
 8777SOL     OW27229   0.132   4.015   2.002
 8777SOL    HW127230   0.202   3.965   2.053
 8777SOL    HW227231   0.176   4.071   1.931
 8778SOL     OW27232   5.851   2.650   5.077
 8778SOL    HW127233   5.883   2.606   5.161
 8778SOL    HW227234   5.907   2.620   5.000
 8779SOL     OW27235   2.233   5.487   2.828
 8779SOL    HW127236   2.162   5.434   2.782
 8779SOL    HW227237   2.311   5.429   2.847
 8780SOL     OW27238   0.676   6.489   2.317
 8780SOL    HW127239   0.605   6.480   2.387
 8780SOL    HW227240   0.664   6.418   2.248
 8781SOL     OW27241   5.330   1.059   3.143
 8781SOL    HW127242   5.399   0.989   3.125
 8781SOL    HW227243   5.241   1.028   3.109
 8782SOL     OW27244   6.594   6.202   1.440
 8782SOL    HW127245   6.510   6.251   1.419
 8782SOL    HW227246   6.673   6.255   1.407
 8783SOL     OW27247   6.316   4.199   3.382
 8783SOL    HW127248   6.268   4.163   3.302
 8783SOL    HW227249   6.409   4.163   3.385
 8784SOL     OW27250   6.079   4.172   6.408
 8784SOL    HW127251   6.164   4.223   6.420
 8784SOL    HW227252   6.004   4.235   6.391
 8785SOL     OW27253   5.811   3.922   0.121
 8785SOL    HW127254   5.854   4.004   0.159
 8785SOL    HW227255   5.750   3.949   0.046
 8786SOL     OW27256   1.970   0.294   0.159
 8786SOL    HW127257   2.035   0.225   0.191
 8786SOL    HW227258   2.000   0.328   0.070
 8787SOL     OW27259   3.197   2.053   1.505
 8787SOL    HW127260   3.287   2.091   1.484
 8787SOL    HW227261   3.140   2.125   1.545
 8788SOL     OW27262   6.768   1.772   5.869
 8788SOL    HW127263   6.681   1.822   5.867
 8788SOL    HW227264   6.802   1.768   5.964
 8789SOL     OW27265   6.272   0.167   4.877
 8789SOL    HW127266   6.232   0.237   4.817
 8789SOL    HW227267   6.364   0.194   4.903
 8790SOL     OW27268   0.473   0.207   6.659
 8790SOL    HW127269   0.462   0.112   6.688
 8790SOL    HW227270   0.389   0.258   6.679
 8791SOL     OW27271   5.151   0.089   4.492
 8791SOL    HW127272   5.147   0.188   4.509
 8791SOL    HW227273   5.090   0.042   4.555
 8792SOL     OW27274   2.587   6.485   3.105
 8792SOL    HW127275   2.604   6.475   3.007
 8792SOL    HW227276   2.665   6.450   3.157
 8793SOL     OW27277   1.343   4.210   3.537
 8793SOL    HW127278   1.426   4.264   3.522
 8793SOL    HW227279   1.263   4.267   3.521
 8794SOL     OW27280   4.653   6.638   2.094
 8794SOL    HW127281   4.579   6.600   2.037
 8794SOL    HW227282   4.615   6.667   2.182
 8795SOL     OW27283   1.469   5.261   5.426
 8795SOL    HW127284   1.540   5.222   5.485
 8795SOL    HW227285   1.508   5.334   5.370
 8796SOL     OW27286   3.639   2.142   4.756
 8796SOL    HW127287   3.610   2.103   4.669
 8796SOL    HW227288   3.735   2.167   4.752
 8797SOL     OW27289   6.574   6.844   6.960
 8797SOL    HW127290   6.528   6.892   0.019
 8797SOL    HW227291   6.560   6.746   6.969
 8798SOL     OW27292   5.157   5.653   5.710
 8798SOL    HW127293   5.166   5.613   5.801
 8798SOL    HW227294   5.060   5.664   5.689
 8799SOL     OW27295   2.783   4.852   3.748
 8799SOL    HW127296   2.783   4.834   3.846
 8799SOL    HW227297   2.877   4.856   3.714
 8800SOL     OW27298   6.584   3.670   5.632
 8800SOL    HW127299   6.533   3.649   5.716
 8800SOL    HW227300   6.620   3.585   5.593
 8801SOL     OW27301   0.257   1.827   5.084
 8801SOL    HW127302   0.314   1.823   5.167
 8801SOL    HW227303   0.165   1.795   5.106
 8802SOL     OW27304   1.822   6.572   0.086
 8802SOL    HW127305   1.901   6.527   0.130
 8802SOL    HW227306   1.741   6.515   0.099
 8803SOL     OW27307   6.634   6.022   6.774
 8803SOL    HW127308   6.588   6.100   6.732
 8803SOL    HW227309   6.569   5.972   6.831
 8804SOL     OW27310   2.458   6.638   2.235
 8804SOL    HW127311   2.381   6.656   2.296
 8804SOL    HW227312   2.455   6.702   2.158
 8805SOL     OW27313   2.840   6.627   4.414
 8805SOL    HW127314   2.868   6.637   4.319
 8805SOL    HW227315   2.852   6.714   4.462
 8806SOL     OW27316   3.013   5.892   2.242
 8806SOL    HW127317   3.017   5.902   2.142
 8806SOL    HW227318   2.926   5.850   2.268
 8807SOL     OW27319   5.326   0.538   7.013
 8807SOL    HW127320   5.250   0.604   0.001
 8807SOL    HW227321   5.298   0.452   0.039
 8808SOL     OW27322   5.804   2.991   6.989
 8808SOL    HW127323   5.902   3.006   6.979
 8808SOL    HW227324   5.777   2.911   6.934
 8809SOL     OW27325   5.127   5.507   3.519
 8809SOL    HW127326   5.054   5.506   3.586
 8809SOL    HW227327   5.093   5.547   3.433
 8810SOL     OW27328   5.673   1.119   5.478
 8810SOL    HW127329   5.637   1.035   5.517
 8810SOL    HW227330   5.632   1.135   5.388
 8811SOL     OW27331   2.903   0.429   3.057
 8811SOL    HW127332   2.861   0.439   2.967
 8811SOL    HW227333   2.841   0.462   3.127
 8812SOL     OW27334   1.871   0.431   0.991
 8812SOL    HW127335   1.878   0.426   1.091
 8812SOL    HW227336   1.897   0.343   0.951
 8813SOL     OW27337   2.610   4.683   1.473
 8813SOL    HW127338   2.691   4.669   1.529
 8813SOL    HW227339   2.574   4.594   1.444
 8814SOL     OW27340   5.487   6.801   1.407
 8814SOL    HW127341   5.524   6.744   1.480
 8814SOL    HW227342   5.506   6.897   1.426
 8815SOL     OW27343   5.747   6.825   0.892
 8815SOL    HW127344   5.701   6.913   0.898
 8815SOL    HW227345   5.731   6.785   0.801
 8816SOL     OW27346   0.954   6.846   0.327
 8816SOL    HW127347   0.980   6.935   0.365
 8816SOL    HW227348   1.014   6.824   0.250
 8817SOL     OW27349   0.646   5.092   4.134
 8817SOL    HW127350   0.644   5.187   4.164
 8817SOL    HW227351   0.572   5.041   4.179
 8818SOL     OW27352   0.488   4.403   4.813
 8818SOL    HW127353   0.533   4.429   4.899
 8818SOL    HW227354   0.431   4.479   4.781
 8819SOL     OW27355   5.693   5.395   5.138
 8819SOL    HW127356   5.730   5.464   5.201
 8819SOL    HW227357   5.766   5.332   5.110
 8820SOL     OW27358   2.369   1.177   5.164
 8820SOL    HW127359   2.325   1.092   5.133
 8820SOL    HW227360   2.459   1.156   5.201
 8821SOL     OW27361   1.720   6.183   0.856
 8821SOL    HW127362   1.812   6.155   0.829
 8821SOL    HW227363   1.694   6.266   0.806
 8822SOL     OW27364   0.392   0.177   4.827
 8822SOL    HW127365   0.389   0.200   4.729
 8822SOL    HW227366   0.419   0.258   4.879
 8823SOL     OW27367   2.333   0.941   2.093
 8823SOL    HW127368   2.350   1.000   2.172
 8823SOL    HW227369   2.287   0.993   2.021
 8824SOL     OW27370   1.098   1.976   0.497
 8824SOL    HW127371   1.026   2.040   0.523
 8824SOL    HW227372   1.177   2.028   0.463
 8825SOL     OW27373   2.529   1.094   1.551
 8825SOL    HW127374   2.430   1.095   1.535
 8825SOL    HW227375   2.547   1.103   1.649
 8826SOL     OW27376   6.587   3.448   0.434
 8826SOL    HW127377   6.509   3.474   0.377
 8826SOL    HW227378   6.607   3.522   0.498
 8827SOL     OW27379   4.077   1.778   2.209
 8827SOL    HW127380   4.087   1.829   2.124
 8827SOL    HW227381   3.980   1.765   2.228
 8828SOL     OW27382   4.473   6.147   5.623
 8828SOL    HW127383   4.472   6.094   5.538
 8828SOL    HW227384   4.532   6.227   5.611
 8829SOL     OW27385   5.388   2.932   0.742
 8829SOL    HW127386   5.438   2.924   0.828
 8829SOL    HW227387   5.311   2.995   0.754
 8830SOL     OW27388   1.210   1.736   2.605
 8830SOL    HW127389   1.149   1.725   2.684
 8830SOL    HW227390   1.305   1.739   2.637
 8831SOL     OW27391   3.948   2.200   4.200
 8831SOL    HW127392   3.933   2.299   4.206
 8831SOL    HW227393   3.918   2.156   4.284
 8832SOL     OW27394   0.008   5.965   3.094
 8832SOL    HW127395   6.966   5.940   3.172
 8832SOL    HW227396   0.091   5.910   3.094
 8833SOL     OW27397   2.528   5.226   5.791
 8833SOL    HW127398   2.461   5.194   5.724
 8833SOL    HW227399   2.599   5.157   5.803
 8834SOL     OW27400   5.455   3.887   4.695
 8834SOL    HW127401   5.378   3.831   4.724
 8834SOL    HW227402   5.498   3.928   4.776
 8835SOL     OW27403   4.939   1.014   5.925
 8835SOL    HW127404   4.962   0.919   5.906
 8835SOL    HW227405   4.850   1.036   5.886
 8836SOL     OW27406   5.436   3.103   0.229
 8836SOL    HW127407   5.509   3.040   0.200
 8836SOL    HW227408   5.444   3.188   0.178
 8837SOL     OW27409   0.077   6.224   2.232
 8837SOL    HW127410   0.031   6.193   2.315
 8837SOL    HW227411   0.169   6.255   2.255
 8838SOL     OW27412   1.816   5.318   3.320
 8838SOL    HW127413   1.717   5.305   3.325
 8838SOL    HW227414   1.858   5.285   3.405
 8839SOL     OW27415   6.170   5.047   2.617
 8839SOL    HW127416   6.126   5.003   2.539
 8839SOL    HW227417   6.138   5.004   2.702
 8840SOL     OW27418   6.890   2.212   2.364
 8840SOL    HW127419   6.853   2.279   2.300
 8840SOL    HW227420   6.989   2.203   2.349
 8841SOL     OW27421   0.929   0.971   5.229
 8841SOL    HW127422   0.863   0.929   5.291
 8841SOL    HW227423   1.014   0.920   5.232
 8842SOL     OW27424   3.486   3.158   2.197
 8842SOL    HW127425   3.461   3.062   2.189
 8842SOL    HW227426   3.485   3.185   2.294
 8843SOL     OW27427   1.892   3.278   5.301
 8843SOL    HW127428   1.892   3.189   5.257
 8843SOL    HW227429   1.815   3.285   5.363
 8844SOL     OW27430   6.899   1.955   6.351
 8844SOL    HW127431   6.840   1.884   6.391
 8844SOL    HW227432   6.913   2.028   6.418
 8845SOL     OW27433   3.798   3.667   0.537
 8845SOL    HW127434   3.802   3.724   0.619
 8845SOL    HW227435   3.888   3.662   0.494
 8846SOL     OW27436   3.593   5.488   3.943
 8846SOL    HW127437   3.616   5.538   4.026
 8846SOL    HW227438   3.627   5.394   3.950
 8847SOL     OW27439   2.470   0.666   3.161
 8847SOL    HW127440   2.375   0.683   3.134
 8847SOL    HW227441   2.489   0.713   3.247
 8848SOL     OW27442   2.778   1.740   1.997
 8848SOL    HW127443   2.770   1.677   1.920
 8848SOL    HW227444   2.874   1.763   2.011
 8849SOL     OW27445   3.074   6.236   3.462
 8849SOL    HW127446   3.029   6.317   3.500
 8849SOL    HW227447   3.167   6.230   3.500
 8850SOL     OW27448   0.782   1.913   0.037
 8850SOL    HW127449   0.817   1.825   0.007
 8850SOL    HW227450   0.855   1.982   0.033
 8851SOL     OW27451   1.141   4.275   2.976
 8851SOL    HW127452   1.089   4.327   2.909
 8851SOL    HW227453   1.086   4.198   3.008
 8852SOL     OW27454   6.245   2.863   5.146
 8852SOL    HW127455   6.279   2.956   5.148
 8852SOL    HW227456   6.250   2.823   5.237
 8853SOL     OW27457   2.884   0.882   1.263
 8853SOL    HW127458   2.809   0.946   1.281
 8853SOL    HW227459   2.851   0.788   1.278
 8854SOL     OW27460   3.148   2.583   5.731
 8854SOL    HW127461   3.229   2.538   5.694
 8854SOL    HW227462   3.130   2.667   5.680
 8855SOL     OW27463   0.156   5.401   1.609
 8855SOL    HW127464   0.090   5.352   1.666
 8855SOL    HW227465   0.223   5.446   1.667
 8856SOL     OW27466   0.263   6.839   6.161
 8856SOL    HW127467   0.226   6.830   6.253
 8856SOL    HW227468   0.189   6.861   6.097
 8857SOL     OW27469   6.523   1.836   3.930
 8857SOL    HW127470   6.539   1.922   3.881
 8857SOL    HW227471   6.431   1.837   3.969
 8858SOL     OW27472   0.805   3.597   5.264
 8858SOL    HW127473   0.816   3.590   5.165
 8858SOL    HW227474   0.744   3.525   5.297
 8859SOL     OW27475   0.387   0.254   3.986
 8859SOL    HW127476   0.447   0.325   4.023
 8859SOL    HW227477   0.324   0.295   3.919
 8860SOL     OW27478   6.702   2.529   2.550
 8860SOL    HW127479   6.698   2.513   2.648
 8860SOL    HW227480   6.739   2.620   2.532
 8861SOL     OW27481   4.263   1.157   5.977
 8861SOL    HW127482   4.207   1.179   5.897
 8861SOL    HW227483   4.233   1.069   6.015
 8862SOL     OW27484   5.107   0.353   3.629
 8862SOL    HW127485   5.027   0.323   3.681
 8862SOL    HW227486   5.173   0.278   3.623
 8863SOL     OW27487   2.181   4.971   4.226
 8863SOL    HW127488   2.101   5.006   4.273
 8863SOL    HW227489   2.169   4.982   4.127
 8864SOL     OW27490   2.627   4.876   6.528
 8864SOL    HW127491   2.663   4.793   6.570
 8864SOL    HW227492   2.618   4.948   6.597
 8865SOL     OW27493   2.828   0.515   5.249
 8865SOL    HW127494   2.798   0.430   5.207
 8865SOL    HW227495   2.926   0.510   5.269
 8866SOL     OW27496   4.883   0.044   2.905
 8866SOL    HW127497   4.870   6.961   2.900
 8866SOL    HW227498   4.960   0.065   2.966
 8867SOL     OW27499   5.885   4.856   2.662
 8867SOL    HW127500   5.860   4.818   2.572
 8867SOL    HW227501   5.914   4.781   2.722
 8868SOL     OW27502   6.838   2.831   1.546
 8868SOL    HW127503   6.742   2.852   1.526
 8868SOL    HW227504   6.897   2.881   1.483
 8869SOL     OW27505   4.000   5.626   5.135
 8869SOL    HW127506   4.011   5.609   5.233
 8869SOL    HW227507   4.089   5.646   5.094
 8870SOL     OW27508   2.729   0.461   0.846
 8870SOL    HW127509   2.667   0.505   0.780
 8870SOL    HW227510   2.698   0.368   0.863
 8871SOL     OW27511   2.108   1.530   3.778
 8871SOL    HW127512   2.167   1.457   3.812
 8871SOL    HW227513   2.013   1.507   3.797
 8872SOL     OW27514   1.323   4.366   4.971
 8872SOL    HW127515   1.244   4.390   4.914
 8872SOL    HW227516   1.366   4.450   5.004
 8873SOL     OW27517   0.428   6.530   2.064
 8873SOL    HW127518   0.521   6.511   2.030
 8873SOL    HW227519   0.426   6.622   2.104
 8874SOL     OW27520   1.969   6.543   2.755
 8874SOL    HW127521   2.015   6.464   2.715
 8874SOL    HW227522   1.876   6.548   2.719
 8875SOL     OW27523   0.272   3.796   5.311
 8875SOL    HW127524   0.192   3.745   5.341
 8875SOL    HW227525   0.305   3.759   5.224
 8876SOL     OW27526   2.127   6.627   5.417
 8876SOL    HW127527   2.109   6.534   5.448
 8876SOL    HW227528   2.043   6.667   5.380
 8877SOL     OW27529   3.067   2.206   3.964
 8877SOL    HW127530   3.015   2.241   4.042
 8877SOL    HW227531   3.013   2.215   3.881
 8878SOL     OW27532   6.319   5.114   0.716
 8878SOL    HW127533   6.334   5.062   0.632
 8878SOL    HW227534   6.321   5.212   0.696
 8879SOL     OW27535   4.737   4.555   2.942
 8879SOL    HW127536   4.716   4.495   2.865
 8879SOL    HW227537   4.769   4.643   2.909
 8880SOL     OW27538   4.636   6.493   4.771
 8880SOL    HW127539   4.593   6.407   4.798
 8880SOL    HW227540   4.658   6.490   4.674
 8881SOL     OW27541   5.117   6.312   3.792
 8881SOL    HW127542   5.168   6.267   3.865
 8881SOL    HW227543   5.054   6.379   3.832
 8882SOL     OW27544   5.348   0.671   1.186
 8882SOL    HW127545   5.292   0.749   1.161
 8882SOL    HW227546   5.399   0.692   1.270
 8883SOL     OW27547   1.627   6.179   6.160
 8883SOL    HW127548   1.570   6.096   6.164
 8883SOL    HW227549   1.723   6.154   6.172
 8884SOL     OW27550   6.606   4.395   5.032
 8884SOL    HW127551   6.688   4.396   5.089
 8884SOL    HW227552   6.616   4.325   4.961
 8885SOL     OW27553   6.023   4.477   1.830
 8885SOL    HW127554   5.927   4.452   1.840
 8885SOL    HW227555   6.075   4.398   1.796
 8886SOL     OW27556   2.666   6.144   4.534
 8886SOL    HW127557   2.685   6.049   4.507
 8886SOL    HW227558   2.723   6.206   4.481
 8887SOL     OW27559   3.863   0.467   0.399
 8887SOL    HW127560   3.806   0.480   0.318
 8887SOL    HW227561   3.807   0.476   0.481
 8888SOL     OW27562   2.162   1.596   5.738
 8888SOL    HW127563   2.090   1.547   5.689
 8888SOL    HW227564   2.248   1.587   5.689
 8889SOL     OW27565   6.481   6.979   0.170
 8889SOL    HW127566   6.542   0.018   0.113
 8889SOL    HW227567   6.422   0.024   0.223
 8890SOL     OW27568   0.034   6.138   5.521
 8890SOL    HW127569   0.092   6.215   5.494
 8890SOL    HW227570   6.959   6.148   5.479
 8891SOL     OW27571   4.138   3.219   6.672
 8891SOL    HW127572   4.104   3.148   6.610
 8891SOL    HW227573   4.068   3.239   6.741
 8892SOL     OW27574   3.546   5.579   2.486
 8892SOL    HW127575   3.467   5.518   2.491
 8892SOL    HW227576   3.585   5.575   2.394
 8893SOL     OW27577   0.898   5.446   4.152
 8893SOL    HW127578   0.952   5.368   4.119
 8893SOL    HW227579   0.960   5.522   4.173
 8894SOL     OW27580   3.300   2.574   6.735
 8894SOL    HW127581   3.337   2.604   6.647
 8894SOL    HW227582   3.249   2.489   6.723
 8895SOL     OW27583   6.406   2.941   2.409
 8895SOL    HW127584   6.455   3.015   2.364
 8895SOL    HW227585   6.337   2.978   2.471
 8896SOL     OW27586   2.265   2.941   5.667
 8896SOL    HW127587   2.334   3.011   5.649
 8896SOL    HW227588   2.193   2.946   5.598
 8897SOL     OW27589   2.267   2.757   3.138
 8897SOL    HW127590   2.241   2.795   3.049
 8897SOL    HW227591   2.260   2.657   3.134
 8898SOL     OW27592   4.967   3.497   2.376
 8898SOL    HW127593   4.937   3.490   2.280
 8898SOL    HW227594   5.023   3.417   2.399
 8899SOL     OW27595   1.295   5.143   1.564
 8899SOL    HW127596   1.210   5.176   1.524
 8899SOL    HW227597   1.289   5.145   1.664
 8900SOL     OW27598   5.706   2.921   2.826
 8900SOL    HW127599   5.716   2.932   2.727
 8900SOL    HW227600   5.720   2.826   2.852
 8901SOL     OW27601   1.639   1.055   4.969
 8901SOL    HW127602   1.593   1.041   4.882
 8901SOL    HW227603   1.639   1.152   4.992
 8902SOL     OW27604   0.990   6.310   0.390
 8902SOL    HW127605   0.948   6.295   0.301
 8902SOL    HW227606   0.976   6.405   0.418
 8903SOL     OW27607   0.538   1.605   4.490
 8903SOL    HW127608   0.477   1.680   4.467
 8903SOL    HW227609   0.627   1.619   4.447
 8904SOL     OW27610   6.617   0.877   4.612
 8904SOL    HW127611   6.618   0.916   4.705
 8904SOL    HW227612   6.615   0.951   4.545
 8905SOL     OW27613   2.158   3.834   3.267
 8905SOL    HW127614   2.170   3.758   3.331
 8905SOL    HW227615   2.179   3.920   3.314
 8906SOL     OW27616   0.638   6.414   6.961
 8906SOL    HW127617   0.652   6.320   6.929
 8906SOL    HW227618   0.582   6.413   0.028
 8907SOL     OW27619   2.903   2.720   5.350
 8907SOL    HW127620   2.888   2.817   5.330
 8907SOL    HW227621   2.820   2.682   5.392
 8908SOL     OW27622   1.055   5.011   6.726
 8908SOL    HW127623   0.973   5.048   6.770
 8908SOL    HW227624   1.064   5.050   6.635
 8909SOL     OW27625   2.406   1.336   5.776
 8909SOL    HW127626   2.351   1.274   5.720
 8909SOL    HW227627   2.407   1.427   5.733
 8910SOL     OW27628   0.628   3.165   5.756
 8910SOL    HW127629   0.635   3.082   5.812
 8910SOL    HW227630   0.609   3.139   5.661
 8911SOL     OW27631   4.616   2.594   4.517
 8911SOL    HW127632   4.653   2.564   4.429
 8911SOL    HW227633   4.570   2.518   4.561
 8912SOL     OW27634   3.507   3.372   6.760
 8912SOL    HW127635   3.409   3.354   6.767
 8912SOL    HW227636   3.558   3.289   6.780
 8913SOL     OW27637   4.512   5.499   5.990
 8913SOL    HW127638   4.490   5.482   5.894
 8913SOL    HW227639   4.564   5.584   5.998
 8914SOL     OW27640   4.295   6.553   4.698
 8914SOL    HW127641   4.335   6.506   4.777
 8914SOL    HW227642   4.368   6.594   4.643
 8915SOL     OW27643   1.005   2.544   4.091
 8915SOL    HW127644   0.964   2.567   4.180
 8915SOL    HW227645   0.952   2.471   4.048
 8916SOL     OW27646   6.664   3.119   1.129
 8916SOL    HW127647   6.738   3.052   1.139
 8916SOL    HW227648   6.703   3.212   1.130
 8917SOL     OW27649   6.353   3.287   0.528
 8917SOL    HW127650   6.401   3.199   0.533
 8917SOL    HW227651   6.419   3.360   0.511
 8918SOL     OW27652   0.089   3.947   1.133
 8918SOL    HW127653   0.080   4.020   1.064
 8918SOL    HW227654   0.004   3.940   1.184
 8919SOL     OW27655   4.082   4.155   0.499
 8919SOL    HW127656   4.059   4.236   0.554
 8919SOL    HW227657   4.006   4.136   0.436
 8920SOL     OW27658   0.145   1.260   6.702
 8920SOL    HW127659   0.221   1.223   6.648
 8920SOL    HW227660   0.175   1.343   6.749
 8921SOL     OW27661   2.178   2.043   1.932
 8921SOL    HW127662   2.261   2.082   1.891
 8921SOL    HW227663   2.197   2.014   2.025
 8922SOL     OW27664   4.435   5.055   1.218
 8922SOL    HW127665   4.351   5.000   1.224
 8922SOL    HW227666   4.433   5.125   1.289
 8923SOL     OW27667   2.269   2.081   6.582
 8923SOL    HW127668   2.174   2.061   6.604
 8923SOL    HW227669   2.305   2.149   6.645
 8924SOL     OW27670   4.120   5.738   5.652
 8924SOL    HW127671   4.069   5.753   5.567
 8924SOL    HW227672   4.087   5.655   5.696
 8925SOL     OW27673   0.981   1.132   3.234
 8925SOL    HW127674   0.957   1.035   3.221
 8925SOL    HW227675   0.906   1.178   3.281
 8926SOL     OW27676   6.657   2.852   6.228
 8926SOL    HW127677   6.662   2.906   6.144
 8926SOL    HW227678   6.561   2.840   6.254
 8927SOL     OW27679   0.300   0.881   4.619
 8927SOL    HW127680   0.351   0.795   4.607
 8927SOL    HW227681   0.332   0.947   4.550
 8928SOL     OW27682   1.371   6.714   6.074
 8928SOL    HW127683   1.328   6.696   5.986
 8928SOL    HW227684   1.433   6.792   6.066
 8929SOL     OW27685   5.990   1.726   4.870
 8929SOL    HW127686   6.065   1.771   4.919
 8929SOL    HW227687   5.903   1.757   4.907
 8930SOL     OW27688   1.925   2.923   4.920
 8930SOL    HW127689   1.832   2.941   4.889
 8930SOL    HW227690   1.990   2.971   4.861
 8931SOL     OW27691   2.770   3.242   0.755
 8931SOL    HW127692   2.854   3.249   0.702
 8931SOL    HW227693   2.696   3.210   0.695
 8932SOL     OW27694   6.418   1.715   1.323
 8932SOL    HW127695   6.377   1.710   1.414
 8932SOL    HW227696   6.466   1.630   1.303
 8933SOL     OW27697   2.262   2.831   6.509
 8933SOL    HW127698   2.357   2.835   6.479
 8933SOL    HW227699   2.202   2.840   6.430
 8934SOL     OW27700   2.889   5.055   4.397
 8934SOL    HW127701   2.870   4.966   4.439
 8934SOL    HW227702   2.804   5.093   4.360
 8935SOL     OW27703   0.564   4.475   0.594
 8935SOL    HW127704   0.597   4.566   0.620
 8935SOL    HW227705   0.620   4.440   0.518
 8936SOL     OW27706   1.164   3.355   2.147
 8936SOL    HW127707   1.158   3.262   2.185
 8936SOL    HW227708   1.255   3.391   2.163
 8937SOL     OW27709   0.553   0.251   5.826
 8937SOL    HW127710   0.625   0.224   5.762
 8937SOL    HW227711   0.474   0.285   5.775
 8938SOL     OW27712   0.188   6.524   0.967
 8938SOL    HW127713   0.238   6.455   0.914
 8938SOL    HW227714   0.152   6.593   0.904
 8939SOL     OW27715   5.577   4.209   4.113
 8939SOL    HW127716   5.670   4.172   4.109
 8939SOL    HW227717   5.537   4.189   4.202
 8940SOL     OW27718   0.493   0.813   2.061
 8940SOL    HW127719   0.585   0.774   2.055
 8940SOL    HW227720   0.442   0.792   1.977
 8941SOL     OW27721   5.762   2.585   5.362
 8941SOL    HW127722   5.673   2.601   5.320
 8941SOL    HW227723   5.787   2.664   5.417
 8942SOL     OW27724   6.298   5.402   5.757
 8942SOL    HW127725   6.328   5.497   5.758
 8942SOL    HW227726   6.294   5.367   5.851
 8943SOL     OW27727   3.596   5.625   6.758
 8943SOL    HW127728   3.646   5.631   6.671
 8943SOL    HW227729   3.594   5.529   6.787
 8944SOL     OW27730   5.746   5.461   5.661
 8944SOL    HW127731   5.732   5.556   5.632
 8944SOL    HW227732   5.843   5.445   5.681
 8945SOL     OW27733   1.249   0.873   2.959
 8945SOL    HW127734   1.156   0.845   2.983
 8945SOL    HW227735   1.303   0.885   3.043
 8946SOL     OW27736   2.897   1.707   5.002
 8946SOL    HW127737   2.877   1.613   5.029
 8946SOL    HW227738   2.815   1.763   5.013
 8947SOL     OW27739   2.074   3.008   6.330
 8947SOL    HW127740   2.055   3.032   6.235
 8947SOL    HW227741   2.024   2.924   6.354
 8948SOL     OW27742   5.940   6.027   4.893
 8948SOL    HW127743   5.992   5.962   4.838
 8948SOL    HW227744   5.963   6.015   4.990
 8949SOL     OW27745   2.793   6.233   0.655
 8949SOL    HW127746   2.862   6.237   0.582
 8949SOL    HW227747   2.702   6.224   0.614
 8950SOL     OW27748   4.827   4.171   6.494
 8950SOL    HW127749   4.870   4.089   6.454
 8950SOL    HW227750   4.746   4.144   6.546
 8951SOL     OW27751   1.603   1.613   5.052
 8951SOL    HW127752   1.646   1.526   5.075
 8951SOL    HW227753   1.674   1.683   5.043
 8952SOL     OW27754   1.429   6.043   2.361
 8952SOL    HW127755   1.527   6.056   2.377
 8952SOL    HW227756   1.398   5.960   2.407
 8953SOL     OW27757   1.531   3.866   0.080
 8953SOL    HW127758   1.597   3.866   0.155
 8953SOL    HW227759   1.576   3.899   7.012
 8954SOL     OW27760   0.721   6.803   4.444
 8954SOL    HW127761   0.673   6.842   4.523
 8954SOL    HW227762   0.757   6.876   4.387
 8955SOL     OW27763   6.974   5.324   2.696
 8955SOL    HW127764   6.894   5.361   2.742
 8955SOL    HW227765   6.946   5.250   2.634
 8956SOL     OW27766   1.966   1.467   6.514
 8956SOL    HW127767   1.983   1.529   6.437
 8956SOL    HW227768   2.019   1.498   6.593
 8957SOL     OW27769   2.504   4.553   0.847
 8957SOL    HW127770   2.469   4.470   0.891
 8957SOL    HW227771   2.442   4.629   0.865
 8958SOL     OW27772   0.283   1.759   4.629
 8958SOL    HW127773   0.195   1.753   4.582
 8958SOL    HW227774   0.310   1.667   4.659
 8959SOL     OW27775   1.697   4.293   2.394
 8959SOL    HW127776   1.607   4.298   2.437
 8959SOL    HW227777   1.693   4.231   2.315
 8960SOL     OW27778   4.497   5.085   2.513
 8960SOL    HW127779   4.421   5.027   2.483
 8960SOL    HW227780   4.463   5.153   2.578
 8961SOL     OW27781   2.726   0.778   3.885
 8961SOL    HW127782   2.678   0.736   3.962
 8961SOL    HW227783   2.696   0.736   3.800
 8962SOL     OW27784   6.938   5.645   2.753
 8962SOL    HW127785   6.978   5.714   2.693
 8962SOL    HW227786   7.009   5.580   2.780
 8963SOL     OW27787   3.854   6.489   4.570
 8963SOL    HW127788   3.793   6.455   4.642
 8963SOL    HW227789   3.816   6.464   4.481
 8964SOL     OW27790   5.158   3.781   2.945
 8964SOL    HW127791   5.195   3.795   3.037
 8964SOL    HW227792   5.223   3.815   2.877
 8965SOL     OW27793   2.638   4.696   0.591
 8965SOL    HW127794   2.693   4.661   0.666
 8965SOL    HW227795   2.680   4.779   0.554
 8966SOL     OW27796   0.176   4.354   0.457
 8966SOL    HW127797   0.207   4.371   0.550
 8966SOL    HW227798   0.160   4.441   0.411
 8967SOL     OW27799   4.418   0.250   1.212
 8967SOL    HW127800   4.467   0.263   1.126
 8967SOL    HW227801   4.425   0.155   1.240
 8968SOL     OW27802   4.410   5.222   2.761
 8968SOL    HW127803   4.311   5.235   2.765
 8968SOL    HW227804   4.456   5.304   2.796
 8969SOL     OW27805   6.546   1.080   4.451
 8969SOL    HW127806   6.505   1.138   4.521
 8969SOL    HW227807   6.524   1.116   4.360
 8970SOL     OW27808   2.615   3.112   0.039
 8970SOL    HW127809   2.714   3.126   0.040
 8970SOL    HW227810   2.590   3.044   0.107
 8971SOL     OW27811   5.982   5.237   1.315
 8971SOL    HW127812   5.924   5.242   1.233
 8971SOL    HW227813   5.978   5.145   1.353
 8972SOL     OW27814   5.070   4.036   0.183
 8972SOL    HW127815   5.089   3.986   0.267
 8972SOL    HW227816   5.113   3.988   0.106
 8973SOL     OW27817   0.376   2.966   2.656
 8973SOL    HW127818   0.459   3.014   2.627
 8973SOL    HW227819   0.316   3.030   2.705
 8974SOL     OW27820   1.112   4.400   4.770
 8974SOL    HW127821   1.160   4.459   4.706
 8974SOL    HW227822   1.045   4.345   4.720
 8975SOL     OW27823   1.673   6.543   5.775
 8975SOL    HW127824   1.603   6.581   5.714
 8975SOL    HW227825   1.682   6.601   5.856
 8976SOL     OW27826   0.147   5.405   5.765
 8976SOL    HW127827   0.054   5.401   5.801
 8976SOL    HW227828   0.148   5.460   5.682
 8977SOL     OW27829   6.668   3.163   6.769
 8977SOL    HW127830   6.739   3.215   6.723
 8977SOL    HW227831   6.702   3.132   6.858
 8978SOL     OW27832   5.536   6.596   3.602
 8978SOL    HW127833   5.526   6.503   3.639
 8978SOL    HW227834   5.475   6.607   3.524
 8979SOL     OW27835   1.331   3.834   4.520
 8979SOL    HW127836   1.257   3.851   4.455
 8979SOL    HW227837   1.419   3.849   4.476
 8980SOL     OW27838   3.779   2.594   5.437
 8980SOL    HW127839   3.784   2.687   5.400
 8980SOL    HW227840   3.815   2.593   5.531
 8981SOL     OW27841   3.795   0.853   6.081
 8981SOL    HW127842   3.839   0.815   6.163
 8981SOL    HW227843   3.743   0.781   6.035
 8982SOL     OW27844   0.646   2.050   1.862
 8982SOL    HW127845   0.692   2.054   1.773
 8982SOL    HW227846   0.714   2.062   1.935
 8983SOL     OW27847   1.184   5.771   6.326
 8983SOL    HW127848   1.154   5.699   6.263
 8983SOL    HW227849   1.234   5.730   6.402
 8984SOL     OW27850   6.547   6.734   3.732
 8984SOL    HW127851   6.455   6.722   3.770
 8984SOL    HW227852   6.544   6.729   3.633
 8985SOL     OW27853   2.591   1.873   0.875
 8985SOL    HW127854   2.685   1.858   0.846
 8985SOL    HW227855   2.591   1.929   0.958
 8986SOL     OW27856   4.344   5.286   1.771
 8986SOL    HW127857   4.303   5.196   1.784
 8986SOL    HW227858   4.439   5.276   1.741
 8987SOL     OW27859   5.315   6.772   0.999
 8987SOL    HW127860   5.384   6.704   0.975
 8987SOL    HW227861   5.263   6.739   1.078
 8988SOL     OW27862   1.103   3.664   6.319
 8988SOL    HW127863   1.143   3.578   6.352
 8988SOL    HW227864   1.175   3.723   6.284
 8989SOL     OW27865   5.227   4.350   2.115
 8989SOL    HW127866   5.256   4.398   2.197
 8989SOL    HW227867   5.129   4.360   2.103
 8990SOL     OW27868   2.037   5.802   2.905
 8990SOL    HW127869   1.983   5.847   2.834
 8990SOL    HW227870   2.129   5.841   2.907
 8991SOL     OW27871   1.809   1.778   6.730
 8991SOL    HW127872   1.756   1.831   6.664
 8991SOL    HW227873   1.791   1.812   6.822
 8992SOL     OW27874   6.501   1.843   0.333
 8992SOL    HW127875   6.526   1.938   0.315
 8992SOL    HW227876   6.541   1.784   0.263
 8993SOL     OW27877   4.499   2.392   2.194
 8993SOL    HW127878   4.403   2.378   2.170
 8993SOL    HW227879   4.545   2.303   2.202
 8994SOL     OW27880   1.427   5.089   4.738
 8994SOL    HW127881   1.488   5.125   4.808
 8994SOL    HW227882   1.404   4.994   4.760
 8995SOL     OW27883   0.749   2.333   0.022
 8995SOL    HW127884   0.696   2.346   0.105
 8995SOL    HW227885   0.687   2.321   6.960
 8996SOL     OW27886   6.520   4.966   1.183
 8996SOL    HW127887   6.594   5.028   1.210
 8996SOL    HW227888   6.520   4.955   1.084
 8997SOL     OW27889   4.615   0.981   6.278
 8997SOL    HW127890   4.578   1.059   6.329
 8997SOL    HW227891   4.712   0.971   6.299
 8998SOL     OW27892   6.821   3.780   4.922
 8998SOL    HW127893   6.729   3.758   4.953
 8998SOL    HW227894   6.878   3.697   4.927
 8999SOL     OW27895   4.924   6.125   6.963
 8999SOL    HW127896   4.998   6.060   6.942
 8999SOL    HW227897   4.962   6.205   7.010
 9000SOL     OW27898   2.630   4.037   0.410
 9000SOL    HW127899   2.674   4.057   0.498
 9000SOL    HW227900   2.556   3.971   0.423
 9001SOL     OW27901   1.075   5.153   2.551
 9001SOL    HW127902   1.046   5.188   2.462
 9001SOL    HW227903   1.126   5.225   2.600
 9002SOL     OW27904   0.390   5.252   5.308
 9002SOL    HW127905   0.322   5.295   5.367
 9002SOL    HW227906   0.415   5.162   5.344
 9003SOL     OW27907   4.892   2.785   1.389
 9003SOL    HW127908   4.820   2.736   1.438
 9003SOL    HW227909   4.851   2.835   1.312
 9004SOL     OW27910   4.345   6.409   1.360
 9004SOL    HW127911   4.436   6.367   1.355
 9004SOL    HW227912   4.339   6.484   1.295
 9005SOL     OW27913   5.135   2.319   4.245
 9005SOL    HW127914   5.094   2.231   4.267
 9005SOL    HW227915   5.121   2.383   4.321
 9006SOL     OW27916   2.781   6.563   0.575
 9006SOL    HW127917   2.693   6.605   0.598
 9006SOL    HW227918   2.818   6.517   0.656
 9007SOL     OW27919   3.833   0.956   4.183
 9007SOL    HW127920   3.910   1.012   4.154
 9007SOL    HW227921   3.832   0.870   4.133
 9008SOL     OW27922   0.971   5.852   3.132
 9008SOL    HW127923   0.921   5.929   3.093
 9008SOL    HW227924   1.044   5.887   3.191
 9009SOL     OW27925   2.969   1.100   0.434
 9009SOL    HW127926   2.939   1.062   0.521
 9009SOL    HW227927   3.068   1.113   0.436
 9010SOL     OW27928   1.742   6.737   3.955
 9010SOL    HW127929   1.765   6.779   3.868
 9010SOL    HW227930   1.696   6.649   3.939
 9011SOL     OW27931   4.867   2.481   1.660
 9011SOL    HW127932   4.948   2.527   1.698
 9011SOL    HW227933   4.868   2.488   1.561
 9012SOL     OW27934   2.826   4.111   1.390
 9012SOL    HW127935   2.754   4.082   1.327
 9012SOL    HW227936   2.788   4.122   1.482
 9013SOL     OW27937   6.823   6.165   5.404
 9013SOL    HW127938   6.766   6.220   5.465
 9013SOL    HW227939   6.769   6.089   5.367
 9014SOL     OW27940   6.804   1.937   0.490
 9014SOL    HW127941   6.736   2.005   0.462
 9014SOL    HW227942   6.771   1.888   0.571
 9015SOL     OW27943   5.289   1.920   1.353
 9015SOL    HW127944   5.340   2.006   1.348
 9015SOL    HW227945   5.294   1.874   1.265
 9016SOL     OW27946   0.621   6.887   6.429
 9016SOL    HW127947   0.641   6.857   6.336
 9016SOL    HW227948   0.690   6.953   6.458
 9017SOL     OW27949   4.447   2.036   2.271
 9017SOL    HW127950   4.539   2.071   2.287
 9017SOL    HW227951   4.380   2.107   2.294
 9018SOL     OW27952   3.763   1.682   6.868
 9018SOL    HW127953   3.821   1.733   6.933
 9018SOL    HW227954   3.693   1.632   6.919
 9019SOL     OW27955   1.107   0.041   2.304
 9019SOL    HW127956   1.062   0.092   2.231
 9019SOL    HW227957   1.053   6.976   2.328
 9020SOL     OW27958   0.656   3.721   1.792
 9020SOL    HW127959   0.751   3.743   1.768
 9020SOL    HW227960   0.655   3.660   1.871
 9021SOL     OW27961   6.767   0.532   4.118
 9021SOL    HW127962   6.743   0.437   4.095
 9021SOL    HW227963   6.764   0.588   4.035
 9022SOL     OW27964   2.974   1.863   0.143
 9022SOL    HW127965   3.018   1.845   0.232
 9022SOL    HW227966   2.885   1.818   0.140
 9023SOL     OW27967   2.998   3.080   2.638
 9023SOL    HW127968   2.944   3.055   2.558
 9023SOL    HW227969   3.085   3.030   2.637
 9024SOL     OW27970   0.486   4.836   5.010
 9024SOL    HW127971   0.534   4.876   4.931
 9024SOL    HW227972   0.396   4.804   4.982
 9025SOL     OW27973   0.893   5.145   0.142
 9025SOL    HW127974   0.806   5.130   0.189
 9025SOL    HW227975   0.946   5.060   0.141
 9026SOL     OW27976   4.316   3.177   1.072
 9026SOL    HW127977   4.269   3.115   1.135
 9026SOL    HW227978   4.303   3.144   0.978
 9027SOL     OW27979   0.879   2.542   4.330
 9027SOL    HW127980   0.813   2.617   4.343
 9027SOL    HW227981   0.959   2.557   4.389
 9028SOL     OW27982   2.589   3.585   5.628
 9028SOL    HW127983   2.572   3.493   5.662
 9028SOL    HW227984   2.677   3.588   5.581
 9029SOL     OW27985   3.480   5.949   4.770
 9029SOL    HW127986   3.396   5.988   4.807
 9029SOL    HW227987   3.554   5.960   4.836
 9030SOL     OW27988   1.873   2.037   3.250
 9030SOL    HW127989   1.962   2.022   3.293
 9030SOL    HW227990   1.874   1.996   3.158
 9031SOL     OW27991   4.115   5.898   4.576
 9031SOL    HW127992   4.212   5.898   4.551
 9031SOL    HW227993   4.093   5.814   4.625
 9032SOL     OW27994   4.313   3.750   0.185
 9032SOL    HW127995   4.268   3.792   0.264
 9032SOL    HW227996   4.247   3.693   0.135
 9033SOL     OW27997   0.785   3.959   3.789
 9033SOL    HW127998   0.733   3.891   3.841
 9033SOL    HW227999   0.873   3.920   3.762
 9034SOL     OW28000   2.934   0.290   5.746
 9034SOL    HW128001   2.977   0.232   5.815
 9034SOL    HW228002   2.837   0.269   5.740
 9035SOL     OW28003   1.459   5.039   5.936
 9035SOL    HW128004   1.450   4.986   5.851
 9035SOL    HW228005   1.390   5.009   6.001
 9036SOL     OW28006   1.960   1.174   5.934
 9036SOL    HW128007   1.908   1.192   6.018
 9036SOL    HW228008   1.972   1.259   5.884
 9037SOL     OW28009   1.545   3.873   5.161
 9037SOL    HW128010   1.589   3.889   5.250
 9037SOL    HW228011   1.601   3.915   5.089
 9038SOL     OW28012   4.373   6.888   5.807
 9038SOL    HW128013   4.335   6.860   5.718
 9038SOL    HW228014   4.368   6.811   5.871
 9039SOL     OW28015   3.053   4.965   4.997
 9039SOL    HW128016   3.049   4.888   5.061
 9039SOL    HW228017   2.960   4.995   4.976
 9040SOL     OW28018   3.167   1.733   2.863
 9040SOL    HW128019   3.073   1.759   2.841
 9040SOL    HW228020   3.167   1.656   2.926
 9041SOL     OW28021   1.222   2.419   1.617
 9041SOL    HW128022   1.215   2.406   1.716
 9041SOL    HW228023   1.244   2.332   1.573
 9042SOL     OW28024   2.829   0.201   3.989
 9042SOL    HW128025   2.776   0.240   4.065
 9042SOL    HW228026   2.917   0.248   3.981
 9043SOL     OW28027   1.242   0.999   6.994
 9043SOL    HW128028   1.206   1.083   0.020
 9043SOL    HW228029   1.230   1.003   6.895
 9044SOL     OW28030   6.095   1.081   0.828
 9044SOL    HW128031   6.021   1.109   0.767
 9044SOL    HW228032   6.069   1.100   0.923
 9045SOL     OW28033   2.039   1.472   2.836
 9045SOL    HW128034   2.059   1.376   2.816
 9045SOL    HW228035   2.082   1.497   2.922
 9046SOL     OW28036   3.588   3.868   3.618
 9046SOL    HW128037   3.659   3.923   3.575
 9046SOL    HW228038   3.523   3.836   3.549
 9047SOL     OW28039   1.287   2.952   5.497
 9047SOL    HW128040   1.358   2.903   5.447
 9047SOL    HW228041   1.255   3.030   5.442
 9048SOL     OW28042   5.571   2.855   6.481
 9048SOL    HW128043   5.472   2.858   6.473
 9048SOL    HW228044   5.598   2.865   6.577
 9049SOL     OW28045   3.649   6.747   6.003
 9049SOL    HW128046   3.614   6.675   6.063
 9049SOL    HW228047   3.728   6.713   5.952
 9050SOL     OW28048   0.217   3.285   0.172
 9050SOL    HW128049   0.226   3.291   0.271
 9050SOL    HW228050   0.241   3.193   0.142
 9051SOL     OW28051   4.367   6.211   0.985
 9051SOL    HW128052   4.439   6.231   0.918
 9051SOL    HW228053   4.296   6.155   0.942
 9052SOL     OW28054   2.119   2.518   4.104
 9052SOL    HW128055   2.197   2.563   4.060
 9052SOL    HW228056   2.084   2.577   4.177
 9053SOL     OW28057   2.131   1.597   3.093
 9053SOL    HW128058   2.209   1.559   3.143
 9053SOL    HW228059   2.134   1.697   3.096
 9054SOL     OW28060   2.263   5.957   2.890
 9054SOL    HW128061   2.254   5.990   2.983
 9054SOL    HW228062   2.303   6.028   2.832
 9055SOL     OW28063   5.885   2.987   4.142
 9055SOL    HW128064   5.913   2.946   4.055
 9055SOL    HW228065   5.836   2.920   4.197
 9056SOL     OW28066   0.640   0.895   2.396
 9056SOL    HW128067   0.551   0.852   2.381
 9056SOL    HW228068   0.627   0.982   2.442
 9057SOL     OW28069   5.774   5.105   5.728
 9057SOL    HW128070   5.744   5.034   5.664
 9057SOL    HW228071   5.840   5.164   5.682
 9058SOL     OW28072   2.524   1.927   2.956
 9058SOL    HW128073   2.521   1.964   2.863
 9058SOL    HW228074   2.564   1.995   3.017
 9059SOL     OW28075   1.305   2.298   4.519
 9059SOL    HW128076   1.391   2.335   4.553
 9059SOL    HW228077   1.241   2.373   4.503
 9060SOL     OW28078   6.195   2.936   3.384
 9060SOL    HW128079   6.232   2.891   3.465
 9060SOL    HW228080   6.095   2.930   3.385
 9061SOL     OW28081   2.361   5.525   2.079
 9061SOL    HW128082   2.316   5.495   2.163
 9061SOL    HW228083   2.294   5.564   2.017
 9062SOL     OW28084   1.862   5.903   1.939
 9062SOL    HW128085   1.833   5.959   2.017
 9062SOL    HW228086   1.899   5.962   1.867
 9063SOL     OW28087   1.705   6.805   3.016
 9063SOL    HW128088   1.652   6.753   2.949
 9063SOL    HW228089   1.796   6.824   2.980
 9064SOL     OW28090   6.674   2.214   5.275
 9064SOL    HW128091   6.722   2.128   5.290
 9064SOL    HW228092   6.597   2.221   5.339
 9065SOL     OW28093   3.032   6.980   5.597
 9065SOL    HW128094   3.123   0.007   5.591
 9065SOL    HW228095   2.962   0.033   5.576
 9066SOL     OW28096   4.933   6.043   0.418
 9066SOL    HW128097   4.939   6.050   0.318
 9066SOL    HW228098   4.855   5.987   0.443
 9067SOL     OW28099   6.475   0.813   4.293
 9067SOL    HW128100   6.550   0.752   4.271
 9067SOL    HW228101   6.505   0.882   4.359
 9068SOL     OW28102   2.193   6.489   4.845
 9068SOL    HW128103   2.174   6.573   4.795
 9068SOL    HW228104   2.184   6.506   4.943
 9069SOL     OW28105   1.865   3.244   1.916
 9069SOL    HW128106   1.827   3.155   1.895
 9069SOL    HW228107   1.908   3.283   1.835
 9070SOL     OW28108   1.570   4.108   4.996
 9070SOL    HW128109   1.647   4.057   4.958
 9070SOL    HW228110   1.501   4.121   4.926
 9071SOL     OW28111   5.134   0.283   1.486
 9071SOL    HW128112   5.082   0.338   1.420
 9071SOL    HW228113   5.229   0.277   1.456
 9072SOL     OW28114   0.425   1.248   1.965
 9072SOL    HW128115   0.370   1.322   2.003
 9072SOL    HW228116   0.478   1.204   2.038
 9073SOL     OW28117   3.348   6.944   2.535
 9073SOL    HW128118   3.303   6.858   2.562
 9073SOL    HW228119   3.439   6.924   2.500
 9074SOL     OW28120   2.120   1.567   1.950
 9074SOL    HW128121   2.137   1.655   1.905
 9074SOL    HW228122   2.192   1.502   1.925
 9075SOL     OW28123   0.999   1.152   2.557
 9075SOL    HW128124   1.019   1.167   2.654
 9075SOL    HW228125   0.909   1.190   2.535
 9076SOL     OW28126   6.093   2.172   5.423
 9076SOL    HW128127   6.049   2.258   5.399
 9076SOL    HW228128   6.175   2.159   5.367
 9077SOL     OW28129   4.971   0.328   0.371
 9077SOL    HW128130   5.042   0.261   0.392
 9077SOL    HW228131   4.885   0.298   0.412
 9078SOL     OW28132   4.499   3.828   6.210
 9078SOL    HW128133   4.491   3.875   6.122
 9078SOL    HW228134   4.449   3.741   6.207
 9079SOL     OW28135   2.944   0.341   4.335
 9079SOL    HW128136   2.893   0.339   4.248
 9079SOL    HW228137   2.955   0.436   4.364
 9080SOL     OW28138   4.693   2.604   6.960
 9080SOL    HW128139   4.711   2.652   0.030
 9080SOL    HW228140   4.753   2.639   6.888
 9081SOL     OW28141   3.451   6.272   2.402
 9081SOL    HW128142   3.370   6.308   2.356
 9081SOL    HW228143   3.474   6.183   2.364
 9082SOL     OW28144   2.102   0.480   5.957
 9082SOL    HW128145   2.089   0.462   6.054
 9082SOL    HW228146   2.179   0.542   5.945
 9083SOL     OW28147   2.967   6.210   6.044
 9083SOL    HW128148   2.871   6.204   6.017
 9083SOL    HW228149   3.000   6.303   6.030
 9084SOL     OW28150   3.089   3.849   4.384
 9084SOL    HW128151   3.071   3.870   4.480
 9084SOL    HW228152   3.168   3.789   4.377
 9085SOL     OW28153   2.400   6.092   1.448
 9085SOL    HW128154   2.444   6.053   1.529
 9085SOL    HW228155   2.414   6.191   1.447
 9086SOL     OW28156   0.966   4.201   0.447
 9086SOL    HW128157   1.024   4.124   0.421
 9086SOL    HW228158   0.870   4.172   0.445
 9087SOL     OW28159   4.656   2.709   1.497
 9087SOL    HW128160   4.619   2.619   1.518
 9087SOL    HW228161   4.654   2.767   1.578
 9088SOL     OW28162   6.781   6.442   0.814
 9088SOL    HW128163   6.835   6.399   0.886
 9088SOL    HW228164   6.684   6.441   0.840
 9089SOL     OW28165   5.020   5.720   5.269
 9089SOL    HW128166   4.978   5.694   5.182
 9089SOL    HW228167   4.989   5.657   5.341
 9090SOL     OW28168   0.148   1.444   3.878
 9090SOL    HW128169   0.061   1.493   3.869
 9090SOL    HW228170   0.177   1.411   3.789
 9091SOL     OW28171   3.122   4.610   0.045
 9091SOL    HW128172   3.187   4.556   0.099
 9091SOL    HW228173   3.033   4.611   0.091
 9092SOL     OW28174   6.822   1.000   0.260
 9092SOL    HW128175   6.897   1.020   0.323
 9092SOL    HW228176   6.739   0.979   0.311
 9093SOL     OW28177   1.069   6.154   5.410
 9093SOL    HW128178   1.159   6.123   5.382
 9093SOL    HW228179   1.077   6.237   5.465
 9094SOL     OW28180   6.832   4.994   2.991
 9094SOL    HW128181   6.819   5.028   3.084
 9094SOL    HW228182   6.791   5.058   2.926
 9095SOL     OW28183   5.193   4.245   5.702
 9095SOL    HW128184   5.246   4.178   5.651
 9095SOL    HW228185   5.097   4.241   5.674
 9096SOL     OW28186   6.105   4.763   2.392
 9096SOL    HW128187   6.100   4.863   2.386
 9096SOL    HW228188   6.018   4.727   2.424
 9097SOL     OW28189   1.461   1.822   1.184
 9097SOL    HW128190   1.482   1.756   1.113
 9097SOL    HW228191   1.527   1.813   1.259
 9098SOL     OW28192   3.544   1.625   4.828
 9098SOL    HW128193   3.592   1.698   4.875
 9098SOL    HW228194   3.497   1.663   4.748
 9099SOL     OW28195   3.342   2.987   5.789
 9099SOL    HW128196   3.315   2.992   5.693
 9099SOL    HW228197   3.371   2.895   5.811
 9100SOL     OW28198   0.264   3.159   3.400
 9100SOL    HW128199   0.201   3.139   3.475
 9100SOL    HW228200   0.296   3.253   3.408
 9101SOL     OW28201   2.670   2.387   2.109
 9101SOL    HW128202   2.612   2.431   2.040
 9101SOL    HW228203   2.756   2.360   2.066
 9102SOL     OW28204   3.396   6.161   1.680
 9102SOL    HW128205   3.475   6.192   1.627
 9102SOL    HW228206   3.317   6.152   1.619
 9103SOL     OW28207   6.230   3.003   6.522
 9103SOL    HW128208   6.313   3.000   6.466
 9103SOL    HW228209   6.155   3.041   6.468
 9104SOL     OW28210   0.222   5.827   2.282
 9104SOL    HW128211   0.134   5.779   2.283
 9104SOL    HW228212   0.228   5.886   2.202
 9105SOL     OW28213   0.565   1.586   6.278
 9105SOL    HW128214   0.534   1.674   6.314
 9105SOL    HW228215   0.527   1.572   6.187
 9106SOL     OW28216   6.109   4.158   1.325
 9106SOL    HW128217   6.080   4.063   1.311
 9106SOL    HW228218   6.205   4.159   1.355
 9107SOL     OW28219   2.651   0.360   6.761
 9107SOL    HW128220   2.632   0.457   6.745
 9107SOL    HW228221   2.574   0.306   6.729
 9108SOL     OW28222   5.349   4.733   5.107
 9108SOL    HW128223   5.371   4.647   5.060
 9108SOL    HW228224   5.266   4.720   5.162
 9109SOL     OW28225   6.436   3.621   3.225
 9109SOL    HW128226   6.451   3.555   3.151
 9109SOL    HW228227   6.431   3.572   3.313
 9110SOL     OW28228   2.191   4.952   4.531
 9110SOL    HW128229   2.221   4.933   4.438
 9110SOL    HW228230   2.265   4.997   4.581
 9111SOL     OW28231   5.179   2.769   0.337
 9111SOL    HW128232   5.214   2.678   0.316
 9111SOL    HW228233   5.143   2.770   0.431
 9112SOL     OW28234   1.729   5.982   2.985
 9112SOL    HW128235   1.775   6.031   2.910
 9112SOL    HW228236   1.747   5.884   2.977
 9113SOL     OW28237   4.918   2.783   2.506
 9113SOL    HW128238   4.871   2.857   2.459
 9113SOL    HW228239   5.017   2.798   2.502
 9114SOL     OW28240   0.363   5.613   3.551
 9114SOL    HW128241   0.294   5.582   3.485
 9114SOL    HW228242   0.436   5.544   3.558
 9115SOL     OW28243   6.433   5.708   4.820
 9115SOL    HW128244   6.526   5.671   4.818
 9115SOL    HW228245   6.371   5.643   4.863
 9116SOL     OW28246   0.645   0.001   2.896
 9116SOL    HW128247   0.737   0.002   2.934
 9116SOL    HW228248   0.592   6.942   2.937
 9117SOL     OW28249   3.512   2.727   5.747
 9117SOL    HW128250   3.472   2.646   5.703
 9117SOL    HW228251   3.541   2.792   5.677
 9118SOL     OW28252   6.709   3.699   6.825
 9118SOL    HW128253   6.711   3.792   6.862
 9118SOL    HW228254   6.795   3.680   6.778
 9119SOL     OW28255   3.724   1.179   2.186
 9119SOL    HW128256   3.819   1.181   2.216
 9119SOL    HW228257   3.711   1.244   2.112
 9120SOL     OW28258   6.845   1.993   5.641
 9120SOL    HW128259   6.932   2.043   5.638
 9120SOL    HW228260   6.862   1.900   5.672
 9121SOL     OW28261   3.490   6.315   4.706
 9121SOL    HW128262   3.403   6.295   4.751
 9121SOL    HW228263   3.482   6.300   4.608
 9122SOL     OW28264   2.418   4.412   2.022
 9122SOL    HW128265   2.385   4.340   1.960
 9122SOL    HW228266   2.455   4.488   1.968
 9123SOL     OW28267   1.868   0.856   4.631
 9123SOL    HW128268   1.792   0.797   4.603
 9123SOL    HW228269   1.952   0.824   4.589
 9124SOL     OW28270   4.025   5.395   0.003
 9124SOL    HW128271   3.993   5.314   0.053
 9124SOL    HW228272   4.035   5.372   6.922
 9125SOL     OW28273   4.370   4.754   0.906
 9125SOL    HW128274   4.430   4.830   0.930
 9125SOL    HW228275   4.364   4.691   0.984
 9126SOL     OW28276   5.735   3.910   1.361
 9126SOL    HW128277   5.806   3.951   1.304
 9126SOL    HW228278   5.776   3.872   1.444
 9127SOL     OW28279   6.478   1.823   5.962
 9127SOL    HW128280   6.502   1.738   6.009
 9127SOL    HW228281   6.383   1.847   5.982
 9128SOL     OW28282   6.324   2.130   5.241
 9128SOL    HW128283   6.345   2.041   5.281
 9128SOL    HW228284   6.265   2.117   5.161
 9129SOL     OW28285   6.635   2.111   0.343
 9129SOL    HW128286   6.555   2.153   0.301
 9129SOL    HW228287   6.699   2.083   0.272
 9130SOL     OW28288   1.437   4.256   6.594
 9130SOL    HW128289   1.507   4.231   6.661
 9130SOL    HW228290   1.441   4.192   6.517
 9131SOL     OW28291   5.634   3.327   6.252
 9131SOL    HW128292   5.561   3.390   6.226
 9131SOL    HW228293   5.601   3.264   6.321
 9132SOL     OW28294   1.054   5.278   4.425
 9132SOL    HW128295   0.983   5.345   4.445
 9132SOL    HW228296   1.011   5.189   4.407
 9133SOL     OW28297   3.802   6.952   1.185
 9133SOL    HW128298   3.745   6.886   1.137
 9133SOL    HW228299   3.889   6.963   1.136
 9134SOL     OW28300   3.796   5.446   1.059
 9134SOL    HW128301   3.713   5.402   1.095
 9134SOL    HW228302   3.792   5.544   1.075
 9135SOL     OW28303   0.581   0.310   1.453
 9135SOL    HW128304   0.484   0.310   1.477
 9135SOL    HW228305   0.598   0.243   1.380
 9136SOL     OW28306   4.571   6.356   5.900
 9136SOL    HW128307   4.528   6.268   5.922
 9136SOL    HW228308   4.643   6.342   5.833
 9137SOL     OW28309   3.998   0.186   6.934
 9137SOL    HW128310   4.083   0.237   6.942
 9137SOL    HW228311   4.005   0.120   6.859
 9138SOL     OW28312   0.369   4.587   6.515
 9138SOL    HW128313   0.443   4.545   6.462
 9138SOL    HW228314   0.316   4.515   6.561
 9139SOL     OW28315   1.307   1.259   2.612
 9139SOL    HW128316   1.335   1.192   2.543
 9139SOL    HW228317   1.283   1.211   2.697
 9140SOL     OW28318   0.913   3.683   2.056
 9140SOL    HW128319   0.980   3.758   2.056
 9140SOL    HW228320   0.832   3.711   2.108
 9141SOL     OW28321   6.395   6.375   1.319
 9141SOL    HW128322   6.388   6.425   1.405
 9141SOL    HW228323   6.325   6.304   1.315
 9142SOL     OW28324   0.767   3.916   1.178
 9142SOL    HW128325   0.727   3.911   1.270
 9142SOL    HW228326   0.694   3.930   1.111
 9143SOL     OW28327   6.613   3.355   0.851
 9143SOL    HW128328   6.538   3.413   0.821
 9143SOL    HW228329   6.648   3.388   0.938
 9144SOL     OW28330   3.302   5.304   5.040
 9144SOL    HW128331   3.386   5.249   5.032
 9144SOL    HW228332   3.267   5.325   4.949
 9145SOL     OW28333   0.659   6.199   6.498
 9145SOL    HW128334   0.652   6.111   6.546
 9145SOL    HW228335   0.694   6.269   6.560
 9146SOL     OW28336   5.198   3.530   2.749
 9146SOL    HW128337   5.253   3.453   2.781
 9146SOL    HW228338   5.113   3.535   2.802
 9147SOL     OW28339   6.837   0.785   5.495
 9147SOL    HW128340   6.922   0.831   5.520
 9147SOL    HW228341   6.768   0.853   5.470
 9148SOL     OW28342   5.401   6.571   2.395
 9148SOL    HW128343   5.421   6.549   2.490
 9148SOL    HW228344   5.346   6.498   2.355
 9149SOL     OW28345   5.439   3.966   2.152
 9149SOL    HW128346   5.357   3.944   2.100
 9149SOL    HW228347   5.491   3.882   2.169
 9150SOL     OW28348   3.711   4.605   0.633
 9150SOL    HW128349   3.615   4.609   0.660
 9150SOL    HW228350   3.761   4.681   0.675
 9151SOL     OW28351   2.076   4.450   3.647
 9151SOL    HW128352   1.978   4.445   3.664
 9151SOL    HW228353   2.093   4.451   3.548
 9152SOL     OW28354   2.221   4.067   4.624
 9152SOL    HW128355   2.254   4.112   4.541
 9152SOL    HW228356   2.254   4.115   4.705
 9153SOL     OW28357   0.188   2.832   6.914
 9153SOL    HW128358   0.209   2.930   6.917
 9153SOL    HW228359   0.092   2.819   6.889
 9154SOL     OW28360   4.725   4.305   4.319
 9154SOL    HW128361   4.692   4.395   4.290
 9154SOL    HW228362   4.667   4.272   4.393
 9155SOL     OW28363   2.541   4.956   2.606
 9155SOL    HW128364   2.524   4.976   2.510
 9155SOL    HW228365   2.638   4.971   2.627
 9156SOL     OW28366   6.664   1.743   1.563
 9156SOL    HW128367   6.639   1.646   1.566
 9156SOL    HW228368   6.711   1.768   1.648
 9157SOL     OW28369   3.203   4.229   6.890
 9157SOL    HW128370   3.214   4.173   6.808
 9157SOL    HW228371   3.187   4.324   6.865
 9158SOL     OW28372   6.640   3.711   3.851
 9158SOL    HW128373   6.721   3.732   3.797
 9158SOL    HW228374   6.558   3.739   3.802
 9159SOL     OW28375   2.178   0.336   3.579
 9159SOL    HW128376   2.269   0.341   3.619
 9159SOL    HW228377   2.135   0.250   3.606
 9160SOL     OW28378   0.382   6.210   5.945
 9160SOL    HW128379   0.377   6.302   5.905
 9160SOL    HW228380   0.291   6.180   5.972
 9161SOL     OW28381   6.303   4.716   3.122
 9161SOL    HW128382   6.290   4.630   3.170
 9161SOL    HW228383   6.400   4.730   3.103
 9162SOL     OW28384   3.680   0.020   2.887
 9162SOL    HW128385   3.638   0.080   2.819
 9162SOL    HW228386   3.716   0.074   2.963
 9163SOL     OW28387   6.608   3.255   2.896
 9163SOL    HW128388   6.615   3.311   2.814
 9163SOL    HW228389   6.518   3.211   2.899
 9164SOL     OW28390   1.685   0.527   6.653
 9164SOL    HW128391   1.668   0.624   6.674
 9164SOL    HW228392   1.650   0.470   6.726
 9165SOL     OW28393   4.584   2.091   5.990
 9165SOL    HW128394   4.502   2.143   5.968
 9165SOL    HW228395   4.600   2.095   6.089
 9166SOL     OW28396   4.761   5.372   1.174
 9166SOL    HW128397   4.821   5.447   1.143
 9166SOL    HW228398   4.670   5.384   1.134
 9167SOL     OW28399   1.636   2.248   6.329
 9167SOL    HW128400   1.552   2.287   6.369
 9167SOL    HW228401   1.715   2.298   6.364
 9168SOL     OW28402   0.005   6.322   6.619
 9168SOL    HW128403   6.988   6.246   6.563
 9168SOL    HW228404   0.086   6.292   6.671
 9169SOL     OW28405   6.804   6.346   6.220
 9169SOL    HW128406   6.738   6.410   6.260
 9169SOL    HW228407   6.764   6.303   6.138
 9170SOL     OW28408   1.990   0.261   6.462
 9170SOL    HW128409   1.912   0.232   6.407
 9170SOL    HW228410   2.031   0.181   6.505
 9171SOL     OW28411   3.278   5.831   0.508
 9171SOL    HW128412   3.255   5.810   0.603
 9171SOL    HW228413   3.193   5.842   0.455
 9172SOL     OW28414   4.603   1.628   3.888
 9172SOL    HW128415   4.605   1.652   3.985
 9172SOL    HW228416   4.653   1.697   3.836
 9173SOL     OW28417   5.767   2.930   4.590
 9173SOL    HW128418   5.746   2.884   4.504
 9173SOL    HW228419   5.865   2.930   4.605
 9174SOL     OW28420   0.789   5.639   0.047
 9174SOL    HW128421   0.871   5.692   0.025
 9174SOL    HW228422   0.788   5.619   0.145
 9175SOL     OW28423   1.306   0.022   0.024
 9175SOL    HW128424   1.269   6.948   0.049
 9175SOL    HW228425   1.401   0.013   7.012
 9176SOL     OW28426   2.601   6.932   1.876
 9176SOL    HW128427   2.659   6.908   1.798
 9176SOL    HW228428   2.541   7.008   1.851
 9177SOL     OW28429   1.421   2.549   3.795
 9177SOL    HW128430   1.339   2.602   3.773
 9177SOL    HW228431   1.502   2.598   3.763
 9178SOL     OW28432   1.935   5.687   6.198
 9178SOL    HW128433   1.919   5.601   6.246
 9178SOL    HW228434   2.027   5.721   6.218
 9179SOL     OW28435   1.638   6.028   5.016
 9179SOL    HW128436   1.633   5.934   4.983
 9179SOL    HW228437   1.726   6.067   4.989
 9180SOL     OW28438   6.393   2.593   3.409
 9180SOL    HW128439   6.478   2.584   3.461
 9180SOL    HW228440   6.411   2.575   3.313
 9181SOL     OW28441   4.950   2.854   3.875
 9181SOL    HW128442   5.027   2.908   3.909
 9181SOL    HW228443   4.919   2.791   3.946
 9182SOL     OW28444   3.458   0.202   3.691
 9182SOL    HW128445   3.433   0.294   3.718
 9182SOL    HW228446   3.475   0.199   3.592
 9183SOL     OW28447   4.942   4.402   6.569
 9183SOL    HW128448   4.977   4.377   6.660
 9183SOL    HW228449   4.893   4.324   6.530
 9184SOL     OW28450   3.742   1.842   0.816
 9184SOL    HW128451   3.781   1.798   0.736
 9184SOL    HW228452   3.808   1.841   0.891
 9185SOL     OW28453   6.948   6.609   5.410
 9185SOL    HW128454   6.855   6.571   5.411
 9185SOL    HW228455   6.984   6.604   5.317
 9186SOL     OW28456   4.995   0.809   5.444
 9186SOL    HW128457   5.075   0.751   5.460
 9186SOL    HW228458   4.924   0.756   5.398
 9187SOL     OW28459   4.830   1.994   6.960
 9187SOL    HW128460   4.850   1.970   0.040
 9187SOL    HW228461   4.733   1.980   6.942
 9188SOL     OW28462   1.452   0.385   1.851
 9188SOL    HW128463   1.381   0.451   1.824
 9188SOL    HW228464   1.412   0.317   1.912
 9189SOL     OW28465   2.816   6.721   3.204
 9189SOL    HW128466   2.852   6.669   3.282
 9189SOL    HW228467   2.734   6.676   3.169
 9190SOL     OW28468   0.186   3.295   5.519
 9190SOL    HW128469   0.265   3.347   5.489
 9190SOL    HW228470   0.124   3.356   5.569
 9191SOL     OW28471   5.563   0.220   6.412
 9191SOL    HW128472   5.552   0.124   6.438
 9191SOL    HW228473   5.573   0.276   6.494
 9192SOL     OW28474   6.188   3.381   5.626
 9192SOL    HW128475   6.233   3.469   5.639
 9192SOL    HW228476   6.101   3.395   5.578
 9193SOL     OW28477   3.820   3.669   3.971
 9193SOL    HW128478   3.746   3.721   3.928
 9193SOL    HW228479   3.825   3.692   4.068
 9194SOL     OW28480   3.844   6.119   2.122
 9194SOL    HW128481   3.876   6.188   2.058
 9194SOL    HW228482   3.869   6.028   2.089
 9195SOL     OW28483   1.614   2.523   3.436
 9195SOL    HW128484   1.556   2.540   3.356
 9195SOL    HW228485   1.709   2.544   3.413
 9196SOL     OW28486   5.640   0.382   3.545
 9196SOL    HW128487   5.607   0.475   3.528
 9196SOL    HW228488   5.738   0.385   3.565
 9197SOL     OW28489   3.735   5.439   0.100
 9197SOL    HW128490   3.810   5.452   0.166
 9197SOL    HW228491   3.761   5.479   0.012
 9198SOL     OW28492   5.684   4.743   6.293
 9198SOL    HW128493   5.781   4.758   6.276
 9198SOL    HW228494   5.670   4.649   6.325
 9199SOL     OW28495   0.207   2.658   6.209
 9199SOL    HW128496   0.188   2.678   6.305
 9199SOL    HW228497   0.149   2.714   6.151
 9200SOL     OW28498   2.052   5.720   6.648
 9200SOL    HW128499   1.960   5.736   6.611
 9200SOL    HW228500   2.096   5.647   6.596
 9201SOL     OW28501   0.210   3.330   0.789
 9201SOL    HW128502   0.251   3.247   0.749
 9201SOL    HW228503   0.266   3.409   0.765
 9202SOL     OW28504   1.648   6.045   3.793
 9202SOL    HW128505   1.720   5.975   3.791
 9202SOL    HW228506   1.590   6.030   3.874
 9203SOL     OW28507   5.157   2.406   6.418
 9203SOL    HW128508   5.189   2.423   6.511
 9203SOL    HW228509   5.108   2.486   6.384
 9204SOL     OW28510   5.063   3.605   3.665
 9204SOL    HW128511   5.109   3.518   3.649
 9204SOL    HW228512   4.998   3.622   3.591
 9205SOL     OW28513   5.116   4.529   2.743
 9205SOL    HW128514   5.108   4.624   2.714
 9205SOL    HW228515   5.061   4.471   2.682
 9206SOL     OW28516   3.098   0.320   3.979
 9206SOL    HW128517   3.139   0.384   4.043
 9206SOL    HW228518   3.149   0.234   3.981
 9207SOL     OW28519   3.444   5.959   6.184
 9207SOL    HW128520   3.538   5.988   6.202
 9207SOL    HW228521   3.387   5.977   6.264
 9208SOL     OW28522   5.723   4.458   2.101
 9208SOL    HW128523   5.722   4.557   2.114
 9208SOL    HW228524   5.790   4.416   2.163
 9209SOL     OW28525   4.117   0.148   2.035
 9209SOL    HW128526   4.107   0.227   2.095
 9209SOL    HW228527   4.124   0.177   1.940
 9210SOL     OW28528   0.816   0.825   1.258
 9210SOL    HW128529   0.811   0.877   1.173
 9210SOL    HW228530   0.758   0.868   1.327
 9211SOL     OW28531   5.403   3.173   6.053
 9211SOL    HW128532   5.484   3.115   6.058
 9211SOL    HW228533   5.366   3.170   5.960
 9212SOL     OW28534   5.138   3.960   5.074
 9212SOL    HW128535   5.047   3.931   5.104
 9212SOL    HW228536   5.194   3.880   5.053
 9213SOL     OW28537   5.265   5.582   4.276
 9213SOL    HW128538   5.328   5.535   4.215
 9213SOL    HW228539   5.309   5.597   4.365
 9214SOL     OW28540   0.261   2.452   5.413
 9214SOL    HW128541   0.299   2.544   5.400
 9214SOL    HW228542   0.162   2.455   5.400
 9215SOL     OW28543   0.930   4.839   2.862
 9215SOL    HW128544   0.853   4.839   2.926
 9215SOL    HW228545   1.011   4.803   2.908
 9216SOL     OW28546   2.653   6.818   4.741
 9216SOL    HW128547   2.680   6.834   4.646
 9216SOL    HW228548   2.607   6.900   4.777
 9217SOL     OW28549   5.633   1.651   6.983
 9217SOL    HW128550   5.696   1.610   0.033
 9217SOL    HW228551   5.665   1.743   6.958
 9218SOL     OW28552   3.861   1.349   6.826
 9218SOL    HW128553   3.888   1.255   6.845
 9218SOL    HW228554   3.769   1.351   6.787
 9219SOL     OW28555   4.421   3.627   5.876
 9219SOL    HW128556   4.370   3.590   5.953
 9219SOL    HW228557   4.509   3.660   5.907
 9220SOL     OW28558   1.875   6.134   2.775
 9220SOL    HW128559   1.924   6.073   2.712
 9220SOL    HW228560   1.937   6.169   2.844
 9221SOL     OW28561   2.565   0.013   4.888
 9221SOL    HW128562   2.632   0.075   4.848
 9221SOL    HW228563   2.581   0.006   4.987
 9222SOL     OW28564   2.499   4.771   4.858
 9222SOL    HW128565   2.541   4.735   4.942
 9222SOL    HW228566   2.533   4.720   4.779
 9223SOL     OW28567   0.961   2.725   3.879
 9223SOL    HW128568   1.023   2.697   3.806
 9223SOL    HW228569   0.987   2.679   3.964
 9224SOL     OW28570   1.470   3.673   3.356
 9224SOL    HW128571   1.479   3.767   3.390
 9224SOL    HW228572   1.374   3.645   3.360
 9225SOL     OW28573   4.240   5.595   5.957
 9225SOL    HW128574   4.305   5.634   6.022
 9225SOL    HW228575   4.290   5.542   5.888
 9226SOL     OW28576   0.899   0.564   1.187
 9226SOL    HW128577   0.867   0.649   1.230
 9226SOL    HW228578   0.983   0.582   1.136
 9227SOL     OW28579   1.732   6.181   1.652
 9227SOL    HW128580   1.766   6.119   1.581
 9227SOL    HW228581   1.669   6.247   1.612
 9228SOL     OW28582   2.169   1.889   6.867
 9228SOL    HW128583   2.229   1.955   6.912
 9228SOL    HW228584   2.128   1.829   6.935
 9229SOL     OW28585   0.629   4.934   5.980
 9229SOL    HW128586   0.673   5.004   5.924
 9229SOL    HW228587   0.649   4.951   6.077
 9230SOL     OW28588   4.895   3.543   2.674
 9230SOL    HW128589   4.858   3.462   2.720
 9230SOL    HW228590   4.897   3.527   2.575
 9231SOL     OW28591   0.541   4.011   5.083
 9231SOL    HW128592   0.602   3.933   5.080
 9231SOL    HW228593   0.546   4.055   5.173
 9232SOL     OW28594   2.568   5.674   1.034
 9232SOL    HW128595   2.552   5.771   1.015
 9232SOL    HW228596   2.655   5.663   1.082
 9233SOL     OW28597   0.290   6.800   0.787
 9233SOL    HW128598   0.370   6.778   0.844
 9233SOL    HW228599   0.300   6.893   0.751
 9234SOL     OW28600   1.501   5.806   0.650
 9234SOL    HW128601   1.509   5.707   0.636
 9234SOL    HW228602   1.508   5.853   0.563
 9235SOL     OW28603   2.339   2.792   2.817
 9235SOL    HW128604   2.302   2.884   2.830
 9235SOL    HW228605   2.268   2.724   2.833
 9236SOL     OW28606   2.604   3.577   6.289
 9236SOL    HW128607   2.524   3.637   6.280
 9236SOL    HW228608   2.679   3.613   6.235
 9237SOL     OW28609   0.974   5.456   2.707
 9237SOL    HW128610   0.957   5.444   2.804
 9237SOL    HW228611   0.994   5.552   2.688
 9238SOL     OW28612   2.789   2.400   5.912
 9238SOL    HW128613   2.855   2.471   5.937
 9238SOL    HW228614   2.747   2.423   5.823
 9239SOL     OW28615   6.748   4.415   6.947
 9239SOL    HW128616   6.725   4.468   6.866
 9239SOL    HW228617   6.786   4.327   6.920
 9240SOL     OW28618   4.950   2.444   2.331
 9240SOL    HW128619   4.888   2.505   2.282
 9240SOL    HW228620   4.924   2.438   2.427
 9241SOL     OW28621   0.413   5.802   1.019
 9241SOL    HW128622   0.494   5.745   1.001
 9241SOL    HW228623   0.439   5.876   1.080
 9242SOL     OW28624   2.207   3.208   1.777
 9242SOL    HW128625   2.204   3.304   1.805
 9242SOL    HW228626   2.166   3.199   1.686
 9243SOL     OW28627   0.418   0.595   1.887
 9243SOL    HW128628   0.437   0.619   1.792
 9243SOL    HW228629   0.483   0.526   1.918
 9244SOL     OW28630   2.764   6.484   6.376
 9244SOL    HW128631   2.721   6.452   6.291
 9244SOL    HW228632   2.844   6.540   6.354
 9245SOL     OW28633   0.445   4.190   3.617
 9245SOL    HW128634   0.496   4.273   3.596
 9245SOL    HW228635   0.398   4.158   3.535
 9246SOL     OW28636   5.497   0.610   3.490
 9246SOL    HW128637   5.474   0.649   3.580
 9246SOL    HW228638   5.520   0.684   3.427
 9247SOL     OW28639   3.580   5.287   2.450
 9247SOL    HW128640   3.483   5.311   2.450
 9247SOL    HW228641   3.615   5.285   2.357
 9248SOL     OW28642   2.924   2.213   4.871
 9248SOL    HW128643   2.863   2.284   4.905
 9248SOL    HW228644   3.010   2.215   4.923
 9249SOL     OW28645   4.933   5.586   1.576
 9249SOL    HW128646   4.908   5.523   1.503
 9249SOL    HW228647   4.952   5.676   1.536
 9250SOL     OW28648   0.086   3.062   3.606
 9250SOL    HW128649   0.170   3.051   3.660
 9250SOL    HW228650   0.020   3.115   3.658
 9251SOL     OW28651   4.221   1.789   1.888
 9251SOL    HW128652   4.212   1.889   1.892
 9251SOL    HW228653   4.130   1.748   1.887
 9252SOL     OW28654   5.776   0.598   4.483
 9252SOL    HW128655   5.694   0.604   4.540
 9252SOL    HW228656   5.787   0.683   4.431
 9253SOL     OW28657   5.392   5.483   5.425
 9253SOL    HW128658   5.326   5.444   5.488
 9253SOL    HW228659   5.379   5.445   5.334
 9254SOL     OW28660   4.522   4.724   2.427
 9254SOL    HW128661   4.427   4.706   2.400
 9254SOL    HW228662   4.523   4.767   2.517
 9255SOL     OW28663   5.209   3.416   7.002
 9255SOL    HW128664   5.169   3.502   0.019
 9255SOL    HW228665   5.159   3.339   0.028
 9256SOL     OW28666   2.163   6.931   2.024
 9256SOL    HW128667   2.186   0.012   2.009
 9256SOL    HW228668   2.245   6.882   2.056
 9257SOL     OW28669   5.959   5.407   3.844
 9257SOL    HW128670   5.971   5.501   3.812
 9257SOL    HW228671   5.945   5.347   3.765
 9258SOL     OW28672   4.042   3.543   1.590
 9258SOL    HW128673   4.031   3.546   1.490
 9258SOL    HW228674   4.139   3.531   1.612
 9259SOL     OW28675   2.091   1.144   0.710
 9259SOL    HW128676   2.134   1.086   0.640
 9259SOL    HW228677   2.016   1.196   0.669
 9260SOL     OW28678   6.685   2.822   5.733
 9260SOL    HW128679   6.743   2.875   5.670
 9260SOL    HW228680   6.694   2.859   5.825
 9261SOL     OW28681   4.361   1.385   6.624
 9261SOL    HW128682   4.295   1.453   6.590
 9261SOL    HW228683   4.332   1.353   6.714
 9262SOL     OW28684   0.858   5.973   4.650
 9262SOL    HW128685   0.790   5.902   4.628
 9262SOL    HW228686   0.851   6.047   4.584
 9263SOL     OW28687   3.115   5.308   2.355
 9263SOL    HW128688   3.135   5.388   2.298
 9263SOL    HW228689   3.015   5.298   2.363
 9264SOL     OW28690   4.851   3.731   0.181
 9264SOL    HW128691   4.814   3.639   0.167
 9264SOL    HW228692   4.883   3.740   0.275
 9265SOL     OW28693   4.069   2.510   0.273
 9265SOL    HW128694   4.005   2.574   0.230
 9265SOL    HW228695   4.150   2.500   0.216
 9266SOL     OW28696   0.438   5.998   1.212
 9266SOL    HW128697   0.410   5.958   1.299
 9266SOL    HW228698   0.495   6.078   1.229
 9267SOL     OW28699   0.828   2.027   4.445
 9267SOL    HW128700   0.838   2.041   4.346
 9267SOL    HW228701   0.745   1.974   4.462
 9268SOL     OW28702   1.016   6.880   2.576
 9268SOL    HW128703   0.979   6.933   2.651
 9268SOL    HW228704   0.972   6.790   2.573
 9269SOL     OW28705   4.430   6.933   6.182
 9269SOL    HW128706   4.502   6.996   6.152
 9269SOL    HW228707   4.451   6.841   6.151
 9270SOL     OW28708   3.986   0.034   5.811
 9270SOL    HW128709   3.936   6.989   5.749
 9270SOL    HW228710   3.922   0.081   5.871
 9271SOL     OW28711   5.874   0.349   0.465
 9271SOL    HW128712   5.949   0.319   0.406
 9271SOL    HW228713   5.886   0.309   0.556
 9272SOL     OW28714   0.931   6.743   6.448
 9272SOL    HW128715   1.006   6.808   6.429
 9272SOL    HW228716   0.954   6.654   6.409
 9273SOL     OW28717   6.577   5.921   3.434
 9273SOL    HW128718   6.639   5.862   3.486
 9273SOL    HW228719   6.532   5.985   3.496
 9274SOL     OW28720   6.763   2.373   0.193
 9274SOL    HW128721   6.786   2.284   0.234
 9274SOL    HW228722   6.827   2.393   0.119
 9275SOL     OW28723   6.518   0.569   0.466
 9275SOL    HW128724   6.477   0.626   0.538
 9275SOL    HW228725   6.468   0.483   0.458
 9276SOL     OW28726   1.547   4.868   0.021
 9276SOL    HW128727   1.621   4.803   7.015
 9276SOL    HW228728   1.462   4.836   6.996
 9277SOL     OW28729   4.396   5.161   2.210
 9277SOL    HW128730   4.426   5.243   2.160
 9277SOL    HW228731   4.391   5.084   2.146
 9278SOL     OW28732   1.878   0.618   5.890
 9278SOL    HW128733   1.871   0.554   5.814
 9278SOL    HW228734   1.965   0.604   5.937
 9279SOL     OW28735   3.718   6.759   1.763
 9279SOL    HW128736   3.765   6.689   1.817
 9279SOL    HW228737   3.742   6.849   1.799
 9280SOL     OW28738   2.454   1.214   2.637
 9280SOL    HW128739   2.381   1.150   2.660
 9280SOL    HW228740   2.414   1.299   2.602
 9281SOL     OW28741   3.235   4.872   6.661
 9281SOL    HW128742   3.244   4.865   6.761
 9281SOL    HW228743   3.138   4.877   6.637
 9282SOL     OW28744   4.738   1.292   3.653
 9282SOL    HW128745   4.767   1.198   3.633
 9282SOL    HW228746   4.733   1.344   3.568
 9283SOL     OW28747   5.321   0.288   5.087
 9283SOL    HW128748   5.246   0.344   5.051
 9283SOL    HW228749   5.391   0.347   5.127
 9284SOL     OW28750   2.583   3.702   5.325
 9284SOL    HW128751   2.672   3.748   5.320
 9284SOL    HW228752   2.562   3.681   5.420
 9285SOL     OW28753   5.036   3.634   1.355
 9285SOL    HW128754   4.969   3.560   1.354
 9285SOL    HW228755   4.995   3.717   1.318
 9286SOL     OW28756   5.277   4.978   0.572
 9286SOL    HW128757   5.205   5.045   0.555
 9286SOL    HW228758   5.322   4.956   0.485
 9287SOL     OW28759   3.650   4.760   6.084
 9287SOL    HW128760   3.579   4.734   6.019
 9287SOL    HW228761   3.650   4.696   6.161
 9288SOL     OW28762   4.409   1.542   2.277
 9288SOL    HW128763   4.360   1.628   2.265
 9288SOL    HW228764   4.440   1.533   2.372
 9289SOL     OW28765   4.821   0.666   0.777
 9289SOL    HW128766   4.842   0.606   0.699
 9289SOL    HW228767   4.726   0.697   0.770
 9290SOL     OW28768   6.081   1.180   3.872
 9290SOL    HW128769   6.134   1.240   3.813
 9290SOL    HW228770   6.001   1.146   3.821
 9291SOL     OW28771   1.420   5.799   5.941
 9291SOL    HW128772   1.434   5.886   5.893
 9291SOL    HW228773   1.459   5.805   6.033
 9292SOL     OW28774   2.044   1.621   6.767
 9292SOL    HW128775   2.081   1.679   6.839
 9292SOL    HW228776   1.958   1.659   6.734
 9293SOL     OW28777   5.875   3.892   6.539
 9293SOL    HW128778   5.848   3.796   6.529
 9293SOL    HW228779   5.951   3.912   6.477
 9294SOL     OW28780   5.013   1.280   6.423
 9294SOL    HW128781   4.923   1.289   6.380
 9294SOL    HW228782   5.002   1.284   6.523
 9295SOL     OW28783   5.978   0.389   4.969
 9295SOL    HW128784   5.946   0.368   5.062
 9295SOL    HW228785   6.010   0.305   4.925
 9296SOL     OW28786   1.906   4.810   0.299
 9296SOL    HW128787   1.812   4.792   0.269
 9296SOL    HW228788   1.970   4.761   0.241
 9297SOL     OW28789   0.636   6.921   3.594
 9297SOL    HW128790   0.600   7.004   3.637
 9297SOL    HW228791   0.625   6.844   3.656
 9298SOL     OW28792   1.436   6.378   6.183
 9298SOL    HW128793   1.472   6.470   6.164
 9298SOL    HW228794   1.510   6.312   6.175
 9299SOL     OW28795   1.046   1.619   4.499
 9299SOL    HW128796   1.134   1.598   4.457
 9299SOL    HW228797   1.054   1.705   4.550
 9300SOL     OW28798   6.834   5.381   5.283
 9300SOL    HW128799   6.904   5.433   5.234
 9300SOL    HW228800   6.878   5.317   5.345
 9301SOL     OW28801   6.305   4.705   4.855
 9301SOL    HW128802   6.211   4.714   4.887
 9301SOL    HW228803   6.363   4.674   4.931
 9302SOL     OW28804   2.097   3.101   4.747
 9302SOL    HW128805   2.153   3.149   4.815
 9302SOL    HW228806   2.154   3.036   4.697
 9303SOL     OW28807   2.904   3.525   0.784
 9303SOL    HW128808   2.938   3.528   0.878
 9303SOL    HW228809   2.955   3.456   0.732
 9304SOL     OW28810   4.287   5.223   0.391
 9304SOL    HW128811   4.194   5.192   0.373
 9304SOL    HW228812   4.352   5.169   0.337
 9305SOL     OW28813   3.824   0.798   0.500
 9305SOL    HW128814   3.868   0.724   0.449
 9305SOL    HW228815   3.725   0.790   0.493
 9306SOL     OW28816   1.126   4.405   5.488
 9306SOL    HW128817   1.125   4.374   5.393
 9306SOL    HW228818   1.217   4.440   5.510
 9307SOL     OW28819   1.174   3.561   0.650
 9307SOL    HW128820   1.174   3.468   0.687
 9307SOL    HW228821   1.081   3.584   0.619
 9308SOL     OW28822   1.318   3.844   1.991
 9308SOL    HW128823   1.322   3.750   2.025
 9308SOL    HW228824   1.248   3.895   2.041
 9309SOL     OW28825   3.740   6.072   5.618
 9309SOL    HW128826   3.729   5.982   5.660
 9309SOL    HW228827   3.835   6.100   5.625
 9310SOL     OW28828   5.782   6.554   5.491
 9310SOL    HW128829   5.691   6.596   5.485
 9310SOL    HW228830   5.818   6.565   5.583
 9311SOL     OW28831   5.459   4.588   1.582
 9311SOL    HW128832   5.379   4.538   1.613
 9311SOL    HW228833   5.468   4.579   1.483
 9312SOL     OW28834   1.718   2.226   0.873
 9312SOL    HW128835   1.812   2.255   0.858
 9312SOL    HW228836   1.712   2.127   0.868
 9313SOL     OW28837   6.925   0.396   1.599
 9313SOL    HW128838   6.912   0.312   1.651
 9313SOL    HW228839   7.013   0.437   1.622
 9314SOL     OW28840   6.894   3.562   0.545
 9314SOL    HW128841   6.815   3.608   0.585
 9314SOL    HW228842   6.894   3.466   0.573
 9315SOL     OW28843   6.103   0.115   5.504
 9315SOL    HW128844   6.082   0.017   5.502
 9315SOL    HW228845   6.131   0.145   5.412
 9316SOL     OW28846   5.669   0.184   5.345
 9316SOL    HW128847   5.681   0.229   5.433
 9316SOL    HW228848   5.701   0.089   5.352
 9317SOL     OW28849   4.150   5.400   2.907
 9317SOL    HW128850   4.085   5.329   2.880
 9317SOL    HW228851   4.209   5.365   2.981
 9318SOL     OW28852   5.114   6.953   0.122
 9318SOL    HW128853   5.160   6.864   0.126
 9318SOL    HW228854   5.015   6.939   0.131
 9319SOL     OW28855   2.644   2.815   1.459
 9319SOL    HW128856   2.742   2.797   1.463
 9319SOL    HW228857   2.626   2.886   1.390
 9320SOL     OW28858   4.243   0.307   5.109
 9320SOL    HW128859   4.216   0.211   5.121
 9320SOL    HW228860   4.162   0.365   5.109
 9321SOL     OW28861   0.902   1.150   5.642
 9321SOL    HW128862   0.825   1.206   5.673
 9321SOL    HW228863   0.870   1.089   5.569
 9322SOL     OW28864   0.031   4.522   0.012
 9322SOL    HW128865   0.103   4.572   6.980
 9322SOL    HW228866   6.957   4.551   6.994
 9323SOL     OW28867   1.921   1.419   5.121
 9323SOL    HW128868   1.931   1.511   5.159
 9323SOL    HW228869   1.987   1.358   5.165
 9324SOL     OW28870   2.137   3.780   2.584
 9324SOL    HW128871   2.085   3.697   2.565
 9324SOL    HW228872   2.165   3.822   2.498
 9325SOL     OW28873   6.934   7.005   0.786
 9325SOL    HW128874   6.888   0.075   0.759
 9325SOL    HW228875   0.005   6.997   0.737
 9326SOL     OW28876   3.116   5.123   6.784
 9326SOL    HW128877   3.127   5.031   6.820
 9326SOL    HW228878   3.025   5.133   6.744
 9327SOL     OW28879   4.276   6.546   2.438
 9327SOL    HW128880   4.306   6.623   2.495
 9327SOL    HW228881   4.355   6.507   2.391
 9328SOL     OW28882   1.845   0.872   5.075
 9328SOL    HW128883   1.762   0.912   5.037
 9328SOL    HW228884   1.822   0.794   5.132
 9329SOL     OW28885   6.844   5.508   0.947
 9329SOL    HW128886   6.862   5.594   0.996
 9329SOL    HW228887   6.926   5.481   0.897
 9330SOL     OW28888   0.283   0.245   5.971
 9330SOL    HW128889   0.299   0.254   5.873
 9330SOL    HW228890   0.356   0.191   6.012
 9331SOL     OW28891   2.067   1.358   6.160
 9331SOL    HW128892   2.006   1.438   6.166
 9331SOL    HW228893   2.107   1.353   6.069
 9332SOL     OW28894   4.329   5.491   0.319
 9332SOL    HW128895   4.334   5.404   0.368
 9332SOL    HW228896   4.379   5.484   0.233
 9333SOL     OW28897   3.742   5.410   6.462
 9333SOL    HW128898   3.835   5.444   6.457
 9333SOL    HW228899   3.692   5.437   6.379
 9334SOL     OW28900   4.976   6.569   4.176
 9334SOL    HW128901   4.921   6.640   4.221
 9334SOL    HW228902   5.061   6.556   4.226
 9335SOL     OW28903   1.803   1.642   0.112
 9335SOL    HW128904   1.736   1.668   0.043
 9335SOL    HW228905   1.784   1.689   0.198
 9336SOL     OW28906   5.419   6.868   4.128
 9336SOL    HW128907   5.320   6.866   4.115
 9336SOL    HW228908   5.463   6.891   4.041
 9337SOL     OW28909   4.773   1.258   6.298
 9337SOL    HW128910   4.674   1.252   6.311
 9337SOL    HW228911   4.800   1.201   6.220
 9338SOL     OW28912   6.534   6.453   0.911
 9338SOL    HW128913   6.472   6.403   0.851
 9338SOL    HW228914   6.484   6.490   0.988
 9339SOL     OW28915   5.815   6.029   0.206
 9339SOL    HW128916   5.842   6.003   0.113
 9339SOL    HW228917   5.764   6.115   0.204
 9340SOL     OW28918   3.772   4.814   2.820
 9340SOL    HW128919   3.765   4.716   2.842
 9340SOL    HW228920   3.726   4.832   2.734
 9341SOL     OW28921   6.329   4.180   0.753
 9341SOL    HW128922   6.371   4.260   0.710
 9341SOL    HW228923   6.338   4.187   0.852
 9342SOL     OW28924   2.090   0.761   4.516
 9342SOL    HW128925   2.088   0.814   4.431
 9342SOL    HW228926   2.174   0.783   4.566
 9343SOL     OW28927   4.970   3.888   1.962
 9343SOL    HW128928   5.054   3.878   2.015
 9343SOL    HW228929   4.936   3.982   1.968
 9344SOL     OW28930   5.342   5.241   0.226
 9344SOL    HW128931   5.243   5.231   0.233
 9344SOL    HW228932   5.375   5.301   0.299
 9345SOL     OW28933   0.121   4.679   2.067
 9345SOL    HW128934   0.129   4.775   2.040
 9345SOL    HW228935   0.084   4.673   2.159
 9346SOL     OW28936   5.109   6.982   2.113
 9346SOL    HW128937   5.099   6.986   2.013
 9346SOL    HW228938   5.091   6.888   2.144
 9347SOL     OW28939   2.790   6.001   0.241
 9347SOL    HW128940   2.877   6.011   0.289
 9347SOL    HW228941   2.730   6.078   0.264
 9348SOL     OW28942   2.560   5.735   2.476
 9348SOL    HW128943   2.594   5.677   2.401
 9348SOL    HW228944   2.460   5.739   2.472
 9349SOL     OW28945   6.734   5.402   2.847
 9349SOL    HW128946   6.688   5.430   2.763
 9349SOL    HW228947   6.694   5.316   2.880
 9350SOL     OW28948   0.133   1.823   4.244
 9350SOL    HW128949   0.160   1.753   4.178
 9350SOL    HW228950   0.077   1.893   4.199
 9351SOL     OW28951   2.716   0.252   6.252
 9351SOL    HW128952   2.762   0.168   6.224
 9351SOL    HW228953   2.727   0.265   6.350
 9352SOL     OW28954   2.909   2.951   5.764
 9352SOL    HW128955   2.962   2.880   5.717
 9352SOL    HW228956   2.867   3.012   5.697
 9353SOL     OW28957   2.126   4.278   1.032
 9353SOL    HW128958   2.109   4.329   1.116
 9353SOL    HW228959   2.211   4.310   0.990
 9354SOL     OW28960   6.642   1.749   0.129
 9354SOL    HW128961   6.710   1.822   0.137
 9354SOL    HW228962   6.635   1.719   0.034
 9355SOL     OW28963   6.564   2.028   4.521
 9355SOL    HW128964   6.583   2.004   4.426
 9355SOL    HW228965   6.615   1.967   4.582
 9356SOL     OW28966   4.361   5.797   1.317
 9356SOL    HW128967   4.441   5.758   1.270
 9356SOL    HW228968   4.306   5.848   1.251
 9357SOL     OW28969   3.322   3.313   6.472
 9357SOL    HW128970   3.243   3.357   6.515
 9357SOL    HW228971   3.330   3.219   6.505
 9358SOL     OW28972   6.585   3.554   2.148
 9358SOL    HW128973   6.490   3.531   2.172
 9358SOL    HW228974   6.590   3.581   2.052
 9359SOL     OW28975   1.485   3.440   5.737
 9359SOL    HW128976   1.424   3.437   5.658
 9359SOL    HW228977   1.548   3.517   5.727
 9360SOL     OW28978   1.248   0.049   6.001
 9360SOL    HW128979   1.281   6.970   6.009
 9360SOL    HW228980   1.160   0.050   5.954
 9361SOL     OW28981   1.969   6.026   3.516
 9361SOL    HW128982   2.005   5.940   3.481
 9361SOL    HW228983   2.027   6.059   3.590
 9362SOL     OW28984   1.287   2.132   2.292
 9362SOL    HW128985   1.364   2.195   2.286
 9362SOL    HW228986   1.289   2.085   2.380
 9363SOL     OW28987   4.111   5.745   1.604
 9363SOL    HW128988   4.065   5.669   1.649
 9363SOL    HW228989   4.062   5.770   1.520
 9364SOL     OW28990   4.364   3.147   6.036
 9364SOL    HW128991   4.325   3.060   6.005
 9364SOL    HW228992   4.338   3.220   5.972
 9365SOL     OW28993   2.658   1.855   5.072
 9365SOL    HW128994   2.709   1.931   5.113
 9365SOL    HW228995   2.579   1.834   5.130
 9366SOL     OW28996   3.051   0.649   6.859
 9366SOL    HW128997   2.975   0.585   6.848
 9366SOL    HW228998   3.109   0.647   6.778
 9367SOL     OW28999   6.871   6.185   2.918
 9367SOL    HW129000   6.912   6.109   2.969
 9367SOL    HW229001   6.780   6.159   2.886
 9368SOL     OW29002   2.482   1.605   3.882
 9368SOL    HW129003   2.529   1.693   3.887
 9368SOL    HW229004   2.492   1.567   3.790
 9369SOL     OW29005   6.929   0.487   5.237
 9369SOL    HW129006   6.906   0.438   5.153
 9369SOL    HW229007   6.902   0.432   5.316
 9370SOL     OW29008   4.483   0.074   2.273
 9370SOL    HW129009   4.454   0.139   2.342
 9370SOL    HW229010   4.476   0.116   2.182
 9371SOL     OW29011   1.970   5.192   0.684
 9371SOL    HW129012   2.038   5.263   0.667
 9371SOL    HW229013   1.993   5.144   0.769
 9372SOL     OW29014   5.062   5.982   2.943
 9372SOL    HW129015   5.150   5.970   2.989
 9372SOL    HW229016   4.988   5.956   3.005
 9373SOL     OW29017   4.162   2.216   2.660
 9373SOL    HW129018   4.223   2.176   2.727
 9373SOL    HW229019   4.067   2.204   2.690
 9374SOL     OW29020   0.514   2.773   0.909
 9374SOL    HW129021   0.520   2.782   0.810
 9374SOL    HW229022   0.602   2.800   0.951
 9375SOL     OW29023   6.105   1.573   3.041
 9375SOL    HW129024   6.103   1.559   3.140
 9375SOL    HW229025   6.093   1.671   3.022
 9376SOL     OW29026   2.805   4.287   1.035
 9376SOL    HW129027   2.832   4.301   0.939
 9376SOL    HW229028   2.851   4.354   1.093
 9377SOL     OW29029   1.745   5.462   3.654
 9377SOL    HW129030   1.649   5.466   3.627
 9377SOL    HW229031   1.796   5.535   3.608
 9378SOL     OW29032   1.277   0.912   5.150
 9378SOL    HW129033   1.311   0.953   5.235
 9378SOL    HW229034   1.272   0.982   5.079
 9379SOL     OW29035   4.573   6.229   4.845
 9379SOL    HW129036   4.477   6.203   4.836
 9379SOL    HW229037   4.615   6.175   4.919
 9380SOL     OW29038   5.731   4.667   4.781
 9380SOL    HW129039   5.670   4.644   4.857
 9380SOL    HW229040   5.680   4.719   4.712
 9381SOL     OW29041   3.082   3.108   5.892
 9381SOL    HW129042   3.011   3.048   5.855
 9381SOL    HW229043   3.172   3.076   5.861
 9382SOL     OW29044   3.471   0.856   3.360
 9382SOL    HW129045   3.393   0.794   3.370
 9382SOL    HW229046   3.506   0.880   3.451
 9383SOL     OW29047   2.032   6.043   4.606
 9383SOL    HW129048   2.079   6.039   4.518
 9383SOL    HW229049   2.079   6.109   4.665
 9384SOL     OW29050   3.009   6.823   1.522
 9384SOL    HW129051   2.928   6.882   1.520
 9384SOL    HW229052   3.004   6.762   1.602
 9385SOL     OW29053   3.859   0.737   2.726
 9385SOL    HW129054   3.895   0.646   2.747
 9385SOL    HW229055   3.875   0.759   2.630
 9386SOL     OW29056   2.294   6.303   5.130
 9386SOL    HW129057   2.373   6.317   5.070
 9386SOL    HW229058   2.277   6.205   5.142
 9387SOL     OW29059   2.497   1.570   0.150
 9387SOL    HW129060   2.397   1.567   0.151
 9387SOL    HW229061   2.533   1.486   0.110
 9388SOL     OW29062   1.707   5.077   2.717
 9388SOL    HW129063   1.769   5.008   2.754
 9388SOL    HW229064   1.617   5.036   2.700
 9389SOL     OW29065   1.489   6.487   4.874
 9389SOL    HW129066   1.495   6.570   4.818
 9389SOL    HW229067   1.566   6.483   4.937
 9390SOL     OW29068   4.180   5.136   4.751
 9390SOL    HW129069   4.119   5.137   4.672
 9390SOL    HW229070   4.265   5.183   4.729
 9391SOL     OW29071   2.280   1.430   4.834
 9391SOL    HW129072   2.312   1.339   4.859
 9391SOL    HW229073   2.192   1.422   4.786
 9392SOL     OW29074   0.013   0.618   4.924
 9392SOL    HW129075   7.001   0.680   4.998
 9392SOL    HW229076   6.968   0.632   4.846
 9393SOL     OW29077   2.736   6.943   5.151
 9393SOL    HW129078   2.688   6.859   5.178
 9393SOL    HW229079   2.814   6.957   5.211
 9394SOL     OW29080   0.318   1.469   2.119
 9394SOL    HW129081   0.311   1.554   2.171
 9394SOL    HW229082   0.237   1.413   2.136
 9395SOL     OW29083   2.791   1.519   0.675
 9395SOL    HW129084   2.878   1.540   0.721
 9395SOL    HW229085   2.800   1.539   0.578
 9396SOL     OW29086   2.039   5.372   3.842
 9396SOL    HW129087   2.010   5.450   3.897
 9396SOL    HW229088   1.959   5.318   3.816
 9397SOL     OW29089   3.602   6.796   0.254
 9397SOL    HW129090   3.654   6.832   0.176
 9397SOL    HW229091   3.595   6.697   0.246
 9398SOL     OW29092   7.000   1.314   5.127
 9398SOL    HW129093   0.066   1.373   5.128
 9398SOL    HW229094   0.010   1.223   5.160
 9399SOL     OW29095   6.870   1.765   6.117
 9399SOL    HW129096   6.943   1.699   6.134
 9399SOL    HW229097   6.877   1.841   6.182
 9400SOL     OW29098   4.230   1.325   2.252
 9400SOL    HW129099   4.308   1.388   2.257
 9400SOL    HW229100   4.217   1.296   2.157
 9401SOL     OW29101   5.527   6.940   3.343
 9401SOL    HW129102   5.580   7.010   3.390
 9401SOL    HW229103   5.431   6.968   3.337
 9402SOL     OW29104   1.130   4.656   3.908
 9402SOL    HW129105   1.048   4.694   3.949
 9402SOL    HW229106   1.209   4.712   3.932
 9403SOL     OW29107   6.358   1.482   2.946
 9403SOL    HW129108   6.346   1.435   2.859
 9403SOL    HW229109   6.269   1.514   2.979
 9404SOL     OW29110   1.490   3.060   6.744
 9404SOL    HW129111   1.553   3.083   6.819
 9404SOL    HW229112   1.396   3.067   6.778
 9405SOL     OW29113   1.464   5.292   2.690
 9405SOL    HW129114   1.459   5.270   2.592
 9405SOL    HW229115   1.559   5.312   2.715
 9406SOL     OW29116   6.716   2.951   5.987
 9406SOL    HW129117   6.757   3.036   5.955
 9406SOL    HW229118   6.785   2.897   6.035
 9407SOL     OW29119   2.567   5.190   3.348
 9407SOL    HW129120   2.491   5.131   3.378
 9407SOL    HW229121   2.619   5.143   3.277
 9408SOL     OW29122   4.495   1.877   6.413
 9408SOL    HW129123   4.563   1.924   6.356
 9408SOL    HW229124   4.542   1.827   6.486
 9409SOL     OW29125   6.173   4.959   6.155
 9409SOL    HW129126   6.247   5.018   6.186
 9409SOL    HW229127   6.115   5.010   6.091
 9410SOL     OW29128   3.063   0.075   2.231
 9410SOL    HW129129   3.124   0.100   2.306
 9410SOL    HW229130   3.113   0.022   2.163
 9411SOL     OW29131   3.302   3.326   2.039
 9411SOL    HW129132   3.290   3.409   2.094
 9411SOL    HW229133   3.361   3.262   2.088
 9412SOL     OW29134   6.929   2.566   1.635
 9412SOL    HW129135   6.900   2.504   1.562
 9412SOL    HW229136   6.929   2.660   1.601
 9413SOL     OW29137   3.519   5.846   3.873
 9413SOL    HW129138   3.601   5.903   3.872
 9413SOL    HW229139   3.452   5.886   3.935
 9414SOL     OW29140   2.949   0.617   3.519
 9414SOL    HW129141   2.973   0.520   3.521
 9414SOL    HW229142   2.924   0.644   3.426
 9415SOL     OW29143   3.154   6.752   2.096
 9415SOL    HW129144   3.081   6.689   2.070
 9415SOL    HW229145   3.139   6.786   2.189
 9416SOL     OW29146   0.437   2.294   1.093
 9416SOL    HW129147   0.482   2.295   1.004
 9416SOL    HW229148   0.402   2.385   1.114
 9417SOL     OW29149   4.112   0.027   6.044
 9417SOL    HW129150   4.072   0.020   5.953
 9417SOL    HW229151   4.207   7.010   6.042
 9418SOL     OW29152   3.855   6.145   1.105
 9418SOL    HW129153   3.822   6.074   1.167
 9418SOL    HW229154   3.915   6.208   1.155
 9419SOL     OW29155   3.718   5.600   5.947
 9419SOL    HW129156   3.718   5.646   6.036
 9419SOL    HW229157   3.811   5.570   5.925
 9420SOL     OW29158   6.627   3.231   5.764
 9420SOL    HW129159   6.625   3.290   5.683
 9420SOL    HW229160   6.568   3.152   5.749
 9421SOL     OW29161   1.992   6.958   4.667
 9421SOL    HW129162   1.956   0.033   4.688
 9421SOL    HW229163   2.085   6.966   4.631
 9422SOL     OW29164   4.444   5.812   3.264
 9422SOL    HW129165   4.357   5.776   3.231
 9422SOL    HW229166   4.519   5.770   3.212
 9423SOL     OW29167   3.907   0.690   4.111
 9423SOL    HW129168   3.985   0.630   4.129
 9423SOL    HW229169   3.822   0.640   4.126
 9424SOL     OW29170   4.960   0.722   4.762
 9424SOL    HW129171   5.026   0.795   4.779
 9424SOL    HW229172   5.003   0.650   4.708
 9425SOL     OW29173   6.327   3.038   6.777
 9425SOL    HW129174   6.365   3.130   6.767
 9425SOL    HW229175   6.297   3.005   6.688
 9426SOL     OW29176   3.552   2.242   6.912
 9426SOL    HW129177   3.606   2.215   6.991
 9426SOL    HW229178   3.558   2.341   6.900
 9427SOL     OW29179   3.238   5.444   3.492
 9427SOL    HW129180   3.265   5.530   3.534
 9427SOL    HW229181   3.181   5.392   3.555
 9428SOL     OW29182   6.012   0.785   1.377
 9428SOL    HW129183   6.093   0.754   1.426
 9428SOL    HW229184   6.024   0.771   1.279
 9429SOL     OW29185   2.031   3.517   2.196
 9429SOL    HW129186   2.076   3.523   2.106
 9429SOL    HW229187   2.082   3.455   2.255
 9430SOL     OW29188   0.636   4.059   2.507
 9430SOL    HW129189   0.573   4.014   2.570
 9430SOL    HW229190   0.669   4.144   2.547
 9431SOL     OW29191   6.297   4.184   1.651
 9431SOL    HW129192   6.328   4.187   1.556
 9431SOL    HW229193   6.198   4.198   1.654
 9432SOL     OW29194   4.078   0.738   3.195
 9432SOL    HW129195   4.003   0.771   3.252
 9432SOL    HW229196   4.165   0.774   3.230
 9433SOL     OW29197   2.451   5.349   2.909
 9433SOL    HW129198   2.542   5.374   2.876
 9433SOL    HW229199   2.458   5.270   2.969
 9434SOL     OW29200   5.468   5.126   3.104
 9434SOL    HW129201   5.566   5.124   3.124
 9434SOL    HW229202   5.446   5.210   3.055
 9435SOL     OW29203   0.811   2.968   4.572
 9435SOL    HW129204   0.882   2.960   4.503
 9435SOL    HW229205   0.730   2.917   4.543
 9436SOL     OW29206   1.317   2.855   1.660
 9436SOL    HW129207   1.357   2.910   1.734
 9436SOL    HW229208   1.218   2.849   1.673
 9437SOL     OW29209   2.652   5.850   2.997
 9437SOL    HW129210   2.608   5.772   2.953
 9437SOL    HW229211   2.668   5.830   3.094
 9438SOL     OW29212   0.143   0.456   1.746
 9438SOL    HW129213   0.144   0.404   1.832
 9438SOL    HW229214   0.084   0.536   1.757
 9439SOL     OW29215   0.531   3.483   1.459
 9439SOL    HW129216   0.503   3.391   1.490
 9439SOL    HW229217   0.626   3.499   1.487
 9440SOL     OW29218   4.213   4.962   3.603
 9440SOL    HW129219   4.157   4.888   3.566
 9440SOL    HW229220   4.197   5.046   3.551
 9441SOL     OW29221   1.017   3.259   4.741
 9441SOL    HW129222   1.020   3.349   4.784
 9441SOL    HW229223   1.039   3.189   4.810
 9442SOL     OW29224   4.414   3.171   0.271
 9442SOL    HW129225   4.433   3.260   0.230
 9442SOL    HW229226   4.338   3.128   0.223
 9443SOL     OW29227   2.028   5.582   0.902
 9443SOL    HW129228   1.943   5.568   0.851
 9443SOL    HW229229   2.009   5.577   1.000
 9444SOL     OW29230   1.203   3.438   6.398
 9444SOL    HW129231   1.291   3.414   6.438
 9444SOL    HW229232   1.132   3.378   6.434
 9445SOL     OW29233   5.565   3.367   3.486
 9445SOL    HW129234   5.525   3.319   3.408
 9445SOL    HW229235   5.520   3.456   3.496
 9446SOL     OW29236   6.176   6.045   4.265
 9446SOL    HW129237   6.080   6.055   4.239
 9446SOL    HW229238   6.207   6.129   4.310
 9447SOL     OW29239   5.822   3.520   4.886
 9447SOL    HW129240   5.861   3.429   4.873
 9447SOL    HW229241   5.829   3.571   4.800
 9448SOL     OW29242   6.777   6.885   6.785
 9448SOL    HW129243   6.700   6.910   6.843
 9448SOL    HW229244   6.786   6.951   6.711
 9449SOL     OW29245   0.085   6.112   0.119
 9449SOL    HW129246   0.050   6.034   0.171
 9449SOL    HW229247   0.008   6.165   0.084
 9450SOL     OW29248   2.859   5.485   5.171
 9450SOL    HW129249   2.938   5.546   5.173
 9450SOL    HW229250   2.777   5.536   5.198
 9451SOL     OW29251   4.315   6.637   5.929
 9451SOL    HW129252   4.243   6.604   5.990
 9451SOL    HW229253   4.405   6.619   5.970
 9452SOL     OW29254   2.069   3.990   6.969
 9452SOL    HW129255   2.099   4.052   0.026
 9452SOL    HW229256   2.144   3.973   6.906
 9453SOL     OW29257   1.900   4.613   3.237
 9453SOL    HW129258   1.859   4.539   3.292
 9453SOL    HW229259   1.934   4.684   3.298
 9454SOL     OW29260   3.221   3.126   6.882
 9454SOL    HW129261   3.182   3.143   6.973
 9454SOL    HW229262   3.148   3.097   6.820
 9455SOL     OW29263   3.253   1.851   3.286
 9455SOL    HW129264   3.328   1.784   3.286
 9455SOL    HW229265   3.185   1.824   3.354
 9456SOL     OW29266   1.469   3.446   0.965
 9456SOL    HW129267   1.505   3.393   0.889
 9456SOL    HW229268   1.382   3.406   0.995
 9457SOL     OW29269   2.139   3.898   5.206
 9457SOL    HW129270   2.088   3.830   5.152
 9457SOL    HW229271   2.201   3.949   5.147
 9458SOL     OW29272   1.481   3.383   6.537
 9458SOL    HW129273   1.534   3.299   6.544
 9458SOL    HW229274   1.540   3.457   6.504
 9459SOL     OW29275   5.128   4.602   3.284
 9459SOL    HW129276   5.059   4.571   3.218
 9459SOL    HW229277   5.199   4.653   3.235
 9460SOL     OW29278   0.386   2.504   3.800
 9460SOL    HW129279   0.427   2.480   3.888
 9460SOL    HW229280   0.440   2.577   3.757
 9461SOL     OW29281   6.290   1.428   2.272
 9461SOL    HW129282   6.304   1.381   2.359
 9461SOL    HW229283   6.291   1.361   2.197
 9462SOL     OW29284   2.112   3.712   3.041
 9462SOL    HW129285   2.133   3.763   3.125
 9462SOL    HW229286   2.109   3.775   2.964
 9463SOL     OW29287   0.368   0.872   1.592
 9463SOL    HW129288   0.405   0.931   1.664
 9463SOL    HW229289   0.440   0.812   1.557
 9464SOL     OW29290   6.391   0.356   1.395
 9464SOL    HW129291   6.408   0.388   1.488
 9464SOL    HW229292   6.473   0.366   1.339
 9465SOL     OW29293   1.759   5.404   3.083
 9465SOL    HW129294   1.801   5.366   3.165
 9465SOL    HW229295   1.669   5.363   3.069
 9466SOL     OW29296   4.578   4.779   5.705
 9466SOL    HW129297   4.527   4.704   5.748
 9466SOL    HW229298   4.640   4.742   5.636
 9467SOL     OW29299   1.375   3.174   1.578
 9467SOL    HW129300   1.318   3.238   1.631
 9467SOL    HW229301   1.415   3.106   1.640
 9468SOL     OW29302   5.589   2.821   5.900
 9468SOL    HW129303   5.586   2.777   5.990
 9468SOL    HW229304   5.682   2.817   5.864
 9469SOL     OW29305   6.590   5.746   1.825
 9469SOL    HW129306   6.555   5.667   1.774
 9469SOL    HW229307   6.653   5.715   1.895
 9470SOL     OW29308   4.372   3.765   5.624
 9470SOL    HW129309   4.420   3.704   5.687
 9470SOL    HW229310   4.326   3.837   5.676
 9471SOL     OW29311   6.683   2.379   4.391
 9471SOL    HW129312   6.685   2.438   4.472
 9471SOL    HW229313   6.593   2.336   4.384
 9472SOL     OW29314   5.806   4.024   5.122
 9472SOL    HW129315   5.846   3.935   5.101
 9472SOL    HW229316   5.825   4.047   5.218
 9473SOL     OW29317   2.835   5.701   6.020
 9473SOL    HW129318   2.756   5.740   5.973
 9473SOL    HW229319   2.825   5.602   6.027
 9474SOL     OW29320   0.308   3.042   0.139
 9474SOL    HW129321   0.381   3.037   0.071
 9474SOL    HW229322   0.317   2.967   0.204
 9475SOL     OW29323   3.771   3.309   6.483
 9475SOL    HW129324   3.740   3.265   6.567
 9475SOL    HW229325   3.704   3.377   6.454
 9476SOL     OW29326   2.920   3.933   4.944
 9476SOL    HW129327   2.925   3.843   4.988
 9476SOL    HW229328   2.839   3.981   4.978
 9477SOL     OW29329   0.168   3.459   1.789
 9477SOL    HW129330   0.162   3.441   1.691
 9477SOL    HW229331   0.186   3.374   1.838
 9478SOL     OW29332   5.474   3.404   6.795
 9478SOL    HW129333   5.399   3.453   6.751
 9478SOL    HW229334   5.468   3.306   6.775
 9479SOL     OW29335   4.500   6.251   6.819
 9479SOL    HW129336   4.503   6.348   6.794
 9479SOL    HW229337   4.580   6.205   6.780
 9480SOL     OW29338   4.331   3.781   1.138
 9480SOL    HW129339   4.377   3.777   1.049
 9480SOL    HW229340   4.395   3.813   1.208
 9481SOL     OW29341   5.193   3.726   2.311
 9481SOL    HW129342   5.257   3.784   2.361
 9481SOL    HW229343   5.110   3.715   2.365
 9482SOL     OW29344   6.628   0.662   3.164
 9482SOL    HW129345   6.572   0.607   3.102
 9482SOL    HW229346   6.650   0.608   3.245
 9483SOL     OW29347   0.914   1.709   1.714
 9483SOL    HW129348   0.944   1.617   1.692
 9483SOL    HW229349   0.983   1.775   1.683
 9484SOL     OW29350   3.022   1.395   3.849
 9484SOL    HW129351   3.092   1.426   3.785
 9484SOL    HW229352   2.968   1.322   3.808
 9485SOL     OW29353   0.317   0.328   1.555
 9485SOL    HW129354   0.288   0.365   1.643
 9485SOL    HW229355   0.288   0.390   1.482
 9486SOL     OW29356   2.919   6.167   1.088
 9486SOL    HW129357   2.884   6.156   1.181
 9486SOL    HW229358   2.849   6.211   1.031
 9487SOL     OW29359   3.622   3.541   3.274
 9487SOL    HW129360   3.648   3.456   3.227
 9487SOL    HW229361   3.677   3.551   3.357
 9488SOL     OW29362   1.358   6.545   0.600
 9488SOL    HW129363   1.259   6.549   0.611
 9488SOL    HW229364   1.395   6.638   0.606
 9489SOL     OW29365   4.434   4.408   1.669
 9489SOL    HW129366   4.521   4.438   1.630
 9489SOL    HW229367   4.448   4.326   1.724
 9490SOL     OW29368   0.078   5.434   0.850
 9490SOL    HW129369   0.127   5.360   0.896
 9490SOL    HW229370   0.135   5.515   0.846
 9491SOL     OW29371   6.483   4.672   3.895
 9491SOL    HW129372   6.522   4.709   3.980
 9491SOL    HW229373   6.509   4.730   3.818
 9492SOL     OW29374   3.348   2.924   2.881
 9492SOL    HW129375   3.327   3.020   2.903
 9492SOL    HW229376   3.447   2.911   2.880
 9493SOL     OW29377   3.688   5.224   3.961
 9493SOL    HW129378   3.638   5.143   3.990
 9493SOL    HW229379   3.774   5.197   3.919
 9494SOL     OW29380   4.672   5.035   1.708
 9494SOL    HW129381   4.655   4.947   1.664
 9494SOL    HW229382   4.747   5.027   1.773
 9495SOL     OW29383   6.677   1.786   3.284
 9495SOL    HW129384   6.762   1.734   3.294
 9495SOL    HW229385   6.645   1.815   3.375
 9496SOL     OW29386   6.135   4.925   1.401
 9496SOL    HW129387   6.214   4.871   1.372
 9496SOL    HW229388   6.059   4.863   1.421
 9497SOL     OW29389   5.666   6.072   6.934
 9497SOL    HW129390   5.673   5.980   6.972
 9497SOL    HW229391   5.609   6.071   6.852
 9498SOL     OW29392   4.908   6.775   4.369
 9498SOL    HW129393   4.850   6.839   4.319
 9498SOL    HW229394   4.999   6.815   4.382
 9499SOL     OW29395   1.673   5.078   6.268
 9499SOL    HW129396   1.609   5.130   6.325
 9499SOL    HW229397   1.674   5.117   6.176
 9500SOL     OW29398   5.820   0.635   1.031
 9500SOL    HW129399   5.846   0.731   1.037
 9500SOL    HW229400   5.720   0.627   1.025
 9501SOL     OW29401   2.765   1.212   5.016
 9501SOL    HW129402   2.783   1.304   4.982
 9501SOL    HW229403   2.835   1.150   4.983
 9502SOL     OW29404   6.489   2.492   5.475
 9502SOL    HW129405   6.471   2.490   5.376
 9502SOL    HW229406   6.405   2.476   5.525
 9503SOL     OW29407   0.357   1.544   1.669
 9503SOL    HW129408   0.420   1.567   1.743
 9503SOL    HW229409   0.350   1.621   1.606
 9504SOL     OW29410   6.639   2.393   1.249
 9504SOL    HW129411   6.568   2.370   1.183
 9504SOL    HW229412   6.601   2.452   1.321
 9505SOL     OW29413   5.239   5.080   3.498
 9505SOL    HW129414   5.325   5.086   3.549
 9505SOL    HW229415   5.239   4.998   3.441
 9506SOL     OW29416   0.840   2.410   6.113
 9506SOL    HW129417   0.902   2.356   6.169
 9506SOL    HW229418   0.873   2.413   6.019
 9507SOL     OW29419   0.965   2.208   3.202
 9507SOL    HW129420   0.994   2.187   3.295
 9507SOL    HW229421   0.901   2.285   3.204
 9508SOL     OW29422   6.653   3.393   1.160
 9508SOL    HW129423   6.695   3.471   1.208
 9508SOL    HW229424   6.562   3.420   1.127
 9509SOL     OW29425   0.703   0.684   4.672
 9509SOL    HW129426   0.776   0.734   4.625
 9509SOL    HW229427   0.744   0.622   4.740
 9510SOL     OW29428   1.459   3.400   2.187
 9510SOL    HW129429   1.549   3.442   2.175
 9510SOL    HW229430   1.441   3.388   2.284
 9511SOL     OW29431   0.633   1.077   0.427
 9511SOL    HW129432   0.545   1.121   0.413
 9511SOL    HW229433   0.668   1.043   0.339
 9512SOL     OW29434   5.366   1.794   1.604
 9512SOL    HW129435   5.463   1.815   1.617
 9512SOL    HW229436   5.343   1.802   1.507
 9513SOL     OW29437   1.702   3.165   5.965
 9513SOL    HW129438   1.761   3.091   5.934
 9513SOL    HW229439   1.719   3.185   6.061
 9514SOL     OW29440   1.833   4.683   6.283
 9514SOL    HW129441   1.880   4.757   6.332
 9514SOL    HW229442   1.776   4.723   6.211
 9515SOL     OW29443   1.411   6.229   1.273
 9515SOL    HW129444   1.358   6.176   1.206
 9515SOL    HW229445   1.507   6.203   1.267
 9516SOL     OW29446   5.224   4.135   5.273
 9516SOL    HW129447   5.195   4.083   5.193
 9516SOL    HW229448   5.147   4.185   5.310
 9517SOL     OW29449   1.232   4.608   0.785
 9517SOL    HW129450   1.161   4.623   0.854
 9517SOL    HW229451   1.276   4.520   0.802
 9518SOL     OW29452   1.587   1.681   6.977
 9518SOL    HW129453   1.552   1.705   6.887
 9518SOL    HW229454   1.512   1.653   0.020
 9519SOL     OW29455   3.751   4.084   4.203
 9519SOL    HW129456   3.690   4.130   4.138
 9519SOL    HW229457   3.756   4.138   4.287
 9520SOL     OW29458   0.828   1.563   3.142
 9520SOL    HW129459   0.925   1.585   3.138
 9520SOL    HW229460   0.811   1.499   3.217
 9521SOL     OW29461   5.192   4.983   1.539
 9521SOL    HW129462   5.271   4.933   1.576
 9521SOL    HW229463   5.221   5.074   1.511
 9522SOL     OW29464   3.931   4.983   1.451
 9522SOL    HW129465   3.840   4.960   1.417
 9522SOL    HW229466   3.979   5.039   1.384
 9523SOL     OW29467   2.755   5.209   4.783
 9523SOL    HW129468   2.681   5.141   4.786
 9523SOL    HW229469   2.834   5.170   4.737
 9524SOL     OW29470   2.993   3.299   0.632
 9524SOL    HW129471   3.087   3.268   0.645
 9524SOL    HW229472   2.963   3.275   0.539
 9525SOL     OW29473   2.297   2.319   5.919
 9525SOL    HW129474   2.228   2.389   5.899
 9525SOL    HW229475   2.253   2.229   5.921
 9526SOL     OW29476   6.426   4.749   1.011
 9526SOL    HW129477   6.364   4.774   1.085
 9526SOL    HW229478   6.430   4.824   0.944
 9527SOL     OW29479   0.481   1.348   4.400
 9527SOL    HW129480   0.485   1.421   4.468
 9527SOL    HW229481   0.388   1.339   4.366
 9528SOL     OW29482   6.496   1.489   1.110
 9528SOL    HW129483   6.481   1.576   1.062
 9528SOL    HW229484   6.591   1.460   1.098
 9529SOL     OW29485   6.501   3.542   6.457
 9529SOL    HW129486   6.524   3.593   6.374
 9529SOL    HW229487   6.402   3.533   6.464
 9530SOL     OW29488   1.777   2.915   2.886
 9530SOL    HW129489   1.749   3.007   2.915
 9530SOL    HW229490   1.869   2.896   2.919
 9531SOL     OW29491   5.002   5.114   2.730
 9531SOL    HW129492   4.907   5.145   2.725
 9531SOL    HW229493   5.048   5.136   2.644
 9532SOL     OW29494   0.274   5.878   1.401
 9532SOL    HW129495   0.302   5.968   1.436
 9532SOL    HW229496   0.186   5.886   1.355
 9533SOL     OW29497   0.464   5.835   5.330
 9533SOL    HW129498   0.502   5.820   5.421
 9533SOL    HW229499   0.495   5.764   5.267
 9534SOL     OW29500   0.036   4.363   5.081
 9534SOL    HW129501   0.007   4.316   4.998
 9534SOL    HW229502   0.083   4.298   5.141
 9535SOL     OW29503   1.995   0.646   6.440
 9535SOL    HW129504   2.009   0.558   6.484
 9535SOL    HW229505   1.932   0.701   6.495
 9536SOL     OW29506   2.844   4.287   6.046
 9536SOL    HW129507   2.880   4.266   5.956
 9536SOL    HW229508   2.919   4.306   6.109
 9537SOL     OW29509   2.629   0.049   4.413
 9537SOL    HW129510   2.565   6.989   4.400
 9537SOL    HW229511   2.580   0.136   4.413
 9538SOL     OW29512   5.470   1.062   3.524
 9538SOL    HW129513   5.393   1.037   3.583
 9538SOL    HW229514   5.496   1.157   3.541
 9539SOL     OW29515   3.479   3.525   4.803
 9539SOL    HW129516   3.519   3.546   4.714
 9539SOL    HW229517   3.536   3.459   4.851
 9540SOL     OW29518   6.205   4.318   4.089
 9540SOL    HW129519   6.178   4.228   4.055
 9540SOL    HW229520   6.278   4.355   4.030
 9541SOL     OW29521   3.197   0.518   5.962
 9541SOL    HW129522   3.270   0.578   5.994
 9541SOL    HW229523   3.232   0.455   5.893
 9542SOL     OW29524   4.777   4.025   4.680
 9542SOL    HW129525   4.797   4.117   4.646
 9542SOL    HW229526   4.730   3.973   4.609
 9543SOL     OW29527   3.405   6.956   5.918
 9543SOL    HW129528   3.403   6.880   5.984
 9543SOL    HW229529   3.477   0.005   5.944
 9544SOL     OW29530   6.914   2.355   3.056
 9544SOL    HW129531   7.006   2.325   3.031
 9544SOL    HW229532   6.857   2.275   3.076
 9545SOL     OW29533   5.616   5.775   4.625
 9545SOL    HW129534   5.652   5.829   4.701
 9545SOL    HW229535   5.526   5.811   4.599
 9546SOL     OW29536   4.199   1.851   5.260
 9546SOL    HW129537   4.105   1.861   5.228
 9546SOL    HW229538   4.213   1.758   5.295
 9547SOL     OW29539   2.378   6.154   4.287
 9547SOL    HW129540   2.437   6.123   4.212
 9547SOL    HW229541   2.369   6.253   4.283
 9548SOL     OW29542   6.191   5.373   6.286
 9548SOL    HW129543   6.099   5.336   6.277
 9548SOL    HW229544   6.202   5.413   6.377
 9549SOL     OW29545   2.520   3.255   1.084
 9549SOL    HW129546   2.475   3.243   1.173
 9549SOL    HW229547   2.451   3.264   1.012
 9550SOL     OW29548   0.505   1.219   0.140
 9550SOL    HW129549   0.456   1.229   0.226
 9550SOL    HW229550   0.603   1.233   0.155
 9551SOL     OW29551   5.768   1.866   5.002
 9551SOL    HW129552   5.684   1.897   4.958
 9551SOL    HW229553   5.752   1.853   5.100
 9552SOL     OW29554   1.532   6.830   4.130
 9552SOL    HW129555   1.438   6.837   4.095
 9552SOL    HW229556   1.594   6.807   4.055
 9553SOL     OW29557   6.460   3.099   6.332
 9553SOL    HW129558   6.519   3.176   6.310
 9553SOL    HW229559   6.404   3.075   6.252
 9554SOL     OW29560   1.940   6.745   1.886
 9554SOL    HW129561   1.889   6.822   1.924
 9554SOL    HW229562   1.877   6.680   1.844
 9555SOL     OW29563   1.097   0.541   3.096
 9555SOL    HW129564   1.079   0.631   3.056
 9555SOL    HW229565   1.164   0.492   3.040
 9556SOL     OW29566   1.829   3.377   1.669
 9556SOL    HW129567   1.889   3.443   1.715
 9556SOL    HW229568   1.801   3.415   1.580
 9557SOL     OW29569   0.438   6.145   2.477
 9557SOL    HW129570   0.397   6.189   2.397
 9557SOL    HW229571   0.489   6.213   2.530
 9558SOL     OW29572   6.160   6.367   4.748
 9558SOL    HW129573   6.100   6.372   4.668
 9558SOL    HW229574   6.238   6.428   4.735
 9559SOL     OW29575   0.567   4.486   1.007
 9559SOL    HW129576   0.586   4.439   0.920
 9559SOL    HW229577   0.500   4.558   0.992
 9560SOL     OW29578   1.609   1.327   3.109
 9560SOL    HW129579   1.679   1.283   3.165
 9560SOL    HW229580   1.648   1.353   3.021
 9561SOL     OW29581   1.551   0.303   0.710
 9561SOL    HW129582   1.505   0.256   0.635
 9561SOL    HW229583   1.556   0.401   0.689
 9562SOL     OW29584   2.976   0.207   5.322
 9562SOL    HW129585   2.914   0.212   5.245
 9562SOL    HW229586   3.056   0.153   5.297
 9563SOL     OW29587   6.184   5.806   0.690
 9563SOL    HW129588   6.182   5.849   0.599
 9563SOL    HW229589   6.279   5.798   0.720
 9564SOL     OW29590   2.775   0.096   1.041
 9564SOL    HW129591   2.727   0.161   1.100
 9564SOL    HW229592   2.723   0.082   0.957
 9565SOL     OW29593   3.801   0.255   4.818
 9565SOL    HW129594   3.831   0.168   4.858
 9565SOL    HW229595   3.870   0.286   4.752
 9566SOL     OW29596   1.886   5.047   0.025
 9566SOL    HW129597   1.913   5.111   6.968
 9566SOL    HW229598   1.907   4.953   7.012
 9567SOL     OW29599   5.092   4.864   0.736
 9567SOL    HW129600   5.186   4.885   0.707
 9567SOL    HW229601   5.045   4.815   0.663
 9568SOL     OW29602   4.414   2.310   6.719
 9568SOL    HW129603   4.454   2.227   6.678
 9568SOL    HW229604   4.333   2.285   6.771
 9569SOL     OW29605   0.390   1.548   2.586
 9569SOL    HW129606   0.361   1.593   2.671
 9569SOL    HW229607   0.337   1.464   2.574
 9570SOL     OW29608   0.694   3.119   2.074
 9570SOL    HW129609   0.717   3.173   2.155
 9570SOL    HW229610   0.694   3.179   1.993
 9571SOL     OW29611   4.058   4.350   5.988
 9571SOL    HW129612   4.017   4.402   5.913
 9571SOL    HW229613   3.985   4.311   6.044
 9572SOL     OW29614   2.119   4.854   1.861
 9572SOL    HW129615   2.070   4.796   1.926
 9572SOL    HW229616   2.066   4.938   1.845
 9573SOL     OW29617   0.075   1.738   6.625
 9573SOL    HW129618   7.015   1.793   6.662
 9573SOL    HW229619   0.102   1.775   6.536
 9574SOL     OW29620   3.873   3.062   3.517
 9574SOL    HW129621   3.819   3.007   3.581
 9574SOL    HW229622   3.939   3.117   3.568
 9575SOL     OW29623   0.215   1.277   1.339
 9575SOL    HW129624   0.246   1.365   1.304
 9575SOL    HW229625   0.119   1.263   1.315
 9576SOL     OW29626   2.228   0.167   1.960
 9576SOL    HW129627   2.310   0.161   1.903
 9576SOL    HW229628   2.186   0.257   1.949
 9577SOL     OW29629   1.314   0.629   6.300
 9577SOL    HW129630   1.300   0.541   6.254
 9577SOL    HW229631   1.411   0.647   6.309
 9578SOL     OW29632   0.692   3.952   3.518
 9578SOL    HW129633   0.720   3.980   3.610
 9578SOL    HW229634   0.594   3.935   3.517
 9579SOL     OW29635   1.440   4.681   2.815
 9579SOL    HW129636   1.490   4.629   2.885
 9579SOL    HW229637   1.342   4.672   2.831
 9580SOL     OW29638   4.086   3.233   0.588
 9580SOL    HW129639   4.082   3.318   0.535
 9580SOL    HW229640   4.176   3.191   0.577
 9581SOL     OW29641   0.412   5.440   6.249
 9581SOL    HW129642   0.485   5.372   6.245
 9581SOL    HW229643   0.337   5.412   6.189
 9582SOL     OW29644   4.494   5.306   6.188
 9582SOL    HW129645   4.497   5.378   6.119
 9582SOL    HW229646   4.410   5.253   6.178
 9583SOL     OW29647   4.010   4.714   1.304
 9583SOL    HW129648   4.082   4.667   1.356
 9583SOL    HW229649   3.927   4.720   1.360
 9584SOL     OW29650   0.006   5.895   0.263
 9584SOL    HW129651   6.956   5.824   0.237
 9584SOL    HW229652   6.975   5.964   0.319
 9585SOL     OW29653   6.298   0.574   4.409
 9585SOL    HW129654   6.263   0.667   4.396
 9585SOL    HW229655   6.390   0.578   4.449
 9586SOL     OW29656   6.165   4.492   2.743
 9586SOL    HW129657   6.075   4.534   2.738
 9586SOL    HW229658   6.167   4.411   2.683
 9587SOL     OW29659   0.201   1.047   1.872
 9587SOL    HW129660   0.143   0.991   1.813
 9587SOL    HW229661   0.288   1.066   1.827
 9588SOL     OW29662   0.317   1.708   1.947
 9588SOL    HW129663   0.348   1.730   2.040
 9588SOL    HW229664   0.246   1.638   1.952
 9589SOL     OW29665   2.192   5.212   5.965
 9589SOL    HW129666   2.133   5.284   6.001
 9589SOL    HW229667   2.261   5.252   5.906
 9590SOL     OW29668   6.604   3.330   1.902
 9590SOL    HW129669   6.511   3.352   1.871
 9590SOL    HW229670   6.611   3.232   1.919
 9591SOL     OW29671   3.570   6.201   6.483
 9591SOL    HW129672   3.471   6.215   6.493
 9591SOL    HW229673   3.587   6.134   6.411
 9592SOL     OW29674   3.335   4.358   0.858
 9592SOL    HW129675   3.379   4.415   0.788
 9592SOL    HW229676   3.311   4.269   0.819
 9593SOL     OW29677   0.371   1.098   4.947
 9593SOL    HW129678   0.455   1.092   5.000
 9593SOL    HW229679   0.342   1.006   4.921
 9594SOL     OW29680   1.545   6.367   3.110
 9594SOL    HW129681   1.591   6.288   3.150
 9594SOL    HW229682   1.524   6.434   3.181
 9595SOL     OW29683   1.813   4.457   5.279
 9595SOL    HW129684   1.778   4.371   5.315
 9595SOL    HW229685   1.905   4.473   5.313
 9596SOL     OW29686   0.347   5.627   0.251
 9596SOL    HW129687   0.436   5.597   0.217
 9596SOL    HW229688   0.297   5.674   0.178
 9597SOL     OW29689   0.667   4.798   1.191
 9597SOL    HW129690   0.717   4.800   1.104
 9597SOL    HW229691   0.600   4.723   1.189
 9598SOL     OW29692   1.809   3.286   4.516
 9598SOL    HW129693   1.889   3.345   4.506
 9598SOL    HW229694   1.760   3.280   4.429
 9599SOL     OW29695   3.903   0.015   4.940
 9599SOL    HW129696   3.894   6.933   4.917
 9599SOL    HW229697   3.894   0.027   5.039
 9600SOL     OW29698   2.058   6.969   7.004
 9600SOL    HW129699   2.052   6.905   6.927
 9600SOL    HW229700   2.043   6.920   0.074
 9601SOL     OW29701   6.212   3.870   1.291
 9601SOL    HW129702   6.239   3.893   1.384
 9601SOL    HW229703   6.215   3.770   1.279
 9602SOL     OW29704   6.929   5.431   6.528
 9602SOL    HW129705   6.850   5.404   6.583
 9602SOL    HW229706   7.011   5.428   6.585
 9603SOL     OW29707   3.858   1.818   4.809
 9603SOL    HW129708   3.814   1.806   4.899
 9603SOL    HW229709   3.938   1.759   4.803
 9604SOL     OW29710   3.928   0.734   6.953
 9604SOL    HW129711   3.945   0.642   6.918
 9604SOL    HW229712   3.980   0.800   6.899
 9605SOL     OW29713   0.323   5.021   4.123
 9605SOL    HW129714   0.308   4.930   4.163
 9605SOL    HW229715   0.283   5.091   4.181
 9606SOL     OW29716   2.208   6.388   6.184
 9606SOL    HW129717   2.202   6.471   6.129
 9606SOL    HW229718   2.255   6.317   6.132
 9607SOL     OW29719   1.597   1.676   0.965
 9607SOL    HW129720   1.695   1.658   0.954
 9607SOL    HW229721   1.555   1.599   1.014
 9608SOL     OW29722   6.763   6.323   2.149
 9608SOL    HW129723   6.862   6.323   2.131
 9608SOL    HW229724   6.720   6.248   2.098
 9609SOL     OW29725   1.988   3.670   6.347
 9609SOL    HW129726   2.031   3.614   6.275
 9609SOL    HW229727   1.957   3.610   6.421
 9610SOL     OW29728   1.832   5.090   3.995
 9610SOL    HW129729   1.900   5.078   3.922
 9610SOL    HW229730   1.763   5.156   3.966
 9611SOL     OW29731   0.268   6.872   6.824
 9611SOL    HW129732   0.175   6.863   6.859
 9611SOL    HW229733   0.334   6.858   6.898
 9612SOL     OW29734   0.590   3.514   2.011
 9612SOL    HW129735   0.509   3.457   2.016
 9612SOL    HW229736   0.595   3.572   2.092
 9613SOL     OW29737   4.332   6.344   3.850
 9613SOL    HW129738   4.419   6.367   3.895
 9613SOL    HW229739   4.309   6.415   3.784
 9614SOL     OW29740   3.976   2.243   0.886
 9614SOL    HW129741   4.005   2.289   0.969
 9614SOL    HW229742   3.876   2.231   0.887
 9615SOL     OW29743   0.532   6.458   1.379
 9615SOL    HW129744   0.503   6.513   1.457
 9615SOL    HW229745   0.465   6.466   1.305
 9616SOL     OW29746   4.603   3.621   1.226
 9616SOL    HW129747   4.684   3.567   1.249
 9616SOL    HW229748   4.618   3.716   1.254
 9617SOL     OW29749   1.635   3.467   4.044
 9617SOL    HW129750   1.604   3.431   3.956
 9617SOL    HW229751   1.735   3.470   4.046
 9618SOL     OW29752   3.843   6.838   5.686
 9618SOL    HW129753   3.872   6.779   5.762
 9618SOL    HW229754   3.744   6.850   5.689
 9619SOL     OW29755   0.585   6.935   0.414
 9619SOL    HW129756   0.634   6.957   0.498
 9619SOL    HW229757   0.645   6.949   0.335
 9620SOL     OW29758   4.946   3.007   0.149
 9620SOL    HW129759   4.910   2.915   0.166
 9620SOL    HW229760   5.037   3.015   0.189
 9621SOL     OW29761   1.320   1.007   2.750
 9621SOL    HW129762   1.288   0.983   2.842
 9621SOL    HW229763   1.265   0.960   2.682
 9622SOL     OW29764   5.517   0.724   0.099
 9622SOL    HW129765   5.474   0.787   0.164
 9622SOL    HW229766   5.447   0.688   0.037
 9623SOL     OW29767   4.181   4.999   5.351
 9623SOL    HW129768   4.169   5.077   5.413
 9623SOL    HW229769   4.264   5.013   5.296
 9624SOL     OW29770   6.040   4.491   3.770
 9624SOL    HW129771   5.942   4.496   3.787
 9624SOL    HW229772   6.086   4.568   3.814
 9625SOL     OW29773   5.063   5.457   6.927
 9625SOL    HW129774   5.106   5.453   6.836
 9625SOL    HW229775   4.965   5.444   6.917
 9626SOL     OW29776   2.179   6.576   0.354
 9626SOL    HW129777   2.275   6.553   0.339
 9626SOL    HW229778   2.121   6.500   0.323
 9627SOL     OW29779   6.871   4.031   3.452
 9627SOL    HW129780   6.906   4.047   3.544
 9627SOL    HW229781   6.872   3.933   3.432
 9628SOL     OW29782   6.773   4.690   0.161
 9628SOL    HW129783   6.758   4.737   0.075
 9628SOL    HW229784   6.716   4.608   0.164
 9629SOL     OW29785   0.095   6.647   3.106
 9629SOL    HW129786   0.074   6.743   3.087
 9629SOL    HW229787   0.194   6.632   3.098
 9630SOL     OW29788   6.076   6.388   5.081
 9630SOL    HW129789   6.032   6.397   4.992
 9630SOL    HW229790   6.039   6.457   5.144
 9631SOL     OW29791   5.756   1.213   6.890
 9631SOL    HW129792   5.845   1.169   6.902
 9631SOL    HW229793   5.697   1.155   6.834
 9632SOL     OW29794   2.423   5.008   2.351
 9632SOL    HW129795   2.397   4.943   2.280
 9632SOL    HW229796   2.343   5.031   2.407
 9633SOL     OW29797   5.014   5.136   6.966
 9633SOL    HW129798   5.073   5.139   0.031
 9633SOL    HW229799   4.945   5.208   6.972
 9634SOL     OW29800   0.830   6.555   4.342
 9634SOL    HW129801   0.756   6.495   4.314
 9634SOL    HW229802   0.794   6.645   4.364
 9635SOL     OW29803   2.513   4.502   5.268
 9635SOL    HW129804   2.538   4.511   5.364
 9635SOL    HW229805   2.568   4.565   5.213
 9636SOL     OW29806   4.112   1.364   6.101
 9636SOL    HW129807   4.098   1.434   6.031
 9636SOL    HW229808   4.172   1.292   6.065
 9637SOL     OW29809   3.120   2.520   0.067
 9637SOL    HW129810   3.079   2.479   7.001
 9637SOL    HW229811   3.187   2.457   0.105
 9638SOL     OW29812   0.018   3.888   6.726
 9638SOL    HW129813   7.000   3.799   6.695
 9638SOL    HW229814   0.024   3.950   6.648
 9639SOL     OW29815   4.658   1.804   2.002
 9639SOL    HW129816   4.669   1.900   1.978
 9639SOL    HW229817   4.694   1.788   2.093
 9640SOL     OW29818   2.946   1.197   2.934
 9640SOL    HW129819   2.881   1.121   2.943
 9640SOL    HW229820   2.987   1.216   3.023
 9641SOL     OW29821   5.410   5.580   0.977
 9641SOL    HW129822   5.390   5.486   1.006
 9641SOL    HW229823   5.405   5.641   1.057
 9642SOL     OW29824   1.958   5.777   4.919
 9642SOL    HW129825   1.889   5.813   4.856
 9642SOL    HW229826   1.991   5.689   4.885
 9643SOL     OW29827   5.965   4.787   4.107
 9643SOL    HW129828   5.946   4.882   4.134
 9643SOL    HW229829   6.060   4.765   4.127
 9644SOL     OW29830   0.349   4.610   4.708
 9644SOL    HW129831   0.310   4.554   4.635
 9644SOL    HW229832   0.275   4.661   4.754
 9645SOL     OW29833   3.052   4.863   3.672
 9645SOL    HW129834   3.127   4.878   3.608
 9645SOL    HW229835   3.077   4.790   3.736
 9646SOL     OW29836   2.621   4.695   2.119
 9646SOL    HW129837   2.688   4.667   2.050
 9646SOL    HW229838   2.666   4.749   2.190
 9647SOL     OW29839   1.040   5.189   1.967
 9647SOL    HW129840   0.987   5.108   1.993
 9647SOL    HW229841   0.979   5.257   1.926
 9648SOL     OW29842   3.546   2.275   0.362
 9648SOL    HW129843   3.455   2.306   0.388
 9648SOL    HW229844   3.540   2.212   0.284
 9649SOL     OW29845   2.259   4.548   6.876
 9649SOL    HW129846   2.175   4.585   6.916
 9649SOL    HW229847   2.295   4.477   6.936
 9650SOL     OW29848   4.467   4.482   3.097
 9650SOL    HW129849   4.382   4.500   3.047
 9650SOL    HW229850   4.545   4.504   3.039
 9651SOL     OW29851   5.848   1.266   0.458
 9651SOL    HW129852   5.799   1.335   0.511
 9651SOL    HW229853   5.879   1.306   0.371
 9652SOL     OW29854   2.409   4.335   0.983
 9652SOL    HW129855   2.397   4.279   0.901
 9652SOL    HW229856   2.462   4.285   1.051
 9653SOL     OW29857   4.274   5.224   5.479
 9653SOL    HW129858   4.278   5.251   5.383
 9653SOL    HW229859   4.359   5.177   5.505
 9654SOL     OW29860   3.559   3.531   2.233
 9654SOL    HW129861   3.507   3.611   2.204
 9654SOL    HW229862   3.656   3.546   2.217
 9655SOL     OW29863   6.935   1.375   0.344
 9655SOL    HW129864   6.885   1.460   0.362
 9655SOL    HW229865   6.942   1.362   0.245
 9656SOL     OW29866   4.720   2.013   0.949
 9656SOL    HW129867   4.700   1.935   1.008
 9656SOL    HW229868   4.810   2.050   0.972
 9657SOL     OW29869   6.309   2.777   3.569
 9657SOL    HW129870   6.239   2.742   3.631
 9657SOL    HW229871   6.331   2.707   3.501
 9658SOL     OW29872   5.632   2.275   2.584
 9658SOL    HW129873   5.648   2.263   2.486
 9658SOL    HW229874   5.718   2.295   2.630
 9659SOL     OW29875   6.732   2.923   0.418
 9659SOL    HW129876   6.753   2.903   0.514
 9659SOL    HW229877   6.704   3.018   0.409
 9660SOL     OW29878   0.542   6.935   2.002
 9660SOL    HW129879   0.504   6.958   1.912
 9660SOL    HW229880   0.625   6.880   1.990
 9661SOL     OW29881   3.529   6.431   1.382
 9661SOL    HW129882   3.462   6.484   1.433
 9661SOL    HW229883   3.502   6.335   1.381
 9662SOL     OW29884   4.257   2.933   5.370
 9662SOL    HW129885   4.177   2.873   5.375
 9662SOL    HW229886   4.326   2.892   5.311
 9663SOL     OW29887   6.424   6.896   3.312
 9663SOL    HW129888   6.410   6.995   3.318
 9663SOL    HW229889   6.412   6.866   3.218
 9664SOL     OW29890   5.448   6.130   4.290
 9664SOL    HW129891   5.503   6.125   4.374
 9664SOL    HW229892   5.414   6.223   4.278
 9665SOL     OW29893   5.559   6.325   6.893
 9665SOL    HW129894   5.474   6.274   6.907
 9665SOL    HW229895   5.634   6.278   6.938
 9666SOL     OW29896   6.844   4.005   2.616
 9666SOL    HW129897   6.901   3.935   2.572
 9666SOL    HW229898   6.753   4.004   2.577
 9667SOL     OW29899   4.107   3.536   6.044
 9667SOL    HW129900   4.043   3.593   5.994
 9667SOL    HW229901   4.081   3.440   6.035
 9668SOL     OW29902   6.895   0.727   6.230
 9668SOL    HW129903   6.826   0.732   6.302
 9668SOL    HW229904   6.875   0.651   6.169
 9669SOL     OW29905   1.731   0.254   2.705
 9669SOL    HW129906   1.824   0.268   2.671
 9669SOL    HW229907   1.699   0.163   2.679
 9670SOL     OW29908   6.220   4.542   6.737
 9670SOL    HW129909   6.258   4.612   6.677
 9670SOL    HW229910   6.295   4.489   6.777
 9671SOL     OW29911   6.301   4.665   0.074
 9671SOL    HW129912   6.281   4.744   0.015
 9671SOL    HW229913   6.400   4.654   0.082
 9672SOL     OW29914   1.484   5.496   3.427
 9672SOL    HW129915   1.525   5.581   3.396
 9672SOL    HW229916   1.387   5.510   3.446
 9673SOL     OW29917   4.988   3.422   1.032
 9673SOL    HW129918   5.066   3.453   1.086
 9673SOL    HW229919   4.992   3.463   0.941
 9674SOL     OW29920   2.341   6.489   2.777
 9674SOL    HW129921   2.313   6.578   2.742
 9674SOL    HW229922   2.363   6.429   2.701
 9675SOL     OW29923   5.750   2.638   0.429
 9675SOL    HW129924   5.753   2.684   0.518
 9675SOL    HW229925   5.793   2.697   0.360
 9676SOL     OW29926   1.666   3.988   5.396
 9676SOL    HW129927   1.599   3.947   5.459
 9676SOL    HW229928   1.753   3.940   5.406
 9677SOL     OW29929   0.367   6.043   5.160
 9677SOL    HW129930   0.393   5.968   5.221
 9677SOL    HW229931   0.314   6.111   5.211
 9678SOL     OW29932   3.204   4.004   3.226
 9678SOL    HW129933   3.266   4.058   3.169
 9678SOL    HW229934   3.134   3.962   3.168
 9679SOL     OW29935   2.804   1.403   3.258
 9679SOL    HW129936   2.835   1.485   3.305
 9679SOL    HW229937   2.868   1.328   3.276
 9680SOL     OW29938   4.359   1.028   2.989
 9680SOL    HW129939   4.332   0.980   3.072
 9680SOL    HW229940   4.318   1.119   2.989
 9681SOL     OW29941   3.301   1.667   0.432
 9681SOL    HW129942   3.338   1.686   0.523
 9681SOL    HW229943   3.372   1.683   0.364
 9682SOL     OW29944   5.142   4.705   3.579
 9682SOL    HW129945   5.190   4.631   3.626
 9682SOL    HW229946   5.079   4.750   3.643
 9683SOL     OW29947   2.677   5.435   0.704
 9683SOL    HW129948   2.662   5.377   0.784
 9683SOL    HW229949   2.673   5.531   0.731
 9684SOL     OW29950   0.241   3.374   6.057
 9684SOL    HW129951   0.252   3.471   6.034
 9684SOL    HW229952   0.328   3.326   6.040
 9685SOL     OW29953   3.248   4.911   1.104
 9685SOL    HW129954   3.346   4.903   1.083
 9685SOL    HW229955   3.226   4.853   1.182
 9686SOL     OW29956   6.564   1.693   6.863
 9686SOL    HW129957   6.635   1.636   6.821
 9686SOL    HW229958   6.560   1.781   6.816
 9687SOL     OW29959   1.574   0.810   4.160
 9687SOL    HW129960   1.657   0.801   4.215
 9687SOL    HW229961   1.513   0.732   4.180
 9688SOL     OW29962   0.913   3.159   2.640
 9688SOL    HW129963   0.985   3.103   2.681
 9688SOL    HW229964   0.950   3.213   2.565
 9689SOL     OW29965   1.053   4.620   6.279
 9689SOL    HW129966   1.127   4.629   6.346
 9689SOL    HW229967   1.077   4.672   6.196
 9690SOL     OW29968   5.398   5.224   6.718
 9690SOL    HW129969   5.458   5.231   6.798
 9690SOL    HW229970   5.370   5.129   6.705
 9691SOL     OW29971   2.956   5.649   0.710
 9691SOL    HW129972   2.861   5.653   0.743
 9691SOL    HW229973   3.006   5.580   0.762
 9692SOL     OW29974   3.632   5.192   2.933
 9692SOL    HW129975   3.660   5.216   2.840
 9692SOL    HW229976   3.533   5.180   2.936
 9693SOL     OW29977   5.944   4.847   1.911
 9693SOL    HW129978   5.980   4.760   1.945
 9693SOL    HW229979   6.002   4.879   1.835
 9694SOL     OW29980   2.544   0.764   1.002
 9694SOL    HW129981   2.636   0.802   1.010
 9694SOL    HW229982   2.486   0.827   0.950
 9695SOL     OW29983   6.901   3.091   2.542
 9695SOL    HW129984   6.884   3.019   2.609
 9695SOL    HW229985   6.948   3.053   2.463
 9696SOL     OW29986   5.216   3.528   1.127
 9696SOL    HW129987   5.196   3.626   1.134
 9696SOL    HW229988   5.294   3.507   1.185
 9697SOL     OW29989   0.547   5.443   0.126
 9697SOL    HW129990   0.583   5.423   0.217
 9697SOL    HW229991   0.619   5.481   0.069
 9698SOL     OW29992   4.521   1.610   5.778
 9698SOL    HW129993   4.558   1.564   5.859
 9698SOL    HW229994   4.597   1.647   5.724
 9699SOL     OW29995   6.954   4.861   6.872
 9699SOL    HW129996   6.961   4.949   6.825
 9699SOL    HW229997   0.030   4.820   6.880
 9700SOL     OW29998   4.560   5.630   5.144
 9700SOL    HW129999   4.587   5.661   5.053
 9700SOL    HW230000   4.596   5.538   5.160
 9701SOL     OW30001   4.675   5.027   5.773
 9701SOL    HW130002   4.631   4.940   5.750
 9701SOL    HW230003   4.696   5.029   5.870
 9702SOL     OW30004   4.607   0.559   6.785
 9702SOL    HW130005   4.661   0.528   6.707
 9702SOL    HW230006   4.657   0.630   6.834
 9703SOL     OW30007   4.596   4.394   3.336
 9703SOL    HW130008   4.529   4.420   3.267
 9703SOL    HW230009   4.684   4.373   3.292
 9704SOL     OW30010   3.532   0.959   2.687
 9704SOL    HW130011   3.595   0.993   2.618
 9704SOL    HW230012   3.449   1.015   2.688
 9705SOL     OW30013   5.685   4.641   5.875
 9705SOL    HW130014   5.753   4.600   5.936
 9705SOL    HW230015   5.633   4.710   5.924
 9706SOL     OW30016   1.491   3.266   0.550
 9706SOL    HW130017   1.480   3.352   0.501
 9706SOL    HW230018   1.566   3.213   0.510
 9707SOL     OW30019   7.014   4.910   2.606
 9707SOL    HW130020   6.943   4.845   2.629
 9707SOL    HW230021   6.980   4.973   2.536
 9708SOL     OW30022   1.401   2.057   2.878
 9708SOL    HW130023   1.305   2.050   2.902
 9708SOL    HW230024   1.457   2.051   2.960
 9709SOL     OW30025   5.552   6.064   3.419
 9709SOL    HW130026   5.486   6.133   3.391
 9709SOL    HW230027   5.640   6.082   3.376
 9710SOL     OW30028   6.997   1.141   1.604
 9710SOL    HW130029   0.066   1.189   1.628
 9710SOL    HW230030   6.999   1.048   1.640
 9711SOL     OW30031   2.593   5.377   6.015
 9711SOL    HW130032   2.559   5.469   5.994
 9711SOL    HW230033   2.589   5.320   5.933
 9712SOL     OW30034   5.588   3.709   6.740
 9712SOL    HW130035   5.627   3.628   6.783
 9712SOL    HW230036   5.600   3.788   6.800
 9713SOL     OW30037   0.774   4.431   3.730
 9713SOL    HW130038   0.715   4.421   3.650
 9713SOL    HW230039   0.854   4.371   3.720
 9714SOL     OW30040   3.558   6.647   6.551
 9714SOL    HW130041   3.570   6.714   6.624
 9714SOL    HW230042   3.549   6.556   6.591
 9715SOL     OW30043   5.613   3.757   6.132
 9715SOL    HW130044   5.572   3.673   6.097
 9715SOL    HW230045   5.549   3.833   6.121
 9716SOL     OW30046   3.985   3.926   6.898
 9716SOL    HW130047   3.893   3.942   6.934
 9716SOL    HW230048   4.005   3.991   6.825
 9717SOL     OW30049   5.636   6.692   6.504
 9717SOL    HW130050   5.666   6.784   6.527
 9717SOL    HW230051   5.713   6.628   6.514
 9718SOL     OW30052   4.785   2.748   0.458
 9718SOL    HW130053   4.727   2.827   0.473
 9718SOL    HW230054   4.735   2.664   0.481
 9719SOL     OW30055   6.256   1.573   5.654
 9719SOL    HW130056   6.328   1.511   5.622
 9719SOL    HW230057   6.167   1.528   5.647
 9720SOL     OW30058   0.234   5.240   2.697
 9720SOL    HW130059   0.148   5.278   2.731
 9720SOL    HW230060   0.219   5.201   2.606
 9721SOL     OW30061   6.965   1.525   1.254
 9721SOL    HW130062   6.912   1.448   1.219
 9721SOL    HW230063   6.903   1.593   1.294
 9722SOL     OW30064   6.284   1.030   4.271
 9722SOL    HW130065   6.311   1.110   4.216
 9722SOL    HW230066   6.350   0.957   4.258
 9723SOL     OW30067   2.184   6.707   2.614
 9723SOL    HW130068   2.207   6.667   2.526
 9723SOL    HW230069   2.099   6.667   2.649
 9724SOL     OW30070   1.781   4.462   0.378
 9724SOL    HW130071   1.763   4.556   0.348
 9724SOL    HW230072   1.707   4.431   0.438
 9725SOL     OW30073   4.030   4.973   6.151
 9725SOL    HW130074   4.041   5.070   6.128
 9725SOL    HW230075   3.977   4.928   6.080
 9726SOL     OW30076   5.251   1.168   4.484
 9726SOL    HW130077   5.203   1.171   4.572
 9726SOL    HW230078   5.208   1.233   4.421
 9727SOL     OW30079   1.329   3.673   5.911
 9727SOL    HW130080   1.331   3.685   6.011
 9727SOL    HW230081   1.381   3.592   5.886
 9728SOL     OW30082   0.216   0.757   5.730
 9728SOL    HW130083   0.199   0.741   5.828
 9728SOL    HW230084   0.289   0.696   5.699
 9729SOL     OW30085   0.651   3.906   4.031
 9729SOL    HW130086   0.655   4.005   4.050
 9729SOL    HW230087   0.708   3.858   4.098
 9730SOL     OW30088   1.046   3.642   3.919
 9730SOL    HW130089   0.995   3.663   4.003
 9730SOL    HW230090   1.134   3.689   3.921
 9731SOL     OW30091   4.814   4.487   1.183
 9731SOL    HW130092   4.847   4.403   1.226
 9731SOL    HW230093   4.714   4.490   1.188
 9732SOL     OW30094   6.592   5.602   3.103
 9732SOL    HW130095   6.545   5.660   3.170
 9732SOL    HW230096   6.642   5.529   3.151
 9733SOL     OW30097   5.961   5.170   0.536
 9733SOL    HW130098   5.945   5.166   0.437
 9733SOL    HW230099   5.966   5.266   0.565
 9734SOL     OW30100   6.715   1.797   1.817
 9734SOL    HW130101   6.616   1.802   1.831
 9734SOL    HW230102   6.758   1.757   1.898
 9735SOL     OW30103   2.028   4.185   3.844
 9735SOL    HW130104   2.088   4.158   3.770
 9735SOL    HW230105   2.079   4.187   3.930
 9736SOL     OW30106   6.481   1.256   6.349
 9736SOL    HW130107   6.412   1.206   6.296
 9736SOL    HW230108   6.462   1.354   6.345
 9737SOL     OW30109   5.391   2.584   3.589
 9737SOL    HW130110   5.421   2.606   3.496
 9737SOL    HW230111   5.403   2.486   3.605
 9738SOL     OW30112   1.376   0.244   1.232
 9738SOL    HW130113   1.459   0.221   1.282
 9738SOL    HW230114   1.393   0.324   1.174
 9739SOL     OW30115   5.674   5.072   2.087
 9739SOL    HW130116   5.598   5.131   2.116
 9739SOL    HW230117   5.734   5.054   2.164
 9740SOL     OW30118   6.539   1.411   3.134
 9740SOL    HW130119   6.560   1.314   3.133
 9740SOL    HW230120   6.481   1.433   3.055
 9741SOL     OW30121   3.687   1.123   2.932
 9741SOL    HW130122   3.590   1.127   2.910
 9741SOL    HW230123   3.700   1.062   3.011
 9742SOL     OW30124   4.460   0.172   0.855
 9742SOL    HW130125   4.526   0.214   0.794
 9742SOL    HW230126   4.368   0.184   0.818
 9743SOL     OW30127   0.084   1.940   5.296
 9743SOL    HW130128   0.168   1.995   5.305
 9743SOL    HW230129   0.080   1.874   5.371
 9744SOL     OW30130   0.905   6.720   2.876
 9744SOL    HW130131   0.991   6.674   2.852
 9744SOL    HW230132   0.919   6.819   2.878
 9745SOL     OW30133   5.457   3.447   5.714
 9745SOL    HW130134   5.502   3.400   5.638
 9745SOL    HW230135   5.517   3.444   5.794
 9746SOL     OW30136   6.507   0.316   5.414
 9746SOL    HW130137   6.567   0.396   5.419
 9746SOL    HW230138   6.563   0.233   5.413
 9747SOL     OW30139   2.003   0.801   1.469
 9747SOL    HW130140   2.057   0.821   1.551
 9747SOL    HW230141   2.055   0.825   1.388
 9748SOL     OW30142   0.217   1.545   3.286
 9748SOL    HW130143   0.132   1.540   3.234
 9748SOL    HW230144   0.250   1.640   3.286
 9749SOL     OW30145   2.437   1.187   4.881
 9749SOL    HW130146   2.534   1.173   4.860
 9749SOL    HW230147   2.421   1.169   4.978
 9750SOL     OW30148   5.458   4.526   3.586
 9750SOL    HW130149   5.385   4.482   3.533
 9750SOL    HW230150   5.517   4.456   3.626
 9751SOL     OW30151   0.883   0.946   1.015
 9751SOL    HW130152   0.969   0.903   0.987
 9751SOL    HW230153   0.887   1.044   0.994
 9752SOL     OW30154   4.552   1.772   5.390
 9752SOL    HW130155   4.541   1.674   5.369
 9752SOL    HW230156   4.589   1.819   5.310
 9753SOL     OW30157   5.873   5.975   5.589
 9753SOL    HW130158   5.871   5.976   5.489
 9753SOL    HW230159   5.877   6.069   5.623
 9754SOL     OW30160   0.702   1.387   6.009
 9754SOL    HW130161   0.748   1.470   6.040
 9754SOL    HW230162   0.698   1.321   6.084
 9755SOL     OW30163   3.796   3.101   4.489
 9755SOL    HW130164   3.725   3.095   4.419
 9755SOL    HW230165   3.784   3.186   4.541
 9756SOL     OW30166   6.641   3.663   0.616
 9756SOL    HW130167   6.676   3.753   0.641
 9756SOL    HW230168   6.543   3.658   0.637
 9757SOL     OW30169   5.597   3.902   3.838
 9757SOL    HW130170   5.542   3.870   3.761
 9757SOL    HW230171   5.547   3.973   3.888
 9758SOL     OW30172   2.032   6.408   6.810
 9758SOL    HW130173   2.043   6.366   6.719
 9758SOL    HW230174   1.938   6.437   6.822
 9759SOL     OW30175   1.548   6.901   6.882
 9759SOL    HW130176   1.611   6.858   6.818
 9759SOL    HW230177   1.571   6.998   6.891
 9760SOL     OW30178   4.487   2.494   5.018
 9760SOL    HW130179   4.500   2.565   5.087
 9760SOL    HW230180   4.389   2.478   5.004
 9761SOL     OW30181   5.579   1.334   2.926
 9761SOL    HW130182   5.517   1.321   3.004
 9761SOL    HW230183   5.558   1.420   2.881
 9762SOL     OW30184   3.236   1.017   4.541
 9762SOL    HW130185   3.160   0.955   4.558
 9762SOL    HW230186   3.316   0.987   4.593
 9763SOL     OW30187   5.370   1.984   1.924
 9763SOL    HW130188   5.430   2.018   1.851
 9763SOL    HW230189   5.418   1.992   2.012
 9764SOL     OW30190   0.037   2.848   2.452
 9764SOL    HW130191   0.117   2.881   2.402
 9764SOL    HW230192   0.067   2.798   2.533
 9765SOL     OW30193   6.648   1.598   3.586
 9765SOL    HW130194   6.742   1.562   3.582
 9765SOL    HW230195   6.602   1.581   3.500
 9766SOL     OW30196   2.687   0.163   2.983
 9766SOL    HW130197   2.676   0.158   2.884
 9766SOL    HW230198   2.644   0.247   3.017
 9767SOL     OW30199   5.093   0.976   5.165
 9767SOL    HW130200   5.055   1.053   5.114
 9767SOL    HW230201   5.036   0.957   5.245
 9768SOL     OW30202   5.355   1.829   2.796
 9768SOL    HW130203   5.346   1.928   2.803
 9768SOL    HW230204   5.386   1.805   2.704
 9769SOL     OW30205   3.267   0.969   3.198
 9769SOL    HW130206   3.332   0.932   3.263
 9769SOL    HW230207   3.256   1.067   3.213
 9770SOL     OW30208   5.452   0.022   6.582
 9770SOL    HW130209   5.395   0.089   6.630
 9770SOL    HW230210   5.504   6.984   6.648
 9771SOL     OW30211   2.928   5.724   0.454
 9771SOL    HW130212   2.971   5.709   0.543
 9771SOL    HW230213   2.868   5.646   0.432
 9772SOL     OW30214   1.265   6.004   2.820
 9772SOL    HW130215   1.275   6.069   2.895
 9772SOL    HW230216   1.354   5.961   2.801
 9773SOL     OW30217   5.856   5.437   4.532
 9773SOL    HW130218   5.894   5.506   4.471
 9773SOL    HW230219   5.816   5.481   4.612
 9774SOL     OW30220   0.357   4.881   2.302
 9774SOL    HW130221   0.388   4.790   2.273
 9774SOL    HW230222   0.410   4.951   2.256
 9775SOL     OW30223   2.225   0.807   3.314
 9775SOL    HW130224   2.216   0.708   3.322
 9775SOL    HW230225   2.294   0.840   3.378
 9776SOL     OW30226   1.088   4.462   4.353
 9776SOL    HW130227   1.013   4.481   4.290
 9776SOL    HW230228   1.169   4.435   4.302
 9777SOL     OW30229   6.009   5.129   6.055
 9777SOL    HW130230   6.043   5.209   6.004
 9777SOL    HW230231   5.948   5.076   5.997
 9778SOL     OW30232   0.375   0.778   3.738
 9778SOL    HW130233   0.440   0.791   3.662
 9778SOL    HW230234   0.385   0.685   3.774
 9779SOL     OW30235   1.765   1.521   5.399
 9779SOL    HW130236   1.802   1.446   5.344
 9779SOL    HW230237   1.668   1.507   5.414
 9780SOL     OW30238   2.698   1.841   1.236
 9780SOL    HW130239   2.717   1.743   1.233
 9780SOL    HW230240   2.678   1.868   1.330
 9781SOL     OW30241   1.957   3.869   4.298
 9781SOL    HW130242   1.904   3.845   4.217
 9781SOL    HW230243   1.895   3.878   4.376
 9782SOL     OW30244   6.576   1.059   1.280
 9782SOL    HW130245   6.535   1.045   1.370
 9782SOL    HW230246   6.504   1.067   1.211
 9783SOL     OW30247   4.402   2.144   3.309
 9783SOL    HW130248   4.448   2.077   3.367
 9783SOL    HW230249   4.441   2.140   3.217
 9784SOL     OW30250   4.164   1.357   4.438
 9784SOL    HW130251   4.094   1.399   4.379
 9784SOL    HW230252   4.139   1.262   4.456
 9785SOL     OW30253   1.042   3.324   5.965
 9785SOL    HW130254   1.138   3.330   5.992
 9785SOL    HW230255   1.018   3.404   5.911
 9786SOL     OW30256   2.244   4.263   6.760
 9786SOL    HW130257   2.207   4.206   6.686
 9786SOL    HW230258   2.328   4.307   6.729
 9787SOL     OW30259   4.839   3.688   1.806
 9787SOL    HW130260   4.896   3.754   1.854
 9787SOL    HW230261   4.781   3.735   1.740
 9788SOL     OW30262   0.503   0.369   3.689
 9788SOL    HW130263   0.444   0.289   3.693
 9788SOL    HW230264   0.599   0.340   3.691
 9789SOL     OW30265   1.410   5.407   0.816
 9789SOL    HW130266   1.423   5.460   0.732
 9789SOL    HW230267   1.418   5.310   0.797
 9790SOL     OW30268   5.823   4.256   6.244
 9790SOL    HW130269   5.789   4.215   6.329
 9790SOL    HW230270   5.880   4.189   6.196
 9791SOL     OW30271   0.553   0.660   3.188
 9791SOL    HW130272   0.505   0.716   3.256
 9791SOL    HW230273   0.626   0.714   3.147
 9792SOL     OW30274   5.138   5.374   1.345
 9792SOL    HW130275   5.141   5.472   1.366
 9792SOL    HW230276   5.062   5.332   1.394
 9793SOL     OW30277   4.752   5.861   3.598
 9793SOL    HW130278   4.762   5.881   3.501
 9793SOL    HW230279   4.814   5.919   3.651
 9794SOL     OW30280   6.713   4.167   1.063
 9794SOL    HW130281   6.742   4.182   0.969
 9794SOL    HW230282   6.788   4.191   1.125
 9795SOL     OW30283   2.323   1.761   4.608
 9795SOL    HW130284   2.384   1.829   4.566
 9795SOL    HW230285   2.248   1.740   4.545
 9796SOL     OW30286   4.067   2.318   1.126
 9796SOL    HW130287   4.160   2.353   1.114
 9796SOL    HW230288   4.033   2.342   1.217
 9797SOL     OW30289   2.358   4.965   6.496
 9797SOL    HW130290   2.276   5.023   6.488
 9797SOL    HW230291   2.432   5.018   6.539
 9798SOL     OW30292   2.719   0.269   1.456
 9798SOL    HW130293   2.721   0.368   1.471
 9798SOL    HW230294   2.773   0.223   1.526
 9799SOL     OW30295   3.864   4.073   3.819
 9799SOL    HW130296   3.822   4.121   3.743
 9799SOL    HW230297   3.831   4.112   3.905
 9800SOL     OW30298   3.490   6.553   4.568
 9800SOL    HW130299   3.476   6.460   4.603
 9800SOL    HW230300   3.583   6.582   4.587
 9801SOL     OW30301   4.419   3.635   0.535
 9801SOL    HW130302   4.461   3.643   0.444
 9801SOL    HW230303   4.490   3.610   0.601
 9802SOL     OW30304   0.878   3.069   1.415
 9802SOL    HW130305   0.978   3.069   1.427
 9802SOL    HW230306   0.835   3.103   1.498
 9803SOL     OW30307   0.192   2.410   6.629
 9803SOL    HW130308   0.138   2.449   6.555
 9803SOL    HW230309   0.276   2.463   6.642
 9804SOL     OW30310   0.836   6.736   3.263
 9804SOL    HW130311   0.923   6.784   3.265
 9804SOL    HW230312   0.839   6.664   3.194
 9805SOL     OW30313   1.184   0.668   5.221
 9805SOL    HW130314   1.191   0.669   5.320
 9805SOL    HW230315   1.228   0.750   5.184
 9806SOL     OW30316   1.716   1.059   0.746
 9806SOL    HW130317   1.712   1.155   0.717
 9806SOL    HW230318   1.729   1.000   0.666
 9807SOL     OW30319   2.342   3.154   0.264
 9807SOL    HW130320   2.334   3.106   0.351
 9807SOL    HW230321   2.303   3.099   0.191
 9808SOL     OW30322   4.535   0.605   5.422
 9808SOL    HW130323   4.447   0.626   5.464
 9808SOL    HW230324   4.548   0.506   5.419
 9809SOL     OW30325   0.553   2.050   7.005
 9809SOL    HW130326   0.499   2.064   0.072
 9809SOL    HW230327   0.642   2.014   0.013
 9810SOL     OW30328   2.247   2.752   3.407
 9810SOL    HW130329   2.248   2.782   3.311
 9810SOL    HW230330   2.339   2.722   3.434
 9811SOL     OW30331   5.611   5.030   3.981
 9811SOL    HW130332   5.697   4.989   3.949
 9811SOL    HW230333   5.535   4.971   3.956
 9812SOL     OW30334   3.456   1.965   6.013
 9812SOL    HW130335   3.487   1.870   6.007
 9812SOL    HW230336   3.534   2.026   5.999
 9813SOL     OW30337   5.762   0.586   6.740
 9813SOL    HW130338   5.846   0.611   6.692
 9813SOL    HW230339   5.783   0.523   6.814
 9814SOL     OW30340   0.684   0.484   0.662
 9814SOL    HW130341   0.761   0.443   0.613
 9814SOL    HW230342   0.709   0.501   0.757
 9815SOL     OW30343   5.788   4.255   3.164
 9815SOL    HW130344   5.802   4.156   3.166
 9815SOL    HW230345   5.725   4.281   3.236
 9816SOL     OW30346   6.816   1.348   6.264
 9816SOL    HW130347   6.798   1.251   6.278
 9816SOL    HW230348   6.732   1.393   6.234
 9817SOL     OW30349   2.499   6.087   2.319
 9817SOL    HW130350   2.525   6.035   2.400
 9817SOL    HW230351   2.424   6.040   2.272
 9818SOL     OW30352   1.655   0.761   4.855
 9818SOL    HW130353   1.675   0.859   4.861
 9818SOL    HW230354   1.621   0.728   4.943
 9819SOL     OW30355   5.106   3.075   4.009
 9819SOL    HW130356   5.193   3.055   3.964
 9819SOL    HW230357   5.085   3.172   4.001
 9820SOL     OW30358   4.449   3.330   6.217
 9820SOL    HW130359   4.383   3.336   6.292
 9820SOL    HW230360   4.431   3.248   6.162
 9821SOL     OW30361   4.998   0.397   0.672
 9821SOL    HW130362   4.971   0.449   0.591
 9821SOL    HW230363   5.081   0.437   0.710
 9822SOL     OW30364   2.707   5.960   3.573
 9822SOL    HW130365   2.699   5.898   3.651
 9822SOL    HW230366   2.615   5.983   3.540
 9823SOL     OW30367   2.729   0.526   1.566
 9823SOL    HW130368   2.823   0.520   1.600
 9823SOL    HW230369   2.670   0.561   1.639
 9824SOL     OW30370   1.790   5.752   4.282
 9824SOL    HW130371   1.830   5.843   4.279
 9824SOL    HW230372   1.692   5.758   4.263
 9825SOL     OW30373   5.504   6.414   3.988
 9825SOL    HW130374   5.598   6.411   3.952
 9825SOL    HW230375   5.507   6.410   4.088
 9826SOL     OW30376   4.001   5.920   5.270
 9826SOL    HW130377   3.902   5.929   5.280
 9826SOL    HW230378   4.022   5.840   5.213
 9827SOL     OW30379   1.820   3.508   3.616
 9827SOL    HW130380   1.738   3.505   3.558
 9827SOL    HW230381   1.879   3.431   3.594
 9828SOL     OW30382   3.235   2.561   5.320
 9828SOL    HW130383   3.234   2.471   5.277
 9828SOL    HW230384   3.249   2.552   5.418
 9829SOL     OW30385   4.743   5.857   6.499
 9829SOL    HW130386   4.765   5.764   6.469
 9829SOL    HW230387   4.644   5.865   6.511
 9830SOL     OW30388   5.268   1.343   1.897
 9830SOL    HW130389   5.276   1.417   1.964
 9830SOL    HW230390   5.183   1.293   1.913
 9831SOL     OW30391   1.178   4.770   2.980
 9831SOL    HW130392   1.195   4.867   2.962
 9831SOL    HW230393   1.251   4.733   3.036
 9832SOL     OW30394   5.206   5.506   2.559
 9832SOL    HW130395   5.257   5.592   2.568
 9832SOL    HW230396   5.111   5.522   2.586
 9833SOL     OW30397   3.591   3.828   3.903
 9833SOL    HW130398   3.497   3.849   3.930
 9833SOL    HW230399   3.596   3.825   3.803
 9834SOL     OW30400   2.229   4.762   4.818
 9834SOL    HW130401   2.174   4.834   4.860
 9834SOL    HW230402   2.326   4.782   4.832
 9835SOL     OW30403   3.612   3.403   4.358
 9835SOL    HW130404   3.632   3.359   4.270
 9835SOL    HW230405   3.557   3.342   4.414
 9836SOL     OW30406   0.442   3.963   3.851
 9836SOL    HW130407   0.517   3.914   3.895
 9836SOL    HW230408   0.410   4.036   3.911
 9837SOL     OW30409   4.333   0.713   2.532
 9837SOL    HW130410   4.336   0.704   2.631
 9837SOL    HW230411   4.287   0.798   2.507
 9838SOL     OW30412   1.715   6.838   0.278
 9838SOL    HW130413   1.706   6.924   0.227
 9838SOL    HW230414   1.724   6.762   0.213
 9839SOL     OW30415   4.946   6.656   3.530
 9839SOL    HW130416   4.948   6.634   3.432
 9839SOL    HW230417   5.039   6.650   3.567
 9840SOL     OW30418   5.604   1.978   0.769
 9840SOL    HW130419   5.589   2.014   0.861
 9840SOL    HW230420   5.590   1.879   0.769
 9841SOL     OW30421   0.947   4.226   4.574
 9841SOL    HW130422   1.024   4.205   4.515
 9841SOL    HW230423   0.864   4.237   4.519
 9842SOL     OW30424   3.453   3.534   1.169
 9842SOL    HW130425   3.538   3.587   1.175
 9842SOL    HW230426   3.418   3.537   1.075
 9843SOL     OW30427   6.401   0.100   2.190
 9843SOL    HW130428   6.412   0.050   2.104
 9843SOL    HW230429   6.381   0.035   2.264
 9844SOL     OW30430   5.979   1.151   3.389
 9844SOL    HW130431   5.947   1.226   3.332
 9844SOL    HW230432   5.918   1.072   3.378
 9845SOL     OW30433   1.468   1.757   3.796
 9845SOL    HW130434   1.464   1.834   3.859
 9845SOL    HW230435   1.563   1.730   3.781
 9846SOL     OW30436   3.517   2.441   1.281
 9846SOL    HW130437   3.524   2.342   1.265
 9846SOL    HW230438   3.596   2.472   1.334
 9847SOL     OW30439   3.776   3.215   2.589
 9847SOL    HW130440   3.859   3.254   2.550
 9847SOL    HW230441   3.796   3.123   2.622
 9848SOL     OW30442   4.378   4.507   5.924
 9848SOL    HW130443   4.416   4.589   5.968
 9848SOL    HW230444   4.439   4.477   5.851
 9849SOL     OW30445   1.038   0.364   6.551
 9849SOL    HW130446   1.137   0.363   6.542
 9849SOL    HW230447   1.011   0.309   6.630
 9850SOL     OW30448   6.748   0.710   3.854
 9850SOL    HW130449   6.688   0.644   3.808
 9850SOL    HW230450   6.745   0.797   3.806
 9851SOL     OW30451   1.819   0.466   4.249
 9851SOL    HW130452   1.811   0.508   4.159
 9851SOL    HW230453   1.753   0.391   4.257
 9852SOL     OW30454   2.349   1.698   4.883
 9852SOL    HW130455   2.341   1.598   4.879
 9852SOL    HW230456   2.343   1.736   4.791
 9853SOL     OW30457   6.364   3.424   5.309
 9853SOL    HW130458   6.308   3.408   5.390
 9853SOL    HW230459   6.459   3.399   5.328
 9854SOL     OW30460   0.448   6.117   4.304
 9854SOL    HW130461   0.415   6.103   4.211
 9854SOL    HW230462   0.373   6.099   4.369
 9855SOL     OW30463   2.352   3.359   1.290
 9855SOL    HW130464   2.303   3.280   1.251
 9855SOL    HW230465   2.322   3.374   1.384
 9856SOL     OW30466   5.143   4.466   3.760
 9856SOL    HW130467   5.177   4.372   3.760
 9856SOL    HW230468   5.063   4.473   3.818
 9857SOL     OW30469   5.072   2.626   2.922
 9857SOL    HW130470   5.046   2.703   2.981
 9857SOL    HW230471   5.084   2.544   2.978
 9858SOL     OW30472   0.404   6.636   1.525
 9858SOL    HW130473   0.377   6.680   1.439
 9858SOL    HW230474   0.375   6.694   1.602
 9859SOL     OW30475   6.631   5.550   3.612
 9859SOL    HW130476   6.535   5.525   3.607
 9859SOL    HW230477   6.652   5.581   3.705
 9860SOL     OW30478   2.537   2.103   4.907
 9860SOL    HW130479   2.597   2.075   4.833
 9860SOL    HW230480   2.449   2.133   4.870
 9861SOL     OW30481   2.797   0.252   3.334
 9861SOL    HW130482   2.873   0.268   3.397
 9861SOL    HW230483   2.801   0.157   3.301
 9862SOL     OW30484   2.678   3.460   6.875
 9862SOL    HW130485   2.688   3.559   6.875
 9862SOL    HW230486   2.610   3.433   6.806
 9863SOL     OW30487   2.798   6.184   1.324
 9863SOL    HW130488   2.731   6.255   1.302
 9863SOL    HW230489   2.878   6.226   1.368
 9864SOL     OW30490   3.307   0.532   4.495
 9864SOL    HW130491   3.223   0.570   4.457
 9864SOL    HW230492   3.372   0.514   4.421
 9865SOL     OW30493   1.359   6.384   4.446
 9865SOL    HW130494   1.415   6.314   4.491
 9865SOL    HW230495   1.413   6.430   4.376
 9866SOL     OW30496   6.168   4.473   5.937
 9866SOL    HW130497   6.124   4.524   6.011
 9866SOL    HW230498   6.197   4.537   5.866
 9867SOL     OW30499   6.894   1.703   2.005
 9867SOL    HW130500   6.964   1.740   2.066
 9867SOL    HW230501   6.839   1.636   2.054
 9868SOL     OW30502   0.096   3.281   4.590
 9868SOL    HW130503   0.077   3.361   4.533
 9868SOL    HW230504   0.189   3.249   4.572
 9869SOL     OW30505   0.123   2.311   1.322
 9869SOL    HW130506   0.129   2.214   1.348
 9869SOL    HW230507   0.032   2.346   1.345
 9870SOL     OW30508   4.068   5.692   2.652
 9870SOL    HW130509   4.029   5.752   2.582
 9870SOL    HW230510   4.105   5.610   2.607
 9871SOL     OW30511   6.566   4.250   5.778
 9871SOL    HW130512   6.594   4.226   5.685
 9871SOL    HW230513   6.646   4.278   5.831
 9872SOL     OW30514   3.328   5.351   4.502
 9872SOL    HW130515   3.244   5.400   4.526
 9872SOL    HW230516   3.402   5.417   4.488
 9873SOL     OW30517   2.298   2.656   0.821
 9873SOL    HW130518   2.200   2.671   0.830
 9873SOL    HW230519   2.319   2.561   0.845
 9874SOL     OW30520   7.015   2.791   5.757
 9874SOL    HW130521   6.982   2.853   5.686
 9874SOL    HW230522   6.997   2.696   5.729
 9875SOL     OW30523   6.273   5.966   3.105
 9875SOL    HW130524   6.328   6.047   3.084
 9875SOL    HW230525   6.179   5.993   3.125
 9876SOL     OW30526   5.325   0.063   3.859
 9876SOL    HW130527   5.380   0.145   3.876
 9876SOL    HW230528   5.377   7.014   3.803
 9877SOL     OW30529   0.031   4.536   4.159
 9877SOL    HW130530   0.031   4.604   4.232
 9877SOL    HW230531   6.953   4.509   4.137
 9878SOL     OW30532   2.883   3.301   5.955
 9878SOL    HW130533   2.956   3.234   5.946
 9878SOL    HW230534   2.798   3.263   5.917
 9879SOL     OW30535   5.985   4.740   5.561
 9879SOL    HW130536   5.979   4.776   5.655
 9879SOL    HW230537   6.072   4.691   5.550
 9880SOL     OW30538   2.793   0.884   1.002
 9880SOL    HW130539   2.839   0.878   1.091
 9880SOL    HW230540   2.861   0.891   0.930
 9881SOL     OW30541   6.859   1.921   4.464
 9881SOL    HW130542   6.930   1.854   4.486
 9881SOL    HW230543   6.769   1.878   4.472
 9882SOL     OW30544   3.198   3.961   5.875
 9882SOL    HW130545   3.159   3.870   5.863
 9882SOL    HW230546   3.282   3.954   5.930
 9883SOL     OW30547   0.785   6.439   1.500
 9883SOL    HW130548   0.695   6.448   1.458
 9883SOL    HW230549   0.778   6.455   1.598
 9884SOL     OW30550   4.163   1.677   0.980
 9884SOL    HW130551   4.132   1.704   0.888
 9884SOL    HW230552   4.093   1.621   1.023
 9885SOL     OW30553   0.521   3.374   4.795
 9885SOL    HW130554   0.590   3.306   4.770
 9885SOL    HW230555   0.558   3.466   4.782
 9886SOL     OW30556   0.478   6.217   1.816
 9886SOL    HW130557   0.452   6.152   1.888
 9886SOL    HW230558   0.529   6.168   1.745
 9887SOL     OW30559   3.490   0.291   0.291
 9887SOL    HW130560   3.432   0.246   0.223
 9887SOL    HW230561   3.557   0.348   0.244
 9888SOL     OW30562   5.764   5.245   3.440
 9888SOL    HW130563   5.743   5.218   3.534
 9888SOL    HW230564   5.862   5.264   3.432
 9889SOL     OW30565   0.300   4.708   1.772
 9889SOL    HW130566   0.331   4.675   1.683
 9889SOL    HW230567   0.201   4.697   1.780
 9890SOL     OW30568   0.257   2.865   0.935
 9890SOL    HW130569   0.270   2.927   1.013
 9890SOL    HW230570   0.344   2.818   0.916
 9891SOL     OW30571   5.950   4.692   1.373
 9891SOL    HW130572   5.914   4.603   1.399
 9891SOL    HW230573   5.995   4.684   1.284
 9892SOL     OW30574   1.535   5.289   3.022
 9892SOL    HW130575   1.548   5.202   2.974
 9892SOL    HW230576   1.468   5.344   2.974
 9893SOL     OW30577   6.414   6.937   1.972
 9893SOL    HW130578   6.392   6.845   1.941
 9893SOL    HW230579   6.511   6.942   1.996
 9894SOL     OW30580   2.941   1.557   6.318
 9894SOL    HW130581   2.866   1.515   6.369
 9894SOL    HW230582   2.984   1.628   6.375
 9895SOL     OW30583   6.214   2.442   5.596
 9895SOL    HW130584   6.193   2.412   5.689
 9895SOL    HW230585   6.136   2.425   5.536
 9896SOL     OW30586   5.111   1.870   1.022
 9896SOL    HW130587   5.183   1.849   1.088
 9896SOL    HW230588   5.051   1.940   1.061
 9897SOL     OW30589   4.605   0.769   2.898
 9897SOL    HW130590   4.603   0.702   2.823
 9897SOL    HW230591   4.531   0.751   2.962
 9898SOL     OW30592   6.802   4.726   5.246
 9898SOL    HW130593   6.777   4.629   5.250
 9898SOL    HW230594   6.726   4.779   5.208
 9899SOL     OW30595   6.739   5.291   2.380
 9899SOL    HW130596   6.642   5.289   2.354
 9899SOL    HW230597   6.767   5.386   2.397
 9900SOL     OW30598   1.687   2.431   2.722
 9900SOL    HW130599   1.713   2.512   2.669
 9900SOL    HW230600   1.593   2.440   2.754
 9901SOL     OW30601   1.982   1.191   6.949
 9901SOL    HW130602   2.043   1.240   6.887
 9901SOL    HW230603   2.030   1.112   6.987
 9902SOL     OW30604   4.097   3.959   1.364
 9902SOL    HW130605   4.173   3.897   1.384
 9902SOL    HW230606   4.115   4.007   1.279
 9903SOL     OW30607   5.099   6.725   2.163
 9903SOL    HW130608   5.094   6.719   2.263
 9903SOL    HW230609   5.014   6.692   2.123
 9904SOL     OW30610   0.219   4.087   6.870
 9904SOL    HW130611   0.137   4.049   6.828
 9904SOL    HW230612   0.205   4.184   6.889
 9905SOL     OW30613   1.321   6.469   6.754
 9905SOL    HW130614   1.315   6.454   6.656
 9905SOL    HW230615   1.271   6.551   6.779
 9906SOL     OW30616   2.022   3.461   6.824
 9906SOL    HW130617   2.034   3.362   6.835
 9906SOL    HW230618   2.079   3.510   6.889
 9907SOL     OW30619   1.535   0.643   3.577
 9907SOL    HW130620   1.573   0.730   3.546
 9907SOL    HW230621   1.435   0.648   3.574
 9908SOL     OW30622   0.646   3.604   5.716
 9908SOL    HW130623   0.683   3.547   5.642
 9908SOL    HW230624   0.646   3.552   5.802
 9909SOL     OW30625   3.471   0.192   3.412
 9909SOL    HW130626   3.466   0.101   3.370
 9909SOL    HW230627   3.476   0.262   3.341
 9910SOL     OW30628   1.554   5.435   1.372
 9910SOL    HW130629   1.495   5.468   1.446
 9910SOL    HW230630   1.516   5.461   1.284
 9911SOL     OW30631   4.469   5.835   2.263
 9911SOL    HW130632   4.384   5.875   2.299
 9911SOL    HW230633   4.493   5.753   2.315
 9912SOL     OW30634   4.066   0.764   1.249
 9912SOL    HW130635   4.156   0.723   1.260
 9912SOL    HW230636   4.001   0.721   1.313
 9913SOL     OW30637   6.371   3.816   1.912
 9913SOL    HW130638   6.441   3.873   1.955
 9913SOL    HW230639   6.304   3.788   1.981
 9914SOL     OW30640   0.916   0.735   5.563
 9914SOL    HW130641   1.012   0.737   5.534
 9914SOL    HW230642   0.906   0.672   5.639
 9915SOL     OW30643   4.770   2.966   4.241
 9915SOL    HW130644   4.863   2.950   4.207
 9915SOL    HW230645   4.715   2.883   4.228
 9916SOL     OW30646   1.780   2.260   3.384
 9916SOL    HW130647   1.822   2.199   3.317
 9916SOL    HW230648   1.688   2.229   3.405
 9917SOL     OW30649   3.203   3.604   4.741
 9917SOL    HW130650   3.295   3.584   4.775
 9917SOL    HW230651   3.208   3.677   4.672
 9918SOL     OW30652   0.864   2.056   1.645
 9918SOL    HW130653   0.847   2.154   1.653
 9918SOL    HW230654   0.947   2.032   1.696
 9919SOL     OW30655   2.540   5.934   1.070
 9919SOL    HW130656   2.546   5.941   1.170
 9919SOL    HW230657   2.452   5.972   1.040
 9920SOL     OW30658   3.312   0.264   2.861
 9920SOL    HW130659   3.263   0.212   2.792
 9920SOL    HW230660   3.249   0.328   2.905
 9921SOL     OW30661   4.887   6.336   4.476
 9921SOL    HW130662   4.911   6.239   4.475
 9921SOL    HW230663   4.808   6.352   4.416
 9922SOL     OW30664   4.646   4.543   0.928
 9922SOL    HW130665   4.602   4.494   1.003
 9922SOL    HW230666   4.578   4.562   0.857
 9923SOL     OW30667   6.867   3.308   6.657
 9923SOL    HW130668   6.902   3.287   6.566
 9923SOL    HW230669   6.943   3.315   6.722
 9924SOL     OW30670   4.999   1.980   3.591
 9924SOL    HW130671   4.992   1.885   3.620
 9924SOL    HW230672   4.908   2.014   3.568
 9925SOL     OW30673   1.631   4.302   4.169
 9925SOL    HW130674   1.577   4.358   4.107
 9925SOL    HW230675   1.677   4.360   4.236
 9926SOL     OW30676   3.460   2.513   0.681
 9926SOL    HW130677   3.422   2.421   0.668
 9926SOL    HW230678   3.387   2.581   0.678
 9927SOL     OW30679   0.904   2.191   0.536
 9927SOL    HW130680   0.856   2.123   0.592
 9927SOL    HW230681   0.886   2.282   0.570
 9928SOL     OW30682   5.359   3.736   2.681
 9928SOL    HW130683   5.320   3.807   2.622
 9928SOL    HW230684   5.289   3.667   2.699
 9929SOL     OW30685   3.626   4.188   5.105
 9929SOL    HW130686   3.651   4.102   5.062
 9929SOL    HW230687   3.706   4.247   5.112
 9930SOL     OW30688   0.691   0.201   6.057
 9930SOL    HW130689   0.654   0.235   5.971
 9930SOL    HW230690   0.634   0.126   6.090
 9931SOL     OW30691   6.958   5.478   4.836
 9931SOL    HW130692   6.972   5.408   4.767
 9931SOL    HW230693   0.017   5.474   4.903
 9932SOL     OW30694   1.641   1.292   6.720
 9932SOL    HW130695   1.676   1.259   6.632
 9932SOL    HW230696   1.716   1.331   6.773
 9933SOL     OW30697   1.449   1.212   4.287
 9933SOL    HW130698   1.516   1.226   4.215
 9933SOL    HW230699   1.393   1.132   4.265
 9934SOL     OW30700   6.207   1.620   6.732
 9934SOL    HW130701   6.159   1.550   6.785
 9934SOL    HW230702   6.182   1.711   6.767
 9935SOL     OW30703   2.283   0.995   0.562
 9935SOL    HW130704   2.282   0.906   0.516
 9935SOL    HW230705   2.336   1.060   0.507
 9936SOL     OW30706   6.750   5.240   0.108
 9936SOL    HW130707   6.829   5.288   0.071
 9936SOL    HW230708   6.770   5.209   0.202
 9937SOL     OW30709   1.509   1.128   3.334
 9937SOL    HW130710   1.584   1.063   3.339
 9937SOL    HW230711   1.528   1.206   3.394
 9938SOL     OW30712   5.921   0.165   3.845
 9938SOL    HW130713   6.013   0.169   3.883
 9938SOL    HW230714   5.914   0.229   3.768
 9939SOL     OW30715   2.252   2.620   1.186
 9939SOL    HW130716   2.323   2.684   1.157
 9939SOL    HW230717   2.237   2.629   1.284
 9940SOL     OW30718   0.813   0.634   3.879
 9940SOL    HW130719   0.827   0.537   3.860
 9940SOL    HW230720   0.743   0.644   3.949
 9941SOL     OW30721   3.155   5.653   5.724
 9941SOL    HW130722   3.243   5.617   5.754
 9941SOL    HW230723   3.137   5.740   5.770
 9942SOL     OW30724   4.594   5.579   1.357
 9942SOL    HW130725   4.555   5.510   1.296
 9942SOL    HW230726   4.588   5.547   1.452
 9943SOL     OW30727   0.796   3.962   6.247
 9943SOL    HW130728   0.788   3.938   6.150
 9943SOL    HW230729   0.718   4.018   6.274
 9944SOL     OW30730   0.226   5.560   6.660
 9944SOL    HW130731   0.231   5.650   6.615
 9944SOL    HW230732   0.196   5.572   6.755
 9945SOL     OW30733   5.267   4.204   6.627
 9945SOL    HW130734   5.284   4.128   6.563
 9945SOL    HW230735   5.316   4.285   6.595
 9946SOL     OW30736   6.006   0.338   2.951
 9946SOL    HW130737   5.919   0.330   2.903
 9946SOL    HW230738   5.993   0.318   3.048
 9947SOL     OW30739   2.226   1.343   4.201
 9947SOL    HW130740   2.308   1.357   4.145
 9947SOL    HW230741   2.169   1.425   4.198
 9948SOL     OW30742   6.829   5.803   5.684
 9948SOL    HW130743   6.892   5.880   5.688
 9948SOL    HW230744   6.826   5.768   5.590
 9949SOL     OW30745   6.987   5.112   4.399
 9949SOL    HW130746   6.923   5.189   4.402
 9949SOL    HW230747   6.985   5.064   4.487
 9950SOL     OW30748   6.756   6.111   5.816
 9950SOL    HW130749   6.712   6.087   5.903
 9950SOL    HW230750   6.844   6.064   5.809
 9951SOL     OW30751   2.034   2.300   2.470
 9951SOL    HW130752   2.054   2.280   2.374
 9951SOL    HW230753   1.952   2.251   2.498
 9952SOL     OW30754   1.743   3.815   0.677
 9952SOL    HW130755   1.675   3.871   0.629
 9952SOL    HW230756   1.702   3.729   0.705
 9953SOL     OW30757   5.363   3.027   3.891
 9953SOL    HW130758   5.396   3.099   3.830
 9953SOL    HW230759   5.377   2.938   3.848
 9954SOL     OW30760   1.387   0.101   4.988
 9954SOL    HW130761   1.387   0.065   4.895
 9954SOL    HW230762   1.480   0.100   5.025
 9955SOL     OW30763   4.155   3.748   6.753
 9955SOL    HW130764   4.125   3.746   6.658
 9955SOL    HW230765   4.084   3.788   6.810
 9956SOL     OW30766   0.623   3.423   2.633
 9956SOL    HW130767   0.687   3.353   2.602
 9956SOL    HW230768   0.671   3.489   2.691
 9957SOL     OW30769   5.727   0.099   1.729
 9957SOL    HW130770   5.704   0.195   1.713
 9957SOL    HW230771   5.756   0.086   1.824
 9958SOL     OW30772   3.341   6.141   5.620
 9958SOL    HW130773   3.411   6.198   5.663
 9958SOL    HW230774   3.312   6.070   5.684
 9959SOL     OW30775   4.114   3.524   2.464
 9959SOL    HW130776   4.214   3.531   2.466
 9959SOL    HW230777   4.074   3.614   2.476
 9960SOL     OW30778   0.666   6.168   1.474
 9960SOL    HW130779   0.679   6.146   1.377
 9960SOL    HW230780   0.696   6.261   1.492
 9961SOL     OW30781   2.276   4.382   3.137
 9961SOL    HW130782   2.352   4.432   3.096
 9961SOL    HW230783   2.279   4.286   3.108
 9962SOL     OW30784   3.690   0.577   2.285
 9962SOL    HW130785   3.619   0.641   2.312
 9962SOL    HW230786   3.771   0.628   2.254
 9963SOL     OW30787   2.696   3.190   6.207
 9963SOL    HW130788   2.627   3.255   6.240
 9963SOL    HW230789   2.664   3.148   6.122
 9964SOL     OW30790   4.280   5.149   5.855
 9964SOL    HW130791   4.297   5.140   5.953
 9964SOL    HW230792   4.309   5.066   5.808
 9965SOL     OW30793   3.316   4.987   5.084
 9965SOL    HW130794   3.218   4.972   5.071
 9965SOL    HW230795   3.359   5.003   4.995
 9966SOL     OW30796   2.318   4.780   1.689
 9966SOL    HW130797   2.245   4.822   1.743
 9966SOL    HW230798   2.296   4.787   1.592
 9967SOL     OW30799   6.126   5.012   2.346
 9967SOL    HW130800   6.049   5.059   2.302
 9967SOL    HW230801   6.211   5.059   2.323
 9968SOL     OW30802   4.114   5.750   6.505
 9968SOL    HW130803   4.187   5.683   6.521
 9968SOL    HW230804   4.043   5.708   6.448
 9969SOL     OW30805   1.559   2.840   3.577
 9969SOL    HW130806   1.606   2.839   3.665
 9969SOL    HW230807   1.626   2.850   3.504
 9970SOL     OW30808   0.005   4.698   2.355
 9970SOL    HW130809   6.980   4.609   2.333
 9970SOL    HW230810   0.085   4.685   2.414
 9971SOL     OW30811   2.455   3.877   0.583
 9971SOL    HW130812   2.473   3.891   0.681
 9971SOL    HW230813   2.369   3.923   0.559
 9972SOL     OW30814   3.362   4.676   0.934
 9972SOL    HW130815   3.435   4.676   1.002
 9972SOL    HW230816   3.274   4.659   0.978
 9973SOL     OW30817   3.926   2.121   4.803
 9973SOL    HW130818   3.908   2.122   4.902
 9973SOL    HW230819   3.912   2.028   4.768
 9974SOL     OW30820   6.467   2.846   2.875
 9974SOL    HW130821   6.394   2.801   2.926
 9974SOL    HW230822   6.429   2.922   2.822
 9975SOL     OW30823   0.176   4.674   6.864
 9975SOL    HW130824   0.104   4.638   6.804
 9975SOL    HW230825   0.255   4.699   6.808
 9976SOL     OW30826   0.214   5.065   5.049
 9976SOL    HW130827   0.247   5.048   5.142
 9976SOL    HW230828   0.126   5.019   5.035
 9977SOL     OW30829   6.962   5.489   6.135
 9977SOL    HW130830   6.992   5.582   6.154
 9977SOL    HW230831   6.890   5.463   6.199
 9978SOL     OW30832   6.173   1.777   5.097
 9978SOL    HW130833   6.149   1.757   5.192
 9978SOL    HW230834   6.195   1.692   5.049
 9979SOL     OW30835   6.467   4.229   6.041
 9979SOL    HW130836   6.375   4.222   6.001
 9979SOL    HW230837   6.533   4.252   5.969
 9980SOL     OW30838   1.467   0.769   0.315
 9980SOL    HW130839   1.402   0.757   0.240
 9980SOL    HW230840   1.452   0.858   0.358
 9981SOL     OW30841   3.049   1.765   0.428
 9981SOL    HW130842   3.028   1.812   0.514
 9981SOL    HW230843   3.143   1.732   0.430
 9982SOL     OW30844   0.641   1.820   3.761
 9982SOL    HW130845   0.701   1.773   3.825
 9982SOL    HW230846   0.695   1.876   3.698
 9983SOL     OW30847   0.995   0.794   1.627
 9983SOL    HW130848   1.038   0.713   1.588
 9983SOL    HW230849   1.065   0.851   1.670
 9984SOL     OW30850   0.348   0.052   0.500
 9984SOL    HW130851   0.400   0.124   0.547
 9984SOL    HW230852   0.409   6.992   0.479
 9985SOL     OW30853   3.390   0.101   1.255
 9985SOL    HW130854   3.343   0.034   1.311
 9985SOL    HW230855   3.419   0.059   1.169
 9986SOL     OW30856   5.322   4.528   6.873
 9986SOL    HW130857   5.398   4.588   6.900
 9986SOL    HW230858   5.349   4.476   6.792
 9987SOL     OW30859   6.287   1.969   2.140
 9987SOL    HW130860   6.303   1.979   2.041
 9987SOL    HW230861   6.374   1.958   2.187
 9988SOL     OW30862   0.206   4.904   4.697
 9988SOL    HW130863   0.207   4.849   4.781
 9988SOL    HW230864   0.298   4.936   4.677
 9989SOL     OW30865   5.803   3.983   3.147
 9989SOL    HW130866   5.736   3.913   3.169
 9989SOL    HW230867   5.878   3.942   3.095
 9990SOL     OW30868   2.470   0.541   3.490
 9990SOL    HW130869   2.456   0.468   3.422
 9990SOL    HW230870   2.548   0.516   3.548
 9991SOL     OW30871   1.494   3.121   4.476
 9991SOL    HW130872   1.538   3.049   4.422
 9991SOL    HW230873   1.520   3.211   4.439
 9992SOL     OW30874   3.710   3.693   0.915
 9992SOL    HW130875   3.739   3.778   0.872
 9992SOL    HW230876   3.692   3.710   1.012
 9993SOL     OW30877   3.726   6.273   3.018
 9993SOL    HW130878   3.652   6.312   3.073
 9993SOL    HW230879   3.741   6.329   2.937
 9994SOL     OW30880   0.167   3.920   3.206
 9994SOL    HW130881   0.246   3.914   3.145
 9994SOL    HW230882   0.083   3.921   3.151
 9995SOL     OW30883   3.303   0.042   3.822
 9995SOL    HW130884   3.315   0.023   3.919
 9995SOL    HW230885   3.373   0.106   3.791
 9996SOL     OW30886   2.996   3.154   1.069
 9996SOL    HW130887   2.918   3.212   1.092
 9996SOL    HW230888   2.968   3.088   1.000
 9997SOL     OW30889   5.065   1.264   1.468
 9997SOL    HW130890   5.155   1.222   1.477
 9997SOL    HW230891   5.021   1.230   1.384
 9998SOL     OW30892   5.161   4.171   2.548
 9998SOL    HW130893   5.252   4.202   2.578
 9998SOL    HW230894   5.092   4.232   2.586
 9999SOL     OW30895   6.846   5.661   5.418
 9999SOL    HW130896   6.828   5.563   5.406
 9999SOL    HW230897   6.930   5.686   5.368
10000SOL     OW30898   6.270   2.420   6.743
10000SOL    HW130899   6.366   2.450   6.741
10000SOL    HW230900   6.211   2.500   6.753
10001SOL     OW30901   4.200   0.553   1.477
10001SOL    HW130902   4.173   0.520   1.567
10001SOL    HW230903   4.181   0.482   1.409
10002SOL     OW30904   1.127   1.222   1.952
10002SOL    HW130905   1.149   1.242   2.048
10002SOL    HW230906   1.031   1.197   1.945
10003SOL     OW30907   3.001   1.995   2.328
10003SOL    HW130908   2.949   1.910   2.330
10003SOL    HW230909   2.955   2.061   2.269
10004SOL     OW30910   5.512   3.169   5.129
10004SOL    HW130911   5.526   3.222   5.045
10004SOL    HW230912   5.494   3.073   5.105
10005SOL     OW30913   3.710   5.460   2.876
10005SOL    HW130914   3.732   5.362   2.869
10005SOL    HW230915   3.795   5.511   2.893
10006SOL     OW30916   5.580   1.503   5.422
10006SOL    HW130917   5.614   1.431   5.483
10006SOL    HW230918   5.483   1.518   5.439
10007SOL     OW30919   0.801   3.189   4.136
10007SOL    HW130920   0.884   3.242   4.120
10007SOL    HW230921   0.824   3.093   4.149
10008SOL     OW30922   3.780   1.445   2.977
10008SOL    HW130923   3.740   1.523   3.025
10008SOL    HW230924   3.757   1.361   3.026
10009SOL     OW30925   2.159   4.251   1.568
10009SOL    HW130926   2.179   4.346   1.546
10009SOL    HW230927   2.081   4.220   1.513
10010SOL     OW30928   1.855   6.058   0.533
10010SOL    HW130929   1.892   5.996   0.464
10010SOL    HW230930   1.920   6.068   0.608
10011SOL     OW30931   0.664   3.269   6.773
10011SOL    HW130932   0.716   3.345   6.734
10011SOL    HW230933   0.666   3.274   6.873
10012SOL     OW30934   5.306   6.315   2.086
10012SOL    HW130935   5.311   6.381   2.011
10012SOL    HW230936   5.392   6.317   2.138
10013SOL     OW30937   2.175   1.630   4.417
10013SOL    HW130938   2.237   1.602   4.344
10013SOL    HW230939   2.119   1.552   4.445
10014SOL     OW30940   0.318   1.772   1.517
10014SOL    HW130941   0.352   1.792   1.425
10014SOL    HW230942   0.378   1.814   1.585
10015SOL     OW30943   4.116   4.884   0.057
10015SOL    HW130944   4.072   4.820   7.009
10015SOL    HW230945   4.115   4.845   0.149
10016SOL     OW30946   1.697   0.202   4.873
10016SOL    HW130947   1.626   0.272   4.877
10016SOL    HW230948   1.714   0.167   4.965
10017SOL     OW30949   1.925   1.552   2.574
10017SOL    HW130950   1.889   1.643   2.558
10017SOL    HW230951   1.975   1.551   2.661
10018SOL     OW30952   6.462   4.627   6.011
10018SOL    HW130953   6.539   4.582   6.056
10018SOL    HW230954   6.472   4.619   5.912
10019SOL     OW30955   0.483   2.076   3.138
10019SOL    HW130956   0.458   1.981   3.116
10019SOL    HW230957   0.576   2.078   3.175
10020SOL     OW30958   0.651   0.966   1.448
10020SOL    HW130959   0.610   0.888   1.402
10020SOL    HW230960   0.587   1.043   1.446
10021SOL     OW30961   0.992   1.889   2.404
10021SOL    HW130962   1.066   1.891   2.471
10021SOL    HW230963   0.953   1.797   2.399
10022SOL     OW30964   3.897   0.240   1.112
10022SOL    HW130965   3.981   0.273   1.071
10022SOL    HW230966   3.877   0.147   1.079
10023SOL     OW30967   2.414   4.957   5.160
10023SOL    HW130968   2.416   4.877   5.100
10023SOL    HW230969   2.506   4.995   5.168
10024SOL     OW30970   1.528   6.184   2.003
10024SOL    HW130971   1.514   6.282   1.989
10024SOL    HW230972   1.442   6.143   2.034
10025SOL     OW30973   2.254   2.137   1.600
10025SOL    HW130974   2.328   2.095   1.548
10025SOL    HW230975   2.174   2.076   1.601
10026SOL     OW30976   4.388   6.105   2.879
10026SOL    HW130977   4.343   6.171   2.938
10026SOL    HW230978   4.322   6.038   2.847
10027SOL     OW30979   1.098   3.738   4.882
10027SOL    HW130980   1.031   3.810   4.896
10027SOL    HW230981   1.187   3.778   4.863
10028SOL     OW30982   1.149   1.447   2.170
10028SOL    HW130983   1.143   1.435   2.269
10028SOL    HW230984   1.058   1.439   2.130
10029SOL     OW30985   2.370   1.595   4.171
10029SOL    HW130986   2.423   1.522   4.214
10029SOL    HW230987   2.374   1.584   4.071
10030SOL     OW30988   2.067   0.403   4.719
10030SOL    HW130989   2.024   0.454   4.645
10030SOL    HW230990   2.063   0.458   4.803
10031SOL     OW30991   5.766   4.645   4.000
10031SOL    HW130992   5.690   4.686   4.051
10031SOL    HW230993   5.851   4.691   4.024
10032SOL     OW30994   3.733   0.357   5.221
10032SOL    HW130995   3.764   0.419   5.149
10032SOL    HW230996   3.645   0.316   5.195
10033SOL     OW30997   4.593   1.722   4.164
10033SOL    HW130998   4.664   1.743   4.232
10033SOL    HW230999   4.534   1.649   4.199
10034SOL     OW31000   3.802   0.336   4.253
10034SOL    HW131001   3.707   0.327   4.283
10034SOL    HW231002   3.852   0.394   4.318
10035SOL     OW31003   0.208   4.626   2.555
10035SOL    HW131004   0.253   4.706   2.596
10035SOL    HW231005   0.166   4.571   2.627
10036SOL     OW31006   5.938   0.392   1.105
10036SOL    HW131007   5.898   0.471   1.060
10036SOL    HW231008   6.025   0.418   1.148
10037SOL     OW31009   5.941   1.517   0.678
10037SOL    HW131010   5.887   1.456   0.737
10037SOL    HW231011   5.910   1.611   0.691
10038SOL     OW31012   4.189   1.187   6.380
10038SOL    HW131013   4.162   1.271   6.334
10038SOL    HW231014   4.174   1.196   6.479
10039SOL     OW31015   4.115   0.123   4.802
10039SOL    HW131016   4.096   0.065   4.723
10039SOL    HW231017   4.043   0.111   4.870
10040SOL     OW31018   4.395   5.700   6.195
10040SOL    HW131019   4.409   5.617   6.249
10040SOL    HW231020   4.435   5.779   6.242
10041SOL     OW31021   4.433   5.910   6.477
10041SOL    HW131022   4.428   6.009   6.462
10041SOL    HW231023   4.390   5.888   6.564
10042SOL     OW31024   1.386   2.081   4.916
10042SOL    HW131025   1.470   2.070   4.969
10042SOL    HW231026   1.368   1.998   4.863
10043SOL     OW31027   0.262   2.530   4.225
10043SOL    HW131028   0.226   2.595   4.158
10043SOL    HW231029   0.191   2.463   4.247
10044SOL     OW31030   2.835   1.439   4.853
10044SOL    HW131031   2.868   1.490   4.773
10044SOL    HW231032   2.750   1.480   4.885
10045SOL     OW31033   4.766   0.081   3.392
10045SOL    HW131034   4.755   7.015   3.449
10045SOL    HW231035   4.678   0.108   3.354
10046SOL     OW31036   2.060   3.756   1.607
10046SOL    HW131037   2.091   3.776   1.514
10046SOL    HW231038   2.139   3.754   1.668
10047SOL     OW31039   6.514   3.690   5.051
10047SOL    HW131040   6.442   3.628   5.082
10047SOL    HW231041   6.562   3.728   5.129
10048SOL     OW31042   6.040   1.196   2.764
10048SOL    HW131043   6.010   1.184   2.670
10048SOL    HW231044   6.133   1.161   2.774
10049SOL     OW31045   0.041   0.140   6.902
10049SOL    HW131046   7.009   0.203   6.964
10049SOL    HW231047   0.056   0.053   6.949
10050SOL     OW31048   6.055   3.186   4.215
10050SOL    HW131049   5.975   3.128   4.201
10050SOL    HW231050   6.037   3.277   4.179
10051SOL     OW31051   4.935   2.449   5.193
10051SOL    HW131052   4.930   2.458   5.293
10051SOL    HW231053   4.920   2.538   5.151
10052SOL     OW31054   2.285   1.799   2.835
10052SOL    HW131055   2.350   1.873   2.856
10052SOL    HW231056   2.258   1.805   2.739
10053SOL     OW31057   2.977   5.777   2.509
10053SOL    HW131058   2.930   5.689   2.502
10053SOL    HW231059   3.050   5.782   2.440
10054SOL     OW31060   5.406   5.623   6.285
10054SOL    HW131061   5.323   5.679   6.290
10054SOL    HW231062   5.388   5.541   6.232
10055SOL     OW31063   5.920   2.321   4.723
10055SOL    HW131064   5.846   2.277   4.671
10055SOL    HW231065   5.970   2.252   4.775
10056SOL     OW31066   5.527   4.187   3.405
10056SOL    HW131067   5.510   4.285   3.397
10056SOL    HW231068   5.617   4.172   3.444
10057SOL     OW31069   4.336   1.732   4.729
10057SOL    HW131070   4.260   1.685   4.686
10057SOL    HW231071   4.331   1.720   4.828
10058SOL     OW31072   0.333   3.530   4.387
10058SOL    HW131073   0.272   3.451   4.398
10058SOL    HW231074   0.416   3.515   4.439
10059SOL     OW31075   5.962   7.015   1.530
10059SOL    HW131076   6.050   7.013   1.578
10059SOL    HW231077   5.909   0.079   1.561
10060SOL     OW31078   1.202   2.030   1.314
10060SOL    HW131079   1.270   2.069   1.252
10060SOL    HW231080   1.152   1.958   1.266
10061SOL     OW31081   4.248   1.530   3.760
10061SOL    HW131082   4.344   1.503   3.751
10061SOL    HW231083   4.242   1.629   3.772
10062SOL     OW31084   5.997   6.970   4.336
10062SOL    HW131085   6.031   6.921   4.255
10062SOL    HW231086   6.023   0.051   4.330
10063SOL     OW31087   2.280   0.885   3.748
10063SOL    HW131088   2.275   0.806   3.687
10063SOL    HW231089   2.366   0.934   3.732
10064SOL     OW31090   4.939   6.689   0.167
10064SOL    HW131091   4.988   6.660   0.084
10064SOL    HW231092   4.886   6.612   0.203
10065SOL     OW31093   2.105   0.447   2.396
10065SOL    HW131094   2.081   0.452   2.300
10065SOL    HW231095   2.053   0.515   2.448
10066SOL     OW31096   0.470   2.431   4.070
10066SOL    HW131097   0.393   2.463   4.125
10066SOL    HW231098   0.555   2.442   4.122
10067SOL     OW31099   6.776   4.035   5.176
10067SOL    HW131100   6.736   3.944   5.169
10067SOL    HW231101   6.833   4.053   5.096
10068SOL     OW31102   0.381   3.393   3.159
10068SOL    HW131103   0.442   3.434   3.091
10068SOL    HW231104   0.305   3.347   3.112
10069SOL     OW31105   2.114   4.902   2.655
10069SOL    HW131106   2.130   4.992   2.615
10069SOL    HW231107   2.163   4.833   2.602
10070SOL     OW31108   6.635   6.171   4.826
10070SOL    HW131109   6.656   6.074   4.844
10070SOL    HW231110   6.720   6.221   4.812
10071SOL     OW31111   6.157   5.769   4.604
10071SOL    HW131112   6.164   5.828   4.685
10071SOL    HW231113   6.064   5.772   4.568
10072SOL     OW31114   6.829   6.568   3.982
10072SOL    HW131115   6.793   6.476   3.967
10072SOL    HW231116   6.854   6.609   3.895
10073SOL     OW31117   5.948   4.399   5.246
10073SOL    HW131118   5.899   4.463   5.306
10073SOL    HW231119   6.011   4.451   5.188
10074SOL     OW31120   2.202   0.786   5.340
10074SOL    HW131121   2.296   0.768   5.369
10074SOL    HW231122   2.146   0.806   5.420
10075SOL     OW31123   2.059   2.666   2.790
10075SOL    HW131124   2.014   2.755   2.779
10075SOL    HW231125   2.089   2.632   2.701
10076SOL     OW31126   6.776   0.523   4.416
10076SOL    HW131127   6.751   0.523   4.319
10076SOL    HW231128   6.876   0.523   4.425
10077SOL     OW31129   3.917   2.720   5.840
10077SOL    HW131130   3.933   2.669   5.924
10077SOL    HW231131   3.922   2.658   5.762
10078SOL     OW31132   0.603   6.076   3.504
10078SOL    HW131133   0.648   6.021   3.434
10078SOL    HW231134   0.525   6.124   3.465
10079SOL     OW31135   5.938   3.746   4.121
10079SOL    HW131136   5.874   3.680   4.082
10079SOL    HW231137   5.889   3.804   4.187
10080SOL     OW31138   4.110   0.525   5.625
10080SOL    HW131139   4.199   0.529   5.579
10080SOL    HW231140   4.119   0.560   5.719
10081SOL     OW31141   6.720   0.398   0.800
10081SOL    HW131142   6.640   0.338   0.806
10081SOL    HW231143   6.737   0.440   0.889
10082SOL     OW31144   0.580   5.344   1.722
10082SOL    HW131145   0.512   5.414   1.705
10082SOL    HW231146   0.596   5.292   1.638
10083SOL     OW31147   3.907   0.903   3.585
10083SOL    HW131148   3.914   0.811   3.624
10083SOL    HW231149   3.977   0.961   3.626
10084SOL     OW31150   2.000   0.967   5.745
10084SOL    HW131151   1.990   1.018   5.830
10084SOL    HW231152   2.046   1.025   5.677
10085SOL     OW31153   2.376   5.412   0.815
10085SOL    HW131154   2.290   5.362   0.827
10085SOL    HW231155   2.356   5.505   0.785
10086SOL     OW31156   4.698   5.842   2.558
10086SOL    HW131157   4.714   5.889   2.472
10086SOL    HW231158   4.606   5.802   2.558
10087SOL     OW31159   6.796   6.921   4.281
10087SOL    HW131160   6.860   6.846   4.298
10087SOL    HW231161   6.712   6.906   4.332
10088SOL     OW31162   6.381   0.229   1.781
10088SOL    HW131163   6.376   0.143   1.731
10088SOL    HW231164   6.298   0.241   1.836
10089SOL     OW31165   2.872   1.770   2.841
10089SOL    HW131166   2.817   1.688   2.828
10089SOL    HW231167   2.879   1.819   2.754
10090SOL     OW31168   1.291   4.747   1.773
10090SOL    HW131169   1.293   4.782   1.680
10090SOL    HW231170   1.196   4.728   1.800
10091SOL     OW31171   0.148   4.750   6.505
10091SOL    HW131172   0.227   4.690   6.495
10091SOL    HW231173   0.075   4.701   6.553
10092SOL     OW31174   2.343   2.552   5.574
10092SOL    HW131175   2.417   2.505   5.525
10092SOL    HW231176   2.263   2.559   5.514
10093SOL     OW31177   6.063   3.222   5.140
10093SOL    HW131178   5.987   3.276   5.104
10093SOL    HW231179   6.140   3.226   5.076
10094SOL     OW31180   3.557   5.648   1.601
10094SOL    HW131181   3.469   5.663   1.644
10094SOL    HW231182   3.622   5.613   1.669
10095SOL     OW31183   5.802   2.258   5.361
10095SOL    HW131184   5.767   2.352   5.366
10095SOL    HW231185   5.749   2.200   5.423
10096SOL     OW31186   4.433   4.987   2.871
10096SOL    HW131187   4.452   5.066   2.813
10096SOL    HW231188   4.454   4.903   2.821
10097SOL     OW31189   0.785   1.252   0.093
10097SOL    HW131190   0.784   1.288   0.186
10097SOL    HW231191   0.804   1.325   0.028
10098SOL     OW31192   2.804   0.252   5.133
10098SOL    HW131193   2.715   0.222   5.168
10098SOL    HW231194   2.793   0.284   5.039
10099SOL     OW31195   0.496   5.043   1.177
10099SOL    HW131196   0.572   5.108   1.172
10099SOL    HW231197   0.531   4.951   1.160
10100SOL     OW31198   4.889   6.245   5.131
10100SOL    HW131199   4.836   6.161   5.131
10100SOL    HW231200   4.836   6.318   5.090
10101SOL     OW31201   6.165   4.026   2.386
10101SOL    HW131202   6.177   3.928   2.399
10101SOL    HW231203   6.202   4.053   2.297
10102SOL     OW31204   0.601   1.184   2.141
10102SOL    HW131205   0.542   1.155   2.217
10102SOL    HW231206   0.659   1.108   2.113
10103SOL     OW31207   2.976   0.580   5.720
10103SOL    HW131208   2.955   0.488   5.750
10103SOL    HW231209   3.070   0.584   5.686
10104SOL     OW31210   2.008   1.734   4.840
10104SOL    HW131211   1.957   1.740   4.754
10104SOL    HW231212   2.105   1.751   4.823
10105SOL     OW31213   1.580   0.801   6.742
10105SOL    HW131214   1.637   0.864   6.794
10105SOL    HW231215   1.487   0.836   6.737
10106SOL     OW31216   3.889   5.916   0.487
10106SOL    HW131217   3.954   5.988   0.510
10106SOL    HW231218   3.808   5.956   0.445
10107SOL     OW31219   5.804   1.701   5.570
10107SOL    HW131220   5.816   1.714   5.472
10107SOL    HW231221   5.843   1.779   5.619
10108SOL     OW31222   6.641   0.487   0.186
10108SOL    HW131223   6.628   0.510   0.283
10108SOL    HW231224   6.697   0.557   0.143
10109SOL     OW31225   5.690   0.909   0.598
10109SOL    HW131226   5.660   0.977   0.532
10109SOL    HW231227   5.764   0.854   0.559
10110SOL     OW31228   4.692   4.598   4.674
10110SOL    HW131229   4.727   4.526   4.613
10110SOL    HW231230   4.598   4.576   4.700
10111SOL     OW31231   5.905   3.754   3.724
10111SOL    HW131232   5.810   3.781   3.739
10111SOL    HW231233   5.966   3.819   3.770
10112SOL     OW31234   5.717   4.093   3.598
10112SOL    HW131235   5.718   4.168   3.665
10112SOL    HW231236   5.687   4.009   3.643
10113SOL     OW31237   4.355   6.987   6.554
10113SOL    HW131238   4.447   6.997   6.518
10113SOL    HW231239   4.291   6.968   6.479
10114SOL     OW31240   4.467   2.443   1.564
10114SOL    HW131241   4.416   2.511   1.617
10114SOL    HW231242   4.408   2.407   1.491
10115SOL     OW31243   3.715   0.574   4.998
10115SOL    HW131244   3.617   0.578   4.981
10115SOL    HW231245   3.764   0.581   4.911
10116SOL     OW31246   0.428   6.683   0.321
10116SOL    HW131247   0.472   6.768   0.350
10116SOL    HW231248   0.491   6.607   0.334
10117SOL     OW31249   0.097   6.518   6.086
10117SOL    HW131250   0.032   6.486   6.017
10117SOL    HW231251   0.091   6.460   6.167
10118SOL     OW31252   2.282   4.174   2.776
10118SOL    HW131253   2.286   4.143   2.871
10118SOL    HW231254   2.187   4.195   2.753
10119SOL     OW31255   0.008   5.768   4.896
10119SOL    HW131256   0.003   5.834   4.821
10119SOL    HW231257   6.996   5.678   4.862
10120SOL     OW31258   2.210   2.961   4.262
10120SOL    HW131259   2.219   2.986   4.165
10120SOL    HW231260   2.138   3.016   4.304
10121SOL     OW31261   6.041   3.757   0.013
10121SOL    HW131262   5.951   3.797   0.029
10121SOL    HW231263   6.058   3.685   0.080
10122SOL     OW31264   5.640   3.244   2.504
10122SOL    HW131265   5.588   3.190   2.438
10122SOL    HW231266   5.580   3.274   2.578
10123SOL     OW31267   5.798   5.718   0.621
10123SOL    HW131268   5.720   5.655   0.614
10123SOL    HW231269   5.811   5.765   0.534
10124SOL     OW31270   1.507   4.478   0.562
10124SOL    HW131271   1.491   4.445   0.655
10124SOL    HW231272   1.485   4.405   0.497
10125SOL     OW31273   1.541   1.397   1.835
10125SOL    HW131274   1.554   1.393   1.934
10125SOL    HW231275   1.446   1.422   1.815
10126SOL     OW31276   6.948   0.403   0.100
10126SOL    HW131277   6.849   0.408   0.085
10126SOL    HW231278   6.972   0.448   0.186
10127SOL     OW31279   2.501   4.091   0.055
10127SOL    HW131280   2.519   4.004   0.100
10127SOL    HW231281   2.580   4.117   7.015
10128SOL     OW31282   3.294   1.056   6.959
10128SOL    HW131283   3.322   0.980   0.003
10128SOL    HW231284   3.217   1.027   6.902
10129SOL     OW31285   6.392   1.311   2.722
10129SOL    HW131286   6.393   1.217   2.753
10129SOL    HW231287   6.484   1.349   2.722
10130SOL     OW31288   1.235   2.273   1.054
10130SOL    HW131289   1.317   2.223   1.081
10130SOL    HW231290   1.239   2.366   1.090
10131SOL     OW31291   1.772   6.656   4.434
10131SOL    HW131292   1.819   6.577   4.393
10131SOL    HW231293   1.828   6.738   4.422
10132SOL     OW31294   3.388   0.437   3.818
10132SOL    HW131295   3.357   0.532   3.822
10132SOL    HW231296   3.481   0.430   3.854
10133SOL     OW31297   4.272   6.230   0.659
10133SOL    HW131298   4.277   6.319   0.703
10133SOL    HW231299   4.323   6.163   0.712
10134SOL     OW31300   6.442   0.216   2.535
10134SOL    HW131301   6.437   0.316   2.535
10134SOL    HW231302   6.353   0.178   2.509
10135SOL     OW31303   4.873   3.370   3.438
10135SOL    HW131304   4.807   3.318   3.385
10135SOL    HW231305   4.844   3.466   3.443
10136SOL     OW31306   5.020   1.740   2.736
10136SOL    HW131307   5.036   1.827   2.690
10136SOL    HW231308   5.018   1.754   2.835
10137SOL     OW31309   0.232   3.726   4.143
10137SOL    HW131310   0.151   3.667   4.135
10137SOL    HW231311   0.265   3.724   4.237
10138SOL     OW31312   5.373   3.792   0.433
10138SOL    HW131313   5.375   3.695   0.410
10138SOL    HW231314   5.447   3.814   0.496
10139SOL     OW31315   3.158   3.570   3.305
10139SOL    HW131316   3.082   3.536   3.250
10139SOL    HW231317   3.213   3.492   3.337
10140SOL     OW31318   0.117   6.535   6.982
10140SOL    HW131319   0.107   6.634   6.978
10140SOL    HW231320   0.211   6.510   6.957
10141SOL     OW31321   4.049   0.869   5.807
10141SOL    HW131322   3.958   0.834   5.784
10141SOL    HW231323   4.043   0.927   5.888
10142SOL     OW31324   6.396   7.013   5.607
10142SOL    HW131325   6.297   0.008   5.613
10142SOL    HW231326   6.440   0.078   5.648
10143SOL     OW31327   5.172   1.610   0.385
10143SOL    HW131328   5.121   1.663   0.452
10143SOL    HW231329   5.270   1.628   0.396
10144SOL     OW31330   3.879   0.122   6.151
10144SOL    HW131331   3.891   0.194   6.218
10144SOL    HW231332   3.968   0.102   6.108
10145SOL     OW31333   3.171   5.394   3.075
10145SOL    HW131334   3.186   5.471   3.013
10145SOL    HW231335   3.157   5.427   3.168
10146SOL     OW31336   4.754   4.072   4.953
10146SOL    HW131337   4.750   4.072   4.854
10146SOL    HW231338   4.746   3.978   4.987
10147SOL     OW31339   5.130   4.487   6.391
10147SOL    HW131340   5.093   4.491   6.298
10147SOL    HW231341   5.062   4.447   6.452
10148SOL     OW31342   4.806   4.871   6.396
10148SOL    HW131343   4.812   4.781   6.438
10148SOL    HW231344   4.765   4.936   6.461
10149SOL     OW31345   5.658   3.908   1.872
10149SOL    HW131346   5.715   3.944   1.945
10149SOL    HW231347   5.594   3.978   1.841
10150SOL     OW31348   3.765   3.227   1.064
10150SOL    HW131349   3.812   3.313   1.085
10150SOL    HW231350   3.789   3.159   1.133
10151SOL     OW31351   0.725   5.770   0.462
10151SOL    HW131352   0.777   5.703   0.410
10151SOL    HW231353   0.781   5.850   0.480
10152SOL     OW31354   6.780   6.544   4.255
10152SOL    HW131355   6.695   6.494   4.269
10152SOL    HW231356   6.791   6.566   4.158
10153SOL     OW31357   4.450   6.152   3.217
10153SOL    HW131358   4.526   6.216   3.221
10153SOL    HW231359   4.436   6.111   3.308
10154SOL     OW31360   3.731   6.098   4.728
10154SOL    HW131361   3.743   5.999   4.723
10154SOL    HW231362   3.659   6.126   4.664
10155SOL     OW31363   4.262   2.267   6.393
10155SOL    HW131364   4.222   2.253   6.303
10155SOL    HW231365   4.197   2.235   6.463
10156SOL     OW31366   4.970   0.558   2.235
10156SOL    HW131367   4.916   0.550   2.150
10156SOL    HW231368   5.055   0.607   2.215
10157SOL     OW31369   7.012   2.398   0.467
10157SOL    HW131370   6.950   2.359   0.536
10157SOL    HW231371   0.088   2.359   0.479
10158SOL     OW31372   6.449   5.869   0.734
10158SOL    HW131373   6.524   5.812   0.766
10158SOL    HW231374   6.449   5.956   0.784
10159SOL     OW31375   2.849   2.766   1.097
10159SOL    HW131376   2.809   2.857   1.088
10159SOL    HW231377   2.866   2.747   1.194
10160SOL     OW31378   1.459   2.802   2.187
10160SOL    HW131379   1.394   2.831   2.257
10160SOL    HW231380   1.551   2.832   2.213
10161SOL     OW31381   3.693   4.133   0.625
10161SOL    HW131382   3.749   4.136   0.542
10161SOL    HW231383   3.597   4.121   0.600
10162SOL     OW31384   3.844   4.822   0.727
10162SOL    HW131385   3.821   4.908   0.772
10162SOL    HW231386   3.934   4.791   0.757
10163SOL     OW31387   6.746   3.666   0.290
10163SOL    HW131388   6.682   3.639   0.218
10163SOL    HW231389   6.773   3.586   0.343
10164SOL     OW31390   6.096   3.547   4.569
10164SOL    HW131391   6.124   3.455   4.539
10164SOL    HW231392   6.152   3.575   4.646
10165SOL     OW31393   6.574   1.210   3.650
10165SOL    HW131394   6.511   1.244   3.721
10165SOL    HW231395   6.630   1.136   3.687
10166SOL     OW31396   3.163   1.839   1.698
10166SOL    HW131397   3.211   1.880   1.776
10166SOL    HW231398   3.179   1.894   1.616
10167SOL     OW31399   0.961   4.868   0.139
10167SOL    HW131400   0.985   4.863   0.043
10167SOL    HW231401   0.999   4.790   0.188
10168SOL     OW31402   6.022   2.388   6.457
10168SOL    HW131403   6.073   2.472   6.438
10168SOL    HW231404   6.079   2.309   6.434
10169SOL     OW31405   0.266   4.168   3.304
10169SOL    HW131406   0.201   4.093   3.289
10169SOL    HW231407   0.248   4.210   3.393
10170SOL     OW31408   6.487   5.942   6.148
10170SOL    HW131409   6.494   5.869   6.080
10170SOL    HW231410   6.408   5.924   6.207
10171SOL     OW31411   0.619   2.426   4.653
10171SOL    HW131412   0.713   2.393   4.642
10171SOL    HW231413   0.599   2.492   4.581
10172SOL     OW31414   1.031   5.599   5.071
10172SOL    HW131415   1.087   5.554   5.002
10172SOL    HW231416   1.001   5.531   5.139
10173SOL     OW31417   2.092   2.395   0.603
10173SOL    HW131418   2.184   2.367   0.629
10173SOL    HW231419   2.059   2.465   0.666
10174SOL     OW31420   5.211   5.360   3.215
10174SOL    HW131421   5.215   5.338   3.313
10174SOL    HW231422   5.139   5.427   3.199
10175SOL     OW31423   5.252   2.893   2.912
10175SOL    HW131424   5.274   2.820   2.976
10175SOL    HW231425   5.152   2.903   2.904
10176SOL     OW31426   0.479   3.170   5.199
10176SOL    HW131427   0.402   3.110   5.222
10176SOL    HW231428   0.556   3.114   5.169
10177SOL     OW31429   1.853   0.692   1.272
10177SOL    HW131430   1.892   0.714   1.182
10177SOL    HW231431   1.913   0.725   1.344
10178SOL     OW31432   6.811   0.726   0.073
10178SOL    HW131433   6.763   0.814   0.073
10178SOL    HW231434   6.812   0.689   6.996
10179SOL     OW31435   0.366   2.635   6.962
10179SOL    HW131436   0.319   2.547   6.963
10179SOL    HW231437   0.301   2.708   6.940
10180SOL     OW31438   4.072   0.408   6.439
10180SOL    HW131439   4.105   0.330   6.492
10180SOL    HW231440   4.141   0.434   6.371
10181SOL     OW31441   6.302   3.404   1.416
10181SOL    HW131442   6.379   3.342   1.401
10181SOL    HW231443   6.248   3.372   1.494
10182SOL     OW31444   4.195   1.256   1.086
10182SOL    HW131445   4.221   1.296   0.998
10182SOL    HW231446   4.141   1.174   1.071
10183SOL     OW31447   6.502   2.640   6.089
10183SOL    HW131448   6.543   2.569   6.147
10183SOL    HW231449   6.505   2.728   6.137
10184SOL     OW31450   4.519   1.494   6.257
10184SOL    HW131451   4.513   1.574   6.315
10184SOL    HW231452   4.513   1.411   6.313
10185SOL     OW31453   5.992   6.016   3.164
10185SOL    HW131454   5.927   6.073   3.214
10185SOL    HW231455   6.009   5.932   3.215
10186SOL     OW31456   5.271   3.915   4.381
10186SOL    HW131457   5.237   3.841   4.438
10186SOL    HW231458   5.223   3.915   4.294
10187SOL     OW31459   1.209   3.970   6.547
10187SOL    HW131460   1.122   4.019   6.550
10187SOL    HW231461   1.281   4.033   6.518
10188SOL     OW31462   3.825   4.405   6.739
10188SOL    HW131463   3.752   4.337   6.747
10188SOL    HW231464   3.786   4.497   6.750
10189SOL     OW31465   6.928   1.353   7.000
10189SOL    HW131466   0.006   1.373   0.012
10189SOL    HW231467   6.906   1.404   6.917
10190SOL     OW31468   3.859   3.466   1.144
10190SOL    HW131469   3.915   3.510   1.075
10190SOL    HW231470   3.918   3.415   1.208
10191SOL     OW31471   4.728   5.593   6.392
10191SOL    HW131472   4.630   5.595   6.369
10191SOL    HW231473   4.744   5.525   6.464
10192SOL     OW31474   4.254   0.929   5.620
10192SOL    HW131475   4.195   0.925   5.701
10192SOL    HW231476   4.203   0.970   5.544
10193SOL     OW31477   3.675   3.283   2.069
10193SOL    HW131478   3.681   3.362   2.130
10193SOL    HW231479   3.609   3.218   2.105
10194SOL     OW31480   4.827   0.650   5.747
10194SOL    HW131481   4.922   0.627   5.725
10194SOL    HW231482   4.806   0.742   5.712
10195SOL     OW31483   6.918   6.559   0.610
10195SOL    HW131484   6.865   6.514   0.682
10195SOL    HW231485   6.916   6.503   0.527
10196SOL     OW31486   3.477   2.167   4.016
10196SOL    HW131487   3.396   2.213   4.054
10196SOL    HW231488   3.473   2.168   3.917
10197SOL     OW31489   5.734   2.089   4.547
10197SOL    HW131490   5.676   2.083   4.629
10197SOL    HW231491   5.767   1.998   4.523
10198SOL     OW31492   3.461   6.795   2.165
10198SOL    HW131493   3.428   6.820   2.074
10198SOL    HW231494   3.394   6.734   2.209
10199SOL     OW31495   0.913   2.385   0.849
10199SOL    HW131496   0.870   2.386   0.940
10199SOL    HW231497   1.011   2.399   0.858
10200SOL     OW31498   4.631   3.413   5.349
10200SOL    HW131499   4.533   3.406   5.365
10200SOL    HW231500   4.649   3.492   5.290
10201SOL     OW31501   1.485   5.503   0.232
10201SOL    HW131502   1.489   5.490   0.133
10201SOL    HW231503   1.451   5.420   0.275
10202SOL     OW31504   2.913   4.619   0.253
10202SOL    HW131505   2.825   4.640   0.213
10202SOL    HW231506   2.946   4.698   0.305
10203SOL     OW31507   6.398   3.079   2.017
10203SOL    HW131508   6.449   3.035   1.943
10203SOL    HW231509   6.460   3.094   2.094
10204SOL     OW31510   3.998   5.441   6.426
10204SOL    HW131511   4.082   5.438   6.481
10204SOL    HW231512   4.021   5.441   6.329
10205SOL     OW31513   2.286   0.769   2.365
10205SOL    HW131514   2.264   0.849   2.421
10205SOL    HW231515   2.239   0.775   2.277
10206SOL     OW31516   6.815   0.375   6.385
10206SOL    HW131517   6.890   0.377   6.319
10206SOL    HW231518   6.759   0.294   6.369
10207SOL     OW31519   1.251   1.889   6.975
10207SOL    HW131520   1.166   1.940   6.963
10207SOL    HW231521   1.328   1.946   6.947
10208SOL     OW31522   6.678   5.625   3.881
10208SOL    HW131523   6.753   5.674   3.927
10208SOL    HW231524   6.641   5.556   3.943
10209SOL     OW31525   0.159   6.780   6.441
10209SOL    HW131526   0.087   6.714   6.461
10209SOL    HW231527   0.130   6.871   6.469
10210SOL     OW31528   4.712   6.269   0.516
10210SOL    HW131529   4.804   6.256   0.479
10210SOL    HW231530   4.695   6.201   0.588
10211SOL     OW31531   4.005   6.137   4.673
10211SOL    HW131532   4.052   6.052   4.651
10211SOL    HW231533   3.906   6.121   4.678
10212SOL     OW31534   6.905   6.818   5.581
10212SOL    HW131535   6.808   6.812   5.604
10212SOL    HW231536   6.927   6.747   5.514
10213SOL     OW31537   5.157   3.108   2.259
10213SOL    HW131538   5.166   3.164   2.342
10213SOL    HW231539   5.072   3.131   2.212
10214SOL     OW31540   0.629   1.632   1.756
10214SOL    HW131541   0.563   1.708   1.760
10214SOL    HW231542   0.722   1.668   1.761
10215SOL     OW31543   3.643   2.880   3.991
10215SOL    HW131544   3.693   2.917   4.069
10215SOL    HW231545   3.583   2.806   4.021
10216SOL     OW31546   0.718   1.397   0.634
10216SOL    HW131547   0.646   1.360   0.692
10216SOL    HW231548   0.688   1.486   0.597
10217SOL     OW31549   1.671   2.194   4.016
10217SOL    HW131550   1.584   2.186   3.968
10217SOL    HW231551   1.684   2.289   4.046
10218SOL     OW31552   1.311   0.854   1.486
10218SOL    HW131553   1.350   0.770   1.448
10218SOL    HW231554   1.308   0.848   1.585
10219SOL     OW31555   0.346   2.148   2.556
10219SOL    HW131556   0.349   2.088   2.635
10219SOL    HW231557   0.439   2.170   2.527
10220SOL     OW31558   4.019   1.302   1.793
10220SOL    HW131559   4.025   1.211   1.752
10220SOL    HW231560   4.019   1.371   1.722
10221SOL     OW31561   1.927   3.554   4.763
10221SOL    HW131562   2.008   3.572   4.708
10221SOL    HW231563   1.853   3.520   4.705
10222SOL     OW31564   3.091   3.849   5.539
10222SOL    HW131565   3.182   3.873   5.508
10222SOL    HW231566   3.023   3.893   5.481
10223SOL     OW31567   2.593   5.285   0.332
10223SOL    HW131568   2.688   5.280   0.302
10223SOL    HW231569   2.547   5.199   0.309
10224SOL     OW31570   6.400   1.873   5.345
10224SOL    HW131571   6.314   1.833   5.377
10224SOL    HW231572   6.443   1.923   5.420
10225SOL     OW31573   2.005   5.808   5.886
10225SOL    HW131574   2.051   5.897   5.888
10225SOL    HW231575   2.004   5.769   5.978
10226SOL     OW31576   2.027   0.422   6.203
10226SOL    HW131577   2.071   0.492   6.259
10226SOL    HW231578   1.961   0.371   6.259
10227SOL     OW31579   4.684   4.217   0.433
10227SOL    HW131580   4.697   4.298   0.491
10227SOL    HW231581   4.728   4.232   0.344
10228SOL     OW31582   1.629   5.661   2.152
10228SOL    HW131583   1.685   5.704   2.222
10228SOL    HW231584   1.687   5.605   2.093
10229SOL     OW31585   1.988   1.932   4.496
10229SOL    HW131586   1.960   1.840   4.525
10229SOL    HW231587   1.990   1.937   4.396
10230SOL     OW31588   6.525   6.694   3.483
10230SOL    HW131589   6.500   6.610   3.435
10230SOL    HW231590   6.519   6.771   3.420
10231SOL     OW31591   6.321   5.247   5.553
10231SOL    HW131592   6.321   5.317   5.625
10231SOL    HW231593   6.361   5.163   5.588
10232SOL     OW31594   2.824   1.956   4.041
10232SOL    HW131595   2.753   1.932   4.107
10232SOL    HW231596   2.835   2.055   4.038
10233SOL     OW31597   4.194   3.842   5.917
10233SOL    HW131598   4.169   3.893   5.999
10233SOL    HW231599   4.264   3.774   5.940
10234SOL     OW31600   6.222   0.796   6.772
10234SOL    HW131601   6.280   0.714   6.777
10234SOL    HW231602   6.137   0.780   6.822
10235SOL     OW31603   3.677   2.102   0.765
10235SOL    HW131604   3.663   2.142   0.856
10235SOL    HW231605   3.703   2.006   0.775
10236SOL     OW31606   1.577   1.012   1.546
10236SOL    HW131607   1.527   0.935   1.505
10236SOL    HW231608   1.530   1.097   1.525
10237SOL     OW31609   6.981   4.329   6.650
10237SOL    HW131610   6.945   4.315   6.742
10237SOL    HW231611   7.000   4.240   6.608
10238SOL     OW31612   3.910   4.003   2.456
10238SOL    HW131613   3.852   4.050   2.523
10238SOL    HW231614   3.865   4.005   2.367
10239SOL     OW31615   2.204   3.759   5.524
10239SOL    HW131616   2.230   3.693   5.454
10239SOL    HW231617   2.115   3.798   5.502
10240SOL     OW31618   1.979   4.574   2.785
10240SOL    HW131619   1.930   4.487   2.791
10240SOL    HW231620   2.052   4.575   2.854
10241SOL     OW31621   6.878   6.462   2.754
10241SOL    HW131622   6.866   6.371   2.794
10241SOL    HW231623   6.789   6.502   2.732
10242SOL     OW31624   0.222   1.313   1.612
10242SOL    HW131625   0.276   1.390   1.645
10242SOL    HW231626   0.209   1.321   1.513
10243SOL     OW31627   1.951   4.903   2.178
10243SOL    HW131628   2.026   4.843   2.207
10243SOL    HW231629   1.903   4.862   2.101
10244SOL     OW31630   1.538   4.250   0.335
10244SOL    HW131631   1.602   4.238   0.259
10244SOL    HW231632   1.582   4.221   0.420
10245SOL     OW31633   3.422   5.001   0.542
10245SOL    HW131634   3.330   5.001   0.581
10245SOL    HW231635   3.473   5.080   0.577
10246SOL     OW31636   3.269   3.325   3.313
10246SOL    HW131637   3.190   3.263   3.309
10246SOL    HW231638   3.344   3.280   3.361
10247SOL     OW31639   6.790   4.260   5.939
10247SOL    HW131640   6.849   4.337   5.918
10247SOL    HW231641   6.797   4.238   6.037
10248SOL     OW31642   1.563   0.011   2.952
10248SOL    HW131643   1.634   0.076   2.979
10248SOL    HW231644   1.592   6.934   2.975
10249SOL     OW31645   2.342   6.708   6.822
10249SOL    HW131646   2.439   6.731   6.821
10249SOL    HW231647   2.318   6.666   6.910
10250SOL     OW31648   6.029   3.144   1.830
10250SOL    HW131649   5.929   3.151   1.819
10250SOL    HW231650   6.059   3.054   1.800
10251SOL     OW31651   2.503   1.367   4.575
10251SOL    HW131652   2.566   1.323   4.639
10251SOL    HW231653   2.433   1.416   4.626
10252SOL     OW31654   4.157   5.084   6.428
10252SOL    HW131655   4.207   5.022   6.368
10252SOL    HW231656   4.059   5.064   6.423
10253SOL     OW31657   2.820   7.014   0.403
10253SOL    HW131658   2.802   6.916   0.397
10253SOL    HW231659   2.855   0.021   0.494
10254SOL     OW31660   4.801   0.649   5.333
10254SOL    HW131661   4.766   0.657   5.240
10254SOL    HW231662   4.725   0.636   5.396
10255SOL     OW31663   1.740   6.472   0.821
10255SOL    HW131664   1.673   6.546   0.826
10255SOL    HW231665   1.783   6.472   0.731
10256SOL     OW31666   5.490   1.130   1.583
10256SOL    HW131667   5.545   1.050   1.557
10256SOL    HW231668   5.419   1.102   1.647
10257SOL     OW31669   2.439   4.997   4.702
10257SOL    HW131670   2.491   5.043   4.630
10257SOL    HW231671   2.480   4.908   4.721
10258SOL     OW31672   3.491   0.851   4.007
10258SOL    HW131673   3.457   0.871   4.100
10258SOL    HW231674   3.539   0.931   3.971
10259SOL     OW31675   0.579   4.645   3.179
10259SOL    HW131676   0.505   4.641   3.246
10259SOL    HW231677   0.553   4.594   3.097
10260SOL     OW31678   1.204   1.192   4.003
10260SOL    HW131679   1.198   1.097   3.971
10260SOL    HW231680   1.181   1.195   4.100
10261SOL     OW31681   0.141   5.485   3.400
10261SOL    HW131682   0.048   5.492   3.363
10261SOL    HW231683   0.158   5.392   3.431
10262SOL     OW31684   2.247   0.004   5.222
10262SOL    HW131685   2.243   6.954   5.146
10262SOL    HW231686   2.166   0.063   5.220
10263SOL     OW31687   5.286   0.852   6.856
10263SOL    HW131688   5.317   0.947   6.848
10263SOL    HW231689   5.340   0.795   6.795
10264SOL     OW31690   6.005   0.809   6.943
10264SOL    HW131691   5.986   0.907   6.934
10264SOL    HW231692   5.939   0.769   7.008
10265SOL     OW31693   2.174   2.330   1.993
10265SOL    HW131694   2.214   2.356   1.905
10265SOL    HW231695   2.190   2.232   2.009
10266SOL     OW31696   3.920   3.157   3.954
10266SOL    HW131697   3.943   3.219   4.029
10266SOL    HW231698   3.963   3.189   3.870
10267SOL     OW31699   5.763   2.326   6.756
10267SOL    HW131700   5.817   2.243   6.740
10267SOL    HW231701   5.783   2.362   6.847
10268SOL     OW31702   6.233   5.773   2.276
10268SOL    HW131703   6.322   5.739   2.307
10268SOL    HW231704   6.234   5.873   2.277
10269SOL     OW31705   0.658   3.242   0.115
10269SOL    HW131706   0.739   3.279   0.160
10269SOL    HW231707   0.615   3.314   0.060
10270SOL     OW31708   3.700   4.960   3.045
10270SOL    HW131709   3.728   4.906   2.966
10270SOL    HW231710   3.682   5.054   3.017
10271SOL     OW31711   3.391   2.496   5.590
10271SOL    HW131712   3.464   2.510   5.522
10271SOL    HW231713   3.374   2.398   5.600
10272SOL     OW31714   0.907   1.193   4.662
10272SOL    HW131715   0.999   1.180   4.626
10272SOL    HW231716   0.841   1.186   4.586
10273SOL     OW31717   2.923   5.767   2.801
10273SOL    HW131718   2.957   5.843   2.857
10273SOL    HW231719   2.968   5.769   2.711
10274SOL     OW31720   0.387   5.642   4.909
10274SOL    HW131721   0.386   5.741   4.893
10274SOL    HW231722   0.407   5.594   4.823
10275SOL     OW31723   0.277   6.749   1.745
10275SOL    HW131724   0.182   6.739   1.716
10275SOL    HW231725   0.291   6.839   1.786
10276SOL     OW31726   5.724   5.059   5.365
10276SOL    HW131727   5.683   5.131   5.421
10276SOL    HW231728   5.741   5.094   5.273
10277SOL     OW31729   1.949   5.084   3.714
10277SOL    HW131730   1.864   5.033   3.728
10277SOL    HW231731   1.967   5.092   3.616
10278SOL     OW31732   0.058   1.926   4.833
10278SOL    HW131733   0.076   1.987   4.756
10278SOL    HW231734   0.001   1.973   4.900
10279SOL     OW31735   3.082   5.303   3.649
10279SOL    HW131736   3.153   5.253   3.698
10279SOL    HW231737   2.992   5.265   3.672
10280SOL     OW31738   0.202   3.091   1.137
10280SOL    HW131739   0.271   3.151   1.095
10280SOL    HW231740   0.112   3.133   1.128
10281SOL     OW31741   6.060   1.568   2.366
10281SOL    HW131742   6.118   1.490   2.344
10281SOL    HW231743   6.075   1.595   2.461
10282SOL     OW31744   5.074   4.082   4.551
10282SOL    HW131745   5.132   4.026   4.493
10282SOL    HW231746   5.077   4.047   4.645
10283SOL     OW31747   0.993   2.948   0.561
10283SOL    HW131748   0.992   3.047   0.550
10283SOL    HW231749   1.038   2.905   0.482
10284SOL     OW31750   4.793   3.056   4.987
10284SOL    HW131751   4.813   3.058   4.889
10284SOL    HW231752   4.830   3.137   5.031
10285SOL     OW31753   5.683   0.354   2.561
10285SOL    HW131754   5.711   0.346   2.465
10285SOL    HW231755   5.584   0.366   2.566
10286SOL     OW31756   3.137   1.978   3.720
10286SOL    HW131757   3.118   2.016   3.810
10286SOL    HW231758   3.066   2.005   3.656
10287SOL     OW31759   1.794   6.972   1.173
10287SOL    HW131760   1.865   6.922   1.223
10287SOL    HW231761   1.805   6.955   1.075
10288SOL     OW31762   4.547   6.762   3.352
10288SOL    HW131763   4.581   6.824   3.422
10288SOL    HW231764   4.474   6.807   3.300
10289SOL     OW31765   1.689   6.609   1.219
10289SOL    HW131766   1.754   6.564   1.157
10289SOL    HW231767   1.602   6.561   1.215
10290SOL     OW31768   3.301   3.946   2.285
10290SOL    HW131769   3.371   3.881   2.256
10290SOL    HW231770   3.212   3.915   2.254
10291SOL     OW31771   3.985   1.637   2.929
10291SOL    HW131772   3.921   1.562   2.947
10291SOL    HW231773   4.023   1.670   3.015
10292SOL     OW31774   1.596   0.693   5.107
10292SOL    HW131775   1.516   0.633   5.101
10292SOL    HW231776   1.604   0.728   5.200
10293SOL     OW31777   2.229   4.102   3.048
10293SOL    HW131778   2.140   4.112   3.093
10293SOL    HW231779   2.267   4.012   3.070
10294SOL     OW31780   5.280   2.706   3.095
10294SOL    HW131781   5.272   2.619   3.046
10294SOL    HW231782   5.339   2.694   3.175
10295SOL     OW31783   6.250   4.686   6.160
10295SOL    HW131784   6.330   4.666   6.103
10295SOL    HW231785   6.223   4.782   6.148
10296SOL     OW31786   4.707   1.963   0.672
10296SOL    HW131787   4.731   1.991   0.765
10296SOL    HW231788   4.705   2.043   0.612
10297SOL     OW31789   1.974   6.709   6.500
10297SOL    HW131790   2.072   6.720   6.516
10297SOL    HW231791   1.957   6.694   6.402
10298SOL     OW31792   2.845   4.441   1.341
10298SOL    HW131793   2.830   4.466   1.437
10298SOL    HW231794   2.878   4.347   1.337
10299SOL     OW31795   5.017   5.116   3.197
10299SOL    HW131796   5.102   5.128   3.249
10299SOL    HW231797   5.020   5.174   3.115
10300SOL     OW31798   1.164   3.683   3.643
10300SOL    HW131799   1.091   3.614   3.643
10300SOL    HW231800   1.124   3.774   3.634
10301SOL     OW31801   5.271   2.805   4.818
10301SOL    HW131802   5.327   2.833   4.740
10301SOL    HW231803   5.175   2.824   4.799
10302SOL     OW31804   2.516   6.454   4.197
10302SOL    HW131805   2.473   6.541   4.173
10302SOL    HW231806   2.510   6.440   4.296
10303SOL     OW31807   1.869   6.252   2.487
10303SOL    HW131808   1.890   6.234   2.583
10303SOL    HW231809   1.924   6.330   2.456
10304SOL     OW31810   5.309   0.026   1.763
10304SOL    HW131811   5.340   0.002   1.855
10304SOL    HW231812   5.260   0.113   1.766
10305SOL     OW31813   0.729   4.387   6.586
10305SOL    HW131814   0.812   4.389   6.530
10305SOL    HW231815   0.720   4.296   6.627
10306SOL     OW31816   4.965   0.030   5.964
10306SOL    HW131817   4.895   6.984   6.000
10306SOL    HW231818   4.924   0.093   5.898
10307SOL     OW31819   2.826   2.230   5.526
10307SOL    HW131820   2.911   2.254   5.478
10307SOL    HW231821   2.778   2.314   5.552
10308SOL     OW31822   2.508   4.825   3.552
10308SOL    HW131823   2.498   4.729   3.578
10308SOL    HW231824   2.580   4.867   3.607
10309SOL     OW31825   6.968   1.772   5.052
10309SOL    HW131826   6.984   1.846   5.117
10309SOL    HW231827   7.007   1.797   4.963
10310SOL     OW31828   3.221   3.932   1.549
10310SOL    HW131829   3.299   3.894   1.500
10310SOL    HW231830   3.142   3.937   1.487
10311SOL     OW31831   0.511   6.164   0.505
10311SOL    HW131832   0.553   6.212   0.428
10311SOL    HW231833   0.412   6.165   0.495
10312SOL     OW31834   3.213   6.312   2.293
10312SOL    HW131835   3.155   6.361   2.228
10312SOL    HW231836   3.162   6.296   2.378
10313SOL     OW31837   4.838   6.561   1.568
10313SOL    HW131838   4.776   6.587   1.494
10313SOL    HW231839   4.911   6.503   1.532
10314SOL     OW31840   6.458   0.704   1.736
10314SOL    HW131841   6.449   0.743   1.827
10314SOL    HW231842   6.455   0.605   1.742
10315SOL     OW31843   5.488   6.163   4.739
10315SOL    HW131844   5.490   6.181   4.837
10315SOL    HW231845   5.420   6.222   4.696
10316SOL     OW31846   6.684   2.466   4.148
10316SOL    HW131847   6.686   2.445   4.246
10316SOL    HW231848   6.767   2.432   4.105
10317SOL     OW31849   3.738   5.513   5.217
10317SOL    HW131850   3.819   5.541   5.165
10317SOL    HW231851   3.754   5.422   5.256
10318SOL     OW31852   5.201   5.896   5.947
10318SOL    HW131853   5.299   5.914   5.940
10318SOL    HW231854   5.185   5.800   5.967
10319SOL     OW31855   1.726   2.266   5.776
10319SOL    HW131856   1.807   2.325   5.780
10319SOL    HW231857   1.656   2.301   5.838
10320SOL     OW31858   0.326   0.437   3.195
10320SOL    HW131859   0.273   0.415   3.278
10320SOL    HW231860   0.377   0.521   3.210
10321SOL     OW31861   3.740   1.047   2.483
10321SOL    HW131862   3.808   1.111   2.445
10321SOL    HW231863   3.783   0.958   2.498
10322SOL     OW31864   6.263   5.925   6.309
10322SOL    HW131865   6.219   5.845   6.267
10322SOL    HW231866   6.218   6.008   6.277
10323SOL     OW31867   6.212   3.656   5.573
10323SOL    HW131868   6.123   3.641   5.529
10323SOL    HW231869   6.242   3.750   5.558
10324SOL     OW31870   3.259   2.965   2.620
10324SOL    HW131871   3.292   2.898   2.553
10324SOL    HW231872   3.278   2.932   2.712
10325SOL     OW31873   0.037   3.694   2.903
10325SOL    HW131874   6.955   3.682   2.885
10325SOL    HW231875   0.059   3.656   2.992
10326SOL     OW31876   4.514   3.582   0.268
10326SOL    HW131877   4.432   3.625   0.228
10326SOL    HW231878   4.587   3.582   0.200
10327SOL     OW31879   2.746   2.524   1.735
10327SOL    HW131880   2.838   2.502   1.769
10327SOL    HW231881   2.742   2.507   1.637
10328SOL     OW31882   6.022   2.284   1.431
10328SOL    HW131883   6.094   2.260   1.367
10328SOL    HW231884   6.053   2.266   1.525
10329SOL     OW31885   3.023   0.421   3.718
10329SOL    HW131886   3.027   0.521   3.723
10329SOL    HW231887   3.061   0.383   3.802
10330SOL     OW31888   4.001   6.882   2.421
10330SOL    HW131889   4.093   6.898   2.455
10330SOL    HW231890   3.986   6.933   2.336
10331SOL     OW31891   7.008   1.433   4.673
10331SOL    HW131892   6.945   1.461   4.746
10331SOL    HW231893   0.069   1.382   4.712
10332SOL     OW31894   6.025   0.842   0.991
10332SOL    HW131895   6.019   0.939   1.016
10332SOL    HW231896   6.015   0.831   0.893
10333SOL     OW31897   6.457   4.437   4.784
10333SOL    HW131898   6.358   4.423   4.780
10333SOL    HW231899   6.490   4.418   4.876
10334SOL     OW31900   3.817   6.185   3.630
10334SOL    HW131901   3.769   6.107   3.590
10334SOL    HW231902   3.879   6.224   3.562
10335SOL     OW31903   2.466   4.211   6.334
10335SOL    HW131904   2.543   4.270   6.307
10335SOL    HW231905   2.500   4.120   6.355
10336SOL     OW31906   6.204   6.920   2.663
10336SOL    HW131907   6.148   6.978   2.722
10336SOL    HW231908   6.288   6.895   2.711
10337SOL     OW31909   0.058   6.741   5.806
10337SOL    HW131910   0.023   6.803   5.877
10337SOL    HW231911   0.002   6.750   5.724
10338SOL     OW31912   2.609   6.152   1.870
10338SOL    HW131913   2.697   6.197   1.856
10338SOL    HW231914   2.564   6.191   1.951
10339SOL     OW31915   2.836   5.537   0.087
10339SOL    HW131916   2.802   5.588   0.167
10339SOL    HW231917   2.779   5.457   0.071
10340SOL     OW31918   1.443   5.755   1.069
10340SOL    HW131919   1.461   5.781   1.164
10340SOL    HW231920   1.509   5.801   1.010
10341SOL     OW31921   2.026   3.524   1.802
10341SOL    HW131922   2.096   3.527   1.872
10341SOL    HW231923   2.051   3.585   1.727
10342SOL     OW31924   0.837   6.757   4.965
10342SOL    HW131925   0.739   6.738   4.965
10342SOL    HW231926   0.886   6.678   5.001
10343SOL     OW31927   2.919   5.151   0.068
10343SOL    HW131928   2.850   5.216   0.036
10343SOL    HW231929   2.979   5.197   0.134
10344SOL     OW31930   4.136   4.518   1.713
10344SOL    HW131931   4.160   4.569   1.795
10344SOL    HW231932   4.043   4.542   1.685
10345SOL     OW31933   1.816   1.397   6.908
10345SOL    HW131934   1.862   1.317   6.947
10345SOL    HW231935   1.857   1.480   6.945
10346SOL     OW31936   5.968   6.948   1.262
10346SOL    HW131937   5.950   6.993   1.349
10346SOL    HW231938   5.906   6.871   1.251
10347SOL     OW31939   5.384   2.384   2.476
10347SOL    HW131940   5.471   2.352   2.514
10347SOL    HW231941   5.398   2.414   2.382
10348SOL     OW31942   6.241   1.415   0.416
10348SOL    HW131943   6.215   1.510   0.431
10348SOL    HW231944   6.314   1.411   0.348
10349SOL     OW31945   6.734   1.479   1.557
10349SOL    HW131946   6.822   1.525   1.546
10349SOL    HW231947   6.734   1.394   1.504
10350SOL     OW31948   2.159   6.096   5.550
10350SOL    HW131949   2.120   6.044   5.626
10350SOL    HW231950   2.228   6.041   5.504
10351SOL     OW31951   4.753   5.268   6.286
10351SOL    HW131952   4.768   5.327   6.365
10351SOL    HW231953   4.662   5.284   6.249
10352SOL     OW31954   5.003   1.995   6.704
10352SOL    HW131955   4.962   2.030   6.788
10352SOL    HW231956   5.055   1.912   6.725
10353SOL     OW31957   6.683   2.554   5.676
10353SOL    HW131958   6.606   2.503   5.638
10353SOL    HW231959   6.652   2.646   5.701
10354SOL     OW31960   6.027   1.993   2.367
10354SOL    HW131961   6.046   2.077   2.318
10354SOL    HW231962   6.106   1.932   2.363
10355SOL     OW31963   1.964   0.501   2.143
10355SOL    HW131964   1.984   0.471   2.049
10355SOL    HW231965   1.866   0.493   2.160
10356SOL     OW31966   6.729   3.990   5.902
10356SOL    HW131967   6.700   3.968   5.808
10356SOL    HW231968   6.738   4.089   5.912
10357SOL     OW31969   3.047   2.761   6.569
10357SOL    HW131970   2.951   2.787   6.557
10357SOL    HW231971   3.102   2.805   6.498
10358SOL     OW31972   6.173   3.622   3.780
10358SOL    HW131973   6.074   3.628   3.795
10358SOL    HW231974   6.214   3.567   3.853
10359SOL     OW31975   6.426   1.412   1.839
10359SOL    HW131976   6.374   1.493   1.865
10359SOL    HW231977   6.424   1.401   1.739
10360SOL     OW31978   4.458   5.358   1.184
10360SOL    HW131979   4.377   5.406   1.152
10360SOL    HW231980   4.434   5.299   1.261
10361SOL     OW31981   2.631   1.247   3.044
10361SOL    HW131982   2.703   1.301   3.089
10361SOL    HW231983   2.673   1.177   2.986
10362SOL     OW31984   0.773   5.330   3.800
10362SOL    HW131985   0.744   5.318   3.706
10362SOL    HW231986   0.742   5.419   3.834
10363SOL     OW31987   4.436   2.734   0.739
10363SOL    HW131988   4.463   2.680   0.819
10363SOL    HW231989   4.352   2.696   0.701
10364SOL     OW31990   3.479   3.607   1.933
10364SOL    HW131991   3.565   3.562   1.912
10364SOL    HW231992   3.461   3.678   1.865
10365SOL     OW31993   5.052   4.317   5.417
10365SOL    HW131994   5.081   4.412   5.410
10365SOL    HW231995   5.017   4.299   5.509
10366SOL     OW31996   3.952   0.114   4.271
10366SOL    HW131997   3.902   0.201   4.272
10366SOL    HW231998   3.909   0.051   4.206
10367SOL     OW31999   6.897   1.845   2.397
10367SOL    HW132000   6.818   1.788   2.419
10367SOL    HW232001   6.941   1.811   2.313
10368SOL     OW32002   2.205   1.023   2.459
10368SOL    HW132003   2.205   1.023   2.559
10368SOL    HW232004   2.114   1.045   2.425
10369SOL     OW32005   3.411   1.177   5.627
10369SOL    HW132006   3.314   1.181   5.650
10369SOL    HW232007   3.454   1.104   5.680
10370SOL     OW32008   5.584   1.201   5.194
10370SOL    HW132009   5.603   1.167   5.101
10370SOL    HW232010   5.634   1.286   5.209
10371SOL     OW32011   2.398   5.980   4.780
10371SOL    HW132012   2.320   5.960   4.839
10371SOL    HW232013   2.442   5.894   4.753
10372SOL     OW32014   1.781   0.919   0.484
10372SOL    HW132015   1.816   0.938   0.393
10372SOL    HW232016   1.824   0.836   0.519
10373SOL     OW32017   1.608   6.514   5.397
10373SOL    HW132018   1.653   6.429   5.371
10373SOL    HW232019   1.534   6.495   5.461
10374SOL     OW32020   2.681   1.109   3.336
10374SOL    HW132021   2.686   1.208   3.325
10374SOL    HW232022   2.585   1.082   3.345
10375SOL     OW32023   2.499   2.105   6.345
10375SOL    HW132024   2.597   2.082   6.340
10375SOL    HW232025   2.475   2.128   6.439
10376SOL     OW32026   0.983   5.707   3.621
10376SOL    HW132027   1.018   5.734   3.711
10376SOL    HW232028   0.974   5.607   3.618
10377SOL     OW32029   6.217   1.002   3.591
10377SOL    HW132030   6.219   0.962   3.500
10377SOL    HW232031   6.122   1.006   3.623
10378SOL     OW32032   5.439   6.593   5.252
10378SOL    HW132033   5.515   6.643   5.212
10378SOL    HW232034   5.415   6.515   5.194
10379SOL     OW32035   3.532   6.583   3.993
10379SOL    HW132036   3.497   6.535   4.073
10379SOL    HW232037   3.553   6.678   4.017
10380SOL     OW32038   0.511   2.313   5.085
10380SOL    HW132039   0.543   2.400   5.048
10380SOL    HW232040   0.475   2.257   5.010
10381SOL     OW32041   4.116   4.730   0.751
10381SOL    HW132042   4.205   4.758   0.788
10381SOL    HW232043   4.128   4.690   0.661
10382SOL     OW32044   2.164   4.877   1.270
10382SOL    HW132045   2.206   4.945   1.210
10382SOL    HW232046   2.235   4.831   1.323
10383SOL     OW32047   0.552   3.931   1.015
10383SOL    HW132048   0.537   4.028   0.994
10383SOL    HW232049   0.474   3.878   0.983
10384SOL     OW32050   6.799   0.549   1.037
10384SOL    HW132051   6.858   0.492   1.095
10384SOL    HW232052   6.855   0.618   0.991
10385SOL     OW32053   4.106   6.425   5.652
10385SOL    HW132054   4.199   6.462   5.654
10385SOL    HW232055   4.077   6.404   5.746
10386SOL     OW32056   6.590   1.697   5.227
10386SOL    HW132057   6.503   1.739   5.255
10386SOL    HW232058   6.642   1.670   5.309
10387SOL     OW32059   4.749   1.728   2.250
10387SOL    HW132060   4.700   1.771   2.326
10387SOL    HW232061   4.793   1.644   2.282
10388SOL     OW32062   2.084   5.752   2.282
10388SOL    HW132063   2.082   5.689   2.204
10388SOL    HW232064   1.990   5.771   2.312
10389SOL     OW32065   6.906   6.121   1.230
10389SOL    HW132066   6.858   6.206   1.207
10389SOL    HW232067   6.960   6.135   1.313
10390SOL     OW32068   1.917   2.357   1.263
10390SOL    HW132069   1.912   2.432   1.328
10390SOL    HW232070   1.976   2.285   1.301
10391SOL     OW32071   0.425   6.260   3.819
10391SOL    HW132072   0.355   6.225   3.757
10391SOL    HW232073   0.465   6.343   3.780
10392SOL     OW32074   6.809   4.153   6.209
10392SOL    HW132075   6.769   4.196   6.290
10392SOL    HW232076   6.828   4.057   6.229
10393SOL     OW32077   2.650   2.372   2.653
10393SOL    HW132078   2.550   2.382   2.656
10393SOL    HW232079   2.673   2.290   2.601
10394SOL     OW32080   2.205   5.963   4.964
10394SOL    HW132081   2.119   5.922   4.933
10394SOL    HW232082   2.197   5.986   5.061
10395SOL     OW32083   6.984   1.137   3.546
10395SOL    HW132084   6.887   1.161   3.546
10395SOL    HW232085   6.996   1.051   3.596
10396SOL     OW32086   3.087   0.888   4.115
10396SOL    HW132087   3.178   0.893   4.155
10396SOL    HW232088   3.047   0.798   4.132
10397SOL     OW32089   2.854   1.577   4.392
10397SOL    HW132090   2.912   1.583   4.311
10397SOL    HW232091   2.788   1.653   4.391
10398SOL     OW32092   4.919   2.177   0.521
10398SOL    HW132093   4.925   2.079   0.500
10398SOL    HW232094   5.010   2.217   0.521
10399SOL     OW32095   4.356   1.651   4.363
10399SOL    HW132096   4.376   1.748   4.355
10399SOL    HW232097   4.273   1.638   4.418
10400SOL     OW32098   4.089   5.545   0.198
10400SOL    HW132099   4.074   5.495   0.113
10400SOL    HW232100   4.178   5.518   0.237
10401SOL     OW32101   0.149   0.026   2.328
10401SOL    HW132102   0.224   0.088   2.301
10401SOL    HW232103   0.176   6.988   2.408
10402SOL     OW32104   0.548   2.273   6.030
10402SOL    HW132105   0.591   2.318   5.951
10402SOL    HW232106   0.483   2.335   6.074
10403SOL     OW32107   4.255   1.295   3.016
10403SOL    HW132108   4.219   1.363   2.953
10403SOL    HW232109   4.280   1.339   3.102
10404SOL     OW32110   6.956   0.021   4.604
10404SOL    HW132111   6.957   6.964   4.536
10404SOL    HW232112   6.866   0.026   4.647
10405SOL     OW32113   1.374   5.693   4.766
10405SOL    HW132114   1.324   5.779   4.762
10405SOL    HW232115   1.372   5.648   4.677
10406SOL     OW32116   2.141   3.322   5.355
10406SOL    HW132117   2.192   3.380   5.291
10406SOL    HW232118   2.051   3.303   5.317
10407SOL     OW32119   2.328   0.697   6.480
10407SOL    HW132120   2.373   0.775   6.524
10407SOL    HW232121   2.248   0.670   6.534
10408SOL     OW32122   4.159   6.109   1.942
10408SOL    HW132123   4.159   6.163   2.026
10408SOL    HW232124   4.068   6.073   1.925
10409SOL     OW32125   0.816   4.007   0.898
10409SOL    HW132126   0.793   4.050   0.810
10409SOL    HW232127   0.771   3.918   0.904
10410SOL     OW32128   5.613   2.475   1.338
10410SOL    HW132129   5.530   2.423   1.315
10410SOL    HW232130   5.667   2.424   1.405
10411SOL     OW32131   3.798   5.837   4.709
10411SOL    HW132132   3.754   5.781   4.639
10411SOL    HW232133   3.826   5.779   4.785
10412SOL     OW32134   6.728   0.933   0.919
10412SOL    HW132135   6.755   0.846   0.876
10412SOL    HW232136   6.749   0.929   1.017
10413SOL     OW32137   0.078   1.414   1.829
10413SOL    HW132138   0.043   1.507   1.817
10413SOL    HW232139   0.111   1.379   1.741
10414SOL     OW32140   3.770   5.746   5.732
10414SOL    HW132141   3.765   5.699   5.820
10414SOL    HW232142   3.813   5.685   5.665
10415SOL     OW32143   1.741   4.269   3.844
10415SOL    HW132144   1.840   4.260   3.849
10415SOL    HW232145   1.699   4.229   3.926
10416SOL     OW32146   5.891   0.294   5.224
10416SOL    HW132147   5.915   0.348   5.305
10416SOL    HW232148   5.814   0.234   5.246
10417SOL     OW32149   4.591   5.531   4.693
10417SOL    HW132150   4.562   5.561   4.602
10417SOL    HW232151   4.679   5.572   4.715
10418SOL     OW32152   6.189   3.997   5.735
10418SOL    HW132153   6.267   3.935   5.728
10418SOL    HW232154   6.202   4.058   5.814
10419SOL     OW32155   3.203   0.076   5.264
10419SOL    HW132156   3.232   0.075   5.168
10419SOL    HW232157   3.275   0.036   5.321
10420SOL     OW32158   6.976   3.828   3.983
10420SOL    HW132159   6.985   3.911   4.037
10420SOL    HW232160   0.022   3.832   3.904
10421SOL     OW32161   1.839   3.250   4.797
10421SOL    HW132162   1.810   3.272   4.704
10421SOL    HW232163   1.926   3.202   4.795
10422SOL     OW32164   6.946   3.532   4.959
10422SOL    HW132165   6.911   3.516   4.867
10422SOL    HW232166   7.003   3.455   4.987
10423SOL     OW32167   4.695   5.359   5.110
10423SOL    HW132168   4.768   5.303   5.149
10423SOL    HW232169   4.656   5.313   5.030
10424SOL     OW32170   3.955   3.109   0.386
10424SOL    HW132171   4.015   3.133   0.309
10424SOL    HW232172   3.988   3.153   0.469
10425SOL     OW32173   1.054   5.705   2.642
10425SOL    HW132174   1.065   5.776   2.710
10425SOL    HW232175   1.027   5.746   2.555
10426SOL     OW32176   5.333   4.490   6.132
10426SOL    HW132177   5.363   4.411   6.185
10426SOL    HW232178   5.329   4.465   6.035
10427SOL     OW32179   5.073   0.713   0.275
10427SOL    HW132180   5.095   0.720   0.178
10427SOL    HW232181   5.106   0.625   0.310
10428SOL     OW32182   2.997   1.583   4.070
10428SOL    HW132183   3.004   1.522   3.992
10428SOL    HW232184   3.041   1.671   4.049
10429SOL     OW32185   0.897   3.605   2.935
10429SOL    HW132186   0.914   3.704   2.941
10429SOL    HW232187   0.914   3.575   2.841
10430SOL     OW32188   3.477   6.582   4.936
10430SOL    HW132189   3.532   6.520   4.881
10430SOL    HW232190   3.383   6.583   4.902
10431SOL     OW32191   2.938   6.866   4.530
10431SOL    HW132192   2.930   6.962   4.503
10431SOL    HW232193   3.010   6.856   4.598
10432SOL     OW32194   6.866   1.510   5.023
10432SOL    HW132195   6.899   1.600   5.051
10432SOL    HW232196   6.927   1.440   5.059
10433SOL     OW32197   0.583   6.771   2.692
10433SOL    HW132198   0.576   6.744   2.788
10433SOL    HW232199   0.611   6.867   2.687
10434SOL     OW32200   3.376   6.201   4.005
10434SOL    HW132201   3.421   6.258   3.936
10434SOL    HW232202   3.388   6.242   4.095
10435SOL     OW32203   2.026   2.232   6.197
10435SOL    HW132204   2.008   2.135   6.214
10435SOL    HW232205   2.113   2.257   6.240
10436SOL     OW32206   6.436   3.640   4.490
10436SOL    HW132207   6.384   3.683   4.564
10436SOL    HW232208   6.422   3.541   4.493
10437SOL     OW32209   6.420   5.006   5.675
10437SOL    HW132210   6.506   4.980   5.631
10437SOL    HW232211   6.440   5.043   5.766
10438SOL     OW32212   0.924   6.269   5.890
10438SOL    HW132213   0.954   6.200   5.956
10438SOL    HW232214   0.942   6.360   5.927
10439SOL     OW32215   5.336   1.150   5.028
10439SOL    HW132216   5.331   1.133   5.126
10439SOL    HW232217   5.432   1.148   4.999
10440SOL     OW32218   0.270   0.092   0.211
10440SOL    HW132219   0.317   0.102   0.299
10440SOL    HW232220   0.332   0.116   0.137
10441SOL     OW32221   2.780   1.560   1.328
10441SOL    HW132222   2.733   1.472   1.316
10441SOL    HW232223   2.815   1.567   1.421
10442SOL     OW32224   4.527   6.738   5.089
10442SOL    HW132225   4.618   6.699   5.076
10442SOL    HW232226   4.534   6.831   5.123
10443SOL     OW32227   5.211   2.408   3.058
10443SOL    HW132228   5.178   2.341   3.125
10443SOL    HW232229   5.267   2.361   2.989
10444SOL     OW32230   4.080   5.914   2.156
10444SOL    HW132231   4.139   5.886   2.080
10444SOL    HW232232   3.985   5.897   2.131
10445SOL     OW32233   0.678   3.577   3.240
10445SOL    HW132234   0.718   3.658   3.284
10445SOL    HW232235   0.628   3.605   3.158
10446SOL     OW32236   2.293   3.289   6.386
10446SOL    HW132237   2.200   3.283   6.351
10446SOL    HW232238   2.325   3.198   6.413
10447SOL     OW32239   0.448   0.365   2.941
10447SOL    HW132240   0.423   0.384   2.846
10447SOL    HW232241   0.367   0.374   2.999
10448SOL     OW32242   3.947   0.662   2.214
10448SOL    HW132243   4.013   0.587   2.210
10448SOL    HW232244   3.964   0.726   2.139
10449SOL     OW32245   1.678   5.522   6.372
10449SOL    HW132246   1.642   5.591   6.309
10449SOL    HW232247   1.622   5.440   6.368
10450SOL     OW32248   6.865   1.592   0.098
10450SOL    HW132249   6.857   1.504   0.051
10450SOL    HW232250   6.775   1.624   0.126
10451SOL     OW32251   2.450   6.031   3.133
10451SOL    HW132252   2.396   6.105   3.095
10451SOL    HW232253   2.507   5.991   3.062
10452SOL     OW32254   6.166   2.905   2.885
10452SOL    HW132255   6.117   2.971   2.941
10452SOL    HW232256   6.180   2.821   2.936
10453SOL     OW32257   5.800   6.224   1.399
10453SOL    HW132258   5.885   6.270   1.424
10453SOL    HW232259   5.816   6.125   1.395
10454SOL     OW32260   5.857   2.151   0.136
10454SOL    HW132261   5.799   2.070   0.145
10454SOL    HW232262   5.932   2.145   0.202
10455SOL     OW32263   6.998   6.296   3.327
10455SOL    HW132264   6.906   6.284   3.289
10455SOL    HW232265   6.993   6.354   3.408
10456SOL     OW32266   1.164   5.023   0.766
10456SOL    HW132267   1.251   4.976   0.780
10456SOL    HW232268   1.170   5.116   0.800
10457SOL     OW32269   4.136   3.177   0.163
10457SOL    HW132270   4.174   3.224   0.083
10457SOL    HW232271   4.171   3.083   0.166
10458SOL     OW32272   6.350   0.255   5.783
10458SOL    HW132273   6.448   0.235   5.778
10458SOL    HW232274   6.321   0.258   5.878
10459SOL     OW32275   4.706   5.779   1.250
10459SOL    HW132276   4.690   5.785   1.152
10459SOL    HW232277   4.659   5.698   1.287
10460SOL     OW32278   1.770   4.269   1.622
10460SOL    HW132279   1.846   4.328   1.649
10460SOL    HW232280   1.804   4.179   1.595
10461SOL     OW32281   5.994   4.768   5.272
10461SOL    HW132282   5.969   4.745   5.366
10461SOL    HW232283   5.911   4.785   5.219
10462SOL     OW32284   5.642   2.411   3.089
10462SOL    HW132285   5.624   2.475   3.015
10462SOL    HW232286   5.605   2.321   3.066
10463SOL     OW32287   4.176   2.433   5.985
10463SOL    HW132288   4.145   2.517   5.940
10463SOL    HW232289   4.150   2.435   6.081
10464SOL     OW32290   6.298   6.531   2.300
10464SOL    HW132291   6.259   6.500   2.213
10464SOL    HW232292   6.286   6.461   2.369
10465SOL     OW32293   5.694   5.596   0.974
10465SOL    HW132294   5.721   5.683   1.014
10465SOL    HW232295   5.597   5.597   0.951
10466SOL     OW32296   4.615   4.664   5.283
10466SOL    HW132297   4.668   4.658   5.368
10466SOL    HW232298   4.589   4.759   5.267
10467SOL     OW32299   2.249   1.834   0.288
10467SOL    HW132300   2.278   1.832   0.384
10467SOL    HW232301   2.158   1.876   0.282
10468SOL     OW32302   3.766   4.902   3.396
10468SOL    HW132303   3.685   4.932   3.346
10468SOL    HW232304   3.740   4.874   3.489
10469SOL     OW32305   3.804   4.331   5.753
10469SOL    HW132306   3.887   4.346   5.700
10469SOL    HW232307   3.804   4.392   5.833
10470SOL     OW32308   1.660   1.973   3.445
10470SOL    HW132309   1.747   1.953   3.489
10470SOL    HW232310   1.625   2.060   3.478
10471SOL     OW32311   2.251   0.253   0.460
10471SOL    HW132312   2.338   0.257   0.509
10471SOL    HW232313   2.249   0.172   0.402
10472SOL     OW32314   2.990   5.989   0.436
10472SOL    HW132315   3.025   6.017   0.525
10472SOL    HW232316   2.966   5.892   0.438
10473SOL     OW32317   6.054   6.916   6.272
10473SOL    HW132318   6.091   6.886   6.360
10473SOL    HW232319   6.100   6.868   6.198
10474SOL     OW32320   4.291   1.404   4.202
10474SOL    HW132321   4.296   1.495   4.160
10474SOL    HW232322   4.259   1.412   4.296
10475SOL     OW32323   4.140   6.405   1.518
10475SOL    HW132324   4.219   6.381   1.462
10475SOL    HW232325   4.138   6.504   1.533
10476SOL     OW32326   6.156   6.174   6.563
10476SOL    HW132327   6.214   6.098   6.591
10476SOL    HW232328   6.068   6.168   6.610
10477SOL     OW32329   0.002   1.450   4.408
10477SOL    HW132330   7.015   1.439   4.508
10477SOL    HW232331   6.953   1.386   4.366
10478SOL     OW32332   6.289   0.379   0.752
10478SOL    HW132333   6.221   0.451   0.734
10478SOL    HW232334   6.350   0.409   0.825
10479SOL     OW32335   0.045   1.533   2.706
10479SOL    HW132336   0.087   1.559   2.619
10479SOL    HW232337   0.078   1.443   2.734
10480SOL     OW32338   0.958   0.476   2.165
10480SOL    HW132339   1.033   0.535   2.193
10480SOL    HW232340   0.883   0.484   2.231
10481SOL     OW32341   1.962   5.996   3.977
10481SOL    HW132342   1.946   6.040   3.889
10481SOL    HW232343   2.020   5.916   3.965
10482SOL     OW32344   6.544   5.008   4.541
10482SOL    HW132345   6.472   4.975   4.602
10482SOL    HW232346   6.556   4.943   4.466
10483SOL     OW32347   6.413   5.403   0.364
10483SOL    HW132348   6.370   5.398   0.454
10483SOL    HW232349   6.442   5.312   0.335
10484SOL     OW32350   5.702   1.770   1.584
10484SOL    HW132351   5.722   1.676   1.559
10484SOL    HW232352   5.729   1.786   1.679
10485SOL     OW32353   3.368   4.121   0.673
10485SOL    HW132354   3.306   4.053   0.636
10485SOL    HW232355   3.390   4.188   0.602
10486SOL     OW32356   0.254   0.643   0.479
10486SOL    HW132357   0.305   0.601   0.404
10486SOL    HW232358   0.158   0.652   0.454
10487SOL     OW32359   4.791   0.810   1.153
10487SOL    HW132360   4.888   0.811   1.128
10487SOL    HW232361   4.781   0.839   1.248
10488SOL     OW32362   3.470   1.175   6.277
10488SOL    HW132363   3.509   1.264   6.255
10488SOL    HW232364   3.379   1.187   6.317
10489SOL     OW32365   0.783   6.806   5.351
10489SOL    HW132366   0.833   6.840   5.272
10489SOL    HW232367   0.846   6.792   5.428
10490SOL     OW32368   5.767   1.401   1.274
10490SOL    HW132369   5.690   1.422   1.213
10490SOL    HW232370   5.851   1.439   1.235
10491SOL     OW32371   2.268   2.498   7.005
10491SOL    HW132372   2.272   2.414   0.043
10491SOL    HW232373   2.360   2.538   6.998
10492SOL     OW32374   5.572   4.841   6.031
10492SOL    HW132375   5.623   4.859   6.115
10492SOL    HW232376   5.515   4.921   6.009
10493SOL     OW32377   3.242   0.885   2.401
10493SOL    HW132378   3.295   0.970   2.404
10493SOL    HW232379   3.153   0.899   2.445
10494SOL     OW32380   5.471   3.981   6.042
10494SOL    HW132381   5.378   3.991   6.008
10494SOL    HW232382   5.531   4.047   5.996
10495SOL     OW32383   1.391   6.728   6.999
10495SOL    HW132384   1.458   6.782   6.947
10495SOL    HW232385   1.321   6.693   6.936
10496SOL     OW32386   0.064   3.946   6.236
10496SOL    HW132387   0.140   3.911   6.182
10496SOL    HW232388   7.005   3.879   6.237
10497SOL     OW32389   1.644   6.869   1.913
10497SOL    HW132390   1.615   6.956   1.875
10497SOL    HW232391   1.650   6.801   1.840
10498SOL     OW32392   3.456   5.469   0.717
10498SOL    HW132393   3.432   5.372   0.729
10498SOL    HW232394   3.437   5.519   0.802
10499SOL     OW32395   3.754   0.099   2.508
10499SOL    HW132396   3.680   0.145   2.557
10499SOL    HW232397   3.718   0.018   2.462
10500SOL     OW32398   6.041   1.663   6.527
10500SOL    HW132399   5.970   1.593   6.528
10500SOL    HW232400   6.117   1.634   6.585
10501SOL     OW32401   1.972   5.658   2.612
10501SOL    HW132402   1.885   5.654   2.660
10501SOL    HW232403   2.035   5.590   2.650
10502SOL     OW32404   2.414   0.320   1.544
10502SOL    HW132405   2.359   0.367   1.613
10502SOL    HW232406   2.464   0.387   1.490
10503SOL     OW32407   4.478   2.620   0.331
10503SOL    HW132408   4.430   2.664   0.407
10503SOL    HW232409   4.557   2.570   0.365
10504SOL     OW32410   0.700   2.271   5.506
10504SOL    HW132411   0.787   2.256   5.457
10504SOL    HW232412   0.624   2.255   5.443
10505SOL     OW32413   5.616   5.118   0.495
10505SOL    HW132414   5.672   5.060   0.554
10505SOL    HW232415   5.605   5.076   0.405
10506SOL     OW32416   0.302   4.455   0.695
10506SOL    HW132417   0.400   4.467   0.677
10506SOL    HW232418   0.271   4.527   0.758
10507SOL     OW32419   2.030   6.769   0.165
10507SOL    HW132420   2.025   6.781   0.264
10507SOL    HW232421   1.955   6.709   0.135
10508SOL     OW32422   6.129   6.717   4.773
10508SOL    HW132423   6.090   6.797   4.726
10508SOL    HW232424   6.061   6.680   4.835
10509SOL     OW32425   1.143   5.262   3.988
10509SOL    HW132426   1.169   5.346   3.941
10509SOL    HW232427   1.097   5.201   3.922
10510SOL     OW32428   4.448   6.136   6.027
10510SOL    HW132429   4.502   6.053   6.011
10510SOL    HW232430   4.352   6.111   6.044
10511SOL     OW32431   3.997   1.104   2.373
10511SOL    HW132432   4.042   1.055   2.299
10511SOL    HW232433   4.034   1.074   2.461
10512SOL     OW32434   4.266   0.307   6.102
10512SOL    HW132435   4.245   0.396   6.142
10512SOL    HW232436   4.311   0.320   6.013
10513SOL     OW32437   6.009   2.729   4.501
10513SOL    HW132438   6.089   2.672   4.521
10513SOL    HW232439   5.934   2.704   4.562
10514SOL     OW32440   0.423   3.935   0.627
10514SOL    HW132441   0.352   3.921   0.558
10514SOL    HW232442   0.386   3.989   0.702
10515SOL     OW32443   1.026   3.395   3.010
10515SOL    HW132444   0.968   3.316   2.988
10515SOL    HW232445   0.979   3.479   2.985
10516SOL     OW32446   3.852   1.235   0.313
10516SOL    HW132447   3.940   1.243   0.360
10516SOL    HW232448   3.784   1.292   0.358
10517SOL     OW32449   0.981   2.454   2.524
10517SOL    HW132450   0.975   2.497   2.614
10517SOL    HW232451   1.062   2.488   2.476
10518SOL     OW32452   0.890   5.963   6.501
10518SOL    HW132453   0.817   5.975   6.434
10518SOL    HW232454   0.977   5.947   6.455
10519SOL     OW32455   2.455   3.323   0.020
10519SOL    HW132456   2.471   3.397   6.969
10519SOL    HW232457   2.531   3.259   0.018
10520SOL     OW32458   0.815   2.608   6.350
10520SOL    HW132459   0.803   2.588   6.448
10520SOL    HW232460   0.913   2.602   6.328
10521SOL     OW32461   6.628   6.533   2.697
10521SOL    HW132462   6.654   6.609   2.638
10521SOL    HW232463   6.571   6.468   2.646
10522SOL     OW32464   0.337   0.368   5.703
10522SOL    HW132465   0.381   0.325   5.625
10522SOL    HW232466   0.366   0.463   5.709
10523SOL     OW32467   6.988   4.875   3.785
10523SOL    HW132468   0.013   4.809   3.849
10523SOL    HW232469   0.026   4.960   3.786
10524SOL     OW32470   1.864   0.539   5.020
10524SOL    HW132471   1.789   0.588   4.976
10524SOL    HW232472   1.841   0.523   5.116
10525SOL     OW32473   3.745   6.402   6.956
10525SOL    HW132474   3.681   6.337   6.996
10525SOL    HW232475   3.737   6.402   6.857
10526SOL     OW32476   1.525   0.099   3.810
10526SOL    HW132477   1.486   0.124   3.898
10526SOL    HW232478   1.582   0.174   3.775
10527SOL     OW32479   0.367   1.930   4.853
10527SOL    HW132480   0.362   1.866   4.776
10527SOL    HW232481   0.310   1.897   4.928
10528SOL     OW32482   1.487   3.481   6.204
10528SOL    HW132483   1.470   3.548   6.277
10528SOL    HW232484   1.573   3.505   6.157
10529SOL     OW32485   3.217   5.478   3.884
10529SOL    HW132486   3.202   5.561   3.829
10529SOL    HW232487   3.265   5.410   3.828
10530SOL     OW32488   2.072   0.004   6.582
10530SOL    HW132489   2.133   6.944   6.606
10530SOL    HW232490   2.075   0.018   6.483
10531SOL     OW32491   1.343   2.889   3.886
10531SOL    HW132492   1.437   2.868   3.858
10531SOL    HW232493   1.338   2.986   3.911
10532SOL     OW32494   1.106   5.686   5.388
10532SOL    HW132495   1.105   5.648   5.295
10532SOL    HW232496   1.013   5.707   5.416
10533SOL     OW32497   2.867   0.848   5.188
10533SOL    HW132498   2.826   0.873   5.275
10533SOL    HW232499   2.958   0.808   5.204
10534SOL     OW32500   0.063   5.859   1.606
10534SOL    HW132501   0.114   5.812   1.534
10534SOL    HW232502   0.119   5.932   1.645
10535SOL     OW32503   0.871   1.942   1.404
10535SOL    HW132504   0.927   1.860   1.391
10535SOL    HW232505   0.848   1.951   1.501
10536SOL     OW32506   3.969   0.468   2.891
10536SOL    HW132507   4.028   0.499   2.816
10536SOL    HW232508   3.981   0.370   2.904
10537SOL     OW32509   3.907   5.486   4.104
10537SOL    HW132510   3.832   5.548   4.127
10537SOL    HW232511   3.905   5.466   4.006
10538SOL     OW32512   5.292   1.927   0.817
10538SOL    HW132513   5.199   1.918   0.851
10538SOL    HW232514   5.357   1.921   0.893
10539SOL     OW32515   0.738   4.300   6.986
10539SOL    HW132516   0.687   4.228   6.939
10539SOL    HW232517   0.833   4.301   6.955
10540SOL     OW32518   1.667   2.423   4.878
10540SOL    HW132519   1.580   2.430   4.928
10540SOL    HW232520   1.648   2.417   4.780
10541SOL     OW32521   3.470   4.101   2.428
10541SOL    HW132522   3.398   4.056   2.374
10541SOL    HW232523   3.514   4.033   2.487
10542SOL     OW32524   6.774   0.274   5.583
10542SOL    HW132525   6.756   0.248   5.488
10542SOL    HW232526   6.800   0.370   5.588
10543SOL     OW32527   0.389   0.687   5.079
10543SOL    HW132528   0.351   0.755   5.017
10543SOL    HW232529   0.334   0.603   5.074
10544SOL     OW32530   2.573   6.468   1.775
10544SOL    HW132531   2.597   6.556   1.733
10544SOL    HW232532   2.474   6.464   1.788
10545SOL     OW32533   6.515   1.072   2.064
10545SOL    HW132534   6.562   1.098   2.148
10545SOL    HW232535   6.427   1.121   2.059
10546SOL     OW32536   1.822   0.966   6.822
10546SOL    HW132537   1.895   0.901   6.843
10546SOL    HW232538   1.853   1.058   6.842
10547SOL     OW32539   5.562   2.702   2.524
10547SOL    HW132540   5.514   2.678   2.608
10547SOL    HW232541   5.497   2.708   2.449
10548SOL     OW32542   5.522   4.423   4.597
10548SOL    HW132543   5.575   4.421   4.513
10548SOL    HW232544   5.430   4.386   4.579
10549SOL     OW32545   0.125   0.039   1.905
10549SOL    HW132546   0.132   6.972   1.961
10549SOL    HW232547   0.043   0.036   1.849
10550SOL     OW32548   4.087   6.269   3.986
10550SOL    HW132549   4.158   6.303   3.924
10550SOL    HW232550   4.129   6.222   4.063
10551SOL     OW32551   1.184   2.606   5.571
10551SOL    HW132552   1.117   2.650   5.511
10551SOL    HW232553   1.217   2.673   5.638
10552SOL     OW32554   3.197   1.500   6.690
10552SOL    HW132555   3.142   1.432   6.738
10552SOL    HW232556   3.263   1.454   6.631
10553SOL     OW32557   0.708   4.507   1.745
10553SOL    HW132558   0.688   4.591   1.695
10553SOL    HW232559   0.773   4.452   1.693
10554SOL     OW32560   5.677   5.020   0.200
10554SOL    HW132561   5.611   5.058   0.135
10554SOL    HW232562   5.701   4.927   0.172
10555SOL     OW32563   1.996   2.744   0.308
10555SOL    HW132564   1.896   2.754   0.312
10555SOL    HW232565   2.024   2.730   0.213
10556SOL     OW32566   2.011   1.825   5.785
10556SOL    HW132567   2.075   1.748   5.787
10556SOL    HW232568   2.044   1.893   5.720
10557SOL     OW32569   2.209   2.470   3.131
10557SOL    HW132570   2.256   2.398   3.081
10557SOL    HW232571   2.111   2.464   3.114
10558SOL     OW32572   3.523   1.387   3.658
10558SOL    HW132573   3.558   1.373   3.751
10558SOL    HW232574   3.599   1.395   3.595
10559SOL     OW32575   5.204   0.277   0.971
10559SOL    HW132576   5.120   0.331   0.961
10559SOL    HW232577   5.267   0.300   0.897
10560SOL     OW32578   3.353   6.208   2.728
10560SOL    HW132579   3.348   6.304   2.702
10560SOL    HW232580   3.351   6.151   2.646
10561SOL     OW32581   3.051   4.095   0.844
10561SOL    HW132582   3.056   4.133   0.752
10561SOL    HW232583   3.123   4.027   0.856
10562SOL     OW32584   4.426   5.446   0.048
10562SOL    HW132585   4.392   5.354   0.063
10562SOL    HW232586   4.417   5.470   6.967
10563SOL     OW32587   0.762   1.534   3.503
10563SOL    HW132588   0.832   1.562   3.569
10563SOL    HW232589   0.672   1.532   3.548
10564SOL     OW32590   5.986   6.091   1.635
10564SOL    HW132591   5.921   6.102   1.711
10564SOL    HW232592   6.046   6.013   1.655
10565SOL     OW32593   0.523   0.669   5.966
10565SOL    HW132594   0.483   0.749   6.011
10565SOL    HW232595   0.451   0.602   5.948
10566SOL     OW32596   3.790   2.219   0.093
10566SOL    HW132597   3.871   2.198   0.147
10566SOL    HW232598   3.817   2.264   0.008
10567SOL     OW32599   3.234   1.790   4.436
10567SOL    HW132600   3.207   1.781   4.340
10567SOL    HW232601   3.154   1.771   4.494
10568SOL     OW32602   6.130   2.910   1.788
10568SOL    HW132603   6.218   2.948   1.760
10568SOL    HW232604   6.113   2.825   1.738
10569SOL     OW32605   5.724   1.840   1.849
10569SOL    HW132606   5.773   1.766   1.895
10569SOL    HW232607   5.768   1.928   1.870
10570SOL     OW32608   1.609   5.023   3.466
10570SOL    HW132609   1.539   5.023   3.537
10570SOL    HW232610   1.593   5.101   3.404
10571SOL     OW32611   0.074   4.609   5.297
10571SOL    HW132612   0.035   4.544   5.362
10571SOL    HW232613   0.043   4.701   5.319
10572SOL     OW32614   0.335   4.442   3.205
10572SOL    HW132615   0.260   4.479   3.150
10572SOL    HW232616   0.317   4.346   3.226
10573SOL     OW32617   4.665   0.283   5.009
10573SOL    HW132618   4.619   0.273   5.097
10573SOL    HW232619   4.625   0.220   4.942
10574SOL     OW32620   1.848   1.710   3.968
10574SOL    HW132621   1.793   1.662   4.037
10574SOL    HW232622   1.824   1.676   3.877
10575SOL     OW32623   6.869   1.109   3.059
10575SOL    HW132624   6.781   1.147   3.086
10575SOL    HW232625   6.857   1.018   3.021
10576SOL     OW32626   0.088   6.236   5.180
10576SOL    HW132627   0.160   6.302   5.203
10576SOL    HW232628   0.012   6.245   5.245
10577SOL     OW32629   2.290   3.429   0.195
10577SOL    HW132630   2.242   3.388   0.273
10577SOL    HW232631   2.339   3.357   0.145
10578SOL     OW32632   5.819   1.595   3.083
10578SOL    HW132633   5.752   1.667   3.061
10578SOL    HW232634   5.911   1.630   3.070
10579SOL     OW32635   4.040   2.392   1.683
10579SOL    HW132636   3.966   2.336   1.720
10579SOL    HW232637   4.092   2.339   1.616
10580SOL     OW32638   6.404   0.315   6.853
10580SOL    HW132639   6.403   0.402   6.803
10580SOL    HW232640   6.357   0.326   6.940
10581SOL     OW32641   6.892   6.763   3.395
10581SOL    HW132642   6.976   6.708   3.399
10581SOL    HW232643   6.823   6.714   3.342
10582SOL     OW32644   5.892   5.394   6.545
10582SOL    HW132645   5.837   5.475   6.566
10582SOL    HW232646   5.894   5.379   6.446
10583SOL     OW32647   3.910   1.266   4.698
10583SOL    HW132648   3.984   1.217   4.652
10583SOL    HW232649   3.822   1.239   4.657
10584SOL     OW32650   6.737   6.643   1.333
10584SOL    HW132651   6.712   6.740   1.330
10584SOL    HW232652   6.836   6.634   1.326
10585SOL     OW32653   2.452   2.302   5.656
10585SOL    HW132654   2.435   2.330   5.750
10585SOL    HW232655   2.364   2.284   5.611
10586SOL     OW32656   6.086   5.026   5.258
10586SOL    HW132657   6.053   4.933   5.277
10586SOL    HW232658   6.183   5.032   5.280
10587SOL     OW32659   6.182   4.432   0.150
10587SOL    HW132660   6.095   4.421   0.101
10587SOL    HW232661   6.230   4.511   0.115
10588SOL     OW32662   0.320   3.019   3.712
10588SOL    HW132663   0.310   2.996   3.809
10588SOL    HW232664   0.333   3.117   3.702
10589SOL     OW32665   5.666   1.857   4.125
10589SOL    HW132666   5.641   1.954   4.136
10589SOL    HW232667   5.657   1.811   4.213
10590SOL     OW32668   0.556   0.380   1.967
10590SOL    HW132669   0.516   0.328   1.891
10590SOL    HW232670   0.655   0.387   1.954
10591SOL     OW32671   0.897   1.634   6.590
10591SOL    HW132672   0.975   1.676   6.544
10591SOL    HW232673   0.863   1.557   6.535
10592SOL     OW32674   6.031   4.233   1.667
10592SOL    HW132675   5.962   4.161   1.674
10592SOL    HW232676   6.004   4.298   1.597
10593SOL     OW32677   2.445   5.498   0.296
10593SOL    HW132678   2.427   5.541   0.384
10593SOL    HW232679   2.491   5.410   0.311
10594SOL     OW32680   4.760   6.981   2.166
10594SOL    HW132681   4.764   6.887   2.200
10594SOL    HW232682   4.667   0.001   2.177
10595SOL     OW32683   4.085   6.765   6.523
10595SOL    HW132684   4.132   6.811   6.447
10595SOL    HW232685   4.007   6.713   6.487
10596SOL     OW32686   4.593   0.167   0.258
10596SOL    HW132687   4.558   0.261   0.254
10596SOL    HW232688   4.671   0.163   0.321
10597SOL     OW32689   3.729   0.740   5.209
10597SOL    HW132690   3.734   0.668   5.140
10597SOL    HW232691   3.794   0.813   5.186
10598SOL     OW32692   2.896   2.726   0.456
10598SOL    HW132693   2.813   2.675   0.432
10598SOL    HW232694   2.962   2.722   0.381
10599SOL     OW32695   5.503   2.535   5.802
10599SOL    HW132696   5.504   2.635   5.808
10599SOL    HW232697   5.589   2.499   5.838
10600SOL     OW32698   2.086   2.027   0.629
10600SOL    HW132699   2.102   1.966   0.707
10600SOL    HW232700   2.066   2.119   0.663
10601SOL     OW32701   1.405   4.634   5.055
10601SOL    HW132702   1.357   4.714   5.090
10601SOL    HW232703   1.483   4.612   5.114
10602SOL     OW32704   3.797   1.713   2.248
10602SOL    HW132705   3.758   1.788   2.195
10602SOL    HW232706   3.725   1.650   2.277
10603SOL     OW32707   3.184   5.843   3.331
10603SOL    HW132708   3.162   5.892   3.247
10603SOL    HW232709   3.109   5.854   3.396
10604SOL     OW32710   5.941   5.228   5.572
10604SOL    HW132711   5.985   5.309   5.611
10604SOL    HW232712   5.968   5.218   5.476
10605SOL     OW32713   1.224   5.844   0.351
10605SOL    HW132714   1.321   5.865   0.357
10605SOL    HW232715   1.171   5.929   0.358
10606SOL     OW32716   6.866   0.592   2.718
10606SOL    HW132717   6.907   0.554   2.801
10606SOL    HW232718   6.790   0.535   2.689
10607SOL     OW32719   4.194   4.783   5.548
10607SOL    HW132720   4.111   4.754   5.596
10607SOL    HW232721   4.172   4.859   5.487
10608SOL     OW32722   5.055   2.301   5.567
10608SOL    HW132723   5.013   2.210   5.574
10608SOL    HW232724   5.115   2.315   5.646
10609SOL     OW32725   2.733   6.749   0.386
10609SOL    HW132726   2.759   6.681   0.454
10609SOL    HW232727   2.775   6.726   0.298
10610SOL     OW32728   1.428   2.430   5.621
10610SOL    HW132729   1.410   2.399   5.714
10610SOL    HW232730   1.342   2.458   5.578
10611SOL     OW32731   4.147   3.846   6.174
10611SOL    HW132732   4.174   3.938   6.202
10611SOL    HW232733   4.060   3.821   6.216
10612SOL     OW32734   3.165   0.795   5.213
10612SOL    HW132735   3.198   0.889   5.200
10612SOL    HW232736   3.203   0.736   5.142
10613SOL     OW32737   6.108   7.009   4.982
10613SOL    HW132738   6.030   6.994   4.921
10613SOL    HW232739   6.181   0.039   4.931
10614SOL     OW32740   6.264   2.172   3.781
10614SOL    HW132741   6.300   2.186   3.689
10614SOL    HW232742   6.335   2.135   3.840
10615SOL     OW32743   3.427   6.475   5.611
10615SOL    HW132744   3.411   6.459   5.514
10615SOL    HW232745   3.502   6.418   5.643
10616SOL     OW32746   2.716   5.960   0.812
10616SOL    HW132747   2.806   5.986   0.779
10616SOL    HW232748   2.701   6.000   0.902
10617SOL     OW32749   2.199   2.493   1.468
10617SOL    HW132750   2.243   2.583   1.465
10617SOL    HW232751   2.106   2.500   1.431
10618SOL     OW32752   0.347   4.058   6.613
10618SOL    HW132753   0.343   3.959   6.605
10618SOL    HW232754   0.311   4.086   6.702
10619SOL     OW32755   0.262   4.301   2.132
10619SOL    HW132756   0.301   4.209   2.125
10619SOL    HW232757   0.305   4.350   2.208
10620SOL     OW32758   1.588   5.782   4.912
10620SOL    HW132759   1.502   5.751   4.873
10620SOL    HW232760   1.657   5.711   4.903
10621SOL     OW32761   1.397   6.383   2.233
10621SOL    HW132762   1.425   6.288   2.247
10621SOL    HW232763   1.418   6.411   2.139
10622SOL     OW32764   5.099   1.692   1.331
10622SOL    HW132765   5.087   1.784   1.368
10622SOL    HW232766   5.062   1.624   1.395
10623SOL     OW32767   0.212   4.933   5.323
10623SOL    HW132768   0.119   4.906   5.346
10623SOL    HW232769   0.277   4.873   5.369
10624SOL     OW32770   0.279   3.034   4.841
10624SOL    HW132771   0.339   2.969   4.795
10624SOL    HW232772   0.334   3.093   4.901
10625SOL     OW32773   0.483   4.180   0.295
10625SOL    HW132774   0.383   4.186   0.288
10625SOL    HW232775   0.508   4.087   0.321
10626SOL     OW32776   2.592   3.518   1.132
10626SOL    HW132777   2.591   3.548   1.037
10626SOL    HW232778   2.563   3.423   1.137
10627SOL     OW32779   5.154   6.751   0.415
10627SOL    HW132780   5.080   6.685   0.427
10627SOL    HW232781   5.199   6.734   0.327
10628SOL     OW32782   4.445   6.155   0.062
10628SOL    HW132783   4.390   6.214   0.121
10628SOL    HW232784   4.454   6.197   6.987
10629SOL     OW32785   2.655   5.104   5.080
10629SOL    HW132786   2.697   5.076   5.166
10629SOL    HW232787   2.722   5.155   5.026
10630SOL     OW32788   6.712   1.338   3.981
10630SOL    HW132789   6.616   1.319   3.962
10630SOL    HW232790   6.719   1.422   4.034
10631SOL     OW32791   2.809   4.743   4.635
10631SOL    HW132792   2.821   4.805   4.714
10631SOL    HW232793   2.727   4.688   4.649
10632SOL     OW32794   6.042   1.987   3.641
10632SOL    HW132795   5.964   2.009   3.699
10632SOL    HW232796   6.117   2.050   3.661
10633SOL     OW32797   2.764   3.454   1.326
10633SOL    HW132798   2.698   3.488   1.258
10633SOL    HW232799   2.747   3.357   1.343
10634SOL     OW32800   2.993   6.034   0.851
10634SOL    HW132801   3.051   6.093   0.793
10634SOL    HW232802   2.977   6.080   0.938
10635SOL     OW32803   3.502   1.881   1.104
10635SOL    HW132804   3.505   1.788   1.068
10635SOL    HW232805   3.425   1.930   1.064
10636SOL     OW32806   0.979   1.450   1.616
10636SOL    HW132807   1.032   1.404   1.688
10636SOL    HW232808   0.913   1.386   1.576
10637SOL     OW32809   2.397   4.396   5.634
10637SOL    HW132810   2.467   4.358   5.694
10637SOL    HW232811   2.347   4.322   5.588
10638SOL     OW32812   6.919   5.486   3.246
10638SOL    HW132813   6.831   5.449   3.218
10638SOL    HW232814   6.973   5.508   3.165
10639SOL     OW32815   1.267   3.357   3.141
10639SOL    HW132816   1.189   3.399   3.095
10639SOL    HW232817   1.275   3.394   3.233
10640SOL     OW32818   3.591   0.280   5.599
10640SOL    HW132819   3.622   0.225   5.676
10640SOL    HW232820   3.669   0.317   5.550
10641SOL     OW32821   2.891   1.964   1.092
10641SOL    HW132822   2.805   1.932   1.132
10641SOL    HW232823   2.966   1.940   1.153
10642SOL     OW32824   6.852   3.381   2.025
10642SOL    HW132825   6.759   3.356   2.000
10642SOL    HW232826   6.879   3.464   1.974
10643SOL     OW32827   2.135   5.068   5.211
10643SOL    HW132828   2.228   5.034   5.203
10643SOL    HW232829   2.094   5.033   5.296
10644SOL     OW32830   5.204   2.928   3.228
10644SOL    HW132831   5.231   2.848   3.175
10644SOL    HW232832   5.215   2.908   3.326
10645SOL     OW32833   1.148   2.150   5.014
10645SOL    HW132834   1.243   2.127   4.996
10645SOL    HW232835   1.112   2.207   4.940
10646SOL     OW32836   0.001   0.709   6.677
10646SOL    HW132837   0.026   0.724   6.582
10646SOL    HW232838   0.021   0.792   6.730
10647SOL     OW32839   3.045   5.177   5.868
10647SOL    HW132840   2.992   5.154   5.949
10647SOL    HW232841   3.031   5.107   5.798
10648SOL     OW32842   5.111   4.471   5.889
10648SOL    HW132843   5.140   4.376   5.901
10648SOL    HW232844   5.167   4.514   5.817
10649SOL     OW32845   0.175   4.218   3.009
10649SOL    HW132846   0.193   4.214   3.108
10649SOL    HW232847   0.144   4.129   2.977
10650SOL     OW32848   1.122   6.045   3.533
10650SOL    HW132849   1.108   6.100   3.450
10650SOL    HW232850   1.034   6.029   3.577
10651SOL     OW32851   4.420   6.545   6.296
10651SOL    HW132852   4.466   6.460   6.271
10651SOL    HW232853   4.452   6.574   6.387
10652SOL     OW32854   3.617   6.485   6.226
10652SOL    HW132855   3.546   6.541   6.268
10652SOL    HW232856   3.677   6.448   6.298
10653SOL     OW32857   4.980   4.072   3.816
10653SOL    HW132858   5.001   3.978   3.839
10653SOL    HW232859   5.065   4.122   3.798
10654SOL     OW32860   4.559   1.122   0.878
10654SOL    HW132861   4.566   1.196   0.945
10654SOL    HW232862   4.610   1.042   0.910
10655SOL     OW32863   2.744   5.523   0.450
10655SOL    HW132864   2.676   5.483   0.390
10655SOL    HW232865   2.724   5.497   0.545
10656SOL     OW32866   6.725   2.191   1.932
10656SOL    HW132867   6.757   2.121   1.996
10656SOL    HW232868   6.796   2.260   1.919
10657SOL     OW32869   6.445   0.671   6.068
10657SOL    HW132870   6.498   0.676   5.983
10657SOL    HW232871   6.367   0.609   6.055
10658SOL     OW32872   6.246   4.299   5.072
10658SOL    HW132873   6.206   4.288   4.981
10658SOL    HW232874   6.230   4.393   5.103
10659SOL     OW32875   6.768   5.882   1.167
10659SOL    HW132876   6.810   5.953   1.225
10659SOL    HW232877   6.825   5.866   1.087
10660SOL     OW32878   5.389   3.762   0.073
10660SOL    HW132879   5.301   3.725   0.104
10660SOL    HW232880   5.449   3.687   0.048
10661SOL     OW32881   0.181   6.532   2.368
10661SOL    HW132882   0.142   6.587   2.294
10661SOL    HW232883   0.111   6.516   2.438
10662SOL     OW32884   5.600   0.879   3.390
10662SOL    HW132885   5.552   0.946   3.447
10662SOL    HW232886   5.556   0.876   3.300
10663SOL     OW32887   0.811   0.616   1.773
10663SOL    HW132888   0.890   0.669   1.742
10663SOL    HW232889   0.773   0.565   1.696
10664SOL     OW32890   0.898   4.929   5.013
10664SOL    HW132891   0.829   4.963   4.948
10664SOL    HW232892   0.972   4.885   4.962
10665SOL     OW32893   0.945   1.223   0.967
10665SOL    HW132894   0.969   1.257   0.876
10665SOL    HW232895   0.984   1.285   1.036
10666SOL     OW32896   2.993   4.171   0.542
10666SOL    HW132897   3.008   4.251   0.485
10666SOL    HW232898   2.937   4.104   0.492
10667SOL     OW32899   3.963   3.156   5.162
10667SOL    HW132900   3.881   3.198   5.200
10667SOL    HW232901   3.955   3.154   5.062
10668SOL     OW32902   1.796   1.224   5.640
10668SOL    HW132903   1.794   1.130   5.676
10668SOL    HW232904   1.704   1.262   5.639
10669SOL     OW32905   6.045   6.068   0.593
10669SOL    HW132906   5.948   6.070   0.566
10669SOL    HW232907   6.099   6.028   0.519
10670SOL     OW32908   5.429   4.130   4.887
10670SOL    HW132909   5.430   4.121   4.986
10670SOL    HW232910   5.496   4.199   4.860
10671SOL     OW32911   2.585   2.161   3.121
10671SOL    HW132912   2.650   2.190   3.051
10671SOL    HW232913   2.628   2.167   3.211
10672SOL     OW32914   6.385   2.738   0.899
10672SOL    HW132915   6.401   2.835   0.921
10672SOL    HW232916   6.472   2.692   0.885
10673SOL     OW32917   0.935   1.385   6.846
10673SOL    HW132918   0.957   1.482   6.861
10673SOL    HW232919   0.911   1.371   6.750
10674SOL     OW32920   2.854   4.381   0.787
10674SOL    HW132921   2.878   4.345   0.697
10674SOL    HW232922   2.837   4.479   0.780
10675SOL     OW32923   2.096   7.012   6.318
10675SOL    HW132924   2.148   0.058   6.259
10675SOL    HW232925   2.069   6.930   6.267
10676SOL     OW32926   6.104   6.842   5.460
10676SOL    HW132927   6.175   6.783   5.497
10676SOL    HW232928   6.110   6.843   5.360
10677SOL     OW32929   0.723   0.489   2.373
10677SOL    HW132930   0.756   0.583   2.385
10677SOL    HW232931   0.643   0.490   2.312
10678SOL     OW32932   3.780   5.536   2.611
10678SOL    HW132933   3.752   5.540   2.707
10678SOL    HW232934   3.700   5.553   2.552
10679SOL     OW32935   5.419   5.072   5.992
10679SOL    HW132936   5.328   5.088   6.030
10679SOL    HW232937   5.438   5.139   5.920
10680SOL     OW32938   2.516   1.488   3.637
10680SOL    HW132939   2.535   1.461   3.542
10680SOL    HW232940   2.534   1.411   3.698
10681SOL     OW32941   0.309   3.971   0.080
10681SOL    HW132942   0.290   4.044   0.145
10681SOL    HW232943   0.297   4.005   7.003
10682SOL     OW32944   1.420   1.890   3.570
10682SOL    HW132945   1.449   1.837   3.650
10682SOL    HW232946   1.498   1.943   3.536
10683SOL     OW32947   3.590   1.905   3.702
10683SOL    HW132948   3.547   1.995   3.701
10683SOL    HW232949   3.668   1.905   3.639
10684SOL     OW32950   4.747   4.074   1.164
10684SOL    HW132951   4.649   4.091   1.177
10684SOL    HW232952   4.764   3.975   1.167
10685SOL     OW32953   0.321   5.274   3.241
10685SOL    HW132954   0.257   5.260   3.165
10685SOL    HW232955   0.386   5.198   3.244
10686SOL     OW32956   1.866   4.464   6.086
10686SOL    HW132957   1.902   4.521   6.012
10686SOL    HW232958   1.839   4.523   6.162
10687SOL     OW32959   0.036   5.327   2.048
10687SOL    HW132960   0.029   5.420   2.083
10687SOL    HW232961   0.027   5.262   2.124
10688SOL     OW32962   6.935   4.358   3.006
10688SOL    HW132963   0.006   4.318   2.976
10688SOL    HW232964   6.932   4.360   3.106
10689SOL     OW32965   0.938   6.794   4.078
10689SOL    HW132966   0.984   6.751   4.000
10689SOL    HW232967   0.842   6.767   4.080
10690SOL     OW32968   6.940   5.693   3.702
10690SOL    HW132969   6.934   5.604   3.656
10690SOL    HW232970   6.879   5.758   3.658
10691SOL     OW32971   0.571   1.163   2.795
10691SOL    HW132972   0.601   1.254   2.765
10691SOL    HW232973   0.571   1.101   2.717
10692SOL     OW32974   3.660   4.920   2.597
10692SOL    HW132975   3.563   4.925   2.619
10692SOL    HW232976   3.675   4.955   2.504
10693SOL     OW32977   2.326   0.151   1.341
10693SOL    HW132978   2.232   0.168   1.312
10693SOL    HW232979   2.358   0.227   1.397
10694SOL     OW32980   4.581   6.292   1.341
10694SOL    HW132981   4.669   6.339   1.347
10694SOL    HW232982   4.590   6.200   1.378
10695SOL     OW32983   5.430   2.430   2.862
10695SOL    HW132984   5.370   2.372   2.807
10695SOL    HW232985   5.508   2.376   2.894
10696SOL     OW32986   6.975   4.240   3.298
10696SOL    HW132987   6.927   4.157   3.327
10696SOL    HW232988   6.927   4.320   3.333
10697SOL     OW32989   0.310   6.375   5.228
10697SOL    HW132990   0.407   6.373   5.203
10697SOL    HW232991   0.302   6.388   5.326
10698SOL     OW32992   4.290   6.309   4.311
10698SOL    HW132993   4.193   6.335   4.319
10698SOL    HW232994   4.325   6.284   4.401
10699SOL     OW32995   4.243   2.303   2.127
10699SOL    HW132996   4.171   2.247   2.170
10699SOL    HW232997   4.214   2.327   2.035
10700SOL     OW32998   0.826   0.101   0.915
10700SOL    HW132999   0.902   0.163   0.936
10700SOL    HW233000   0.838   0.016   0.967
10701SOL     OW33001   3.655   5.997   0.354
10701SOL    HW133002   3.582   6.004   0.422
10701SOL    HW233003   3.638   5.917   0.296
10702SOL     OW33004   6.393   2.485   3.151
10702SOL    HW133005   6.384   2.389   3.124
10702SOL    HW233006   6.489   2.507   3.166
10703SOL     OW33007   3.584   3.027   4.318
10703SOL    HW133008   3.498   3.053   4.275
10703SOL    HW233009   3.644   2.985   4.249
10704SOL     OW33010   6.039   5.460   1.687
10704SOL    HW133011   6.066   5.449   1.591
10704SOL    HW233012   6.005   5.553   1.702
10705SOL     OW33013   6.874   4.106   2.255
10705SOL    HW133014   6.831   4.133   2.169
10705SOL    HW233015   6.824   4.029   2.295
10706SOL     OW33016   5.033   6.702   1.858
10706SOL    HW133017   4.966   6.773   1.836
10706SOL    HW233018   5.114   6.714   1.800
10707SOL     OW33019   1.129   6.832   4.290
10707SOL    HW133020   1.140   6.746   4.340
10707SOL    HW233021   1.067   6.818   4.213
10708SOL     OW33022   4.643   0.372   2.313
10708SOL    HW133023   4.562   0.427   2.290
10708SOL    HW233024   4.674   0.324   2.231
10709SOL     OW33025   6.013   0.892   4.914
10709SOL    HW133026   5.961   0.840   4.846
10709SOL    HW233027   6.051   0.973   4.871
10710SOL     OW33028   0.805   6.311   4.064
10710SOL    HW133029   0.764   6.295   3.975
10710SOL    HW233030   0.735   6.305   4.135
10711SOL     OW33031   1.952   6.670   4.116
10711SOL    HW133032   1.934   6.597   4.182
10711SOL    HW233033   1.868   6.693   4.068
10712SOL     OW33034   3.440   0.715   2.100
10712SOL    HW133035   3.470   0.808   2.119
10712SOL    HW233036   3.520   0.657   2.082
10713SOL     OW33037   1.364   3.576   1.779
10713SOL    HW133038   1.350   3.612   1.687
10713SOL    HW233039   1.436   3.507   1.778
10714SOL     OW33040   6.108   2.761   5.602
10714SOL    HW133041   6.177   2.786   5.534
10714SOL    HW233042   6.142   2.686   5.659
10715SOL     OW33043   4.003   0.212   2.946
10715SOL    HW133044   4.085   0.183   2.996
10715SOL    HW233045   3.921   0.188   2.999
10716SOL     OW33046   7.012   2.766   3.255
10716SOL    HW133047   6.917   2.784   3.278
10716SOL    HW233048   0.002   2.703   3.177
10717SOL     OW33049   0.263   2.280   0.448
10717SOL    HW133050   0.303   2.258   0.536
10717SOL    HW233051   0.296   2.369   0.417
10718SOL     OW33052   6.815   4.161   0.328
10718SOL    HW133053   6.731   4.129   0.371
10718SOL    HW233054   6.885   4.089   0.333
10719SOL     OW33055   4.634   5.874   0.906
10719SOL    HW133056   4.640   5.938   0.983
10719SOL    HW233057   4.539   5.858   0.883
10720SOL     OW33058   0.296   3.581   5.879
10720SOL    HW133059   0.354   3.548   5.805
10720SOL    HW233060   0.253   3.667   5.852
10721SOL     OW33061   6.041   2.382   5.121
10721SOL    HW133062   5.993   2.295   5.125
10721SOL    HW233063   6.103   2.382   5.042
10722SOL     OW33064   0.152   2.878   0.473
10722SOL    HW133065   0.095   2.940   0.527
10722SOL    HW233066   0.103   2.792   0.458
10723SOL     OW33067   6.580   4.490   6.714
10723SOL    HW133068   6.556   4.471   6.619
10723SOL    HW233069   6.537   4.422   6.773
10724SOL     OW33070   3.217   0.063   6.329
10724SOL    HW133071   3.196   0.007   6.249
10724SOL    HW233072   3.313   0.051   6.355
10725SOL     OW33073   6.912   4.998   4.069
10725SOL    HW133074   6.973   5.019   3.993
10725SOL    HW233075   6.962   4.947   4.140
10726SOL     OW33076   5.647   6.306   5.080
10726SOL    HW133077   5.660   6.343   5.172
10726SOL    HW233078   5.601   6.218   5.085
10727SOL     OW33079   1.743   4.457   4.346
10727SOL    HW133080   1.774   4.552   4.345
10727SOL    HW233081   1.691   4.440   4.430
10728SOL     OW33082   6.077   6.661   2.419
10728SOL    HW133083   6.159   6.633   2.369
10728SOL    HW233084   5.996   6.632   2.368
10729SOL     OW33085   6.261   1.113   2.907
10729SOL    HW133086   6.243   1.194   2.963
10729SOL    HW233087   6.359   1.096   2.904
10730SOL     OW33088   2.454   6.668   0.898
10730SOL    HW133089   2.483   6.582   0.938
10730SOL    HW233090   2.404   6.722   0.966
10731SOL     OW33091   1.912   5.430   6.672
10731SOL    HW133092   1.873   5.499   6.611
10731SOL    HW233093   2.005   5.456   6.697
10732SOL     OW33094   5.645   6.867   2.632
10732SOL    HW133095   5.688   6.824   2.711
10732SOL    HW233096   5.660   6.810   2.551
10733SOL     OW33097   5.721   3.028   0.226
10733SOL    HW133098   5.746   3.012   0.131
10733SOL    HW233099   5.804   3.032   0.282
10734SOL     OW33100   1.300   0.452   6.614
10734SOL    HW133101   1.342   0.463   6.524
10734SOL    HW233102   1.356   0.392   6.671
10735SOL     OW33103   1.175   4.328   2.180
10735SOL    HW133104   1.182   4.257   2.250
10735SOL    HW233105   1.266   4.365   2.160
10736SOL     OW33106   0.478   1.066   3.653
10736SOL    HW133107   0.418   1.027   3.723
10736SOL    HW233108   0.570   1.078   3.691
10737SOL     OW33109   0.896   2.250   0.271
10737SOL    HW133110   0.905   2.240   0.370
10737SOL    HW233111   0.951   2.180   0.225
10738SOL     OW33112   2.959   0.212   1.603
10738SOL    HW133113   3.035   0.162   1.564
10738SOL    HW233114   2.980   0.238   1.697
10739SOL     OW33115   0.263   0.870   3.239
10739SOL    HW133116   0.260   0.807   3.162
10739SOL    HW233117   0.273   0.964   3.206
10740SOL     OW33118   0.780   5.312   5.995
10740SOL    HW133119   0.764   5.305   6.093
10740SOL    HW233120   0.780   5.409   5.968
10741SOL     OW33121   1.174   1.310   3.399
10741SOL    HW133122   1.154   1.310   3.497
10741SOL    HW233123   1.125   1.236   3.354
10742SOL     OW33124   5.971   0.316   2.162
10742SOL    HW133125   5.977   0.266   2.075
10742SOL    HW233126   5.881   0.300   2.203
10743SOL     OW33127   2.588   2.497   3.198
10743SOL    HW133128   2.596   2.398   3.200
10743SOL    HW233129   2.611   2.531   3.107
10744SOL     OW33130   3.180   1.642   2.317
10744SOL    HW133131   3.226   1.660   2.404
10744SOL    HW233132   3.202   1.714   2.252
10745SOL     OW33133   1.670   4.555   6.985
10745SOL    HW133134   1.735   4.568   0.044
10745SOL    HW233135   1.719   4.529   6.902
10746SOL     OW33136   2.077   4.994   0.874
10746SOL    HW133137   2.134   5.012   0.955
10746SOL    HW233138   2.016   4.918   0.894
10747SOL     OW33139   5.092   1.485   3.546
10747SOL    HW133140   5.043   1.573   3.542
10747SOL    HW233141   5.051   1.421   3.481
10748SOL     OW33142   6.184   6.532   0.685
10748SOL    HW133143   6.171   6.563   0.779
10748SOL    HW233144   6.113   6.465   0.662
10749SOL     OW33145   0.149   5.221   3.521
10749SOL    HW133146   0.179   5.165   3.443
10749SOL    HW233147   0.060   5.189   3.553
10750SOL     OW33148   4.847   4.745   4.870
10750SOL    HW133149   4.936   4.707   4.846
10750SOL    HW233150   4.774   4.694   4.823
10751SOL     OW33151   0.905   3.225   5.090
10751SOL    HW133152   0.871   3.319   5.097
10751SOL    HW233153   0.859   3.167   5.157
10752SOL     OW33154   6.098   3.686   6.547
10752SOL    HW133155   6.186   3.726   6.570
10752SOL    HW233156   6.056   3.649   6.630
10753SOL     OW33157   5.954   0.112   3.490
10753SOL    HW133158   6.011   0.062   3.554
10753SOL    HW233159   5.970   0.077   3.397
10754SOL     OW33160   2.167   2.312   2.730
10754SOL    HW133161   2.094   2.303   2.662
10754SOL    HW233162   2.157   2.242   2.800
10755SOL     OW33163   0.003   1.681   0.906
10755SOL    HW133164   0.087   1.714   0.950
10755SOL    HW233165   6.966   1.759   0.872
10756SOL     OW33166   6.234   3.805   0.585
10756SOL    HW133167   6.270   3.853   0.505
10756SOL    HW233168   6.199   3.872   0.651
10757SOL     OW33169   6.896   3.901   0.291
10757SOL    HW133170   6.986   3.899   0.334
10757SOL    HW233171   6.859   3.808   0.286
10758SOL     OW33172   1.191   6.133   5.015
10758SOL    HW133173   1.185   6.034   5.000
10758SOL    HW233174   1.288   6.159   5.019
10759SOL     OW33175   1.944   2.972   6.823
10759SOL    HW133176   1.872   2.998   6.758
10759SOL    HW233177   1.914   2.995   6.916
10760SOL     OW33178   6.750   6.906   1.082
10760SOL    HW133179   6.834   6.941   1.123
10760SOL    HW233180   6.757   6.806   1.074
10761SOL     OW33181   0.676   2.207   6.277
10761SOL    HW133182   0.597   2.246   6.324
10761SOL    HW233183   0.678   2.241   6.183
10762SOL     OW33184   4.703   1.156   4.930
10762SOL    HW133185   4.777   1.223   4.927
10762SOL    HW233186   4.618   1.201   4.956
10763SOL     OW33187   4.920   6.100   0.986
10763SOL    HW133188   4.828   6.140   0.978
10763SOL    HW233189   4.932   6.031   0.915
10764SOL     OW33190   5.340   1.773   6.166
10764SOL    HW133191   5.357   1.817   6.255
10764SOL    HW233192   5.260   1.815   6.123
10765SOL     OW33193   5.715   2.288   1.021
10765SOL    HW133194   5.774   2.249   1.092
10765SOL    HW233195   5.736   2.246   0.933
10766SOL     OW33196   2.615   3.829   0.147
10766SOL    HW133197   2.593   3.753   0.208
10766SOL    HW233198   2.679   3.891   0.193
10767SOL     OW33199   1.386   0.867   0.787
10767SOL    HW133200   1.486   0.867   0.778
10767SOL    HW233201   1.354   0.961   0.798
10768SOL     OW33202   5.708   5.505   0.134
10768SOL    HW133203   5.648   5.566   0.186
10768SOL    HW233204   5.658   5.465   0.058
10769SOL     OW33205   2.903   5.214   5.085
10769SOL    HW133206   2.863   5.305   5.073
10769SOL    HW233207   2.998   5.216   5.054
10770SOL     OW33208   5.529   0.362   4.381
10770SOL    HW133209   5.605   0.395   4.326
10770SOL    HW233210   5.561   0.341   4.474
10771SOL     OW33211   4.581   6.995   5.242
10771SOL    HW133212   4.512   6.993   5.314
10771SOL    HW233213   4.671   6.974   5.280
10772SOL     OW33214   6.571   7.010   3.810
10772SOL    HW133215   6.579   6.987   3.907
10772SOL    HW233216   6.592   6.928   3.755
10773SOL     OW33217   0.223   5.259   6.803
10773SOL    HW133218   0.277   5.239   6.885
10773SOL    HW233219   0.283   5.259   6.724
10774SOL     OW33220   1.570   2.060   0.215
10774SOL    HW133221   1.550   2.140   0.270
10774SOL    HW233222   1.485   2.014   0.188
10775SOL     OW33223   1.881   4.081   0.363
10775SOL    HW133224   1.923   4.142   0.295
10775SOL    HW233225   1.817   4.134   0.419
10776SOL     OW33226   0.865   6.356   1.041
10776SOL    HW133227   0.908   6.266   1.030
10776SOL    HW233228   0.893   6.416   0.965
10777SOL     OW33229   4.417   0.479   3.643
10777SOL    HW133230   4.499   0.431   3.613
10777SOL    HW233231   4.425   0.499   3.741
10778SOL     OW33232   6.100   6.898   4.080
10778SOL    HW133233   6.187   6.946   4.069
10778SOL    HW233234   6.026   6.956   4.045
10779SOL     OW33235   0.104   4.571   3.097
10779SOL    HW133236   0.152   4.635   3.036
10779SOL    HW233237   0.006   4.592   3.096
10780SOL     OW33238   1.362   6.670   3.034
10780SOL    HW133239   1.320   6.761   3.039
10780SOL    HW233240   1.401   6.657   2.942
10781SOL     OW33241   4.325   1.893   4.005
10781SOL    HW133242   4.239   1.943   3.990
10781SOL    HW233243   4.347   1.840   3.924
10782SOL     OW33244   6.129   2.500   3.451
10782SOL    HW133245   6.081   2.492   3.364
10782SOL    HW233246   6.226   2.515   3.434
10783SOL     OW33247   1.501   3.072   2.477
10783SOL    HW133248   1.475   3.126   2.556
10783SOL    HW233249   1.424   3.015   2.449
10784SOL     OW33250   2.418   6.786   2.017
10784SOL    HW133251   2.484   6.838   1.963
10784SOL    HW233252   2.361   6.731   1.957
10785SOL     OW33253   2.035   4.370   1.292
10785SOL    HW133254   2.094   4.422   1.354
10785SOL    HW233255   1.954   4.424   1.270
10786SOL     OW33256   5.247   3.120   1.165
10786SOL    HW133257   5.153   3.154   1.174
10786SOL    HW233258   5.247   3.020   1.169
10787SOL     OW33259   3.090   1.347   4.997
10787SOL    HW133260   3.014   1.409   4.976
10787SOL    HW233261   3.094   1.275   4.928
10788SOL     OW33262   2.367   4.306   6.983
10788SOL    HW133263   2.301   4.280   6.912
10788SOL    HW233264   2.435   4.233   6.994
10789SOL     OW33265   5.378   1.510   0.755
10789SOL    HW133266   5.295   1.543   0.800
10789SOL    HW233267   5.390   1.560   0.669
10790SOL     OW33268   0.551   0.845   5.254
10790SOL    HW133269   0.497   0.777   5.203
10790SOL    HW233270   0.582   0.916   5.191
10791SOL     OW33271   0.657   1.405   1.531
10791SOL    HW133272   0.587   1.334   1.519
10791SOL    HW233273   0.625   1.472   1.598
10792SOL     OW33274   2.926   3.076   1.779
10792SOL    HW133275   3.017   3.112   1.798
10792SOL    HW233276   2.928   2.977   1.782
10793SOL     OW33277   5.424   2.348   4.228
10793SOL    HW133278   5.434   2.306   4.138
10793SOL    HW233279   5.333   2.327   4.265
10794SOL     OW33280   3.502   3.636   2.526
10794SOL    HW133281   3.480   3.606   2.618
10794SOL    HW233282   3.417   3.651   2.475
10795SOL     OW33283   6.096   4.218   3.693
10795SOL    HW133284   6.192   4.218   3.663
10795SOL    HW233285   6.066   4.313   3.708
10796SOL     OW33286   3.364   6.599   6.918
10796SOL    HW133287   3.332   6.682   6.873
10796SOL    HW233288   3.372   6.525   6.851
10797SOL     OW33289   4.078   2.850   0.879
10797SOL    HW133290   4.006   2.795   0.921
10797SOL    HW233291   4.110   2.805   0.796
10798SOL     OW33292   1.880   6.984   0.479
10798SOL    HW133293   1.840   6.945   0.396
10798SOL    HW233294   1.813   6.983   0.553
10799SOL     OW33295   3.404   1.676   1.462
10799SOL    HW133296   3.461   1.729   1.525
10799SOL    HW233297   3.409   1.579   1.487
10800SOL     OW33298   1.418   6.707   0.231
10800SOL    HW133299   1.329   6.668   0.257
10800SOL    HW233300   1.414   6.736   0.135
10801SOL     OW33301   0.780   0.055   4.735
10801SOL    HW133302   0.766   0.080   4.831
10801SOL    HW233303   0.859   7.010   4.727
10802SOL     OW33304   2.181   3.256   4.987
10802SOL    HW133305   2.258   3.191   4.993
10802SOL    HW233306   2.206   3.340   5.035
10803SOL     OW33307   5.079   4.643   4.768
10803SOL    HW133308   5.165   4.688   4.743
10803SOL    HW233309   5.098   4.553   4.805
10804SOL     OW33310   0.111   4.424   1.572
10804SOL    HW133311   0.035   4.400   1.631
10804SOL    HW233312   0.106   4.371   1.487
10805SOL     OW33313   3.536   6.933   6.665
10805SOL    HW133314   3.581   0.007   6.657
10805SOL    HW233315   3.570   6.886   6.747
10806SOL     OW33316   5.210   4.423   0.250
10806SOL    HW133317   5.198   4.330   0.286
10806SOL    HW233318   5.239   4.418   0.154
10807SOL     OW33319   3.270   6.585   3.780
10807SOL    HW133320   3.286   6.550   3.872
10807SOL    HW233321   3.179   6.627   3.775
10808SOL     OW33322   0.518   3.671   0.641
10808SOL    HW133323   0.600   3.637   0.687
10808SOL    HW233324   0.509   3.769   0.657
10809SOL     OW33325   2.746   6.937   4.167
10809SOL    HW133326   2.651   6.913   4.146
10809SOL    HW233327   2.751   6.974   4.259
10810SOL     OW33328   1.137   1.085   5.787
10810SOL    HW133329   1.047   1.094   5.744
10810SOL    HW233330   1.147   1.154   5.859
10811SOL     OW33331   4.121   5.262   5.008
10811SOL    HW133332   4.066   5.226   5.083
10811SOL    HW233333   4.112   5.202   4.928
10812SOL     OW33334   0.461   3.152   2.339
10812SOL    HW133335   0.478   3.058   2.309
10812SOL    HW233336   0.370   3.157   2.381
10813SOL     OW33337   2.016   6.053   0.021
10813SOL    HW133338   2.085   6.125   0.027
10813SOL    HW233339   2.056   5.967   0.053
10814SOL     OW33340   1.598   0.248   5.602
10814SOL    HW133341   1.634   0.218   5.513
10814SOL    HW233342   1.504   0.278   5.590
10815SOL     OW33343   4.936   5.063   3.873
10815SOL    HW133344   4.887   5.150   3.868
10815SOL    HW233345   5.033   5.079   3.857
10816SOL     OW33346   1.643   1.256   2.291
10816SOL    HW133347   1.593   1.188   2.345
10816SOL    HW233348   1.661   1.337   2.348
10817SOL     OW33349   5.712   6.360   2.496
10817SOL    HW133350   5.793   6.342   2.439
10817SOL    HW233351   5.664   6.275   2.515
10818SOL     OW33352   5.117   3.552   5.628
10818SOL    HW133353   5.043   3.568   5.562
10818SOL    HW233354   5.205   3.554   5.581
10819SOL     OW33355   0.470   4.328   0.041
10819SOL    HW133356   0.476   4.294   0.135
10819SOL    HW233357   0.561   4.354   0.009
10820SOL     OW33358   6.666   6.831   4.048
10820SOL    HW133359   6.721   6.859   4.127
10820SOL    HW233360   6.709   6.753   4.003
10821SOL     OW33361   5.184   5.986   2.343
10821SOL    HW133362   5.269   5.969   2.393
10821SOL    HW233363   5.130   6.055   2.390
10822SOL     OW33364   1.135   2.089   2.976
10822SOL    HW133365   1.080   2.154   3.028
10822SOL    HW233366   1.075   2.023   2.930
10823SOL     OW33367   1.764   4.987   1.179
10823SOL    HW133368   1.856   4.950   1.162
10823SOL    HW233369   1.758   5.079   1.141
10824SOL     OW33370   4.823   6.995   4.229
10824SOL    HW133371   4.731   6.974   4.195
10824SOL    HW233372   4.859   0.059   4.180
10825SOL     OW33373   2.331   0.598   0.603
10825SOL    HW133374   2.309   0.579   0.699
10825SOL    HW233375   2.275   0.674   0.570
10826SOL     OW33376   0.123   3.726   3.561
10826SOL    HW133377   0.123   3.745   3.463
10826SOL    HW233378   0.034   3.688   3.588
10827SOL     OW33379   6.108   3.795   4.424
10827SOL    HW133380   6.095   3.705   4.467
10827SOL    HW233381   6.099   3.785   4.325
10828SOL     OW33382   1.254   5.498   2.591
10828SOL    HW133383   1.232   5.435   2.665
10828SOL    HW233384   1.220   5.589   2.613
10829SOL     OW33385   3.284   3.395   0.511
10829SOL    HW133386   3.285   3.301   0.476
10829SOL    HW233387   3.307   3.458   0.438
10830SOL     OW33388   4.765   2.043   3.477
10830SOL    HW133389   4.793   2.057   3.382
10830SOL    HW233390   4.672   2.004   3.479
10831SOL     OW33391   4.935   6.110   1.929
10831SOL    HW133392   4.852   6.149   1.889
10831SOL    HW233393   4.983   6.181   1.981
10832SOL     OW33394   6.892   2.410   0.853
10832SOL    HW133395   6.863   2.506   0.856
10832SOL    HW233396   6.850   2.361   0.929
10833SOL     OW33397   1.349   0.957   4.201
10833SOL    HW133398   1.318   0.969   4.107
10833SOL    HW233399   1.443   0.923   4.201
10834SOL     OW33400   0.929   2.178   6.227
10834SOL    HW133401   0.839   2.164   6.268
10834SOL    HW233402   0.986   2.098   6.245
10835SOL     OW33403   5.512   2.051   1.036
10835SOL    HW133404   5.520   1.975   1.100
10835SOL    HW233405   5.546   2.135   1.079
10836SOL     OW33406   6.219   1.212   5.084
10836SOL    HW133407   6.164   1.133   5.110
10836SOL    HW233408   6.303   1.215   5.138
10837SOL     OW33409   0.494   4.939   0.514
10837SOL    HW133410   0.478   5.029   0.472
10837SOL    HW233411   0.510   4.950   0.612
10838SOL     OW33412   5.662   6.694   4.211
10838SOL    HW133413   5.573   6.710   4.168
10838SOL    HW233414   5.734   6.702   4.142
10839SOL     OW33415   3.171   3.079   0.715
10839SOL    HW133416   3.180   3.098   0.813
10839SOL    HW233417   3.118   2.995   0.702
10840SOL     OW33418   4.253   6.327   1.771
10840SOL    HW133419   4.202   6.357   1.691
10840SOL    HW233420   4.195   6.270   1.829
10841SOL     OW33421   3.899   6.098   6.950
10841SOL    HW133422   3.801   6.116   6.944
10841SOL    HW233423   3.914   6.014   7.003
10842SOL     OW33424   6.374   3.607   0.715
10842SOL    HW133425   6.334   3.696   0.694
10842SOL    HW233426   6.305   3.549   0.759
10843SOL     OW33427   0.406   2.033   2.082
10843SOL    HW133428   0.432   2.119   2.038
10843SOL    HW233429   0.488   1.979   2.101
10844SOL     OW33430   0.480   6.698   4.269
10844SOL    HW133431   0.530   6.717   4.185
10844SOL    HW233432   0.467   6.784   4.320
10845SOL     OW33433   2.014   0.765   1.025
10845SOL    HW133434   1.986   0.701   0.953
10845SOL    HW233435   1.998   0.858   0.994
10846SOL     OW33436   4.641   2.990   0.456
10846SOL    HW133437   4.672   3.058   0.390
10846SOL    HW233438   4.545   2.967   0.437
10847SOL     OW33439   2.780   2.243   6.482
10847SOL    HW133440   2.843   2.181   6.434
10847SOL    HW233441   2.787   2.225   6.581
10848SOL     OW33442   3.269   2.181   6.644
10848SOL    HW133443   3.233   2.155   6.555
10848SOL    HW233444   3.199   2.232   6.695
10849SOL     OW33445   3.288   4.926   3.559
10849SOL    HW133446   3.379   4.922   3.601
10849SOL    HW233447   3.296   4.903   3.462
10850SOL     OW33448   4.559   6.319   6.236
10850SOL    HW133449   4.563   6.257   6.314
10850SOL    HW233450   4.503   6.278   6.164
10851SOL     OW33451   2.635   2.619   6.567
10851SOL    HW133452   2.620   2.709   6.525
10851SOL    HW233453   2.554   2.562   6.553
10852SOL     OW33454   0.442   0.058   6.131
10852SOL    HW133455   0.380   7.004   6.095
10852SOL    HW233456   0.423   0.073   6.228
10853SOL     OW33457   3.732   1.570   5.338
10853SOL    HW133458   3.688   1.482   5.353
10853SOL    HW233459   3.666   1.635   5.300
10854SOL     OW33460   6.350   0.442   5.580
10854SOL    HW133461   6.306   0.389   5.653
10854SOL    HW233462   6.407   0.382   5.525
10855SOL     OW33463   2.805   6.156   2.469
10855SOL    HW133464   2.815   6.177   2.372
10855SOL    HW233465   2.751   6.073   2.480
10856SOL     OW33466   6.022   0.905   1.933
10856SOL    HW133467   6.066   0.921   2.021
10856SOL    HW233468   6.038   0.983   1.873
10857SOL     OW33469   5.303   2.896   3.498
10857SOL    HW133470   5.392   2.925   3.462
10857SOL    HW233471   5.316   2.815   3.557
10858SOL     OW33472   1.299   2.727   6.736
10858SOL    HW133473   1.230   2.703   6.803
10858SOL    HW233474   1.256   2.738   6.646
10859SOL     OW33475   2.053   4.509   3.926
10859SOL    HW133476   2.065   4.461   3.840
10859SOL    HW233477   2.089   4.452   4.001
10860SOL     OW33478   6.433   1.099   5.538
10860SOL    HW133479   6.338   1.116   5.564
10860SOL    HW233480   6.471   1.182   5.495
10861SOL     OW33481   3.761   2.896   1.827
10861SOL    HW133482   3.812   2.815   1.799
10861SOL    HW233483   3.714   2.877   1.914
10862SOL     OW33484   2.616   1.594   6.791
10862SOL    HW133485   2.688   1.561   6.852
10862SOL    HW233486   2.656   1.644   6.715
10863SOL     OW33487   3.544   0.804   2.425
10863SOL    HW133488   3.523   0.898   2.401
10863SOL    HW233489   3.553   0.796   2.525
10864SOL     OW33490   2.843   4.656   1.094
10864SOL    HW133491   2.835   4.611   1.183
10864SOL    HW233492   2.764   4.717   1.081
10865SOL     OW33493   5.698   2.666   3.421
10865SOL    HW133494   5.728   2.574   3.447
10865SOL    HW233495   5.691   2.723   3.504
10866SOL     OW33496   6.140   3.843   1.015
10866SOL    HW133497   6.149   3.857   1.114
10866SOL    HW233498   6.062   3.783   0.997
10867SOL     OW33499   2.971   3.495   0.270
10867SOL    HW133500   3.046   3.524   0.210
10867SOL    HW233501   2.961   3.561   0.344
10868SOL     OW33502   1.735   1.770   3.238
10868SOL    HW133503   1.773   1.861   3.253
10868SOL    HW233504   1.656   1.756   3.298
10869NA      NA33505   0.646   2.594   6.203
10870NA      NA33506   4.466   4.494   5.238
10871NA      NA33507   2.367   4.353   2.245
10872NA      NA33508   4.954   4.629   3.433
10873NA      NA33509   4.253   2.278   5.204
10874NA      NA33510   3.426   4.398   1.454
10875NA      NA33511   0.920   4.438   0.491
10876NA      NA33512   4.230   4.370   1.563
10877NA      NA33513   4.880   4.531   0.959
10878NA      NA33514   3.349   0.316   5.576
10879NA      NA33515   5.901   5.496   0.944
10880NA      NA33516   1.722   0.740   5.992
10881NA      NA33517   4.943   5.013   2.079
10882NA      NA33518   3.723   3.201   0.836
   7.01554   7.01554   7.01554
