Generated by trjconv : CNT in water t= 201.00000
33518
    1C        C    1   2.848   2.770   4.748
    1C        C    2   2.902   2.722   4.869
    1C        C    3   2.847   2.776   4.985
    1C        C    4   2.853   2.775   4.261
    1C        C    5   2.900   2.722   4.383
    1C        C    6   2.849   2.771   4.505
    1C        C    7   3.017   2.641   4.628
    1C        C    8   2.900   2.721   4.626
    1C        C    9   3.077   2.598   4.748
    1C        C   10   3.009   2.629   4.868
    1C        C   11   3.179   2.488   4.981
    1C        C   12   3.065   2.569   4.981
    1C        C   13   2.854   2.771   3.772
    1C        C   14   2.904   2.719   3.893
    1C        C   15   2.859   2.774   4.016
    1C        C   16   3.018   2.639   4.139
    1C        C   17   2.910   2.730   4.140
    1C        C   18   3.079   2.605   4.262
    1C        C   19   3.017   2.642   4.383
    1C        C   20   3.205   2.546   4.507
    1C        C   21   3.077   2.604   4.505
    1C        C   22   3.274   2.521   4.628
    1C        C   23   3.207   2.541   4.750
    1C        C   24   3.412   2.482   4.868
    1C        C   25   3.270   2.499   4.871
    1C        C   26   3.491   2.481   4.985
    1C        C   27   2.855   2.769   3.282
    1C        C   28   2.904   2.721   3.405
    1C        C   29   2.854   2.771   3.528
    1C        C   30   3.022   2.641   3.648
    1C        C   31   2.906   2.723   3.650
    1C        C   32   3.079   2.602   3.771
    1C        C   33   3.017   2.634   3.894
    1C        C   34   3.208   2.546   4.019
    1C        C   35   3.078   2.600   4.017
    1C        C   36   3.275   2.523   4.141
    1C        C   37   3.208   2.547   4.263
    1C        C   38   3.414   2.502   4.384
    1C        C   39   3.275   2.529   4.386
    1C        C   40   3.486   2.500   4.506
    1C        C   41   3.414   2.500   4.628
    1C        C   42   3.629   2.484   4.747
    1C        C   43   3.487   2.481   4.747
    1C        C   44   3.704   2.491   4.867
    1C        C   45   3.629   2.488   4.986
    1C        C   46   2.837   2.751   2.792
    1C        C   47   2.894   2.707   2.913
    1C        C   48   2.844   2.757   3.036
    1C        C   49   3.017   2.637   3.161
    1C        C   50   2.900   2.715   3.159
    1C        C   51   3.079   2.601   3.283
    1C        C   52   3.019   2.639   3.405
    1C        C   53   3.210   2.543   3.530
    1C        C   54   3.084   2.605   3.526
    1C        C   55   3.276   2.516   3.653
    1C        C   56   3.208   2.545   3.773
    1C        C   57   3.414   2.498   3.897
    1C        C   58   3.275   2.523   3.896
    1C        C   59   3.486   2.494   4.019
    1C        C   60   3.415   2.500   4.140
    1C        C   61   3.627   2.503   4.259
    1C        C   62   3.486   2.497   4.262
    1C        C   63   3.698   2.510   4.381
    1C        C   64   3.627   2.502   4.503
    1C        C   65   3.831   2.551   4.624
    1C        C   66   3.698   2.503   4.625
    1C        C   67   3.900   2.570   4.746
    1C        C   68   3.840   2.527   4.866
    1C        C   69   4.056   2.577   4.974
    1C        C   70   3.925   2.529   4.977
    1C        C   71   2.828   2.739   2.307
    1C        C   72   2.884   2.696   2.429
    1C        C   73   2.832   2.748   2.549
    1C        C   74   3.010   2.628   2.673
    1C        C   75   2.891   2.704   2.669
    1C        C   76   3.074   2.595   2.794
    1C        C   77   3.010   2.627   2.916
    1C        C   78   3.206   2.542   3.039
    1C        C   79   3.077   2.600   3.038
    1C        C   80   3.274   2.521   3.160
    1C        C   81   3.208   2.544   3.283
    1C        C   82   3.413   2.493   3.405
    1C        C   83   3.275   2.523   3.406
    1C        C   84   3.485   2.486   3.526
    1C        C   85   3.415   2.494   3.649
    1C        C   86   3.623   2.495   3.770
    1C        C   87   3.482   2.491   3.774
    1C        C   88   3.695   2.506   3.891
    1C        C   89   3.627   2.499   4.014
    1C        C   90   3.833   2.546   4.137
    1C        C   91   3.697   2.509   4.137
    1C        C   92   3.899   2.577   4.258
    1C        C   93   3.834   2.548   4.380
    1C        C   94   4.024   2.640   4.501
    1C        C   95   3.900   2.573   4.503
    1C        C   96   4.089   2.676   4.621
    1C        C   97   4.028   2.633   4.741
    1C        C   98   4.190   2.767   4.862
    1C        C   99   4.095   2.659   4.864
    1C        C  100   4.209   2.847   4.976
    1C        C  101   2.825   2.732   2.068
    1C        C  102   2.990   2.592   2.192
    1C        C  103   2.879   2.682   2.187
    1C        C  104   3.063   2.574   2.312
    1C        C  105   3.002   2.619   2.432
    1C        C  106   3.203   2.540   2.552
    1C        C  107   3.071   2.589   2.552
    1C        C  108   3.272   2.521   2.674
    1C        C  109   3.205   2.543   2.796
    1C        C  110   3.412   2.487   2.915
    1C        C  111   3.274   2.517   2.917
    1C        C  112   3.483   2.488   3.037
    1C        C  113   3.414   2.500   3.160
    1C        C  114   3.625   2.497   3.281
    1C        C  115   3.484   2.492   3.283
    1C        C  116   3.697   2.508   3.402
    1C        C  117   3.626   2.493   3.523
    1C        C  118   3.829   2.541   3.648
    1C        C  119   3.693   2.501   3.647
    1C        C  120   3.894   2.574   3.769
    1C        C  121   3.829   2.553   3.892
    1C        C  122   4.019   2.645   4.014
    1C        C  123   3.895   2.578   4.014
    1C        C  124   4.085   2.677   4.135
    1C        C  125   4.024   2.643   4.258
    1C        C  126   4.191   2.773   4.378
    1C        C  127   4.084   2.681   4.380
    1C        C  128   4.237   2.829   4.500
    1C        C  129   4.191   2.773   4.621
    1C        C  130   4.328   2.936   4.741
    1C        C  131   4.245   2.821   4.743
    1C        C  132   4.358   3.006   4.860
    1C        C  133   4.289   2.960   4.973
    1C        C  134   3.174   2.467   2.084
    1C        C  135   3.041   2.510   2.086
    1C        C  136   3.260   2.478   2.194
    1C        C  137   3.196   2.522   2.312
    1C        C  138   3.407   2.477   2.428
    1C        C  139   3.268   2.504   2.432
    1C        C  140   3.479   2.477   2.550
    1C        C  141   3.411   2.492   2.672
    1C        C  142   3.623   2.490   2.793
    1C        C  143   3.482   2.480   2.793
    1C        C  144   3.696   2.503   2.913
    1C        C  145   3.624   2.493   3.035
    1C        C  146   3.830   2.539   3.155
    1C        C  147   3.694   2.502   3.157
    1C        C  148   3.898   2.565   3.277
    1C        C  149   3.834   2.541   3.400
    1C        C  150   4.021   2.629   3.524
    1C        C  151   3.895   2.565   3.525
    1C        C  152   4.078   2.675   3.645
    1C        C  153   4.018   2.642   3.768
    1C        C  154   4.188   2.769   3.889
    1C        C  155   4.078   2.681   3.890
    1C        C  156   4.242   2.818   4.010
    1C        C  157   4.194   2.767   4.132
    1C        C  158   4.334   2.925   4.255
    1C        C  159   4.246   2.814   4.255
    1C        C  160   4.368   2.991   4.375
    1C        C  161   4.326   2.939   4.499
    1C        C  162   4.444   3.117   4.616
    1C        C  163   4.370   2.997   4.620
    1C        C  164   4.468   3.187   4.736
    1C        C  165   4.432   3.126   4.858
    1C        C  166   4.510   3.324   4.976
    1C        C  167   4.483   3.188   4.972
    1C        C  168   3.475   2.431   2.073
    1C        C  169   3.399   2.456   2.188
    1C        C  170   3.618   2.463   2.306
    1C        C  171   3.476   2.460   2.307
    1C        C  172   3.691   2.488   2.425
    1C        C  173   3.620   2.485   2.547
    1C        C  174   3.826   2.537   2.666
    1C        C  175   3.691   2.494   2.669
    1C        C  176   3.894   2.562   2.787
    1C        C  177   3.832   2.539   2.912
    1C        C  178   4.024   2.632   3.029
    1C        C  179   3.897   2.569   3.034
    1C        C  180   4.083   2.664   3.153
    1C        C  181   4.021   2.634   3.277
    1C        C  182   4.190   2.756   3.399
    1C        C  183   4.080   2.667   3.401
    1C        C  184   4.237   2.815   3.519
    1C        C  185   4.184   2.769   3.642
    1C        C  186   4.331   2.921   3.767
    1C        C  187   4.236   2.816   3.764
    1C        C  188   4.375   2.980   3.887
    1C        C  189   4.336   2.924   4.011
    1C        C  190   4.443   3.107   4.128
    1C        C  191   4.376   2.983   4.133
    1C        C  192   4.470   3.176   4.249
    1C        C  193   4.440   3.113   4.372
    1C        C  194   4.512   3.316   4.494
    1C        C  195   4.467   3.182   4.492
    1C        C  196   4.527   3.389   4.614
    1C        C  197   4.508   3.324   4.738
    1C        C  198   4.556   3.538   4.852
    1C        C  199   4.524   3.399   4.858
    1C        C  200   4.589   3.620   4.964
    1C        C  201   3.615   2.422   2.074
    1C        C  202   3.830   2.509   2.181
    1C        C  203   3.693   2.466   2.186
    1C        C  204   3.898   2.543   2.301
    1C        C  205   3.827   2.524   2.422
    1C        C  206   4.021   2.616   2.544
    1C        C  207   3.894   2.555   2.543
    1C        C  208   4.082   2.658   2.664
    1C        C  209   4.021   2.623   2.786
    1C        C  210   4.197   2.749   2.908
    1C        C  211   4.082   2.667   2.906
    1C        C  212   4.246   2.800   3.030
    1C        C  213   4.195   2.750   3.153
    1C        C  214   4.326   2.915   3.275
    1C        C  215   4.243   2.801   3.276
    1C        C  216   4.365   2.978   3.396
    1C        C  217   4.328   2.923   3.520
    1C        C  218   4.434   3.103   3.642
    1C        C  219   4.373   2.975   3.643
    1C        C  220   4.464   3.171   3.762
    1C        C  221   4.440   3.105   3.884
    1C        C  222   4.510   3.308   4.005
    1C        C  223   4.471   3.172   4.005
    1C        C  224   4.520   3.380   4.126
    1C        C  225   4.504   3.313   4.249
    1C        C  226   4.529   3.525   4.368
    1C        C  227   4.522   3.383   4.371
    1C        C  228   4.525   3.600   4.487
    1C        C  229   4.532   3.530   4.610
    1C        C  230   4.506   3.744   4.730
    1C        C  231   4.544   3.607   4.728
    1C        C  232   4.502   3.821   4.848
    1C        C  233   4.549   3.754   4.962
    1C        C  234   4.022   2.607   2.064
    1C        C  235   3.901   2.538   2.064
    1C        C  236   4.089   2.646   2.180
    1C        C  237   4.022   2.612   2.300
    1C        C  238   4.194   2.739   2.423
    1C        C  239   4.080   2.655   2.421
    1C        C  240   4.249   2.790   2.543
    1C        C  241   4.193   2.746   2.665
    1C        C  242   4.335   2.908   2.784
    1C        C  243   4.250   2.795   2.785
    1C        C  244   4.369   2.970   2.906
    1C        C  245   4.330   2.913   3.029
    1C        C  246   4.433   3.097   3.149
    1C        C  247   4.366   2.972   3.153
    1C        C  248   4.458   3.164   3.271
    1C        C  249   4.430   3.103   3.395
    1C        C  250   4.498   3.302   3.515
    1C        C  251   4.458   3.167   3.519
    1C        C  252   4.511   3.375   3.635
    1C        C  253   4.501   3.308   3.759
    1C        C  254   4.529   3.516   3.879
    1C        C  255   4.522   3.375   3.881
    1C        C  256   4.527   3.588   4.001
    1C        C  257   4.528   3.521   4.126
    1C        C  258   4.497   3.734   4.242
    1C        C  259   4.524   3.595   4.246
    1C        C  260   4.476   3.806   4.362
    1C        C  261   4.496   3.738   4.485
    1C        C  262   4.432   3.941   4.607
    1C        C  263   4.477   3.807   4.607
    1C        C  264   4.404   4.013   4.725
    1C        C  265   4.440   3.948   4.845
    1C        C  266   4.321   4.131   4.959
    1C        C  267   4.402   4.018   4.960
    1C        C  268   4.265   2.773   2.063
    1C        C  269   4.201   2.732   2.181
    1C        C  270   4.348   2.888   2.303
    1C        C  271   4.252   2.784   2.302
    1C        C  272   4.383   2.957   2.421
    1C        C  273   4.340   2.898   2.542
    1C        C  274   4.447   3.086   2.663
    1C        C  275   4.377   2.963   2.661
    1C        C  276   4.478   3.153   2.783
    1C        C  277   4.446   3.089   2.904
    1C        C  278   4.508   3.292   3.025
    1C        C  279   4.469   3.157   3.026
    1C        C  280   4.512   3.365   3.146
    1C        C  281   4.498   3.299   3.271
    1C        C  282   4.523   3.511   3.389
    1C        C  283   4.513   3.370   3.392
    1C        C  284   4.521   3.583   3.511
    1C        C  285   4.525   3.516   3.635
    1C        C  286   4.502   3.726   3.755
    1C        C  287   4.527   3.587   3.757
    1C        C  288   4.479   3.795   3.876
    1C        C  289   4.497   3.726   3.998
    1C        C  290   4.431   3.931   4.117
    1C        C  291   4.481   3.799   4.118
    1C        C  292   4.398   3.997   4.238
    1C        C  293   4.425   3.938   4.363
    1C        C  294   4.329   4.127   4.479
    1C        C  295   4.398   4.004   4.485
    1C        C  296   4.283   4.186   4.599
    1C        C  297   4.324   4.130   4.722
    1C        C  298   4.197   4.312   4.839
    1C        C  299   4.280   4.196   4.841
    1C        C  300   4.168   4.405   4.944
    1C        C  301   4.356   2.878   2.064
    1C        C  302   4.470   3.065   2.177
    1C        C  303   4.400   2.940   2.181
    1C        C  304   4.486   3.141   2.296
    1C        C  305   4.456   3.078   2.419
    1C        C  306   4.511   3.284   2.535
    1C        C  307   4.480   3.147   2.540
    1C        C  308   4.519   3.358   2.655
    1C        C  309   4.509   3.291   2.780
    1C        C  310   4.524   3.502   2.900
    1C        C  311   4.521   3.360   2.902
    1C        C  312   4.517   3.574   3.021
    1C        C  313   4.516   3.506   3.145
    1C        C  314   4.496   3.719   3.264
    1C        C  315   4.519   3.580   3.265
    1C        C  316   4.473   3.785   3.387
    1C        C  317   4.493   3.721   3.512
    1C        C  318   4.426   3.924   3.628
    1C        C  319   4.478   3.793   3.633
    1C        C  320   4.395   3.988   3.750
    1C        C  321   4.428   3.927   3.873
    1C        C  322   4.315   4.108   3.993
    1C        C  323   4.394   3.990   3.994
    1C        C  324   4.273   4.167   4.114
    1C        C  325   4.319   4.114   4.236
    1C        C  326   4.178   4.275   4.355
    1C        C  327   4.279   4.177   4.357
    1C        C  328   4.129   4.331   4.475
    1C        C  329   4.190   4.292   4.597
    1C        C  330   4.026   4.436   4.713
    1C        C  331   4.137   4.348   4.715
    1C        C  332   3.969   4.492   4.829
    1C        C  333   4.049   4.479   4.944
    1C        C  334   4.545   3.267   2.060
    1C        C  335   4.525   3.129   2.061
    1C        C  336   4.537   3.349   2.173
    1C        C  337   4.518   3.280   2.295
    1C        C  338   4.533   3.496   2.411
    1C        C  339   4.528   3.355   2.414
    1C        C  340   4.523   3.569   2.532
    1C        C  341   4.522   3.499   2.655
    1C        C  342   4.496   3.710   2.775
    1C        C  343   4.518   3.570   2.776
    1C        C  344   4.478   3.781   2.895
    1C        C  345   4.495   3.714   3.018
    1C        C  346   4.423   3.914   3.140
    1C        C  347   4.474   3.783   3.140
    1C        C  348   4.392   3.980   3.261
    1C        C  349   4.421   3.916   3.384
    1C        C  350   4.312   4.100   3.503
    1C        C  351   4.394   3.984   3.504
    1C        C  352   4.268   4.158   3.624
    1C        C  353   4.315   4.105   3.747
    1C        C  354   4.174   4.263   3.867
    1C        C  355   4.270   4.159   3.869
    1C        C  356   4.122   4.315   3.988
    1C        C  357   4.175   4.269   4.110
    1C        C  358   4.014   4.408   4.230
    1C        C  359   4.123   4.318   4.232
    1C        C  360   3.952   4.446   4.351
    1C        C  361   4.015   4.413   4.473
    1C        C  362   3.829   4.521   4.593
    1C        C  363   3.958   4.464   4.592
    1C        C  364   3.762   4.550   4.713
    1C        C  365   3.837   4.542   4.832
    1C        C  366   3.625   4.589   4.952
    1C        C  367   3.763   4.573   4.947
    1C        C  368   4.509   3.561   2.049
    1C        C  369   4.526   3.490   2.169
    1C        C  370   4.503   3.705   2.289
    1C        C  371   4.523   3.566   2.288
    1C        C  372   4.487   3.777   2.409
    1C        C  373   4.495   3.707   2.532
    1C        C  374   4.424   3.908   2.649
    1C        C  375   4.481   3.779   2.653
    1C        C  376   4.388   3.971   2.771
    1C        C  377   4.422   3.911   2.894
    1C        C  378   4.319   4.096   3.012
    1C        C  379   4.394   3.976   3.017
    1C        C  380   4.275   4.152   3.134
    1C        C  381   4.316   4.099   3.258
    1C        C  382   4.175   4.259   3.377
    1C        C  383   4.269   4.154   3.380
    1C        C  384   4.127   4.310   3.500
    1C        C  385   4.175   4.265   3.625
    1C        C  386   4.004   4.391   3.744
    1C        C  387   4.122   4.313   3.746
    1C        C  388   3.945   4.431   3.866
    1C        C  389   4.005   4.394   3.988
    1C        C  390   3.819   4.497   4.107
    1C        C  391   3.946   4.436   4.110
    1C        C  392   3.753   4.522   4.230
    1C        C  393   3.821   4.501   4.351
    1C        C  394   3.617   4.558   4.475
    1C        C  395   3.757   4.535   4.472
    1C        C  396   3.546   4.568   4.596
    1C        C  397   3.621   4.566   4.716
    1C        C  398   3.409   4.548   4.842
    1C        C  399   3.548   4.574   4.836
    1C        C  400   3.342   4.512   4.959
    1C        C  401   4.495   3.699   2.048
    1C        C  402   4.453   3.911   2.168
    1C        C  403   4.491   3.775   2.166
    1C        C  404   4.407   3.975   2.285
    1C        C  405   4.439   3.910   2.407
    1C        C  406   4.327   4.094   2.525
    1C        C  407   4.402   3.975   2.527
    1C        C  408   4.277   4.148   2.646
    1C        C  409   4.315   4.091   2.769
    1C        C  410   4.172   4.249   2.888
    1C        C  411   4.276   4.153   2.890
    1C        C  412   4.118   4.293   3.011
    1C        C  413   4.173   4.251   3.133
    1C        C  414   4.005   4.382   3.254
    1C        C  415   4.120   4.302   3.254
    1C        C  416   3.947   4.420   3.378
    1C        C  417   4.008   4.386   3.501
    1C        C  418   3.812   4.476   3.621
    1C        C  419   3.942   4.421   3.620
    1C        C  420   3.746   4.506   3.743
    1C        C  421   3.816   4.490   3.864
    1C        C  422   3.612   4.548   3.986
    1C        C  423   3.750   4.518   3.986
    1C        C  424   3.544   4.548   4.111
    1C        C  425   3.613   4.545   4.234
    1C        C  426   3.402   4.552   4.357
    1C        C  427   3.543   4.563   4.355
    1C        C  428   3.333   4.549   4.481
    1C        C  429   3.405   4.562   4.601
    1C        C  430   3.195   4.518   4.724
    1C        C  431   3.334   4.549   4.723
    1C        C  432   3.124   4.499   4.845
    1C        C  433   3.204   4.498   4.960
    1C        C  434   4.383   4.118   2.050
    1C        C  435   4.441   3.991   2.054
    1C        C  436   4.304   4.161   2.162
    1C        C  437   4.333   4.096   2.285
    1C        C  438   4.180   4.249   2.402
    1C        C  439   4.285   4.154   2.404
    1C        C  440   4.126   4.297   2.523
    1C        C  441   4.179   4.249   2.646
    1C        C  442   4.007   4.380   2.764
    1C        C  443   4.122   4.298   2.765
    1C        C  444   3.945   4.413   2.886
    1C        C  445   4.003   4.376   3.010
    1C        C  446   3.813   4.471   3.133
    1C        C  447   3.941   4.412   3.131
    1C        C  448   3.749   4.498   3.256
    1C        C  449   3.817   4.474   3.378
    1C        C  450   3.609   4.528   3.496
    1C        C  451   3.748   4.503   3.498
    1C        C  452   3.539   4.542   3.618
    1C        C  453   3.609   4.539   3.741
    1C        C  454   3.399   4.542   3.867
    1C        C  455   3.541   4.549   3.864
    1C        C  456   3.332   4.535   3.991
    1C        C  457   3.403   4.544   4.113
    1C        C  458   3.197   4.496   4.238
    1C        C  459   3.332   4.538   4.235
    1C        C  460   3.132   4.482   4.363
    1C        C  461   3.197   4.513   4.484
    1C        C  462   2.997   4.433   4.604
    1C        C  463   3.124   4.494   4.604
    1C        C  464   2.932   4.401   4.725
    1C        C  465   2.992   4.444   4.847
    1C        C  466   2.802   4.341   4.962
    1C        C  467   2.909   4.432   4.963
    1C        C  468   4.123   4.284   2.043
    1C        C  469   4.184   4.239   2.161
    1C        C  470   4.008   4.373   2.278
    1C        C  471   4.123   4.289   2.279
    1C        C  472   3.944   4.406   2.400
    1C        C  473   4.008   4.374   2.522
    1C        C  474   3.815   4.471   2.644
    1C        C  475   3.943   4.412   2.642
    1C        C  476   3.746   4.490   2.766
    1C        C  477   3.816   4.471   2.887
    1C        C  478   3.609   4.518   3.008
    1C        C  479   3.748   4.493   3.009
    1C        C  480   3.540   4.530   3.131
    1C        C  481   3.610   4.524   3.253
    1C        C  482   3.397   4.537   3.377
    1C        C  483   3.538   4.536   3.374
    1C        C  484   3.327   4.534   3.499
    1C        C  485   3.398   4.546   3.621
    1C        C  486   3.194   4.500   3.746
    1C        C  487   3.330   4.538   3.744
    1C        C  488   3.131   4.474   3.870
    1C        C  489   3.195   4.498   3.994
    1C        C  490   3.001   4.417   4.114
    1C        C  491   3.128   4.478   4.117
    1C        C  492   2.943   4.384   4.238
    1C        C  493   3.003   4.424   4.360
    1C        C  494   2.831   4.301   4.486
    1C        C  495   2.940   4.391   4.482
    1C        C  496   2.775   4.257   4.608
    1C        C  497   2.819   4.314   4.729
    1C        C  498   2.665   4.165   4.845
    1C        C  499   2.756   4.274   4.848
    1C        C  500   2.595   4.120   4.958
    1C        C  501   4.004   4.356   2.042
    1C        C  502   3.815   4.466   2.160
    1C        C  503   3.941   4.404   2.158
    1C        C  504   3.745   4.489   2.280
    1C        C  505   3.810   4.451   2.399
    1C        C  506   3.609   4.511   2.522
    1C        C  507   3.748   4.487   2.521
    1C        C  508   3.537   4.521   2.643
    1C        C  509   3.607   4.518   2.765
    1C        C  510   3.395   4.530   2.887
    1C        C  511   3.536   4.526   2.887
    1C        C  512   3.325   4.519   3.010
    1C        C  513   3.399   4.530   3.130
    1C        C  514   3.192   4.493   3.254
    1C        C  515   3.329   4.527   3.253
    1C        C  516   3.125   4.470   3.376
    1C        C  517   3.190   4.497   3.498
    1C        C  518   3.003   4.411   3.626
    1C        C  519   3.129   4.475   3.624
    1C        C  520   2.942   4.375   3.748
    1C        C  521   3.005   4.410   3.869
    1C        C  522   2.837   4.282   3.998
    1C        C  523   2.944   4.374   3.991
    1C        C  524   2.787   4.238   4.122
    1C        C  525   2.839   4.289   4.243
    1C        C  526   2.693   4.137   4.368
    1C        C  527   2.781   4.247   4.365
    1C        C  528   2.649   4.079   4.489
    1C        C  529   2.691   4.144   4.608
    1C        C  530   2.588   3.958   4.733
    1C        C  531   2.637   4.092   4.728
    1C        C  532   2.551   3.900   4.857
    1C        C  533   2.532   3.995   4.962
    1C        C  534   3.616   4.557   2.040
    1C        C  535   3.746   4.505   2.044
    1C        C  536   3.537   4.543   2.158
    1C        C  537   3.606   4.521   2.280
    1C        C  538   3.394   4.518   2.402
    1C        C  539   3.535   4.521   2.402
    1C        C  540   3.322   4.512   2.523
    1C        C  541   3.395   4.516   2.644
    1C        C  542   3.186   4.486   2.766
    1C        C  543   3.324   4.517   2.766
    1C        C  544   3.121   4.464   2.889
    1C        C  545   3.188   4.484   3.012
    1C        C  546   2.997   4.398   3.135
    1C        C  547   3.122   4.464   3.135
    1C        C  548   2.940   4.365   3.260
    1C        C  549   2.998   4.409   3.381
    1C        C  550   2.832   4.282   3.507
    1C        C  551   2.941   4.372   3.505
    1C        C  552   2.781   4.235   3.630
    1C        C  553   2.832   4.286   3.751
    1C        C  554   2.697   4.125   3.878
    1C        C  555   2.786   4.234   3.875
    1C        C  556   2.660   4.068   4.001
    1C        C  557   2.704   4.124   4.124
    1C        C  558   2.598   3.945   4.248
    1C        C  559   2.661   4.071   4.247
    1C        C  560   2.564   3.881   4.369
    1C        C  561   2.591   3.950   4.489
    1C        C  562   2.528   3.751   4.617
    1C        C  563   2.567   3.887   4.613
    1C        C  564   2.510   3.682   4.739
    1C        C  565   2.516   3.761   4.858
    1C        C  566   2.537   3.551   4.975
    1C        C  567   2.517   3.689   4.978
    1C        C  568   3.329   4.476   2.043
    1C        C  569   3.398   4.513   2.159
    1C        C  570   3.184   4.478   2.280
    1C        C  571   3.323   4.506   2.280
    1C        C  572   3.116   4.459   2.403
    1C        C  573   3.185   4.480   2.525
    1C        C  574   2.987   4.402   2.649
    1C        C  575   3.115   4.460   2.646
    1C        C  576   2.928   4.364   2.772
    1C        C  577   2.994   4.402   2.891
    1C        C  578   2.827   4.274   3.018
    1C        C  579   2.933   4.366   3.013
    1C        C  580   2.778   4.225   3.141
    1C        C  581   2.832   4.274   3.262
    1C        C  582   2.697   4.116   3.387
    1C        C  583   2.786   4.226   3.386
    1C        C  584   2.656   4.061   3.511
    1C        C  585   2.695   4.122   3.632
    1C        C  586   2.598   3.937   3.758
    1C        C  587   2.658   4.066   3.756
    1C        C  588   2.574   3.872   3.881
    1C        C  589   2.601   3.939   4.003
    1C        C  590   2.534   3.742   4.127
    1C        C  591   2.573   3.878   4.126
    1C        C  592   2.523   3.673   4.249
    1C        C  593   2.529   3.744   4.372
    1C        C  594   2.516   3.537   4.498
    1C        C  595   2.520   3.678   4.496
    1C        C  596   2.523   3.466   4.620
    1C        C  597   2.511   3.540   4.740
    1C        C  598   2.537   3.329   4.862
    1C        C  599   2.525   3.470   4.862
    1C        C  600   2.534   3.250   4.978
    1C        C  601   3.196   4.438   2.044
    1C        C  602   2.983   4.394   2.161
    1C        C  603   3.117   4.444   2.160
    1C        C  604   2.930   4.354   2.286
    1C        C  605   2.991   4.394   2.407
    1C        C  606   2.814   4.276   2.529
    1C        C  607   2.924   4.365   2.528
    1C        C  608   2.770   4.220   2.651
    1C        C  609   2.820   4.272   2.773
    1C        C  610   2.688   4.112   2.898
    1C        C  611   2.772   4.225   2.897
    1C        C  612   2.651   4.056   3.023
    1C        C  613   2.688   4.116   3.145
    1C        C  614   2.590   3.928   3.269
    1C        C  615   2.651   4.056   3.268
    1C        C  616   2.565   3.865   3.394
    1C        C  617   2.598   3.932   3.514
    1C        C  618   2.527   3.735   3.640
    1C        C  619   2.571   3.869   3.637
    1C        C  620   2.515   3.665   3.762
    1C        C  621   2.536   3.736   3.882
    1C        C  622   2.510   3.529   4.010
    1C        C  623   2.524   3.669   4.006
    1C        C  624   2.513   3.460   4.133
    1C        C  625   2.516   3.532   4.254
    1C        C  626   2.551   3.326   4.381
    1C        C  627   2.519   3.464   4.378
    1C        C  628   2.566   3.254   4.502
    1C        C  629   2.542   3.326   4.621
    1C        C  630   2.604   3.123   4.747
    1C        C  631   2.561   3.258   4.743
    1C        C  632   2.621   3.049   4.867
    1C        C  633   2.562   3.113   4.980
    1C        C  634   2.785   4.306   2.055
    1C        C  635   2.893   4.394   2.049
    1C        C  636   2.751   4.230   2.168
    1C        C  637   2.814   4.272   2.287
    1C        C  638   2.680   4.108   2.410
    1C        C  639   2.762   4.223   2.409
    1C        C  640   2.640   4.050   2.533
    1C        C  641   2.682   4.110   2.654
    1C        C  642   2.591   3.922   2.781
    1C        C  643   2.648   4.051   2.777
    1C        C  644   2.566   3.857   2.904
    1C        C  645   2.590   3.928   3.024
    1C        C  646   2.529   3.726   3.151
    1C        C  647   2.565   3.863   3.146
    1C        C  648   2.519   3.656   3.274
    1C        C  649   2.530   3.729   3.394
    1C        C  650   2.510   3.522   3.522
    1C        C  651   2.518   3.663   3.519
    1C        C  652   2.515   3.450   3.644
    1C        C  653   2.513   3.524   3.764
    1C        C  654   2.545   3.318   3.890
    1C        C  655   2.517   3.456   3.889
    1C        C  656   2.561   3.252   4.014
    1C        C  657   2.543   3.322   4.136
    1C        C  658   2.614   3.124   4.259
    1C        C  659   2.563   3.256   4.259
    1C        C  660   2.643   3.059   4.381
    1C        C  661   2.607   3.119   4.503
    1C        C  662   2.718   2.940   4.626
    1C        C  663   2.638   3.057   4.626
    1C        C  664   2.761   2.882   4.747
    1C        C  665   2.696   2.926   4.866
    1C        C  666   2.742   2.868   4.984
    1C        C  667   2.683   4.022   2.056
    1C        C  668   2.681   4.107   2.167
    1C        C  669   2.588   3.915   2.293
    1C        C  670   2.643   4.046   2.289
    1C        C  671   2.563   3.849   2.416
    1C        C  672   2.586   3.920   2.536
    1C        C  673   2.523   3.720   2.663
    1C        C  674   2.565   3.854   2.659
    1C        C  675   2.509   3.649   2.784
    1C        C  676   2.526   3.722   2.905
    1C        C  677   2.505   3.516   3.032
    1C        C  678   2.514   3.657   3.029
    1C        C  679   2.510   3.446   3.155
    1C        C  680   2.510   3.515   3.278
    1C        C  681   2.539   3.309   3.402
    1C        C  682   2.513   3.447   3.402
    1C        C  683   2.558   3.241   3.524
    1C        C  684   2.545   3.312   3.645
    1C        C  685   2.610   3.114   3.772
    1C        C  686   2.562   3.247   3.769
    1C        C  687   2.645   3.055   3.895
    1C        C  688   2.615   3.122   4.016
    1C        C  689   2.720   2.938   4.138
    1C        C  690   2.643   3.057   4.138
    1C        C  691   2.758   2.880   4.261
    1C        C  692   2.718   2.939   4.383
    1C        C  693   2.761   2.882   4.504
    1C        C  694   2.625   3.894   2.058
    1C        C  695   2.521   3.708   2.177
    1C        C  696   2.574   3.839   2.176
    1C        C  697   2.503   3.642   2.301
    1C        C  698   2.519   3.715   2.421
    1C        C  699   2.489   3.507   2.545
    1C        C  700   2.502   3.647   2.543
    1C        C  701   2.498   3.436   2.667
    1C        C  702   2.499   3.508   2.789
    1C        C  703   2.534   3.302   2.912
    1C        C  704   2.506   3.440   2.912
    1C        C  705   2.554   3.235   3.035
    1C        C  706   2.537   3.307   3.156
    1C        C  707   2.603   3.108   3.278
    1C        C  708   2.554   3.240   3.279
    1C        C  709   2.637   3.046   3.401
    1C        C  710   2.609   3.109   3.524
    1C        C  711   2.719   2.933   3.650
    1C        C  712   2.641   3.050   3.649
    1C        C  713   2.762   2.879   3.773
    1C        C  714   2.724   2.937   3.896
    1C        C  715   2.766   2.880   4.018
    1C        C  716   2.448   3.501   2.067
    1C        C  717   2.490   3.634   2.062
    1C        C  718   2.461   3.423   2.187
    1C        C  719   2.478   3.502   2.304
    1C        C  720   2.515   3.292   2.426
    1C        C  721   2.490   3.431   2.425
    1C        C  722   2.537   3.224   2.548
    1C        C  723   2.523   3.297   2.668
    1C        C  724   2.594   3.098   2.788
    1C        C  725   2.544   3.230   2.791
    1C        C  726   2.628   3.038   2.912
    1C        C  727   2.600   3.102   3.035
    1C        C  728   2.720   2.928   3.158
    1C        C  729   2.636   3.042   3.157
    1C        C  730   2.762   2.876   3.282
    1C        C  731   2.713   2.927   3.404
    1C        C  732   2.758   2.874   3.527
    1C        C  733   2.493   3.201   2.074
    1C        C  734   2.485   3.282   2.188
    1C        C  735   2.572   3.082   2.307
    1C        C  736   2.521   3.215   2.308
    1C        C  737   2.601   3.014   2.427
    1C        C  738   2.582   3.090   2.545
    1C        C  739   2.701   2.914   2.671
    1C        C  740   2.623   3.032   2.667
    1C        C  741   2.750   2.862   2.793
    1C        C  742   2.709   2.922   2.914
    1C        C  743   2.755   2.866   3.035
    1C        C  744   2.551   3.075   2.071
    1C        C  745   2.685   2.900   2.185
    1C        C  746   2.608   3.019   2.186
    1C        C  747   2.732   2.845   2.306
    1C        C  748   2.686   2.901   2.427
    1C        C  749   2.733   2.849   2.550
    1C        C  750   2.733   2.836   2.070
    1C        C  751   3.662   2.303   1.998
    1C        O  752   3.688   2.194   2.055
    1C        O  753   3.660   2.303   1.858
    1C        C  754   4.635   3.062   1.988
    1C        O  755   4.631   3.040   1.864
    1C        O  756   4.744   3.006   2.056
    1C        C  757   4.449   4.212   1.957
    1C        O  758   4.532   4.297   2.002
    1C        O  759   4.450   4.203   1.817
    1C        C  760   3.600   4.662   1.936
    1C        O  761   3.537   4.768   1.962
    1C        O  762   3.626   4.655   1.799
    1C        C  763   2.877   4.507   1.954
    1C        O  764   2.938   4.508   1.844
    1C        O  765   2.779   4.605   1.973
    1C        C  766   2.347   3.471   1.962
    1C        O  767   2.371   3.479   1.839
    1C        O  768   2.211   3.493   1.985
    1C        C  769   4.690   3.582   5.065
    1C        O  770   4.651   3.551   5.181
    1C        O  771   4.827   3.606   5.048
    1C        C  772   4.265   4.464   5.039
    1C        O  773   4.286   4.419   5.155
    1C        O  774   4.379   4.537   5.002
    1C        C  775   4.141   2.527   5.085
    1C        O  776   4.209   2.421   5.086
    1C        O  777   4.115   2.570   5.215
    1C        C  778   2.894   4.545   5.058
    1C        O  779   2.873   4.663   5.019
    1C        O  780   2.957   4.539   5.182
    1C        C  781   2.483   3.038   5.080
    1C        O  782   2.358   3.023   5.069
    1C        O  783   2.505   3.039   5.217
    1C        C  784   2.400   3.999   5.029
    1C        O  785   2.289   4.013   4.970
    1C        O  786   2.392   4.015   5.168
    1C        C  787   2.950   2.423   2.008
    1C        O  788   2.956   2.428   1.882
    1C        O  789   2.898   2.304   2.059
    1C        C  790   3.190   2.372   5.072
    1C        O  791   3.186   2.255   5.027
    1C        O  792   3.187   2.394   5.211
    1C        H  793   4.270   3.029   5.053
    1C        H  794   4.203   2.793   5.068
    1C        H  795   4.463   3.142   5.067
    1C        H  796   4.464   3.376   5.057
    1C        H  797   4.572   3.809   5.052
    1C        H  798   4.442   3.988   5.055
    1C        H  799   4.252   4.135   5.041
    1C        H  800   4.024   4.531   5.034
    1C        H  801   3.817   4.594   5.037
    1C        H  802   3.585   4.643   5.036
    1C        H  803   3.394   4.479   5.047
    1C        H  804   3.164   4.435   5.037
    1C        H  805   3.882   2.512   5.074
    1C        H  806   3.674   2.530   5.073
    1C        H  807   3.048   2.618   5.075
    1C        H  808   3.442   2.469   5.079
    1C        H  809   2.840   2.708   5.068
    1C        H  810   2.687   2.882   5.075
    1C        H  811   2.462   3.286   5.049
    1C        H  812   2.554   3.505   5.071
    1C        H  813   2.540   3.742   5.068
    1C        H  814   2.632   4.154   5.052
    1C        H  815   2.761   4.315   5.057
    1C        H  816   2.685   2.854   1.975
    1C        H  817   2.862   2.698   1.974
    1C        H  818   3.218   2.435   1.991
    1C        H  819   3.427   2.391   1.987
    1C        H  820   3.875   2.492   1.971
    1C        H  821   4.080   2.584   1.977
    1C        H  822   4.244   2.726   1.969
    1C        H  823   4.335   2.942   1.981
    1C        H  824   4.590   3.303   1.970
    1C        H  825   4.517   3.510   1.956
    1C        H  826   4.543   3.745   1.964
    1C        H  827   3.784   4.468   1.950
    1C        H  828   3.976   4.396   1.947
    1C        H  829   4.149   4.232   1.953
    1C        H  830   4.494   3.959   1.967
    1C        H  831   2.646   3.831   1.974
    1C        H  832   2.762   4.035   1.986
    1C        H  833   2.736   4.289   1.961
    1C        H  834   3.368   4.496   1.945
    1C        H  835   3.163   4.376   1.964
    1C        H  836   2.548   3.018   1.981
    1C        H  837   2.419   3.214   1.998
    1C        H  838   2.471   3.691   1.973
    2V3OU   H29  839   2.806   3.553   1.977
    2V3OU   C27  840   2.786   3.504   2.076
    2V3OU   H27  841   2.731   3.575   2.143
    2V3OU   H28  842   2.733   3.408   2.055
    2V3OU   O11  843   2.912   3.487   2.141
    2V3OU   C15  844   2.929   3.398   2.245
    2V3OU   C13  845   3.054   3.375   2.306
    2V3OU   C14  846   3.084   3.266   2.387
    2V3OU   C16  847   2.975   3.186   2.422
    2V3OU    H6  848   2.994   3.097   2.484
    2V3OU   C12  849   3.215   3.224   2.443
    2V3OU    O2  850   3.237   3.114   2.498
    2V3OU   C10  851   3.331   3.307   2.409
    2V3OU    C8  852   3.459   3.266   2.444
    2V3OU   O10  853   3.492   3.152   2.510
    2V3OU   H26  854   3.410   3.115   2.548
    2V3OU    C6  855   3.569   3.350   2.407
    2V3OU    C5  856   3.537   3.470   2.343
    2V3OU    C4  857   3.707   3.294   2.404
    2V3OU    H4  858   3.725   3.234   2.498
    2V3OU    H5  859   3.720   3.223   2.316
    2V3OU    C2  860   3.817   3.400   2.403
    2V3OU    O6  861   3.807   3.474   2.524
    2V3OU   H21  862   3.763   3.555   2.493
    2V3OU    C3  863   3.784   3.496   2.288
    2V3OU    H2  864   3.871   3.567   2.290
    2V3OU    H3  865   3.783   3.441   2.191
    2V3OU   C25  866   3.952   3.327   2.401
    2V3OU    O7  867   4.003   3.304   2.291
    2V3OU   C26  868   4.033   3.289   2.523
    2V3OU   H22  869   4.061   3.382   2.580
    2V3OU   H23  870   4.125   3.233   2.492
    2V3OU    O8  871   3.963   3.209   2.616
    2V3OU   H24  872   3.923   3.266   2.683
    2V3OU    C1  873   3.650   3.563   2.310
    2V3OU    H1  874   3.624   3.621   2.217
    2V3OU    O3  875   3.662   3.657   2.417
    2V3OU   C19  876   3.618   3.793   2.406
    2V3OU    H9  877   3.527   3.803   2.339
    2V3OU    O4  878   3.714   3.856   2.325
    2V3OU   C20  879   3.845   3.875   2.379
    2V3OU   H10  880   3.895   3.776   2.404
    2V3OU   C24  881   3.613   3.854   2.546
    2V3OU   H16  882   3.542   3.790   2.605
    2V3OU   H17  883   3.570   3.957   2.543
    2V3OU   C23  884   3.752   3.874   2.607
    2V3OU   H15  885   3.796   3.769   2.621
    2V3OU    N1  886   3.737   3.954   2.727
    2V3OU   H19  887   3.815   3.928   2.783
    2V3OU   H20  888   3.656   3.922   2.778
    2V3OU   C21  889   3.848   3.951   2.512
    2V3OU   H11  890   3.948   3.927   2.558
    2V3OU    O5  891   3.828   4.092   2.518
    2V3OU   H18  892   3.774   4.109   2.597
    2V3OU   C22  893   3.911   3.951   2.265
    2V3OU   H12  894   3.860   4.050   2.261
    2V3OU   H13  895   3.906   3.891   2.171
    2V3OU   H14  896   4.021   3.960   2.284
    2V3OU   C11  897   3.162   3.476   2.302
    2V3OU    O1  898   3.134   3.592   2.267
    2V3OU    C9  899   3.296   3.424   2.336
    2V3OU    C7  900   3.404   3.506   2.306
    2V3OU    O9  901   3.388   3.626   2.239
    2V3OU   H25  902   3.293   3.630   2.217
    2V3OU   C17  903   2.823   3.313   2.284
    2V3OU    H7  904   2.727   3.342   2.242
    2V3OU   C18  905   2.847   3.209   2.373
    2V3OU    H8  906   2.767   3.168   2.436
    3SOL     OW  907   3.510   4.790   1.302
    3SOL    HW1  908   3.467   4.717   1.248
    3SOL    HW2  909   3.452   4.871   1.300
    4SOL     OW  910   6.515   5.674   1.504
    4SOL    HW1  911   6.425   5.644   1.536
    4SOL    HW2  912   6.536   5.628   1.417
    5SOL     OW  913   4.565   1.285   2.682
    5SOL    HW1  914   4.516   1.319   2.601
    5SOL    HW2  915   4.545   1.188   2.695
    6SOL     OW  916   4.133   1.085   1.223
    6SOL    HW1  917   4.175   1.171   1.250
    6SOL    HW2  918   4.160   1.063   1.129
    7SOL     OW  919   0.105   3.473   2.415
    7SOL    HW1  920   0.113   3.442   2.509
    7SOL    HW2  921   0.026   3.428   2.372
    8SOL     OW  922   2.568   0.248   6.346
    8SOL    HW1  923   2.636   0.176   6.331
    8SOL    HW2  924   2.493   0.212   6.402
    9SOL     OW  925   6.591   6.448   6.507
    9SOL    HW1  926   6.689   6.466   6.503
    9SOL    HW2  927   6.565   6.385   6.433
   10SOL     OW  928   1.090   5.065   6.115
   10SOL    HW1  929   1.090   5.125   6.195
   10SOL    HW2  930   1.089   5.120   6.031
   11SOL     OW  931   2.535   0.523   6.635
   11SOL    HW1  932   2.630   0.497   6.614
   11SOL    HW2  933   2.485   0.442   6.666
   12SOL     OW  934   3.591   6.617   3.773
   12SOL    HW1  935   3.685   6.604   3.802
   12SOL    HW2  936   3.530   6.560   3.828
   13SOL     OW  937   3.573   5.475   3.694
   13SOL    HW1  938   3.601   5.560   3.737
   13SOL    HW2  939   3.581   5.400   3.759
   14SOL     OW  940   4.641   4.993   5.546
   14SOL    HW1  941   4.732   4.966   5.513
   14SOL    HW2  942   4.573   4.927   5.515
   15SOL     OW  943   1.502   5.714   1.618
   15SOL    HW1  944   1.520   5.669   1.530
   15SOL    HW2  945   1.503   5.813   1.606
   16SOL     OW  946   5.443   2.853   5.821
   16SOL    HW1  947   5.431   2.949   5.794
   16SOL    HW2  948   5.536   2.840   5.855
   17SOL     OW  949   5.087   5.995   5.460
   17SOL    HW1  950   5.070   5.898   5.443
   17SOL    HW2  951   5.024   6.028   5.530
   18SOL     OW  952   3.404   1.007   5.914
   18SOL    HW1  953   3.307   0.986   5.915
   18SOL    HW2  954   3.435   1.018   5.820
   19SOL     OW  955   0.177   0.453   3.439
   19SOL    HW1  956   0.227   0.509   3.373
   19SOL    HW2  957   0.177   0.498   3.528
   20SOL     OW  958   5.462   2.863   4.299
   20SOL    HW1  959   5.510   2.835   4.216
   20SOL    HW2  960   5.372   2.818   4.302
   21SOL     OW  961   3.085   2.125   2.479
   21SOL    HW1  962   3.031   2.156   2.401
   21SOL    HW2  963   3.182   2.126   2.455
   22SOL     OW  964   2.054   6.679   6.946
   22SOL    HW1  965   2.061   6.743   6.869
   22SOL    HW2  966   1.972   6.700   7.000
   23SOL     OW  967   4.911   6.607   2.974
   23SOL    HW1  968   4.825   6.645   2.940
   23SOL    HW2  969   4.987   6.667   2.946
   24SOL     OW  970   4.623   1.233   3.300
   24SOL    HW1  971   4.576   1.150   3.332
   24SOL    HW2  972   4.565   1.281   3.235
   25SOL     OW  973   3.385   0.088   5.045
   25SOL    HW1  974   3.363   0.124   4.954
   25SOL    HW2  975   3.352   0.151   5.115
   26SOL     OW  976   7.017   0.738   0.728
   26SOL    HW1  977   0.075   0.795   0.726
   26SOL    HW2  978   7.019   0.680   0.809
   27SOL     OW  979   1.066   1.364   1.923
   27SOL    HW1  980   1.094   1.412   1.840
   27SOL    HW2  981   1.130   1.384   1.997
   28SOL     OW  982   3.795   1.532   6.470
   28SOL    HW1  983   3.742   1.612   6.442
   28SOL    HW2  984   3.874   1.561   6.525
   29SOL     OW  985   4.747   2.776   1.919
   29SOL    HW1  986   4.728   2.769   2.017
   29SOL    HW2  987   4.761   2.872   1.895
   30SOL     OW  988   3.549   1.501   4.052
   30SOL    HW1  989   3.522   1.559   4.129
   30SOL    HW2  990   3.603   1.556   3.987
   31SOL     OW  991   0.954   2.596   5.979
   31SOL    HW1  992   0.866   2.575   6.021
   31SOL    HW2  993   0.944   2.676   5.919
   32SOL     OW  994   0.462   1.493   3.366
   32SOL    HW1  995   0.536   1.447   3.416
   32SOL    HW2  996   0.486   1.589   3.352
   33SOL     OW  997   2.069   4.163   6.522
   33SOL    HW1  998   2.169   4.164   6.522
   33SOL    HW2  999   2.036   4.137   6.431
   34SOL     OW 1000   2.242   1.654   3.974
   34SOL    HW1 1001   2.251   1.678   4.070
   34SOL    HW2 1002   2.218   1.557   3.966
   35SOL     OW 1003   3.667   3.471   6.769
   35SOL    HW1 1004   3.604   3.414   6.717
   35SOL    HW2 1005   3.753   3.481   6.718
   36SOL     OW 1006   5.824   0.733   5.696
   36SOL    HW1 1007   5.736   0.707   5.736
   36SOL    HW2 1008   5.897   0.719   5.764
   37SOL     OW 1009   0.896   0.485   0.520
   37SOL    HW1 1010   0.888   0.585   0.523
   37SOL    HW2 1011   0.851   0.445   0.600
   38SOL     OW 1012   0.259   5.030   3.015
   38SOL    HW1 1013   0.268   4.968   2.938
   38SOL    HW2 1014   0.174   5.011   3.064
   39SOL     OW 1015   0.069   5.490   6.941
   39SOL    HW1 1016   0.110   5.503   6.850
   39SOL    HW2 1017   6.995   5.479   6.932
   40SOL     OW 1018   5.172   2.242   1.952
   40SOL    HW1 1019   5.195   2.315   1.887
   40SOL    HW2 1020   5.161   2.281   2.043
   41SOL     OW 1021   6.713   6.269   4.287
   41SOL    HW1 1022   6.787   6.313   4.338
   41SOL    HW2 1023   6.721   6.293   4.190
   42SOL     OW 1024   2.479   5.144   5.308
   42SOL    HW1 1025   2.534   5.062   5.297
   42SOL    HW2 1026   2.508   5.213   5.241
   43SOL     OW 1027   5.454   6.340   5.387
   43SOL    HW1 1028   5.510   6.401   5.332
   43SOL    HW2 1029   5.412   6.270   5.328
   44SOL     OW 1030   5.595   1.791   6.813
   44SOL    HW1 1031   5.535   1.723   6.770
   44SOL    HW2 1032   5.686   1.787   6.771
   45SOL     OW 1033   3.422   6.801   3.231
   45SOL    HW1 1034   3.402   6.790   3.329
   45SOL    HW2 1035   3.495   6.868   3.219
   46SOL     OW 1036   0.515   3.385   3.085
   46SOL    HW1 1037   0.595   3.441   3.105
   46SOL    HW2 1038   0.544   3.292   3.061
   47SOL     OW 1039   5.040   4.866   1.508
   47SOL    HW1 1040   5.073   4.777   1.539
   47SOL    HW2 1041   5.103   4.904   1.441
   48SOL     OW 1042   6.496   2.625   5.624
   48SOL    HW1 1043   6.474   2.582   5.711
   48SOL    HW2 1044   6.576   2.581   5.584
   49SOL     OW 1045   5.113   3.823   1.832
   49SOL    HW1 1046   5.071   3.787   1.749
   49SOL    HW2 1047   5.041   3.847   1.898
   50SOL     OW 1048   6.299   1.792   5.403
   50SOL    HW1 1049   6.333   1.847   5.327
   50SOL    HW2 1050   6.261   1.707   5.367
   51SOL     OW 1051   2.982   6.291   2.757
   51SOL    HW1 1052   2.924   6.372   2.766
   51SOL    HW2 1053   3.077   6.316   2.777
   52SOL     OW 1054   4.924   2.308   3.362
   52SOL    HW1 1055   4.852   2.271   3.421
   52SOL    HW2 1056   4.957   2.236   3.300
   53SOL     OW 1057   3.605   6.684   4.486
   53SOL    HW1 1058   3.608   6.778   4.520
   53SOL    HW2 1059   3.534   6.633   4.536
   54SOL     OW 1060   3.695   4.808   1.078
   54SOL    HW1 1061   3.639   4.729   1.052
   54SOL    HW2 1062   3.675   4.833   1.173
   55SOL     OW 1063   3.057   1.634   6.283
   55SOL    HW1 1064   3.050   1.613   6.381
   55SOL    HW2 1065   3.127   1.705   6.270
   56SOL     OW 1066   0.439   0.660   1.564
   56SOL    HW1 1067   0.413   0.709   1.648
   56SOL    HW2 1068   0.401   0.708   1.485
   57SOL     OW 1069   5.481   0.700   1.110
   57SOL    HW1 1070   5.560   0.704   1.172
   57SOL    HW2 1071   5.492   0.768   1.038
   58SOL     OW 1072   6.252   6.733   5.794
   58SOL    HW1 1073   6.294   6.696   5.711
   58SOL    HW2 1074   6.313   6.802   5.833
   59SOL     OW 1075   0.698   1.669   5.676
   59SOL    HW1 1076   0.707   1.595   5.610
   59SOL    HW2 1077   0.778   1.728   5.672
   60SOL     OW 1078   5.359   1.446   5.914
   60SOL    HW1 1079   5.308   1.442   6.000
   60SOL    HW2 1080   5.444   1.498   5.927
   61SOL     OW 1081   5.353   2.208   4.854
   61SOL    HW1 1082   5.367   2.298   4.812
   61SOL    HW2 1083   5.275   2.213   4.918
   62SOL     OW 1084   0.177   1.026   2.432
   62SOL    HW1 1085   0.189   1.081   2.516
   62SOL    HW2 1086   0.250   1.048   2.368
   63SOL     OW 1087   5.440   1.274   4.003
   63SOL    HW1 1088   5.495   1.356   4.016
   63SOL    HW2 1089   5.497   1.199   3.971
   64SOL     OW 1090   0.209   3.595   5.816
   64SOL    HW1 1091   0.201   3.683   5.862
   64SOL    HW2 1092   0.128   3.540   5.834
   65SOL     OW 1093   0.231   4.964   5.951
   65SOL    HW1 1094   0.177   5.048   5.959
   65SOL    HW2 1095   0.174   4.890   5.916
   66SOL     OW 1096   3.683   0.835   5.701
   66SOL    HW1 1097   3.731   0.833   5.612
   66SOL    HW2 1098   3.750   0.847   5.774
   67SOL     OW 1099   5.519   4.246   5.737
   67SOL    HW1 1100   5.445   4.182   5.715
   67SOL    HW2 1101   5.485   4.315   5.801
   68SOL     OW 1102   5.453   0.574   6.806
   68SOL    HW1 1103   5.400   0.558   6.889
   68SOL    HW2 1104   5.456   0.672   6.786
   69SOL     OW 1105   0.553   3.731   5.912
   69SOL    HW1 1106   0.652   3.727   5.897
   69SOL    HW2 1107   0.536   3.758   6.007
   70SOL     OW 1108   5.541   4.585   4.639
   70SOL    HW1 1109   5.567   4.490   4.619
   70SOL    HW2 1110   5.611   4.628   4.696
   71SOL     OW 1111   3.736   1.655   3.075
   71SOL    HW1 1112   3.793   1.712   3.135
   71SOL    HW2 1113   3.792   1.617   3.002
   72SOL     OW 1114   2.410   6.655   4.296
   72SOL    HW1 1115   2.407   6.683   4.391
   72SOL    HW2 1116   2.320   6.669   4.254
   73SOL     OW 1117   3.061   1.202   0.871
   73SOL    HW1 1118   2.976   1.237   0.831
   73SOL    HW2 1119   3.124   1.175   0.798
   74SOL     OW 1120   5.385   6.811   0.045
   74SOL    HW1 1121   5.379   6.712   0.060
   74SOL    HW2 1122   5.363   6.858   0.131
   75SOL     OW 1123   3.573   0.160   0.103
   75SOL    HW1 1124   3.581   0.224   0.179
   75SOL    HW2 1125   3.585   0.209   0.016
   76SOL     OW 1126   2.894   2.820   0.768
   76SOL    HW1 1127   2.801   2.798   0.740
   76SOL    HW2 1128   2.925   2.903   0.720
   77SOL     OW 1129   6.687   6.578   3.503
   77SOL    HW1 1130   6.619   6.510   3.475
   77SOL    HW2 1131   6.698   6.646   3.431
   78SOL     OW 1132   5.585   0.804   7.015
   78SOL    HW1 1133   5.535   0.719   0.007
   78SOL    HW2 1134   5.541   0.855   6.942
   79SOL     OW 1135   3.133   6.068   0.506
   79SOL    HW1 1136   3.077   5.986   0.510
   79SOL    HW2 1137   3.200   6.066   0.581
   80SOL     OW 1138   5.170   2.026   3.772
   80SOL    HW1 1139   5.204   2.103   3.824
   80SOL    HW2 1140   5.071   2.035   3.758
   81SOL     OW 1141   2.144   0.040   2.886
   81SOL    HW1 1142   2.105   0.110   2.827
   81SOL    HW2 1143   2.176   6.988   2.831
   82SOL     OW 1144   6.542   5.017   1.123
   82SOL    HW1 1145   6.540   4.936   1.064
   82SOL    HW2 1146   6.449   5.039   1.152
   83SOL     OW 1147   0.262   0.843   0.651
   83SOL    HW1 1148   0.318   0.926   0.640
   83SOL    HW2 1149   0.320   0.762   0.640
   84SOL     OW 1150   5.628   2.805   3.363
   84SOL    HW1 1151   5.659   2.880   3.420
   84SOL    HW2 1152   5.577   2.841   3.284
   85SOL     OW 1153   1.891   1.812   4.458
   85SOL    HW1 1154   1.956   1.824   4.383
   85SOL    HW2 1155   1.817   1.879   4.448
   86SOL     OW 1156   6.947   0.797   5.020
   86SOL    HW1 1157   6.905   0.719   4.973
   86SOL    HW2 1158   7.016   0.763   5.084
   87SOL     OW 1159   5.391   3.371   0.380
   87SOL    HW1 1160   5.377   3.293   0.441
   87SOL    HW2 1161   5.310   3.384   0.323
   88SOL     OW 1162   3.479   1.863   6.095
   88SOL    HW1 1163   3.445   1.818   6.013
   88SOL    HW2 1164   3.543   1.802   6.143
   89SOL     OW 1165   0.854   2.602   5.566
   89SOL    HW1 1166   0.862   2.510   5.604
   89SOL    HW2 1167   0.804   2.599   5.480
   90SOL     OW 1168   3.527   5.759   2.273
   90SOL    HW1 1169   3.623   5.733   2.287
   90SOL    HW2 1170   3.508   5.765   2.175
   91SOL     OW 1171   4.619   4.345   5.038
   91SOL    HW1 1172   4.641   4.317   5.131
   91SOL    HW2 1173   4.520   4.354   5.028
   92SOL     OW 1174   4.174   4.658   0.495
   92SOL    HW1 1175   4.233   4.674   0.415
   92SOL    HW2 1176   4.117   4.738   0.510
   93SOL     OW 1177   2.952   4.195   6.586
   93SOL    HW1 1178   2.902   4.209   6.501
   93SOL    HW2 1179   3.045   4.232   6.577
   94SOL     OW 1180   2.208   5.869   6.145
   94SOL    HW1 1181   2.245   5.935   6.211
   94SOL    HW2 1182   2.223   5.903   6.053
   95SOL     OW 1183   1.361   0.651   3.202
   95SOL    HW1 1184   1.337   0.641   3.106
   95SOL    HW2 1185   1.333   0.570   3.253
   96SOL     OW 1186   3.198   0.297   5.427
   96SOL    HW1 1187   3.240   0.214   5.463
   96SOL    HW2 1188   3.220   0.306   5.330
   97SOL     OW 1189   2.060   3.158   5.755
   97SOL    HW1 1190   2.092   3.066   5.731
   97SOL    HW2 1191   2.001   3.192   5.683
   98SOL     OW 1192   6.852   3.258   0.856
   98SOL    HW1 1193   6.814   3.166   0.845
   98SOL    HW2 1194   6.893   3.288   0.770
   99SOL     OW 1195   3.957   3.703   1.040
   99SOL    HW1 1196   3.862   3.679   1.021
   99SOL    HW2 1197   3.960   3.788   1.093
  100SOL     OW 1198   6.604   6.931   5.245
  100SOL    HW1 1199   6.656   7.014   5.227
  100SOL    HW2 1200   6.666   6.859   5.276
  101SOL     OW 1201   1.882   5.171   2.251
  101SOL    HW1 1202   1.890   5.208   2.158
  101SOL    HW2 1203   1.828   5.233   2.307
  102SOL     OW 1204   3.908   6.390   2.597
  102SOL    HW1 1205   3.867   6.440   2.520
  102SOL    HW2 1206   3.923   6.295   2.571
  103SOL     OW 1207   2.340   1.080   2.080
  103SOL    HW1 1208   2.404   1.147   2.117
  103SOL    HW2 1209   2.378   1.041   1.996
  104SOL     OW 1210   0.646   5.718   2.764
  104SOL    HW1 1211   0.548   5.711   2.747
  104SOL    HW2 1212   0.661   5.742   2.860
  105SOL     OW 1213   6.250   2.758   6.793
  105SOL    HW1 1214   6.285   2.736   6.884
  105SOL    HW2 1215   6.293   2.842   6.760
  106SOL     OW 1216   3.590   6.229   4.927
  106SOL    HW1 1217   3.617   6.158   4.862
  106SOL    HW2 1218   3.518   6.195   4.986
  107SOL     OW 1219   2.210   1.113   1.278
  107SOL    HW1 1220   2.198   1.146   1.185
  107SOL    HW2 1221   2.121   1.107   1.323
  108SOL     OW 1222   3.666   4.925   5.870
  108SOL    HW1 1223   3.702   4.832   5.875
  108SOL    HW2 1224   3.648   4.949   5.775
  109SOL     OW 1225   6.812   0.564   1.674
  109SOL    HW1 1226   6.797   0.558   1.773
  109SOL    HW2 1227   6.890   0.625   1.656
  110SOL     OW 1228   3.296   5.749   5.130
  110SOL    HW1 1229   3.205   5.748   5.088
  110SOL    HW2 1230   3.286   5.765   5.228
  111SOL     OW 1231   2.367   1.286   4.211
  111SOL    HW1 1232   2.329   1.328   4.293
  111SOL    HW2 1233   2.433   1.215   4.237
  112SOL     OW 1234   4.483   6.837   6.315
  112SOL    HW1 1235   4.524   6.899   6.248
  112SOL    HW2 1236   4.428   6.891   6.380
  113SOL     OW 1237   6.060   6.454   2.920
  113SOL    HW1 1238   6.062   6.357   2.900
  113SOL    HW2 1239   6.116   6.473   3.001
  114SOL     OW 1240   0.307   0.050   1.504
  114SOL    HW1 1241   0.265   0.140   1.494
  114SOL    HW2 1242   0.294   7.022   1.420
  115SOL     OW 1243   4.171   1.616   3.305
  115SOL    HW1 1244   4.075   1.591   3.291
  115SOL    HW2 1245   4.205   1.664   3.224
  116SOL     OW 1246   5.605   4.787   1.106
  116SOL    HW1 1247   5.621   4.798   1.204
  116SOL    HW2 1248   5.542   4.711   1.091
  117SOL     OW 1249   1.198   1.954   0.452
  117SOL    HW1 1250   1.136   1.880   0.476
  117SOL    HW2 1251   1.146   2.033   0.419
  118SOL     OW 1252   1.700   0.720   3.805
  118SOL    HW1 1253   1.796   0.693   3.800
  118SOL    HW2 1254   1.685   0.775   3.888
  119SOL     OW 1255   0.589   1.147   0.112
  119SOL    HW1 1256   0.520   1.199   0.062
  119SOL    HW2 1257   0.648   1.098   0.047
  120SOL     OW 1258   6.253   0.007   6.961
  120SOL    HW1 1259   6.254   0.088   6.902
  120SOL    HW2 1260   6.210   0.030   0.023
  121SOL     OW 1261   1.595   3.502   5.919
  121SOL    HW1 1262   1.684   3.476   5.882
  121SOL    HW2 1263   1.538   3.420   5.932
  122SOL     OW 1264   2.052   3.663   6.283
  122SOL    HW1 1265   2.049   3.633   6.187
  122SOL    HW2 1266   1.958   3.665   6.319
  123SOL     OW 1267   0.564   0.515   2.376
  123SOL    HW1 1268   0.483   0.523   2.434
  123SOL    HW2 1269   0.558   0.579   2.300
  124SOL     OW 1270   4.676   2.942   0.683
  124SOL    HW1 1271   4.601   2.901   0.633
  124SOL    HW2 1272   4.648   3.032   0.717
  125SOL     OW 1273   3.275   1.748   1.474
  125SOL    HW1 1274   3.306   1.813   1.544
  125SOL    HW2 1275   3.219   1.677   1.516
  126SOL     OW 1276   2.667   3.924   0.907
  126SOL    HW1 1277   2.658   3.905   0.809
  126SOL    HW2 1278   2.633   4.017   0.926
  127SOL     OW 1279   0.921   5.435   6.844
  127SOL    HW1 1280   0.848   5.367   6.839
  127SOL    HW2 1281   1.006   5.391   6.872
  128SOL     OW 1282   5.207   3.111   1.493
  128SOL    HW1 1283   5.228   3.170   1.416
  128SOL    HW2 1284   5.209   3.015   1.464
  129SOL     OW 1285   2.245   3.428   6.292
  129SOL    HW1 1286   2.188   3.504   6.263
  129SOL    HW2 1287   2.312   3.406   6.221
  130SOL     OW 1288   0.653   2.314   4.056
  130SOL    HW1 1289   0.716   2.379   4.013
  130SOL    HW2 1290   0.699   2.226   4.066
  131SOL     OW 1291   5.209   1.733   3.771
  131SOL    HW1 1292   5.241   1.661   3.832
  131SOL    HW2 1293   5.245   1.822   3.801
  132SOL     OW 1294   2.551   2.220   1.051
  132SOL    HW1 1295   2.472   2.282   1.058
  132SOL    HW2 1296   2.599   2.219   1.139
  133SOL     OW 1297   4.913   6.719   3.577
  133SOL    HW1 1298   4.920   6.748   3.673
  133SOL    HW2 1299   4.989   6.757   3.524
  134SOL     OW 1300   6.449   1.327   2.572
  134SOL    HW1 1301   6.464   1.256   2.640
  134SOL    HW2 1302   6.351   1.349   2.568
  135SOL     OW 1303   5.720   4.070   3.767
  135SOL    HW1 1304   5.642   4.101   3.714
  135SOL    HW2 1305   5.799   4.130   3.749
  136SOL     OW 1306   3.164   3.925   5.751
  136SOL    HW1 1307   3.178   3.968   5.840
  136SOL    HW2 1308   3.079   3.960   5.711
  137SOL     OW 1309   5.748   2.171   4.537
  137SOL    HW1 1310   5.703   2.254   4.570
  137SOL    HW2 1311   5.843   2.191   4.515
  138SOL     OW 1312   0.978   4.238   2.367
  138SOL    HW1 1313   0.998   4.250   2.270
  138SOL    HW2 1314   0.895   4.184   2.378
  139SOL     OW 1315   2.159   0.083   4.617
  139SOL    HW1 1316   2.070   0.119   4.646
  139SOL    HW2 1317   2.146   0.018   4.542
  140SOL     OW 1318   1.079   5.745   2.957
  140SOL    HW1 1319   1.133   5.681   2.904
  140SOL    HW2 1320   1.009   5.787   2.899
  141SOL     OW 1321   6.735   3.154   5.261
  141SOL    HW1 1322   6.673   3.076   5.256
  141SOL    HW2 1323   6.829   3.123   5.246
  142SOL     OW 1324   0.910   4.167   0.925
  142SOL    HW1 1325   0.936   4.247   0.979
  142SOL    HW2 1326   0.977   4.094   0.940
  143SOL     OW 1327   6.108   4.040   1.279
  143SOL    HW1 1328   6.122   4.043   1.180
  143SOL    HW2 1329   6.046   3.965   1.301
  144SOL     OW 1330   1.078   6.231   5.640
  144SOL    HW1 1331   1.152   6.165   5.627
  144SOL    HW2 1332   1.077   6.296   5.564
  145SOL     OW 1333   6.785   5.326   0.386
  145SOL    HW1 1334   6.815   5.257   0.320
  145SOL    HW2 1335   6.850   5.331   0.461
  146SOL     OW 1336   4.670   0.332   6.972
  146SOL    HW1 1337   4.765   0.344   6.944
  146SOL    HW2 1338   4.639   0.240   6.949
  147SOL     OW 1339   6.253   3.893   6.301
  147SOL    HW1 1340   6.199   3.958   6.355
  147SOL    HW2 1341   6.344   3.930   6.286
  148SOL     OW 1342   6.661   5.633   6.665
  148SOL    HW1 1343   6.629   5.727   6.676
  148SOL    HW2 1344   6.603   5.572   6.718
  149SOL     OW 1345   3.256   1.826   3.766
  149SOL    HW1 1346   3.177   1.769   3.787
  149SOL    HW2 1347   3.338   1.769   3.760
  150SOL     OW 1348   5.893   5.580   6.677
  150SOL    HW1 1349   5.819   5.629   6.723
  150SOL    HW2 1350   5.853   5.511   6.616
  151SOL     OW 1351   2.965   2.084   0.633
  151SOL    HW1 1352   2.933   2.128   0.717
  151SOL    HW2 1353   3.056   2.117   0.610
  152SOL     OW 1354   1.252   1.096   2.485
  152SOL    HW1 1355   1.165   1.047   2.481
  152SOL    HW2 1356   1.325   1.032   2.508
  153SOL     OW 1357   2.868   0.641   1.590
  153SOL    HW1 1358   2.853   0.566   1.527
  153SOL    HW2 1359   2.914   0.608   1.672
  154SOL     OW 1360   0.674   2.016   2.314
  154SOL    HW1 1361   0.734   2.095   2.297
  154SOL    HW2 1362   0.708   1.937   2.264
  155SOL     OW 1363   6.749   1.658   3.236
  155SOL    HW1 1364   6.720   1.634   3.144
  155SOL    HW2 1365   6.675   1.639   3.300
  156SOL     OW 1366   0.302   2.354   0.557
  156SOL    HW1 1367   0.295   2.373   0.459
  156SOL    HW2 1368   0.211   2.356   0.598
  157SOL     OW 1369   5.830   2.960   1.694
  157SOL    HW1 1370   5.791   3.052   1.702
  157SOL    HW2 1371   5.923   2.960   1.730
  158SOL     OW 1372   2.314   5.168   2.548
  158SOL    HW1 1373   2.256   5.189   2.470
  158SOL    HW2 1374   2.398   5.123   2.517
  159SOL     OW 1375   4.595   4.731   2.214
  159SOL    HW1 1376   4.534   4.810   2.202
  159SOL    HW2 1377   4.547   4.648   2.187
  160SOL     OW 1378   5.523   5.405   0.496
  160SOL    HW1 1379   5.539   5.402   0.398
  160SOL    HW2 1380   5.602   5.368   0.545
  161SOL     OW 1381   1.951   5.917   4.027
  161SOL    HW1 1382   1.952   6.016   4.009
  161SOL    HW2 1383   2.040   5.878   4.004
  162SOL     OW 1384   3.645   5.525   0.049
  162SOL    HW1 1385   3.717   5.466   0.013
  162SOL    HW2 1386   3.629   5.503   0.146
  163SOL     OW 1387   6.128   5.291   1.034
  163SOL    HW1 1388   6.202   5.267   1.097
  163SOL    HW2 1389   6.094   5.382   1.056
  164SOL     OW 1390   7.012   4.638   0.614
  164SOL    HW1 1391   7.012   4.647   0.515
  164SOL    HW2 1392   0.040   4.713   0.654
  165SOL     OW 1393   5.006   3.219   1.625
  165SOL    HW1 1394   5.081   3.191   1.564
  165SOL    HW2 1395   5.001   3.155   1.702
  166SOL     OW 1396   0.096   4.185   3.069
  166SOL    HW1 1397   0.037   4.263   3.092
  166SOL    HW2 1398   0.167   4.215   3.006
  167SOL     OW 1399   4.882   3.065   0.545
  167SOL    HW1 1400   4.877   3.151   0.596
  167SOL    HW2 1401   4.816   3.000   0.583
  168SOL     OW 1402   2.425   3.125   1.226
  168SOL    HW1 1403   2.473   3.054   1.175
  168SOL    HW2 1404   2.396   3.089   1.314
  169SOL     OW 1405   4.776   1.205   1.766
  169SOL    HW1 1406   4.748   1.131   1.705
  169SOL    HW2 1407   4.833   1.270   1.715
  170SOL     OW 1408   1.110   1.146   3.489
  170SOL    HW1 1409   1.171   1.105   3.421
  170SOL    HW2 1410   1.073   1.074   3.548
  171SOL     OW 1411   3.863   4.474   6.617
  171SOL    HW1 1412   3.821   4.460   6.706
  171SOL    HW2 1413   3.800   4.523   6.557
  172SOL     OW 1414   5.822   2.362   3.063
  172SOL    HW1 1415   5.830   2.320   3.153
  172SOL    HW2 1416   5.908   2.352   3.013
  173SOL     OW 1417   6.596   1.897   4.474
  173SOL    HW1 1418   6.516   1.861   4.428
  173SOL    HW2 1419   6.586   1.995   4.487
  174SOL     OW 1420   3.679   5.141   3.478
  174SOL    HW1 1421   3.765   5.123   3.527
  174SOL    HW2 1422   3.602   5.126   3.539
  175SOL     OW 1423   2.378   0.350   1.277
  175SOL    HW1 1424   2.357   0.345   1.375
  175SOL    HW2 1425   2.462   0.299   1.259
  176SOL     OW 1426   0.811   4.456   0.602
  176SOL    HW1 1427   0.863   4.509   0.536
  176SOL    HW2 1428   0.845   4.362   0.603
  177SOL     OW 1429   5.616   2.929   2.839
  177SOL    HW1 1430   5.614   2.839   2.796
  177SOL    HW2 1431   5.665   2.993   2.779
  178SOL     OW 1432   2.329   3.050   6.635
  178SOL    HW1 1433   2.402   3.042   6.567
  178SOL    HW2 1434   2.283   2.962   6.645
  179SOL     OW 1435   3.782   0.849   5.456
  179SOL    HW1 1436   3.697   0.856   5.404
  179SOL    HW2 1437   3.858   0.830   5.394
  180SOL     OW 1438   1.858   6.716   0.332
  180SOL    HW1 1439   1.893   6.787   0.271
  180SOL    HW2 1440   1.846   6.752   0.424
  181SOL     OW 1441   3.486   2.846   6.399
  181SOL    HW1 1442   3.471   2.905   6.320
  181SOL    HW2 1443   3.403   2.792   6.416
  182SOL     OW 1444   4.032   1.600   4.889
  182SOL    HW1 1445   3.957   1.665   4.898
  182SOL    HW2 1446   3.997   1.511   4.859
  183SOL     OW 1447   3.663   2.119   3.234
  183SOL    HW1 1448   3.694   2.132   3.328
  183SOL    HW2 1449   3.735   2.145   3.170
  184SOL     OW 1450   1.200   6.210   4.506
  184SOL    HW1 1451   1.211   6.177   4.412
  184SOL    HW2 1452   1.131   6.283   4.508
  185SOL     OW 1453   0.203   1.585   6.027
  185SOL    HW1 1454   0.165   1.523   6.096
  185SOL    HW2 1455   0.296   1.556   6.003
  186SOL     OW 1456   5.603   0.580   4.775
  186SOL    HW1 1457   5.662   0.548   4.700
  186SOL    HW2 1458   5.576   0.502   4.831
  187SOL     OW 1459   4.101   6.769   3.124
  187SOL    HW1 1460   4.020   6.826   3.137
  187SOL    HW2 1461   4.165   6.784   3.199
  188SOL     OW 1462   0.418   1.680   3.100
  188SOL    HW1 1463   0.486   1.683   3.027
  188SOL    HW2 1464   0.429   1.760   3.159
  189SOL     OW 1465   2.182   5.380   1.431
  189SOL    HW1 1466   2.100   5.435   1.416
  189SOL    HW2 1467   2.164   5.314   1.504
  190SOL     OW 1468   5.504   2.014   4.740
  190SOL    HW1 1469   5.576   2.037   4.674
  190SOL    HW2 1470   5.465   2.098   4.777
  191SOL     OW 1471   6.358   6.388   0.020
  191SOL    HW1 1472   6.262   6.364   0.012
  191SOL    HW2 1473   6.382   6.455   6.975
  192SOL     OW 1474   0.924   5.961   2.052
  192SOL    HW1 1475   0.878   6.026   1.992
  192SOL    HW2 1476   1.023   5.966   2.037
  193SOL     OW 1477   4.897   2.638   5.369
  193SOL    HW1 1478   4.965   2.675   5.305
  193SOL    HW2 1479   4.810   2.626   5.322
  194SOL     OW 1480   3.606   0.412   2.975
  194SOL    HW1 1481   3.620   0.510   2.959
  194SOL    HW2 1482   3.612   0.363   2.888
  195SOL     OW 1483   2.030   0.069   5.297
  195SOL    HW1 1484   2.094   7.017   5.299
  195SOL    HW2 1485   1.982   0.071   5.210
  196SOL     OW 1486   2.889   0.152   0.739
  196SOL    HW1 1487   2.807   0.097   0.725
  196SOL    HW2 1488   2.951   0.103   0.800
  197SOL     OW 1489   2.706   6.831   1.594
  197SOL    HW1 1490   2.615   6.801   1.565
  197SOL    HW2 1491   2.703   6.859   1.690
  198SOL     OW 1492   4.389   0.582   2.626
  198SOL    HW1 1493   4.345   0.630   2.703
  198SOL    HW2 1494   4.447   0.509   2.662
  199SOL     OW 1495   6.770   1.954   3.862
  199SOL    HW1 1496   6.808   2.047   3.865
  199SOL    HW2 1497   6.823   1.898   3.798
  200SOL     OW 1498   1.033   3.919   1.046
  200SOL    HW1 1499   0.996   3.912   1.139
  200SOL    HW2 1500   1.016   3.834   0.997
  201SOL     OW 1501   6.929   0.116   5.990
  201SOL    HW1 1502   6.876   0.088   6.070
  201SOL    HW2 1503   7.022   0.141   6.018
  202SOL     OW 1504   3.952   1.103   0.123
  202SOL    HW1 1505   3.867   1.147   0.150
  202SOL    HW2 1506   3.990   1.148   0.042
  203SOL     OW 1507   5.654   2.410   5.227
  203SOL    HW1 1508   5.705   2.327   5.201
  203SOL    HW2 1509   5.658   2.421   5.326
  204SOL     OW 1510   1.249   0.400   5.163
  204SOL    HW1 1511   1.186   0.381   5.239
  204SOL    HW2 1512   1.200   0.394   5.076
  205SOL     OW 1513   0.208   2.314   3.061
  205SOL    HW1 1514   0.186   2.222   3.028
  205SOL    HW2 1515   0.142   2.341   3.132
  206SOL     OW 1516   0.845   4.591   0.913
  206SOL    HW1 1517   0.765   4.649   0.928
  206SOL    HW2 1518   0.841   4.551   0.822
  207SOL     OW 1519   6.365   1.934   3.582
  207SOL    HW1 1520   6.333   2.020   3.541
  207SOL    HW2 1521   6.308   1.858   3.551
  208SOL     OW 1522   6.684   4.079   5.478
  208SOL    HW1 1523   6.676   3.981   5.496
  208SOL    HW2 1524   6.772   4.097   5.433
  209SOL     OW 1525   0.472   5.617   4.219
  209SOL    HW1 1526   0.487   5.680   4.295
  209SOL    HW2 1527   0.514   5.529   4.240
  210SOL     OW 1528   4.167   2.182   0.629
  210SOL    HW1 1529   4.101   2.159   0.700
  210SOL    HW2 1530   4.132   2.156   0.540
  211SOL     OW 1531   1.944   6.384   2.596
  211SOL    HW1 1532   1.910   6.477   2.584
  211SOL    HW2 1533   2.044   6.385   2.597
  212SOL     OW 1534   1.065   4.134   1.857
  212SOL    HW1 1535   0.967   4.127   1.872
  212SOL    HW2 1536   1.104   4.202   1.919
  213SOL     OW 1537   2.939   0.221   0.441
  213SOL    HW1 1538   2.889   0.264   0.366
  213SOL    HW2 1539   2.909   0.261   0.528
  214SOL     OW 1540   4.274   5.056   2.433
  214SOL    HW1 1541   4.193   5.078   2.487
  214SOL    HW2 1542   4.248   5.039   2.338
  215SOL     OW 1543   2.622   3.879   0.640
  215SOL    HW1 1544   2.656   3.925   0.558
  215SOL    HW2 1545   2.608   3.782   0.620
  216SOL     OW 1546   1.632   6.137   3.810
  216SOL    HW1 1547   1.663   6.137   3.905
  216SOL    HW2 1548   1.705   6.171   3.751
  217SOL     OW 1549   1.388   2.766   3.822
  217SOL    HW1 1550   1.388   2.697   3.895
  217SOL    HW2 1551   1.474   2.761   3.772
  218SOL     OW 1552   0.158   3.286   4.295
  218SOL    HW1 1553   0.093   3.342   4.347
  218SOL    HW2 1554   0.219   3.345   4.243
  219SOL     OW 1555   4.327   0.413   0.296
  219SOL    HW1 1556   4.373   0.326   0.312
  219SOL    HW2 1557   4.346   0.444   0.202
  220SOL     OW 1558   3.419   6.567   1.599
  220SOL    HW1 1559   3.504   6.617   1.588
  220SOL    HW2 1560   3.342   6.631   1.599
  221SOL     OW 1561   6.262   4.119   0.901
  221SOL    HW1 1562   6.235   4.112   0.805
  221SOL    HW2 1563   6.181   4.121   0.958
  222SOL     OW 1564   1.926   4.454   5.777
  222SOL    HW1 1565   1.831   4.436   5.804
  222SOL    HW2 1566   1.929   4.536   5.719
  223SOL     OW 1567   6.144   3.642   6.264
  223SOL    HW1 1568   6.187   3.576   6.203
  223SOL    HW2 1569   6.184   3.732   6.250
  224SOL     OW 1570   2.836   1.758   5.356
  224SOL    HW1 1571   2.783   1.708   5.288
  224SOL    HW2 1572   2.801   1.852   5.363
  225SOL     OW 1573   4.840   3.975   6.492
  225SOL    HW1 1574   4.841   4.065   6.448
  225SOL    HW2 1575   4.787   3.980   6.577
  226SOL     OW 1576   0.994   1.301   5.605
  226SOL    HW1 1577   1.077   1.300   5.661
  226SOL    HW2 1578   0.986   1.389   5.559
  227SOL     OW 1579   1.342   4.057   1.939
  227SOL    HW1 1580   1.387   4.081   2.026
  227SOL    HW2 1581   1.268   3.993   1.956
  228SOL     OW 1582   2.721   0.131   3.697
  228SOL    HW1 1583   2.714   0.121   3.796
  228SOL    HW2 1584   2.689   0.221   3.669
  229SOL     OW 1585   6.106   6.201   6.470
  229SOL    HW1 1586   6.129   6.192   6.567
  229SOL    HW2 1587   6.097   6.297   6.446
  230SOL     OW 1588   3.411   4.902   3.988
  230SOL    HW1 1589   3.357   4.825   4.023
  230SOL    HW2 1590   3.395   4.911   3.890
  231SOL     OW 1591   5.947   1.859   6.651
  231SOL    HW1 1592   5.960   1.804   6.733
  231SOL    HW2 1593   5.860   1.836   6.608
  232SOL     OW 1594   0.605   3.304   6.662
  232SOL    HW1 1595   0.691   3.259   6.637
  232SOL    HW2 1596   0.600   3.313   6.761
  233SOL     OW 1597   3.292   1.294   3.091
  233SOL    HW1 1598   3.221   1.224   3.083
  233SOL    HW2 1599   3.269   1.373   3.034
  234SOL     OW 1600   5.574   0.685   6.071
  234SOL    HW1 1601   5.486   0.728   6.088
  234SOL    HW2 1602   5.565   0.586   6.079
  235SOL     OW 1603   4.255   2.600   1.665
  235SOL    HW1 1604   4.334   2.584   1.605
  235SOL    HW2 1605   4.253   2.528   1.735
  236SOL     OW 1606   5.660   2.615   6.369
  236SOL    HW1 1607   5.602   2.650   6.295
  236SOL    HW2 1608   5.723   2.687   6.398
  237SOL     OW 1609   6.659   4.821   1.712
  237SOL    HW1 1610   6.715   4.904   1.713
  237SOL    HW2 1611   6.617   4.810   1.622
  238SOL     OW 1612   5.560   1.378   0.626
  238SOL    HW1 1613   5.487   1.442   0.604
  238SOL    HW2 1614   5.608   1.409   0.708
  239SOL     OW 1615   0.682   5.290   6.867
  239SOL    HW1 1616   0.605   5.226   6.873
  239SOL    HW2 1617   0.648   5.380   6.838
  240SOL     OW 1618   6.626   3.082   3.445
  240SOL    HW1 1619   6.560   3.148   3.411
  240SOL    HW2 1620   6.689   3.056   3.372
  241SOL     OW 1621   3.008   2.096   5.143
  241SOL    HW1 1622   3.089   2.150   5.117
  241SOL    HW2 1623   3.030   2.041   5.223
  242SOL     OW 1624   4.055   3.852   4.157
  242SOL    HW1 1625   4.084   3.795   4.234
  242SOL    HW2 1626   4.064   3.949   4.181
  243SOL     OW 1627   4.601   0.285   6.157
  243SOL    HW1 1628   4.625   0.373   6.118
  243SOL    HW2 1629   4.569   0.298   6.251
  244SOL     OW 1630   5.862   2.949   5.675
  244SOL    HW1 1631   5.806   2.910   5.748
  244SOL    HW2 1632   5.958   2.943   5.700
  245SOL     OW 1633   5.247   3.072   4.142
  245SOL    HW1 1634   5.176   3.137   4.116
  245SOL    HW2 1635   5.335   3.119   4.152
  246SOL     OW 1636   4.498   2.250   3.372
  246SOL    HW1 1637   4.501   2.311   3.293
  246SOL    HW2 1638   4.578   2.267   3.430
  247SOL     OW 1639   2.620   1.756   0.420
  247SOL    HW1 1640   2.688   1.817   0.461
  247SOL    HW2 1641   2.648   1.732   0.327
  248SOL     OW 1642   3.953   1.142   2.154
  248SOL    HW1 1643   3.892   1.185   2.221
  248SOL    HW2 1644   4.040   1.120   2.198
  249SOL     OW 1645   4.149   0.012   4.894
  249SOL    HW1 1646   4.166   0.106   4.922
  249SOL    HW2 1647   4.197   6.975   4.957
  250SOL     OW 1648   5.065   2.871   0.395
  250SOL    HW1 1649   5.023   2.949   0.442
  250SOL    HW2 1650   5.155   2.853   0.435
  251SOL     OW 1651   4.902   3.918   5.535
  251SOL    HW1 1652   4.970   3.942   5.466
  251SOL    HW2 1653   4.838   3.994   5.546
  252SOL     OW 1654   6.923   5.683   6.456
  252SOL    HW1 1655   6.871   5.736   6.389
  252SOL    HW2 1656   6.865   5.611   6.494
  253SOL     OW 1657   2.268   4.820   5.990
  253SOL    HW1 1658   2.339   4.807   6.059
  253SOL    HW2 1659   2.236   4.731   5.957
  254SOL     OW 1660   5.874   2.482   4.011
  254SOL    HW1 1661   5.827   2.420   4.073
  254SOL    HW2 1662   5.943   2.431   3.959
  255SOL     OW 1663   1.793   5.252   5.586
  255SOL    HW1 1664   1.830   5.293   5.502
  255SOL    HW2 1665   1.694   5.247   5.579
  256SOL     OW 1666   5.995   3.659   5.901
  256SOL    HW1 1667   6.022   3.706   5.816
  256SOL    HW2 1668   6.041   3.570   5.905
  257SOL     OW 1669   4.646   0.717   3.939
  257SOL    HW1 1670   4.553   0.751   3.924
  257SOL    HW2 1671   4.672   0.656   3.864
  258SOL     OW 1672   2.267   5.333   5.170
  258SOL    HW1 1673   2.197   5.348   5.100
  258SOL    HW2 1674   2.223   5.329   5.260
  259SOL     OW 1675   0.072   1.775   2.719
  259SOL    HW1 1676   0.128   1.842   2.669
  259SOL    HW2 1677   0.102   1.772   2.814
  260SOL     OW 1678   4.352   0.170   1.654
  260SOL    HW1 1679   4.376   0.147   1.748
  260SOL    HW2 1680   4.424   0.228   1.615
  261SOL     OW 1681   6.758   3.243   0.298
  261SOL    HW1 1682   6.752   3.324   0.356
  261SOL    HW2 1683   6.677   3.186   0.311
  262SOL     OW 1684   0.663   3.559   6.938
  262SOL    HW1 1685   0.668   3.602   6.848
  262SOL    HW2 1686   0.753   3.521   6.961
  263SOL     OW 1687   2.098   0.841   4.550
  263SOL    HW1 1688   2.158   0.762   4.539
  263SOL    HW2 1689   2.106   0.901   4.470
  264SOL     OW 1690   6.251   3.501   7.009
  264SOL    HW1 1691   6.240   3.429   0.053
  264SOL    HW2 1692   6.177   3.568   7.019
  265SOL     OW 1693   5.027   6.662   2.560
  265SOL    HW1 1694   4.992   6.734   2.500
  265SOL    HW2 1695   4.968   6.582   2.554
  266SOL     OW 1696   3.452   2.664   5.891
  266SOL    HW1 1697   3.460   2.645   5.989
  266SOL    HW2 1698   3.443   2.578   5.841
  267SOL     OW 1699   0.378   1.233   6.917
  267SOL    HW1 1700   0.302   1.279   6.872
  267SOL    HW2 1701   0.419   1.166   6.855
  268SOL     OW 1702   3.446   0.976   5.653
  268SOL    HW1 1703   3.536   0.940   5.676
  268SOL    HW2 1704   3.456   1.059   5.598
  269SOL     OW 1705   0.469   3.506   1.794
  269SOL    HW1 1706   0.385   3.548   1.759
  269SOL    HW2 1707   0.532   3.488   1.719
  270SOL     OW 1708   1.227   6.777   0.458
  270SOL    HW1 1709   1.158   6.840   0.422
  270SOL    HW2 1710   1.189   6.730   0.538
  271SOL     OW 1711   6.715   1.791   6.972
  271SOL    HW1 1712   6.633   1.785   6.915
  271SOL    HW2 1713   6.724   1.884   7.009
  272SOL     OW 1714   3.671   5.498   4.542
  272SOL    HW1 1715   3.609   5.441   4.488
  272SOL    HW2 1716   3.765   5.483   4.511
  273SOL     OW 1717   1.733   4.568   4.644
  273SOL    HW1 1718   1.786   4.608   4.570
  273SOL    HW2 1719   1.757   4.613   4.730
  274SOL     OW 1720   4.097   2.235   3.241
  274SOL    HW1 1721   4.170   2.182   3.284
  274SOL    HW2 1722   4.116   2.243   3.143
  275SOL     OW 1723   6.292   4.960   4.716
  275SOL    HW1 1724   6.364   4.918   4.660
  275SOL    HW2 1725   6.288   4.914   4.805
  276SOL     OW 1726   6.796   6.991   3.048
  276SOL    HW1 1727   6.876   6.999   3.107
  276SOL    HW2 1728   6.824   6.963   2.956
  277SOL     OW 1729   1.661   4.273   7.015
  277SOL    HW1 1730   1.691   4.344   6.952
  277SOL    HW2 1731   1.616   4.200   6.963
  278SOL     OW 1732   6.406   5.298   2.152
  278SOL    HW1 1733   6.316   5.261   2.132
  278SOL    HW2 1734   6.473   5.258   2.089
  279SOL     OW 1735   6.288   3.383   4.049
  279SOL    HW1 1736   6.224   3.323   4.000
  279SOL    HW2 1737   6.236   3.452   4.099
  280SOL     OW 1738   3.039   0.128   3.068
  280SOL    HW1 1739   3.049   0.166   3.160
  280SOL    HW2 1740   3.046   0.202   3.001
  281SOL     OW 1741   2.560   4.542   1.839
  281SOL    HW1 1742   2.561   4.492   1.752
  281SOL    HW2 1743   2.650   4.538   1.881
  282SOL     OW 1744   3.355   1.679   5.928
  282SOL    HW1 1745   3.258   1.663   5.911
  282SOL    HW2 1746   3.410   1.618   5.872
  283SOL     OW 1747   6.240   1.690   6.628
  283SOL    HW1 1748   6.169   1.695   6.557
  283SOL    HW2 1749   6.199   1.660   6.714
  284SOL     OW 1750   1.391   4.136   3.239
  284SOL    HW1 1751   1.484   4.101   3.250
  284SOL    HW2 1752   1.380   4.218   3.295
  285SOL     OW 1753   6.015   4.989   4.966
  285SOL    HW1 1754   6.072   4.915   4.929
  285SOL    HW2 1755   6.036   5.074   4.918
  286SOL     OW 1756   3.125   5.975   5.929
  286SOL    HW1 1757   3.198   5.955   5.863
  286SOL    HW2 1758   3.046   5.918   5.909
  287SOL     OW 1759   0.698   3.754   0.587
  287SOL    HW1 1760   0.708   3.763   0.687
  287SOL    HW2 1761   0.651   3.834   0.551
  288SOL     OW 1762   4.093   0.872   6.318
  288SOL    HW1 1763   4.085   0.944   6.249
  288SOL    HW2 1764   4.066   0.908   6.407
  289SOL     OW 1765   7.013   4.551   5.251
  289SOL    HW1 1766   6.984   4.602   5.170
  289SOL    HW2 1767   7.007   4.453   5.233
  290SOL     OW 1768   6.338   1.807   4.686
  290SOL    HW1 1769   6.424   1.816   4.736
  290SOL    HW2 1770   6.291   1.896   4.686
  291SOL     OW 1771   1.611   2.414   4.510
  291SOL    HW1 1772   1.704   2.443   4.484
  291SOL    HW2 1773   1.617   2.342   4.578
  292SOL     OW 1774   1.707   2.406   3.335
  292SOL    HW1 1775   1.707   2.446   3.243
  292SOL    HW2 1776   1.615   2.377   3.359
  293SOL     OW 1777   4.247   5.699   2.375
  293SOL    HW1 1778   4.214   5.771   2.313
  293SOL    HW2 1779   4.199   5.707   2.462
  294SOL     OW 1780   0.735   5.828   6.277
  294SOL    HW1 1781   0.690   5.743   6.249
  294SOL    HW2 1782   0.812   5.846   6.216
  295SOL     OW 1783   3.876   1.796   3.998
  295SOL    HW1 1784   3.832   1.726   4.053
  295SOL    HW2 1785   3.855   1.780   3.901
  296SOL     OW 1786   4.156   1.946   3.118
  296SOL    HW1 1787   4.064   1.982   3.132
  296SOL    HW2 1788   4.216   1.982   3.190
  297SOL     OW 1789   2.533   4.567   3.318
  297SOL    HW1 1790   2.560   4.635   3.386
  297SOL    HW2 1791   2.584   4.582   3.233
  298SOL     OW 1792   3.808   6.369   1.074
  298SOL    HW1 1793   3.792   6.312   0.993
  298SOL    HW2 1794   3.745   6.448   1.071
  299SOL     OW 1795   5.334   3.505   5.932
  299SOL    HW1 1796   5.425   3.509   5.891
  299SOL    HW2 1797   5.265   3.510   5.859
  300SOL     OW 1798   6.683   1.281   2.054
  300SOL    HW1 1799   6.646   1.202   2.103
  300SOL    HW2 1800   6.619   1.309   1.983
  301SOL     OW 1801   5.004   3.659   1.362
  301SOL    HW1 1802   5.074   3.658   1.290
  301SOL    HW2 1803   4.923   3.707   1.329
  302SOL     OW 1804   0.792   0.781   3.359
  302SOL    HW1 1805   0.863   0.733   3.308
  302SOL    HW2 1806   0.834   0.845   3.424
  303SOL     OW 1807   5.547   0.894   2.108
  303SOL    HW1 1808   5.562   0.885   2.010
  303SOL    HW2 1809   5.454   0.864   2.131
  304SOL     OW 1810   2.241   6.992   3.999
  304SOL    HW1 1811   2.302   0.035   4.040
  304SOL    HW2 1812   2.242   6.909   4.055
  305SOL     OW 1813   0.733   3.350   0.277
  305SOL    HW1 1814   0.814   3.366   0.221
  305SOL    HW2 1815   0.729   3.253   0.303
  306SOL     OW 1816   2.232   1.633   3.381
  306SOL    HW1 1817   2.295   1.622   3.304
  306SOL    HW2 1818   2.258   1.714   3.434
  307SOL     OW 1819   4.874   0.280   0.648
  307SOL    HW1 1820   4.963   0.235   0.651
  307SOL    HW2 1821   4.882   0.367   0.600
  308SOL     OW 1822   6.079   3.543   4.864
  308SOL    HW1 1823   6.064   3.529   4.766
  308SOL    HW2 1824   6.166   3.500   4.891
  309SOL     OW 1825   3.280   5.022   6.465
  309SOL    HW1 1826   3.292   5.059   6.557
  309SOL    HW2 1827   3.227   4.937   6.470
  310SOL     OW 1828   6.178   7.013   5.694
  310SOL    HW1 1829   6.190   6.928   5.643
  310SOL    HW2 1830   6.252   0.051   5.672
  311SOL     OW 1831   5.974   4.819   1.417
  311SOL    HW1 1832   5.965   4.731   1.371
  311SOL    HW2 1833   6.063   4.824   1.462
  312SOL     OW 1834   4.332   1.017   6.029
  312SOL    HW1 1835   4.370   1.012   6.121
  312SOL    HW2 1836   4.384   1.082   5.974
  313SOL     OW 1837   3.411   4.302   1.675
  313SOL    HW1 1838   3.483   4.373   1.676
  313SOL    HW2 1839   3.323   4.344   1.694
  314SOL     OW 1840   3.708   4.995   6.638
  314SOL    HW1 1841   3.731   4.939   6.558
  314SOL    HW2 1842   3.685   5.088   6.607
  315SOL     OW 1843   0.915   3.393   3.540
  315SOL    HW1 1844   0.998   3.401   3.484
  315SOL    HW2 1845   0.931   3.433   3.630
  316SOL     OW 1846   2.904   1.877   4.165
  316SOL    HW1 1847   2.938   1.960   4.122
  316SOL    HW2 1848   2.962   1.854   4.243
  317SOL     OW 1849   1.056   0.519   0.958
  317SOL    HW1 1850   0.961   0.509   0.927
  317SOL    HW2 1851   1.071   0.462   1.038
  318SOL     OW 1852   0.658   6.085   6.975
  318SOL    HW1 1853   0.627   6.180   6.970
  318SOL    HW2 1854   0.591   6.026   6.928
  319SOL     OW 1855   0.024   0.696   3.827
  319SOL    HW1 1856   0.024   0.620   3.892
  319SOL    HW2 1857   0.086   0.676   3.751
  320SOL     OW 1858   5.831   2.049   0.198
  320SOL    HW1 1859   5.755   1.990   0.171
  320SOL    HW2 1860   5.807   2.100   0.280
  321SOL     OW 1861   3.447   1.125   1.100
  321SOL    HW1 1862   3.351   1.133   1.127
  321SOL    HW2 1863   3.505   1.149   1.177
  322SOL     OW 1864   3.656   4.010   4.689
  322SOL    HW1 1865   3.649   3.910   4.692
  322SOL    HW2 1866   3.742   4.039   4.731
  323SOL     OW 1867   0.487   3.808   6.582
  323SOL    HW1 1868   0.520   3.859   6.502
  323SOL    HW2 1869   0.563   3.757   6.622
  324SOL     OW 1870   2.131   2.365   3.944
  324SOL    HW1 1871   2.097   2.277   3.910
  324SOL    HW2 1872   2.230   2.370   3.932
  325SOL     OW 1873   1.139   3.057   1.530
  325SOL    HW1 1874   1.144   2.979   1.468
  325SOL    HW2 1875   1.049   3.059   1.574
  326SOL     OW 1876   1.726   5.186   6.269
  326SOL    HW1 1877   1.741   5.216   6.174
  326SOL    HW2 1878   1.704   5.088   6.269
  327SOL     OW 1879   1.462   5.389   3.671
  327SOL    HW1 1880   1.491   5.307   3.621
  327SOL    HW2 1881   1.469   5.373   3.769
  328SOL     OW 1882   2.320   5.876   1.701
  328SOL    HW1 1883   2.336   5.965   1.658
  328SOL    HW2 1884   2.232   5.840   1.672
  329SOL     OW 1885   3.225   4.158   4.795
  329SOL    HW1 1886   3.204   4.189   4.702
  329SOL    HW2 1887   3.324   4.147   4.804
  330SOL     OW 1888   3.331   6.782   1.031
  330SOL    HW1 1889   3.297   6.816   1.119
  330SOL    HW2 1890   3.342   6.682   1.036
  331SOL     OW 1891   4.186   4.843   6.913
  331SOL    HW1 1892   4.182   4.899   6.996
  331SOL    HW2 1893   4.267   4.867   6.860
  332SOL     OW 1894   3.547   1.675   4.872
  332SOL    HW1 1895   3.522   1.670   4.969
  332SOL    HW2 1896   3.467   1.697   4.817
  333SOL     OW 1897   3.198   6.844   6.432
  333SOL    HW1 1898   3.264   6.919   6.444
  333SOL    HW2 1899   3.133   6.844   6.507
  334SOL     OW 1900   2.627   0.357   0.954
  334SOL    HW1 1901   2.612   0.337   0.857
  334SOL    HW2 1902   2.638   0.455   0.966
  335SOL     OW 1903   3.297   6.552   4.445
  335SOL    HW1 1904   3.198   6.540   4.435
  335SOL    HW2 1905   3.322   6.643   4.414
  336SOL     OW 1906   2.888   1.473   3.777
  336SOL    HW1 1907   2.933   1.393   3.736
  336SOL    HW2 1908   2.957   1.540   3.803
  337SOL     OW 1909   6.968   3.051   0.472
  337SOL    HW1 1910   6.899   2.989   0.433
  337SOL    HW2 1911   6.933   3.145   0.468
  338SOL     OW 1912   3.160   2.695   0.762
  338SOL    HW1 1913   3.069   2.737   0.768
  338SOL    HW2 1914   3.167   2.623   0.830
  339SOL     OW 1915   3.670   6.243   4.578
  339SOL    HW1 1916   3.625   6.213   4.662
  339SOL    HW2 1917   3.607   6.300   4.525
  340SOL     OW 1918   4.922   4.309   5.394
  340SOL    HW1 1919   4.880   4.249   5.325
  340SOL    HW2 1920   4.988   4.256   5.448
  341SOL     OW 1921   6.336   0.224   4.572
  341SOL    HW1 1922   6.324   0.200   4.476
  341SOL    HW2 1923   6.265   0.289   4.599
  342SOL     OW 1924   5.934   3.532   6.770
  342SOL    HW1 1925   5.948   3.521   6.671
  342SOL    HW2 1926   5.870   3.463   6.803
  343SOL     OW 1927   2.088   5.335   0.834
  343SOL    HW1 1928   2.142   5.254   0.815
  343SOL    HW2 1929   1.997   5.308   0.866
  344SOL     OW 1930   1.544   4.745   2.140
  344SOL    HW1 1931   1.514   4.652   2.118
  344SOL    HW2 1932   1.566   4.793   2.055
  345SOL     OW 1933   6.756   1.403   5.001
  345SOL    HW1 1934   6.836   1.346   4.981
  345SOL    HW2 1935   6.745   1.470   4.927
  346SOL     OW 1936   1.681   0.937   2.154
  346SOL    HW1 1937   1.690   0.953   2.056
  346SOL    HW2 1938   1.755   0.984   2.203
  347SOL     OW 1939   3.846   6.258   5.944
  347SOL    HW1 1940   3.878   6.243   5.850
  347SOL    HW2 1941   3.921   6.289   6.001
  348SOL     OW 1942   4.569   4.870   1.465
  348SOL    HW1 1943   4.617   4.799   1.516
  348SOL    HW2 1944   4.609   4.877   1.373
  349SOL     OW 1945   6.293   4.582   1.541
  349SOL    HW1 1946   6.345   4.544   1.465
  349SOL    HW2 1947   6.342   4.564   1.627
  350SOL     OW 1948   3.507   3.275   1.834
  350SOL    HW1 1949   3.477   3.292   1.928
  350SOL    HW2 1950   3.597   3.316   1.821
  351SOL     OW 1951   2.469   2.753   0.417
  351SOL    HW1 1952   2.400   2.707   0.472
  351SOL    HW2 1953   2.481   2.847   0.450
  352SOL     OW 1954   3.488   0.094   4.716
  352SOL    HW1 1955   3.414   0.134   4.664
  352SOL    HW2 1956   3.565   0.158   4.720
  353SOL     OW 1957   2.746   6.979   0.900
  353SOL    HW1 1958   2.650   6.996   0.922
  353SOL    HW2 1959   2.802   6.987   0.982
  354SOL     OW 1960   4.035   2.659   0.641
  354SOL    HW1 1961   3.996   2.601   0.712
  354SOL    HW2 1962   4.041   2.608   0.555
  355SOL     OW 1963   6.760   3.429   2.667
  355SOL    HW1 1964   6.796   3.485   2.592
  355SOL    HW2 1965   6.815   3.445   2.749
  356SOL     OW 1966   4.188   5.836   4.987
  356SOL    HW1 1967   4.248   5.801   4.915
  356SOL    HW2 1968   4.131   5.910   4.950
  357SOL     OW 1969   6.367   0.167   5.632
  357SOL    HW1 1970   6.408   0.110   5.561
  357SOL    HW2 1971   6.323   0.247   5.590
  358SOL     OW 1972   5.738   0.266   1.907
  358SOL    HW1 1973   5.812   0.209   1.871
  358SOL    HW2 1974   5.751   0.279   2.005
  359SOL     OW 1975   1.637   2.116   2.436
  359SOL    HW1 1976   1.682   2.204   2.451
  359SOL    HW2 1977   1.591   2.117   2.346
  360SOL     OW 1978   1.902   5.487   6.063
  360SOL    HW1 1979   1.933   5.578   6.037
  360SOL    HW2 1980   1.972   5.441   6.117
  361SOL     OW 1981   5.638   5.958   2.968
  361SOL    HW1 1982   5.732   5.924   2.962
  361SOL    HW2 1983   5.635   6.037   3.029
  362SOL     OW 1984   3.708   4.146   0.656
  362SOL    HW1 1985   3.618   4.135   0.614
  362SOL    HW2 1986   3.698   4.180   0.749
  363SOL     OW 1987   4.526   4.502   3.264
  363SOL    HW1 1988   4.537   4.459   3.174
  363SOL    HW2 1989   4.612   4.499   3.314
  364SOL     OW 1990   0.232   5.752   5.639
  364SOL    HW1 1991   0.237   5.817   5.563
  364SOL    HW2 1992   0.279   5.790   5.718
  365SOL     OW 1993   4.887   5.434   2.537
  365SOL    HW1 1994   4.823   5.484   2.595
  365SOL    HW2 1995   4.841   5.356   2.497
  366SOL     OW 1996   6.409   1.020   0.235
  366SOL    HW1 1997   6.419   1.004   0.334
  366SOL    HW2 1998   6.339   1.089   0.220
  367SOL     OW 1999   5.245   2.863   1.373
  367SOL    HW1 2000   5.313   2.790   1.361
  367SOL    HW2 2001   5.163   2.841   1.322
  368SOL     OW 2002   0.780   3.793   4.747
  368SOL    HW1 2003   0.789   3.731   4.824
  368SOL    HW2 2004   0.846   3.868   4.756
  369SOL     OW 2005   6.387   5.001   1.963
  369SOL    HW1 2006   6.325   4.991   2.041
  369SOL    HW2 2007   6.391   4.914   1.913
  370SOL     OW 2008   3.239   1.899   5.695
  370SOL    HW1 2009   3.215   1.843   5.774
  370SOL    HW2 2010   3.259   1.840   5.617
  371SOL     OW 2011   2.600   3.697   6.264
  371SOL    HW1 2012   2.537   3.735   6.196
  371SOL    HW2 2013   2.665   3.767   6.292
  372SOL     OW 2014   6.744   0.952   5.160
  372SOL    HW1 2015   6.808   0.883   5.125
  372SOL    HW2 2016   6.684   0.983   5.087
  373SOL     OW 2017   6.085   6.479   5.313
  373SOL    HW1 2018   6.078   6.380   5.319
  373SOL    HW2 2019   6.016   6.514   5.249
  374SOL     OW 2020   3.606   0.082   2.361
  374SOL    HW1 2021   3.700   0.050   2.375
  374SOL    HW2 2022   3.606   0.181   2.345
  375SOL     OW 2023   0.740   4.891   3.994
  375SOL    HW1 2024   0.743   4.807   4.048
  375SOL    HW2 2025   0.686   4.876   3.911
  376SOL     OW 2026   1.790   3.236   4.176
  376SOL    HW1 2027   1.768   3.210   4.270
  376SOL    HW2 2028   1.855   3.171   4.137
  377SOL     OW 2029   6.435   2.531   1.938
  377SOL    HW1 2030   6.379   2.509   1.858
  377SOL    HW2 2031   6.532   2.526   1.913
  378SOL     OW 2032   3.423   2.994   5.564
  378SOL    HW1 2033   3.394   2.946   5.481
  378SOL    HW2 2034   3.521   2.980   5.578
  379SOL     OW 2035   6.265   4.190   1.696
  379SOL    HW1 2036   6.312   4.278   1.697
  379SOL    HW2 2037   6.184   4.195   1.755
  380SOL     OW 2038   2.555   1.326   1.863
  380SOL    HW1 2039   2.638   1.368   1.899
  380SOL    HW2 2040   2.493   1.304   1.938
  381SOL     OW 2041   2.061   4.813   1.577
  381SOL    HW1 2042   1.980   4.770   1.538
  381SOL    HW2 2043   2.124   4.742   1.610
  382SOL     OW 2044   5.376   6.359   6.603
  382SOL    HW1 2045   5.295   6.360   6.545
  382SOL    HW2 2046   5.453   6.399   6.555
  383SOL     OW 2047   6.141   2.628   6.161
  383SOL    HW1 2048   6.084   2.566   6.216
  383SOL    HW2 2049   6.199   2.682   6.222
  384SOL     OW 2050   6.948   4.129   4.809
  384SOL    HW1 2051   6.851   4.117   4.787
  384SOL    HW2 2052   6.956   4.164   4.902
  385SOL     OW 2053   4.348   6.371   6.768
  385SOL    HW1 2054   4.439   6.388   6.729
  385SOL    HW2 2055   4.299   6.458   6.775
  386SOL     OW 2056   3.649   0.130   5.150
  386SOL    HW1 2057   3.581   0.172   5.090
  386SOL    HW2 2058   3.610   0.118   5.241
  387SOL     OW 2059   6.802   6.000   3.587
  387SOL    HW1 2060   6.706   6.005   3.616
  387SOL    HW2 2061   6.814   5.924   3.523
  388SOL     OW 2062   0.358   2.363   4.564
  388SOL    HW1 2063   0.438   2.384   4.620
  388SOL    HW2 2064   0.387   2.309   4.485
  389SOL     OW 2065   4.239   4.162   1.662
  389SOL    HW1 2066   4.163   4.221   1.689
  389SOL    HW2 2067   4.321   4.187   1.715
  390SOL     OW 2068   3.336   1.439   0.449
  390SOL    HW1 2069   3.314   1.498   0.526
  390SOL    HW2 2070   3.413   1.380   0.473
  391SOL     OW 2071   2.144   3.964   5.302
  391SOL    HW1 2072   2.105   3.903   5.233
  391SOL    HW2 2073   2.234   3.996   5.271
  392SOL     OW 2074   1.574   3.337   2.199
  392SOL    HW1 2075   1.599   3.433   2.186
  392SOL    HW2 2076   1.642   3.279   2.154
  393SOL     OW 2077   1.498   5.415   0.557
  393SOL    HW1 2078   1.486   5.513   0.571
  393SOL    HW2 2079   1.555   5.400   0.475
  394SOL     OW 2080   0.992   3.000   6.753
  394SOL    HW1 2081   0.995   3.027   6.850
  394SOL    HW2 2082   1.085   3.000   6.716
  395SOL     OW 2083   5.493   4.241   2.032
  395SOL    HW1 2084   5.482   4.142   2.031
  395SOL    HW2 2085   5.470   4.277   2.122
  396SOL     OW 2086   2.228   2.482   2.190
  396SOL    HW1 2087   2.288   2.439   2.122
  396SOL    HW2 2088   2.265   2.464   2.282
  397SOL     OW 2089   5.292   1.605   6.410
  397SOL    HW1 2090   5.210   1.606   6.352
  397SOL    HW2 2091   5.281   1.671   6.484
  398SOL     OW 2092   1.272   6.095   4.271
  398SOL    HW1 2093   1.325   6.021   4.230
  398SOL    HW2 2094   1.204   6.127   4.205
  399SOL     OW 2095   6.474   5.845   4.427
  399SOL    HW1 2096   6.496   5.942   4.440
  399SOL    HW2 2097   6.444   5.830   4.333
  400SOL     OW 2098   6.301   6.597   5.187
  400SOL    HW1 2099   6.352   6.517   5.157
  400SOL    HW2 2100   6.219   6.568   5.236
  401SOL     OW 2101   5.520   6.959   6.080
  401SOL    HW1 2102   5.584   0.007   6.057
  401SOL    HW2 2103   5.428   6.983   6.050
  402SOL     OW 2104   6.167   0.228   2.527
  402SOL    HW1 2105   6.239   0.283   2.485
  402SOL    HW2 2106   6.160   0.140   2.479
  403SOL     OW 2107   3.299   0.374   6.530
  403SOL    HW1 2108   3.288   0.311   6.607
  403SOL    HW2 2109   3.393   0.368   6.496
  404SOL     OW 2110   2.572   5.555   5.523
  404SOL    HW1 2111   2.563   5.518   5.615
  404SOL    HW2 2112   2.636   5.498   5.470
  405SOL     OW 2113   2.306   4.175   3.692
  405SOL    HW1 2114   2.304   4.077   3.677
  405SOL    HW2 2115   2.334   4.195   3.786
  406SOL     OW 2116   0.719   4.660   5.394
  406SOL    HW1 2117   0.784   4.592   5.428
  406SOL    HW2 2118   0.640   4.666   5.456
  407SOL     OW 2119   2.019   2.786   3.571
  407SOL    HW1 2120   2.104   2.793   3.519
  407SOL    HW2 2121   1.964   2.868   3.555
  408SOL     OW 2122   3.487   2.100   2.818
  408SOL    HW1 2123   3.517   2.045   2.896
  408SOL    HW2 2124   3.551   2.089   2.742
  409SOL     OW 2125   6.827   3.212   1.583
  409SOL    HW1 2126   6.913   3.263   1.577
  409SOL    HW2 2127   6.777   3.220   1.497
  410SOL     OW 2128   1.439   1.713   0.995
  410SOL    HW1 2129   1.477   1.779   1.060
  410SOL    HW2 2130   1.382   1.647   1.044
  411SOL     OW 2131   6.213   1.685   2.075
  411SOL    HW1 2132   6.138   1.751   2.080
  411SOL    HW2 2133   6.212   1.629   2.158
  412SOL     OW 2134   3.630   4.951   2.861
  412SOL    HW1 2135   3.568   4.934   2.937
  412SOL    HW2 2136   3.578   4.958   2.776
  413SOL     OW 2137   4.201   5.236   1.942
  413SOL    HW1 2138   4.108   5.224   1.975
  413SOL    HW2 2139   4.205   5.316   1.881
  414SOL     OW 2140   3.771   0.374   4.263
  414SOL    HW1 2141   3.732   0.348   4.174
  414SOL    HW2 2142   3.777   0.294   4.322
  415SOL     OW 2143   0.190   1.432   0.234
  415SOL    HW1 2144   0.131   1.377   0.173
  415SOL    HW2 2145   0.147   1.521   0.249
  416SOL     OW 2146   4.943   4.692   4.471
  416SOL    HW1 2147   4.904   4.675   4.381
  416SOL    HW2 2148   4.920   4.617   4.533
  417SOL     OW 2149   1.871   1.129   6.628
  417SOL    HW1 2150   1.881   1.035   6.662
  417SOL    HW2 2151   1.957   1.159   6.588
  418SOL     OW 2152   2.930   0.161   5.330
  418SOL    HW1 2153   3.006   0.100   5.308
  418SOL    HW2 2154   2.957   0.256   5.310
  419SOL     OW 2155   0.100   6.686   3.018
  419SOL    HW1 2156   0.157   6.610   2.984
  419SOL    HW2 2157   0.037   6.715   2.947
  420SOL     OW 2158   5.584   1.415   6.866
  420SOL    HW1 2159   5.503   1.462   6.833
  420SOL    HW2 2160   5.654   1.413   6.794
  421SOL     OW 2161   5.713   4.044   5.219
  421SOL    HW1 2162   5.766   3.960   5.206
  421SOL    HW2 2163   5.615   4.021   5.222
  422SOL     OW 2164   5.592   1.868   0.796
  422SOL    HW1 2165   5.579   1.781   0.749
  422SOL    HW2 2166   5.504   1.899   0.834
  423SOL     OW 2167   2.425   1.346   6.478
  423SOL    HW1 2168   2.353   1.362   6.545
  423SOL    HW2 2169   2.391   1.285   6.407
  424SOL     OW 2170   2.063   5.035   2.885
  424SOL    HW1 2171   2.116   4.960   2.846
  424SOL    HW2 2172   1.980   5.048   2.831
  425SOL     OW 2173   4.807   1.073   4.761
  425SOL    HW1 2174   4.760   1.075   4.849
  425SOL    HW2 2175   4.739   1.060   4.688
  426SOL     OW 2176   2.230   2.828   5.220
  426SOL    HW1 2177   2.266   2.903   5.165
  426SOL    HW2 2178   2.300   2.798   5.285
  427SOL     OW 2179   5.103   1.150   4.394
  427SOL    HW1 2180   5.123   1.126   4.489
  427SOL    HW2 2181   5.046   1.079   4.353
  428SOL     OW 2182   2.434   0.450   4.615
  428SOL    HW1 2183   2.504   0.488   4.676
  428SOL    HW2 2184   2.464   0.460   4.520
  429SOL     OW 2185   0.866   5.515   4.280
  429SOL    HW1 2186   0.920   5.443   4.238
  429SOL    HW2 2187   0.783   5.476   4.321
  430SOL     OW 2188   1.801   0.049   3.879
  430SOL    HW1 2189   1.869   0.088   3.941
  430SOL    HW2 2190   1.711   0.049   3.924
  431SOL     OW 2191   2.121   1.850   0.309
  431SOL    HW1 2192   2.084   1.777   0.366
  431SOL    HW2 2193   2.154   1.810   0.223
  432SOL     OW 2194   5.499   1.611   1.332
  432SOL    HW1 2195   5.598   1.604   1.322
  432SOL    HW2 2196   5.463   1.677   1.266
  433SOL     OW 2197   3.750   6.539   6.060
  433SOL    HW1 2198   3.655   6.567   6.045
  433SOL    HW2 2199   3.767   6.452   6.013
  434SOL     OW 2200   4.011   5.685   3.977
  434SOL    HW1 2201   3.947   5.734   3.919
  434SOL    HW2 2202   3.996   5.586   3.967
  435SOL     OW 2203   3.856   1.119   5.593
  435SOL    HW1 2204   3.950   1.085   5.592
  435SOL    HW2 2205   3.793   1.044   5.572
  436SOL     OW 2206   3.262   6.150   2.551
  436SOL    HW1 2207   3.174   6.197   2.558
  436SOL    HW2 2208   3.336   6.217   2.556
  437SOL     OW 2209   0.246   1.287   4.834
  437SOL    HW1 2210   0.276   1.312   4.926
  437SOL    HW2 2211   0.316   1.231   4.790
  438SOL     OW 2212   1.220   4.511   2.828
  438SOL    HW1 2213   1.187   4.592   2.779
  438SOL    HW2 2214   1.270   4.540   2.910
  439SOL     OW 2215   5.509   0.731   2.917
  439SOL    HW1 2216   5.596   0.779   2.923
  439SOL    HW2 2217   5.500   0.690   2.826
  440SOL     OW 2218   3.797   1.215   6.691
  440SOL    HW1 2219   3.725   1.284   6.683
  440SOL    HW2 2220   3.870   1.237   6.627
  441SOL     OW 2221   5.963   4.436   3.053
  441SOL    HW1 2222   6.029   4.509   3.073
  441SOL    HW2 2223   5.957   4.423   2.954
  442SOL     OW 2224   5.101   4.172   5.678
  442SOL    HW1 2225   5.064   4.243   5.737
  442SOL    HW2 2226   5.128   4.093   5.733
  443SOL     OW 2227   5.229   4.686   3.388
  443SOL    HW1 2228   5.295   4.617   3.417
  443SOL    HW2 2229   5.214   4.751   3.463
  444SOL     OW 2230   4.016   1.267   6.549
  444SOL    HW1 2231   4.026   1.324   6.631
  444SOL    HW2 2232   4.080   1.299   6.478
  445SOL     OW 2233   2.683   6.069   2.703
  445SOL    HW1 2234   2.615   6.029   2.765
  445SOL    HW2 2235   2.770   6.076   2.750
  446SOL     OW 2236   4.782   6.014   2.976
  446SOL    HW1 2237   4.772   6.011   2.877
  446SOL    HW2 2238   4.695   6.041   3.018
  447SOL     OW 2239   6.139   3.396   5.463
  447SOL    HW1 2240   6.179   3.408   5.372
  447SOL    HW2 2241   6.209   3.361   5.525
  448SOL     OW 2242   1.934   1.258   3.208
  448SOL    HW1 2243   1.900   1.320   3.137
  448SOL    HW2 2244   1.961   1.172   3.166
  449SOL     OW 2245   2.238   2.430   3.237
  449SOL    HW1 2246   2.166   2.392   3.179
  449SOL    HW2 2247   2.319   2.372   3.231
  450SOL     OW 2248   1.040   4.564   3.399
  450SOL    HW1 2249   1.051   4.664   3.398
  450SOL    HW2 2250   1.024   4.531   3.306
  451SOL     OW 2251   6.674   2.595   3.566
  451SOL    HW1 2252   6.644   2.684   3.532
  451SOL    HW2 2253   6.647   2.524   3.501
  452SOL     OW 2254   3.393   6.892   2.744
  452SOL    HW1 2255   3.388   6.792   2.734
  452SOL    HW2 2256   3.384   6.916   2.840
  453SOL     OW 2257   4.457   0.458   6.563
  453SOL    HW1 2258   4.362   0.486   6.556
  453SOL    HW2 2259   4.503   0.512   6.633
  454SOL     OW 2260   6.794   4.413   6.437
  454SOL    HW1 2261   6.816   4.370   6.349
  454SOL    HW2 2262   6.793   4.512   6.427
  455SOL     OW 2263   6.481   3.660   5.360
  455SOL    HW1 2264   6.440   3.743   5.324
  455SOL    HW2 2265   6.486   3.591   5.288
  456SOL     OW 2266   1.650   0.842   4.045
  456SOL    HW1 2267   1.715   0.807   4.113
  456SOL    HW2 2268   1.562   0.859   4.089
  457SOL     OW 2269   1.195   5.667   5.686
  457SOL    HW1 2270   1.262   5.702   5.751
  457SOL    HW2 2271   1.228   5.582   5.646
  458SOL     OW 2272   2.543   1.236   2.877
  458SOL    HW1 2273   2.628   1.285   2.893
  458SOL    HW2 2274   2.553   1.140   2.903
  459SOL     OW 2275   1.946   0.730   5.495
  459SOL    HW1 2276   1.857   0.686   5.494
  459SOL    HW2 2277   1.935   0.828   5.511
  460SOL     OW 2278   1.357   1.519   4.999
  460SOL    HW1 2279   1.406   1.454   5.057
  460SOL    HW2 2280   1.423   1.580   4.954
  461SOL     OW 2281   6.868   4.796   5.068
  461SOL    HW1 2282   6.845   4.887   5.101
  461SOL    HW2 2283   6.965   4.793   5.043
  462SOL     OW 2284   3.688   3.741   4.716
  462SOL    HW1 2285   3.747   3.715   4.793
  462SOL    HW2 2286   3.607   3.683   4.716
  463SOL     OW 2287   6.286   6.791   2.766
  463SOL    HW1 2288   6.366   6.802   2.707
  463SOL    HW2 2289   6.206   6.830   2.721
  464SOL     OW 2290   3.334   6.610   6.314
  464SOL    HW1 2291   3.276   6.685   6.347
  464SOL    HW2 2292   3.294   6.523   6.339
  465SOL     OW 2293   1.424   2.249   7.012
  465SOL    HW1 2294   1.383   2.179   0.046
  465SOL    HW2 2295   1.422   2.218   6.917
  466SOL     OW 2296   3.437   6.329   4.432
  466SOL    HW1 2297   3.366   6.400   4.438
  466SOL    HW2 2298   3.411   6.263   4.362
  467SOL     OW 2299   0.735   1.250   2.475
  467SOL    HW1 2300   0.826   1.283   2.497
  467SOL    HW2 2301   0.676   1.326   2.448
  468SOL     OW 2302   5.179   0.324   6.167
  468SOL    HW1 2303   5.228   0.400   6.210
  468SOL    HW2 2304   5.142   0.264   6.238
  469SOL     OW 2305   2.886   4.570   5.696
  469SOL    HW1 2306   2.830   4.498   5.656
  469SOL    HW2 2307   2.832   4.654   5.704
  470SOL     OW 2308   3.282   6.148   3.206
  470SOL    HW1 2309   3.338   6.206   3.147
  470SOL    HW2 2310   3.306   6.052   3.191
  471SOL     OW 2311   2.594   2.370   4.113
  471SOL    HW1 2312   2.599   2.282   4.161
  471SOL    HW2 2313   2.606   2.444   4.179
  472SOL     OW 2314   5.673   4.614   6.302
  472SOL    HW1 2315   5.667   4.690   6.237
  472SOL    HW2 2316   5.620   4.537   6.269
  473SOL     OW 2317   6.868   2.659   2.583
  473SOL    HW1 2318   6.938   2.588   2.590
  473SOL    HW2 2319   6.900   2.743   2.628
  474SOL     OW 2320   6.115   5.405   5.103
  474SOL    HW1 2321   6.191   5.469   5.094
  474SOL    HW2 2322   6.102   5.356   5.017
  475SOL     OW 2323   5.604   2.877   0.145
  475SOL    HW1 2324   5.576   2.901   0.238
  475SOL    HW2 2325   5.622   2.778   0.140
  476SOL     OW 2326   7.001   3.867   2.211
  476SOL    HW1 2327   6.996   3.894   2.115
  476SOL    HW2 2328   0.041   3.792   2.222
  477SOL     OW 2329   2.950   6.188   3.645
  477SOL    HW1 2330   2.933   6.112   3.583
  477SOL    HW2 2331   2.863   6.222   3.681
  478SOL     OW 2332   4.270   6.042   3.011
  478SOL    HW1 2333   4.209   6.108   2.967
  478SOL    HW2 2334   4.232   6.015   3.099
  479SOL     OW 2335   3.953   3.155   4.050
  479SOL    HW1 2336   3.955   3.183   4.146
  479SOL    HW2 2337   3.999   3.225   3.994
  480SOL     OW 2338   1.608   0.092   2.934
  480SOL    HW1 2339   1.664   0.057   2.859
  480SOL    HW2 2340   1.513   0.063   2.922
  481SOL     OW 2341   1.297   6.149   1.577
  481SOL    HW1 2342   1.210   6.128   1.533
  481SOL    HW2 2343   1.283   6.214   1.652
  482SOL     OW 2344   5.300   4.700   2.720
  482SOL    HW1 2345   5.367   4.763   2.680
  482SOL    HW2 2346   5.348   4.623   2.762
  483SOL     OW 2347   6.546   2.790   2.673
  483SOL    HW1 2348   6.638   2.824   2.691
  483SOL    HW2 2349   6.505   2.842   2.598
  484SOL     OW 2350   1.924   4.357   4.440
  484SOL    HW1 2351   2.002   4.355   4.377
  484SOL    HW2 2352   1.840   4.338   4.389
  485SOL     OW 2353   5.782   3.357   2.333
  485SOL    HW1 2354   5.730   3.328   2.252
  485SOL    HW2 2355   5.878   3.332   2.321
  486SOL     OW 2356   6.184   0.377   6.477
  486SOL    HW1 2357   6.090   0.359   6.504
  486SOL    HW2 2358   6.206   0.322   6.396
  487SOL     OW 2359   0.330   0.283   3.624
  487SOL    HW1 2360   0.275   0.352   3.576
  487SOL    HW2 2361   0.333   0.199   3.571
  488SOL     OW 2362   1.625   6.999   3.215
  488SOL    HW1 2363   1.712   0.023   3.221
  488SOL    HW2 2364   1.593   7.000   3.121
  489SOL     OW 2365   6.232   5.795   4.556
  489SOL    HW1 2366   6.171   5.874   4.558
  489SOL    HW2 2367   6.322   5.823   4.525
  490SOL     OW 2368   1.442   5.766   5.821
  490SOL    HW1 2369   1.501   5.813   5.888
  490SOL    HW2 2370   1.495   5.694   5.775
  491SOL     OW 2371   0.014   3.403   0.654
  491SOL    HW1 2372   0.033   3.437   0.562
  491SOL    HW2 2373   0.041   3.471   0.722
  492SOL     OW 2374   1.622   1.444   5.860
  492SOL    HW1 2375   1.651   1.483   5.773
  492SOL    HW2 2376   1.685   1.473   5.932
  493SOL     OW 2377   2.665   0.083   5.227
  493SOL    HW1 2378   2.762   0.061   5.217
  493SOL    HW2 2379   2.655   0.179   5.252
  494SOL     OW 2380   2.622   1.206   5.791
  494SOL    HW1 2381   2.614   1.252   5.880
  494SOL    HW2 2382   2.600   1.109   5.802
  495SOL     OW 2383   4.323   6.070   5.608
  495SOL    HW1 2384   4.310   6.015   5.690
  495SOL    HW2 2385   4.278   6.026   5.530
  496SOL     OW 2386   6.337   1.952   2.902
  496SOL    HW1 2387   6.393   2.020   2.853
  496SOL    HW2 2388   6.395   1.877   2.932
  497SOL     OW 2389   3.743   1.344   5.716
  497SOL    HW1 2390   3.811   1.417   5.715
  497SOL    HW2 2391   3.788   1.256   5.702
  498SOL     OW 2392   0.024   5.745   1.944
  498SOL    HW1 2393   0.070   5.679   1.885
  498SOL    HW2 2394   0.086   5.822   1.963
  499SOL     OW 2395   2.953   4.999   6.174
  499SOL    HW1 2396   3.019   4.954   6.113
  499SOL    HW2 2397   2.941   5.093   6.145
  500SOL     OW 2398   5.263   2.693   6.264
  500SOL    HW1 2399   5.195   2.741   6.209
  500SOL    HW2 2400   5.351   2.693   6.216
  501SOL     OW 2401   1.930   6.913   2.618
  501SOL    HW1 2402   2.003   6.979   2.633
  501SOL    HW2 2403   1.969   6.826   2.589
  502SOL     OW 2404   1.645   4.757   6.083
  502SOL    HW1 2405   1.656   4.807   5.997
  502SOL    HW2 2406   1.651   4.822   6.159
  503SOL     OW 2407   3.196   4.777   6.535
  503SOL    HW1 2408   3.109   4.774   6.585
  503SOL    HW2 2409   3.184   4.737   6.444
  504SOL     OW 2410   6.399   6.046   1.898
  504SOL    HW1 2411   6.491   6.077   1.874
  504SOL    HW2 2412   6.387   6.047   1.997
  505SOL     OW 2413   4.052   6.960   5.349
  505SOL    HW1 2414   4.044   0.032   5.373
  505SOL    HW2 2415   4.020   6.904   5.425
  506SOL     OW 2416   3.096   5.460   2.974
  506SOL    HW1 2417   3.041   5.543   2.967
  506SOL    HW2 2418   3.193   5.485   2.977
  507SOL     OW 2419   4.333   1.426   1.873
  507SOL    HW1 2420   4.247   1.380   1.896
  507SOL    HW2 2421   4.373   1.383   1.792
  508SOL     OW 2422   6.872   3.101   3.810
  508SOL    HW1 2423   6.885   3.148   3.722
  508SOL    HW2 2424   6.955   3.052   3.834
  509SOL     OW 2425   5.180   0.425   0.488
  509SOL    HW1 2426   5.170   0.515   0.532
  509SOL    HW2 2427   5.103   0.412   0.425
  510SOL     OW 2428   6.706   4.698   5.285
  510SOL    HW1 2429   6.736   4.775   5.341
  510SOL    HW2 2430   6.771   4.682   5.211
  511SOL     OW 2431   1.126   1.636   6.530
  511SOL    HW1 2432   1.107   1.543   6.562
  511SOL    HW2 2433   1.178   1.685   6.600
  512SOL     OW 2434   5.630   2.302   7.001
  512SOL    HW1 2435   5.655   2.394   6.970
  512SOL    HW2 2436   5.616   2.304   0.076
  513SOL     OW 2437   5.817   6.736   2.385
  513SOL    HW1 2438   5.849   6.641   2.388
  513SOL    HW2 2439   5.869   6.786   2.316
  514SOL     OW 2440   6.998   6.617   3.850
  514SOL    HW1 2441   0.038   6.580   3.783
  514SOL    HW2 2442   0.007   6.705   3.883
  515SOL     OW 2443   2.862   0.975   6.203
  515SOL    HW1 2444   2.879   0.892   6.257
  515SOL    HW2 2445   2.774   0.968   6.158
  516SOL     OW 2446   2.415   4.254   1.708
  516SOL    HW1 2447   2.451   4.338   1.667
  516SOL    HW2 2448   2.488   4.209   1.760
  517SOL     OW 2449   3.655   5.134   2.512
  517SOL    HW1 2450   3.712   5.060   2.476
  517SOL    HW2 2451   3.710   5.217   2.521
  518SOL     OW 2452   2.237   3.075   3.529
  518SOL    HW1 2453   2.223   3.174   3.526
  518SOL    HW2 2454   2.217   3.036   3.439
  519SOL     OW 2455   6.909   6.616   4.105
  519SOL    HW1 2456   6.934   6.695   4.162
  519SOL    HW2 2457   6.971   6.611   4.027
  520SOL     OW 2458   1.395   3.270   6.899
  520SOL    HW1 2459   1.337   3.251   6.979
  520SOL    HW2 2460   1.453   3.349   6.918
  521SOL     OW 2461   4.522   5.518   4.604
  521SOL    HW1 2462   4.540   5.615   4.589
  521SOL    HW2 2463   4.538   5.468   4.519
  522SOL     OW 2464   4.334   3.774   1.433
  522SOL    HW1 2465   4.374   3.865   1.421
  522SOL    HW2 2466   4.315   3.733   1.344
  523SOL     OW 2467   6.957   6.385   1.838
  523SOL    HW1 2468   6.965   6.381   1.739
  523SOL    HW2 2469   0.021   6.363   1.880
  524SOL     OW 2470   0.825   2.916   2.313
  524SOL    HW1 2471   0.781   2.832   2.342
  524SOL    HW2 2472   0.915   2.895   2.274
  525SOL     OW 2473   1.239   3.314   6.597
  525SOL    HW1 2474   1.202   3.249   6.663
  525SOL    HW2 2475   1.260   3.400   6.643
  526SOL     OW 2476   2.962   0.122   3.831
  526SOL    HW1 2477   2.900   0.122   3.753
  526SOL    HW2 2478   2.909   0.141   3.915
  527SOL     OW 2479   1.077   2.384   0.163
  527SOL    HW1 2480   0.983   2.413   0.146
  527SOL    HW2 2481   1.081   2.284   0.163
  528SOL     OW 2482   0.695   3.525   3.753
  528SOL    HW1 2483   0.729   3.616   3.733
  528SOL    HW2 2484   0.767   3.471   3.798
  529SOL     OW 2485   2.367   0.458   5.769
  529SOL    HW1 2486   2.440   0.526   5.774
  529SOL    HW2 2487   2.374   0.396   5.847
  530SOL     OW 2488   3.783   2.964   2.232
  530SOL    HW1 2489   3.836   2.930   2.309
  530SOL    HW2 2490   3.845   3.004   2.164
  531SOL     OW 2491   2.300   0.668   2.506
  531SOL    HW1 2492   2.316   0.726   2.425
  531SOL    HW2 2493   2.260   0.723   2.579
  532SOL     OW 2494   1.670   3.922   0.432
  532SOL    HW1 2495   1.732   3.868   0.489
  532SOL    HW2 2496   1.711   3.937   0.343
  533SOL     OW 2497   5.578   0.202   3.625
  533SOL    HW1 2498   5.480   0.186   3.636
  533SOL    HW2 2499   5.595   0.299   3.611
  534SOL     OW 2500   0.648   5.818   1.905
  534SOL    HW1 2501   0.667   5.835   2.002
  534SOL    HW2 2502   0.673   5.898   1.851
  535SOL     OW 2503   6.629   4.570   3.083
  535SOL    HW1 2504   6.671   4.494   3.133
  535SOL    HW2 2505   6.531   4.573   3.102
  536SOL     OW 2506   6.470   5.729   2.913
  536SOL    HW1 2507   6.565   5.697   2.922
  536SOL    HW2 2508   6.466   5.800   2.844
  537SOL     OW 2509   3.547   6.518   4.265
  537SOL    HW1 2510   3.535   6.434   4.317
  537SOL    HW2 2511   3.548   6.596   4.327
  538SOL     OW 2512   1.504   5.275   5.496
  538SOL    HW1 2513   1.523   5.365   5.458
  538SOL    HW2 2514   1.471   5.215   5.423
  539SOL     OW 2515   1.251   5.431   1.947
  539SOL    HW1 2516   1.166   5.454   1.994
  539SOL    HW2 2517   1.251   5.473   1.856
  540SOL     OW 2518   1.990   0.975   4.066
  540SOL    HW1 2519   2.005   0.918   3.985
  540SOL    HW2 2520   1.947   1.061   4.038
  541SOL     OW 2521   4.335   6.104   3.692
  541SOL    HW1 2522   4.244   6.110   3.734
  541SOL    HW2 2523   4.341   6.170   3.617
  542SOL     OW 2524   3.363   6.339   6.469
  542SOL    HW1 2525   3.374   6.244   6.498
  542SOL    HW2 2526   3.390   6.400   6.544
  543SOL     OW 2527   5.386   3.931   3.869
  543SOL    HW1 2528   5.384   3.993   3.791
  543SOL    HW2 2529   5.306   3.871   3.866
  544SOL     OW 2530   0.637   4.678   0.072
  544SOL    HW1 2531   0.609   4.586   0.043
  544SOL    HW2 2532   0.725   4.700   0.030
  545SOL     OW 2533   4.454   1.185   1.339
  545SOL    HW1 2534   4.388   1.240   1.289
  545SOL    HW2 2535   4.516   1.139   1.274
  546SOL     OW 2536   0.596   4.209   1.512
  546SOL    HW1 2537   0.595   4.287   1.449
  546SOL    HW2 2538   0.688   4.169   1.513
  547SOL     OW 2539   3.441   2.668   0.678
  547SOL    HW1 2540   3.345   2.688   0.700
  547SOL    HW2 2541   3.485   2.751   0.643
  548SOL     OW 2542   3.478   3.615   0.818
  548SOL    HW1 2543   3.441   3.612   0.911
  548SOL    HW2 2544   3.517   3.705   0.801
  549SOL     OW 2545   5.444   2.658   1.499
  549SOL    HW1 2546   5.500   2.575   1.500
  549SOL    HW2 2547   5.359   2.642   1.547
  550SOL     OW 2548   6.995   5.044   3.506
  550SOL    HW1 2549   0.024   5.051   3.422
  550SOL    HW2 2550   6.915   5.105   3.500
  551SOL     OW 2551   0.158   0.740   0.989
  551SOL    HW1 2552   0.243   0.688   0.978
  551SOL    HW2 2553   0.168   0.829   0.946
  552SOL     OW 2554   5.033   5.241   5.341
  552SOL    HW1 2555   5.118   5.189   5.340
  552SOL    HW2 2556   4.979   5.218   5.260
  553SOL     OW 2557   3.734   0.561   3.784
  553SOL    HW1 2558   3.638   0.533   3.779
  553SOL    HW2 2559   3.780   0.508   3.856
  554SOL     OW 2560   5.605   5.667   6.928
  554SOL    HW1 2561   5.635   5.727   6.854
  554SOL    HW2 2562   5.506   5.659   6.927
  555SOL     OW 2563   3.497   5.391   5.456
  555SOL    HW1 2564   3.408   5.435   5.463
  555SOL    HW2 2565   3.547   5.428   5.378
  556SOL     OW 2566   5.189   1.573   4.418
  556SOL    HW1 2567   5.219   1.661   4.455
  556SOL    HW2 2568   5.265   1.507   4.425
  557SOL     OW 2569   6.974   4.996   6.576
  557SOL    HW1 2570   6.879   5.021   6.594
  557SOL    HW2 2571   7.005   5.041   6.492
  558SOL     OW 2572   4.054   3.302   3.662
  558SOL    HW1 2573   4.003   3.226   3.702
  558SOL    HW2 2574   4.088   3.362   3.735
  559SOL     OW 2575   6.409   5.995   5.802
  559SOL    HW1 2576   6.332   6.058   5.799
  559SOL    HW2 2577   6.458   6.007   5.888
  560SOL     OW 2578   6.296   3.596   3.361
  560SOL    HW1 2579   6.202   3.607   3.330
  560SOL    HW2 2580   6.328   3.682   3.401
  561SOL     OW 2581   6.582   2.608   6.803
  561SOL    HW1 2582   6.505   2.571   6.751
  561SOL    HW2 2583   6.559   2.608   6.900
  562SOL     OW 2584   4.759   0.159   5.952
  562SOL    HW1 2585   4.700   0.107   5.890
  562SOL    HW2 2586   4.704   0.196   6.027
  563SOL     OW 2587   1.955   1.149   3.491
  563SOL    HW1 2588   1.860   1.124   3.471
  563SOL    HW2 2589   1.997   1.189   3.410
  564SOL     OW 2590   7.016   1.704   6.394
  564SOL    HW1 2591   6.989   1.769   6.465
  564SOL    HW2 2592   6.938   1.644   6.373
  565SOL     OW 2593   3.067   3.332   3.729
  565SOL    HW1 2594   3.161   3.353   3.701
  565SOL    HW2 2595   3.019   3.416   3.752
  566SOL     OW 2596   1.822   4.375   3.081
  566SOL    HW1 2597   1.805   4.387   3.178
  566SOL    HW2 2598   1.920   4.379   3.063
  567SOL     OW 2599   3.058   2.744   0.473
  567SOL    HW1 2600   3.089   2.710   0.562
  567SOL    HW2 2601   2.971   2.791   0.485
  568SOL     OW 2602   5.908   6.873   0.663
  568SOL    HW1 2603   5.915   6.775   0.685
  568SOL    HW2 2604   5.947   6.926   0.738
  569SOL     OW 2605   1.051   2.812   1.363
  569SOL    HW1 2606   1.040   2.813   1.263
  569SOL    HW2 2607   0.963   2.792   1.406
  570SOL     OW 2608   3.510   7.025   6.678
  570SOL    HW1 2609   3.575   0.076   6.680
  570SOL    HW2 2610   3.559   6.939   6.694
  571SOL     OW 2611   2.861   5.080   4.046
  571SOL    HW1 2612   2.780   5.057   3.991
  571SOL    HW2 2613   2.832   5.121   4.132
  572SOL     OW 2614   1.900   5.116   5.145
  572SOL    HW1 2615   1.861   5.205   5.168
  572SOL    HW2 2616   1.887   5.053   5.222
  573SOL     OW 2617   6.359   1.266   5.480
  573SOL    HW1 2618   6.319   1.175   5.469
  573SOL    HW2 2619   6.286   1.333   5.490
  574SOL     OW 2620   4.061   0.215   5.455
  574SOL    HW1 2621   3.984   0.266   5.493
  574SOL    HW2 2622   4.120   0.277   5.403
  575SOL     OW 2623   4.256   2.837   1.334
  575SOL    HW1 2624   4.254   2.846   1.235
  575SOL    HW2 2625   4.176   2.785   1.365
  576SOL     OW 2626   1.540   3.086   2.802
  576SOL    HW1 2627   1.452   3.039   2.813
  576SOL    HW2 2628   1.524   3.178   2.767
  577SOL     OW 2629   1.690   0.445   2.472
  577SOL    HW1 2630   1.669   0.510   2.545
  577SOL    HW2 2631   1.607   0.426   2.419
  578SOL     OW 2632   1.559   6.099   6.038
  578SOL    HW1 2633   1.630   6.104   6.108
  578SOL    HW2 2634   1.600   6.079   5.950
  579SOL     OW 2635   1.522   4.700   2.813
  579SOL    HW1 2636   1.566   4.665   2.729
  579SOL    HW2 2637   1.483   4.623   2.864
  580SOL     OW 2638   4.126   4.871   5.502
  580SOL    HW1 2639   4.201   4.898   5.562
  580SOL    HW2 2640   4.158   4.870   5.407
  581SOL     OW 2641   1.217   3.169   3.331
  581SOL    HW1 2642   1.276   3.133   3.403
  581SOL    HW2 2643   1.215   3.269   3.337
  582SOL     OW 2644   4.502   5.980   3.380
  582SOL    HW1 2645   4.550   5.947   3.461
  582SOL    HW2 2646   4.517   6.079   3.370
  583SOL     OW 2647   2.682   6.028   5.320
  583SOL    HW1 2648   2.770   6.013   5.275
  583SOL    HW2 2649   2.609   5.987   5.265
  584SOL     OW 2650   3.643   6.805   6.721
  584SOL    HW1 2651   3.561   6.748   6.710
  584SOL    HW2 2652   3.716   6.771   6.662
  585SOL     OW 2653   4.337   0.526   1.212
  585SOL    HW1 2654   4.246   0.540   1.173
  585SOL    HW2 2655   4.350   0.585   1.291
  586SOL     OW 2656   3.501   0.446   1.321
  586SOL    HW1 2657   3.491   0.541   1.291
  586SOL    HW2 2658   3.425   0.392   1.286
  587SOL     OW 2659   4.959   2.429   2.524
  587SOL    HW1 2660   5.053   2.455   2.548
  587SOL    HW2 2661   4.913   2.507   2.482
  588SOL     OW 2662   1.734   4.977   0.756
  588SOL    HW1 2663   1.726   4.903   0.822
  588SOL    HW2 2664   1.730   5.065   0.804
  589SOL     OW 2665   3.816   5.600   1.616
  589SOL    HW1 2666   3.844   5.514   1.660
  589SOL    HW2 2667   3.896   5.643   1.575
  590SOL     OW 2668   5.625   1.520   0.909
  590SOL    HW1 2669   5.615   1.470   0.995
  590SOL    HW2 2670   5.621   1.618   0.926
  591SOL     OW 2671   4.030   6.246   4.026
  591SOL    HW1 2672   4.056   6.231   4.121
  591SOL    HW2 2673   3.944   6.297   4.023
  592SOL     OW 2674   4.325   0.086   3.213
  592SOL    HW1 2675   4.415   0.047   3.229
  592SOL    HW2 2676   4.256   0.030   3.259
  593SOL     OW 2677   4.565   2.160   4.947
  593SOL    HW1 2678   4.495   2.105   4.992
  593SOL    HW2 2679   4.614   2.214   5.015
  594SOL     OW 2680   6.527   1.222   0.668
  594SOL    HW1 2681   6.461   1.277   0.616
  594SOL    HW2 2682   6.616   1.225   0.622
  595SOL     OW 2683   5.927   6.727   3.372
  595SOL    HW1 2684   5.855   6.703   3.437
  595SOL    HW2 2685   5.886   6.744   3.282
  596SOL     OW 2686   0.070   5.075   3.258
  596SOL    HW1 2687   0.163   5.038   3.259
  596SOL    HW2 2688   0.015   5.024   3.192
  597SOL     OW 2689   2.462   6.439   6.011
  597SOL    HW1 2690   2.383   6.500   6.002
  597SOL    HW2 2691   2.437   6.347   5.982
  598SOL     OW 2692   3.091   4.114   5.046
  598SOL    HW1 2693   3.018   4.182   5.050
  598SOL    HW2 2694   3.140   4.122   4.959
  599SOL     OW 2695   2.075   6.093   2.910
  599SOL    HW1 2696   1.984   6.054   2.925
  599SOL    HW2 2697   2.094   6.098   2.812
  600SOL     OW 2698   6.858   3.427   6.067
  600SOL    HW1 2699   6.809   3.369   6.133
  600SOL    HW2 2700   6.792   3.466   6.003
  601SOL     OW 2701   1.171   1.652   4.234
  601SOL    HW1 2702   1.151   1.706   4.152
  601SOL    HW2 2703   1.118   1.568   4.232
  602SOL     OW 2704   2.572   0.634   5.820
  602SOL    HW1 2705   2.646   0.700   5.811
  602SOL    HW2 2706   2.602   0.556   5.875
  603SOL     OW 2707   1.764   2.014   5.285
  603SOL    HW1 2708   1.799   2.098   5.327
  603SOL    HW2 2709   1.702   1.967   5.347
  604SOL     OW 2710   1.228   2.025   1.504
  604SOL    HW1 2711   1.183   1.944   1.468
  604SOL    HW2 2712   1.271   2.002   1.592
  605SOL     OW 2713   6.964   4.444   1.744
  605SOL    HW1 2714   0.025   4.397   1.721
  605SOL    HW2 2715   6.924   4.481   1.661
  606SOL     OW 2716   4.893   6.354   5.482
  606SOL    HW1 2717   4.824   6.395   5.422
  606SOL    HW2 2718   4.982   6.356   5.437
  607SOL     OW 2719   0.306   5.171   5.006
  607SOL    HW1 2720   0.285   5.074   4.995
  607SOL    HW2 2721   0.403   5.181   5.029
  608SOL     OW 2722   3.882   6.676   6.556
  608SOL    HW1 2723   3.912   6.624   6.636
  608SOL    HW2 2724   3.849   6.614   6.485
  609SOL     OW 2725   3.695   2.932   1.804
  609SOL    HW1 2726   3.628   2.900   1.737
  609SOL    HW2 2727   3.648   2.958   1.888
  610SOL     OW 2728   5.070   2.260   0.215
  610SOL    HW1 2729   5.005   2.324   0.174
  610SOL    HW2 2730   5.028   2.169   0.222
  611SOL     OW 2731   3.272   6.952   2.304
  611SOL    HW1 2732   3.296   6.999   2.389
  611SOL    HW2 2733   3.343   6.967   2.236
  612SOL     OW 2734   2.912   5.876   4.970
  612SOL    HW1 2735   2.942   5.817   5.046
  612SOL    HW2 2736   2.905   5.821   4.887
  613SOL     OW 2737   5.240   4.305   4.814
  613SOL    HW1 2738   5.293   4.221   4.818
  613SOL    HW2 2739   5.151   4.287   4.773
  614SOL     OW 2740   5.768   5.350   4.746
  614SOL    HW1 2741   5.693   5.416   4.743
  614SOL    HW2 2742   5.732   5.258   4.728
  615SOL     OW 2743   0.046   2.369   1.365
  615SOL    HW1 2744   0.031   2.361   1.464
  615SOL    HW2 2745   0.089   2.285   1.331
  616SOL     OW 2746   6.572   2.493   2.635
  616SOL    HW1 2747   6.544   2.476   2.541
  616SOL    HW2 2748   6.584   2.592   2.649
  617SOL     OW 2749   1.162   4.903   5.829
  617SOL    HW1 2750   1.161   4.861   5.738
  617SOL    HW2 2751   1.118   4.842   5.894
  618SOL     OW 2752   1.516   2.580   0.989
  618SOL    HW1 2753   1.563   2.651   1.041
  618SOL    HW2 2754   1.576   2.545   0.918
  619SOL     OW 2755   1.960   2.010   0.628
  619SOL    HW1 2756   1.873   2.054   0.607
  619SOL    HW2 2757   2.034   2.059   0.583
  620SOL     OW 2758   4.381   2.369   0.303
  620SOL    HW1 2759   4.358   2.443   0.367
  620SOL    HW2 2760   4.480   2.364   0.293
  621SOL     OW 2761   4.187   5.525   6.622
  621SOL    HW1 2762   4.260   5.523   6.554
  621SOL    HW2 2763   4.121   5.452   6.602
  622SOL     OW 2764   1.166   1.344   6.610
  622SOL    HW1 2765   1.096   1.296   6.663
  622SOL    HW2 2766   1.176   1.301   6.521
  623SOL     OW 2767   0.524   6.236   5.898
  623SOL    HW1 2768   0.509   6.323   5.850
  623SOL    HW2 2769   0.455   6.170   5.869
  624SOL     OW 2770   0.994   2.505   1.908
  624SOL    HW1 2771   1.091   2.526   1.898
  624SOL    HW2 2772   0.947   2.525   1.822
  625SOL     OW 2773   2.386   2.407   1.101
  625SOL    HW1 2774   2.427   2.453   1.180
  625SOL    HW2 2775   2.327   2.471   1.052
  626SOL     OW 2776   2.815   5.451   3.654
  626SOL    HW1 2777   2.885   5.494   3.597
  626SOL    HW2 2778   2.764   5.522   3.703
  627SOL     OW 2779   5.168   0.487   0.843
  627SOL    HW1 2780   5.076   0.487   0.883
  627SOL    HW2 2781   5.188   0.396   0.807
  628SOL     OW 2782   4.651   4.900   5.006
  628SOL    HW1 2783   4.644   4.940   4.915
  628SOL    HW2 2784   4.661   4.801   4.998
  629SOL     OW 2785   0.361   0.132   1.144
  629SOL    HW1 2786   0.450   0.147   1.101
  629SOL    HW2 2787   0.299   0.206   1.118
  630SOL     OW 2788   5.473   1.995   2.617
  630SOL    HW1 2789   5.396   2.050   2.584
  630SOL    HW2 2790   5.493   1.923   2.550
  631SOL     OW 2791   3.515   0.165   5.423
  631SOL    HW1 2792   3.427   0.154   5.469
  631SOL    HW2 2793   3.578   0.093   5.455
  632SOL     OW 2794   2.787   1.477   0.016
  632SOL    HW1 2795   2.808   1.381   0.038
  632SOL    HW2 2796   2.750   1.483   6.948
  633SOL     OW 2797   3.830   4.942   6.952
  633SOL    HW1 2798   3.799   5.031   6.919
  633SOL    HW2 2799   3.859   4.886   6.876
  634SOL     OW 2800   4.234   4.533   1.695
  634SOL    HW1 2801   4.160   4.468   1.675
  634SOL    HW2 2802   4.237   4.603   1.624
  635SOL     OW 2803   4.790   6.477   2.587
  635SOL    HW1 2804   4.773   6.382   2.613
  635SOL    HW2 2805   4.705   6.520   2.558
  636SOL     OW 2806   5.329   5.967   6.169
  636SOL    HW1 2807   5.303   5.907   6.093
  636SOL    HW2 2808   5.381   6.044   6.134
  637SOL     OW 2809   5.183   4.647   1.638
  637SOL    HW1 2810   5.243   4.567   1.632
  637SOL    HW2 2811   5.120   4.635   1.715
  638SOL     OW 2812   5.294   1.345   2.295
  638SOL    HW1 2813   5.254   1.407   2.362
  638SOL    HW2 2814   5.378   1.305   2.331
  639SOL     OW 2815   5.310   4.525   2.123
  639SOL    HW1 2816   5.313   4.429   2.153
  639SOL    HW2 2817   5.260   4.532   2.037
  640SOL     OW 2818   2.436   4.596   5.252
  640SOL    HW1 2819   2.359   4.659   5.240
  640SOL    HW2 2820   2.501   4.607   5.177
  641SOL     OW 2821   0.715   5.758   4.634
  641SOL    HW1 2822   0.666   5.706   4.563
  641SOL    HW2 2823   0.769   5.830   4.591
  642SOL     OW 2824   0.473   4.461   4.104
  642SOL    HW1 2825   0.483   4.536   4.038
  642SOL    HW2 2826   0.471   4.374   4.056
  643SOL     OW 2827   5.646   4.946   5.207
  643SOL    HW1 2828   5.657   4.895   5.122
  643SOL    HW2 2829   5.728   5.000   5.224
  644SOL     OW 2830   1.126   5.366   2.731
  644SOL    HW1 2831   1.076   5.338   2.813
  644SOL    HW2 2832   1.178   5.288   2.697
  645SOL     OW 2833   4.990   2.783   4.448
  645SOL    HW1 2834   4.901   2.801   4.406
  645SOL    HW2 2835   5.058   2.843   4.406
  646SOL     OW 2836   2.644   2.073   3.652
  646SOL    HW1 2837   2.660   2.171   3.655
  646SOL    HW2 2838   2.703   2.032   3.583
  647SOL     OW 2839   5.768   2.345   5.784
  647SOL    HW1 2840   5.708   2.422   5.806
  647SOL    HW2 2841   5.718   2.278   5.729
  648SOL     OW 2842   5.941   3.745   2.709
  648SOL    HW1 2843   6.000   3.666   2.725
  648SOL    HW2 2844   5.941   3.767   2.611
  649SOL     OW 2845   4.346   4.265   0.313
  649SOL    HW1 2846   4.354   4.309   0.223
  649SOL    HW2 2847   4.251   4.271   0.344
  650SOL     OW 2848   5.236   4.342   0.488
  650SOL    HW1 2849   5.158   4.333   0.426
  650SOL    HW2 2850   5.320   4.354   0.436
  651SOL     OW 2851   0.392   6.693   6.967
  651SOL    HW1 2852   0.406   6.692   0.041
  651SOL    HW2 2853   0.298   6.720   6.948
  652SOL     OW 2854   5.061   6.456   3.650
  652SOL    HW1 2855   5.000   6.492   3.580
  652SOL    HW2 2856   5.058   6.514   3.731
  653SOL     OW 2857   3.294   5.150   5.836
  653SOL    HW1 2858   3.310   5.209   5.915
  653SOL    HW2 2859   3.362   5.171   5.765
  654SOL     OW 2860   6.787   4.556   5.841
  654SOL    HW1 2861   6.742   4.535   5.755
  654SOL    HW2 2862   6.840   4.476   5.871
  655SOL     OW 2863   0.381   6.779   2.427
  655SOL    HW1 2864   0.343   6.749   2.515
  655SOL    HW2 2865   0.480   6.766   2.428
  656SOL     OW 2866   2.394   5.731   1.133
  656SOL    HW1 2867   2.437   5.735   1.223
  656SOL    HW2 2868   2.323   5.661   1.133
  657SOL     OW 2869   2.330   1.947   1.637
  657SOL    HW1 2870   2.421   1.919   1.665
  657SOL    HW2 2871   2.279   1.981   1.717
  658SOL     OW 2872   3.259   2.853   6.101
  658SOL    HW1 2873   3.351   2.891   6.087
  658SOL    HW2 2874   3.192   2.912   6.056
  659SOL     OW 2875   3.122   6.392   6.377
  659SOL    HW1 2876   3.058   6.315   6.369
  659SOL    HW2 2877   3.210   6.359   6.411
  660SOL     OW 2878   4.366   4.508   1.381
  660SOL    HW1 2879   4.412   4.513   1.469
  660SOL    HW2 2880   4.311   4.425   1.376
  661SOL     OW 2881   4.391   6.594   3.845
  661SOL    HW1 2882   4.363   6.617   3.939
  661SOL    HW2 2883   4.475   6.540   3.848
  662SOL     OW 2884   3.819   0.502   5.354
  662SOL    HW1 2885   3.739   0.485   5.411
  662SOL    HW2 2886   3.902   0.494   5.409
  663SOL     OW 2887   2.393   4.018   5.906
  663SOL    HW1 2888   2.345   3.966   5.835
  663SOL    HW2 2889   2.466   4.071   5.864
  664SOL     OW 2890   0.111   5.837   6.463
  664SOL    HW1 2891   0.112   5.856   6.561
  664SOL    HW2 2892   0.034   5.778   6.441
  665SOL     OW 2893   4.378   5.442   2.307
  665SOL    HW1 2894   4.319   5.522   2.297
  665SOL    HW2 2895   4.379   5.413   2.403
  666SOL     OW 2896   5.018   0.739   2.017
  666SOL    HW1 2897   5.001   0.832   2.050
  666SOL    HW2 2898   5.017   0.739   1.917
  667SOL     OW 2899   1.085   5.060   2.404
  667SOL    HW1 2900   1.033   5.083   2.486
  667SOL    HW2 2901   1.123   5.144   2.364
  668SOL     OW 2902   4.903   6.425   5.767
  668SOL    HW1 2903   4.882   6.399   5.673
  668SOL    HW2 2904   4.995   6.394   5.790
  669SOL     OW 2905   6.120   0.829   3.771
  669SOL    HW1 2906   6.212   0.856   3.798
  669SOL    HW2 2907   6.082   0.768   3.841
  670SOL     OW 2908   2.719   2.002   2.222
  670SOL    HW1 2909   2.778   1.922   2.210
  670SOL    HW2 2910   2.705   2.045   2.133
  671SOL     OW 2911   3.280   6.134   1.108
  671SOL    HW1 2912   3.216   6.149   1.033
  671SOL    HW2 2913   3.255   6.050   1.156
  672SOL     OW 2914   6.589   5.760   2.247
  672SOL    HW1 2915   6.608   5.664   2.267
  672SOL    HW2 2916   6.651   5.792   2.175
  673SOL     OW 2917   6.601   6.828   1.159
  673SOL    HW1 2918   6.597   6.910   1.217
  673SOL    HW2 2919   6.511   6.808   1.122
  674SOL     OW 2920   0.644   1.635   4.394
  674SOL    HW1 2921   0.738   1.612   4.417
  674SOL    HW2 2922   0.599   1.678   4.472
  675SOL     OW 2923   5.459   2.323   2.765
  675SOL    HW1 2924   5.476   2.387   2.840
  675SOL    HW2 2925   5.501   2.358   2.681
  676SOL     OW 2926   2.544   5.229   4.260
  676SOL    HW1 2927   2.526   5.199   4.353
  676SOL    HW2 2928   2.640   5.255   4.252
  677SOL     OW 2929   5.183   1.066   0.967
  677SOL    HW1 2930   5.282   1.059   0.978
  677SOL    HW2 2931   5.149   0.985   0.920
  678SOL     OW 2932   2.952   6.051   5.210
  678SOL    HW1 2933   2.958   5.978   5.277
  678SOL    HW2 2934   3.000   6.025   5.126
  679SOL     OW 2935   4.901   1.680   4.493
  679SOL    HW1 2936   4.876   1.693   4.589
  679SOL    HW2 2937   4.973   1.611   4.486
  680SOL     OW 2938   4.551   5.787   4.576
  680SOL    HW1 2939   4.470   5.845   4.567
  680SOL    HW2 2940   4.632   5.838   4.546
  681SOL     OW 2941   4.648   5.881   2.147
  681SOL    HW1 2942   4.679   5.918   2.060
  681SOL    HW2 2943   4.696   5.795   2.166
  682SOL     OW 2944   5.780   1.263   2.160
  682SOL    HW1 2945   5.743   1.293   2.072
  682SOL    HW2 2946   5.750   1.326   2.232
  683SOL     OW 2947   4.497   2.762   0.516
  683SOL    HW1 2948   4.533   2.684   0.566
  683SOL    HW2 2949   4.512   2.749   0.418
  684SOL     OW 2950   6.533   0.763   0.608
  684SOL    HW1 2951   6.566   0.751   0.514
  684SOL    HW2 2952   6.589   0.708   0.670
  685SOL     OW 2953   3.312   2.031   3.941
  685SOL    HW1 2954   3.310   1.964   3.866
  685SOL    HW2 2955   3.396   2.018   3.994
  686SOL     OW 2956   4.757   2.217   4.482
  686SOL    HW1 2957   4.791   2.147   4.420
  686SOL    HW2 2958   4.746   2.178   4.573
  687SOL     OW 2959   0.848   1.996   3.897
  687SOL    HW1 2960   0.866   1.943   3.815
  687SOL    HW2 2961   0.924   2.059   3.913
  688SOL     OW 2962   6.996   1.386   6.689
  688SOL    HW1 2963   6.945   1.350   6.610
  688SOL    HW2 2964   6.964   1.479   6.709
  689SOL     OW 2965   1.342   4.648   6.135
  689SOL    HW1 2966   1.364   4.616   6.228
  689SOL    HW2 2967   1.424   4.641   6.078
  690SOL     OW 2968   6.612   3.725   3.349
  690SOL    HW1 2969   6.684   3.657   3.343
  690SOL    HW2 2970   6.632   3.789   3.423
  691SOL     OW 2971   3.576   1.500   0.041
  691SOL    HW1 2972   3.499   1.452   0.084
  691SOL    HW2 2973   3.601   1.579   0.097
  692SOL     OW 2974   4.347   2.017   5.012
  692SOL    HW1 2975   4.266   2.073   5.032
  692SOL    HW2 2976   4.342   1.984   4.917
  693SOL     OW 2977   4.750   6.672   3.993
  693SOL    HW1 2978   4.689   6.607   3.949
  693SOL    HW2 2979   4.696   6.750   4.026
  694SOL     OW 2980   4.373   6.200   4.939
  694SOL    HW1 2981   4.331   6.226   5.026
  694SOL    HW2 2982   4.302   6.166   4.877
  695SOL     OW 2983   3.837   6.566   3.869
  695SOL    HW1 2984   3.811   6.480   3.913
  695SOL    HW2 2985   3.937   6.570   3.859
  696SOL     OW 2986   4.953   4.517   3.486
  696SOL    HW1 2987   5.027   4.503   3.419
  696SOL    HW2 2988   4.974   4.596   3.542
  697SOL     OW 2989   1.845   3.605   2.407
  697SOL    HW1 2990   1.811   3.645   2.322
  697SOL    HW2 2991   1.915   3.665   2.446
  698SOL     OW 2992   5.667   6.043   0.856
  698SOL    HW1 2993   5.666   5.944   0.864
  698SOL    HW2 2994   5.660   6.069   0.760
  699SOL     OW 2995   1.562   3.426   6.610
  699SOL    HW1 2996   1.562   3.431   6.510
  699SOL    HW2 2997   1.605   3.341   6.639
  700SOL     OW 2998   3.227   6.551   1.928
  700SOL    HW1 2999   3.221   6.647   1.901
  700SOL    HW2 3000   3.240   6.494   1.846
  701SOL     OW 3001   0.124   4.223   0.081
  701SOL    HW1 3002   0.116   4.201   7.009
  701SOL    HW2 3003   0.180   4.153   0.126
  702SOL     OW 3004   2.061   6.811   4.716
  702SOL    HW1 3005   2.099   6.902   4.732
  702SOL    HW2 3006   1.963   6.819   4.697
  703SOL     OW 3007   3.666   3.307   5.496
  703SOL    HW1 3008   3.717   3.226   5.467
  703SOL    HW2 3009   3.658   3.371   5.420
  704SOL     OW 3010   1.825   2.593   6.191
  704SOL    HW1 3011   1.863   2.563   6.103
  704SOL    HW2 3012   1.868   2.680   6.217
  705SOL     OW 3013   6.179   5.410   3.101
  705SOL    HW1 3014   6.172   5.468   3.182
  705SOL    HW2 3015   6.088   5.389   3.067
  706SOL     OW 3016   4.326   1.956   5.423
  706SOL    HW1 3017   4.386   2.032   5.448
  706SOL    HW2 3018   4.377   1.890   5.369
  707SOL     OW 3019   4.032   4.823   3.185
  707SOL    HW1 3020   4.112   4.772   3.153
  707SOL    HW2 3021   4.059   4.916   3.209
  708SOL     OW 3022   2.800   1.332   2.886
  708SOL    HW1 3023   2.845   1.322   2.797
  708SOL    HW2 3024   2.855   1.288   2.957
  709SOL     OW 3025   1.378   5.832   0.752
  709SOL    HW1 3026   1.282   5.819   0.730
  709SOL    HW2 3027   1.388   5.900   0.824
  710SOL     OW 3028   4.684   2.271   1.654
  710SOL    HW1 3029   4.657   2.232   1.565
  710SOL    HW2 3030   4.654   2.210   1.727
  711SOL     OW 3031   7.021   2.691   6.413
  711SOL    HW1 3032   7.022   2.790   6.426
  711SOL    HW2 3033   6.959   2.668   6.337
  712SOL     OW 3034   4.688   2.243   0.627
  712SOL    HW1 3035   4.613   2.183   0.596
  712SOL    HW2 3036   4.708   2.224   0.723
  713SOL     OW 3037   4.244   3.026   5.671
  713SOL    HW1 3038   4.233   3.115   5.627
  713SOL    HW2 3039   4.302   3.036   5.752
  714SOL     OW 3040   6.932   5.401   3.727
  714SOL    HW1 3041   6.987   5.403   3.810
  714SOL    HW2 3042   6.987   5.429   3.648
  715SOL     OW 3043   5.741   5.657   6.253
  715SOL    HW1 3044   5.662   5.710   6.281
  715SOL    HW2 3045   5.768   5.596   6.329
  716SOL     OW 3046   1.173   1.100   2.842
  716SOL    HW1 3047   1.230   1.137   2.769
  716SOL    HW2 3048   1.139   1.010   2.814
  717SOL     OW 3049   6.663   4.769   4.035
  717SOL    HW1 3050   6.662   4.767   4.135
  717SOL    HW2 3051   6.698   4.681   4.000
  718SOL     OW 3052   4.923   2.700   4.967
  718SOL    HW1 3053   4.980   2.743   4.897
  718SOL    HW2 3054   4.898   2.608   4.938
  719SOL     OW 3055   5.573   6.827   2.758
  719SOL    HW1 3056   5.515   6.756   2.797
  719SOL    HW2 3057   5.658   6.786   2.724
  720SOL     OW 3058   1.844   0.613   5.827
  720SOL    HW1 3059   1.940   0.583   5.831
  720SOL    HW2 3060   1.839   0.706   5.791
  721SOL     OW 3061   1.784   1.422   1.840
  721SOL    HW1 3062   1.879   1.424   1.810
  721SOL    HW2 3063   1.726   1.465   1.771
  722SOL     OW 3064   3.276   1.008   5.111
  722SOL    HW1 3065   3.271   1.019   5.210
  722SOL    HW2 3066   3.277   1.099   5.068
  723SOL     OW 3067   2.164   5.341   3.687
  723SOL    HW1 3068   2.145   5.256   3.640
  723SOL    HW2 3069   2.210   5.404   3.625
  724SOL     OW 3070   0.066   1.337   3.610
  724SOL    HW1 3071   0.146   1.277   3.608
  724SOL    HW2 3072   0.080   1.414   3.548
  725SOL     OW 3073   1.992   4.975   2.406
  725SOL    HW1 3074   1.945   5.035   2.341
  725SOL    HW2 3075   2.079   4.945   2.367
  726SOL     OW 3076   2.739   5.182   0.998
  726SOL    HW1 3077   2.688   5.254   0.951
  726SOL    HW2 3078   2.804   5.140   0.935
  727SOL     OW 3079   4.975   4.665   6.218
  727SOL    HW1 3080   4.938   4.605   6.148
  727SOL    HW2 3081   4.900   4.713   6.264
  728SOL     OW 3082   7.016   3.505   4.089
  728SOL    HW1 3083   6.987   3.517   4.184
  728SOL    HW2 3084   0.009   3.594   4.048
  729SOL     OW 3085   0.493   2.814   0.814
  729SOL    HW1 3086   0.559   2.845   0.745
  729SOL    HW2 3087   0.412   2.778   0.768
  730SOL     OW 3088   5.887   0.241   4.196
  730SOL    HW1 3089   5.899   0.219   4.099
  730SOL    HW2 3090   5.828   0.173   4.239
  731SOL     OW 3091   4.911   5.225   0.263
  731SOL    HW1 3092   4.907   5.249   0.360
  731SOL    HW2 3093   4.818   5.221   0.226
  732SOL     OW 3094   5.981   2.804   2.519
  732SOL    HW1 3095   5.969   2.884   2.578
  732SOL    HW2 3096   5.966   2.721   2.573
  733SOL     OW 3097   5.929   0.537   5.101
  733SOL    HW1 3098   5.970   0.627   5.088
  733SOL    HW2 3099   5.959   0.500   5.189
  734SOL     OW 3100   5.993   5.240   2.903
  734SOL    HW1 3101   5.899   5.260   2.877
  734SOL    HW2 3102   6.006   5.141   2.910
  735SOL     OW 3103   4.342   1.448   0.506
  735SOL    HW1 3104   4.355   1.389   0.426
  735SOL    HW2 3105   4.301   1.534   0.478
  736SOL     OW 3106   1.530   1.418   4.003
  736SOL    HW1 3107   1.571   1.405   4.093
  736SOL    HW2 3108   1.445   1.366   3.998
  737SOL     OW 3109   5.588   1.632   6.394
  737SOL    HW1 3110   5.626   1.543   6.368
  737SOL    HW2 3111   5.488   1.626   6.394
  738SOL     OW 3112   2.670   3.995   1.551
  738SOL    HW1 3113   2.573   3.974   1.539
  738SOL    HW2 3114   2.725   3.919   1.516
  739SOL     OW 3115   3.730   0.241   4.685
  739SOL    HW1 3116   3.765   0.258   4.777
  739SOL    HW2 3117   3.804   0.254   4.619
  740SOL     OW 3118   5.557   1.448   2.829
  740SOL    HW1 3119   5.502   1.395   2.765
  740SOL    HW2 3120   5.592   1.530   2.784
  741SOL     OW 3121   2.021   0.588   3.738
  741SOL    HW1 3122   2.045   0.511   3.796
  741SOL    HW2 3123   2.099   0.612   3.680
  742SOL     OW 3124   2.245   6.236   1.447
  742SOL    HW1 3125   2.264   6.297   1.369
  742SOL    HW2 3126   2.331   6.211   1.491
  743SOL     OW 3127   0.179   5.860   3.033
  743SOL    HW1 3128   0.160   5.816   2.944
  743SOL    HW2 3129   0.180   5.959   3.022
  744SOL     OW 3130   6.093   0.925   0.497
  744SOL    HW1 3131   6.186   0.961   0.506
  744SOL    HW2 3132   6.079   0.894   0.403
  745SOL     OW 3133   1.956   5.525   5.113
  745SOL    HW1 3134   2.036   5.576   5.143
  745SOL    HW2 3135   1.985   5.444   5.062
  746SOL     OW 3136   5.717   4.048   5.811
  746SOL    HW1 3137   5.694   4.002   5.897
  746SOL    HW2 3138   5.636   4.094   5.775
  747SOL     OW 3139   4.140   5.726   4.446
  747SOL    HW1 3140   4.208   5.654   4.428
  747SOL    HW2 3141   4.084   5.738   4.364
  748SOL     OW 3142   4.773   5.647   2.161
  748SOL    HW1 3143   4.748   5.592   2.240
  748SOL    HW2 3144   4.847   5.601   2.111
  749SOL     OW 3145   6.092   3.556   4.134
  749SOL    HW1 3146   6.065   3.577   4.040
  749SOL    HW2 3147   6.020   3.501   4.177
  750SOL     OW 3148   2.219   0.848   1.296
  750SOL    HW1 3149   2.130   0.820   1.260
  750SOL    HW2 3150   2.220   0.947   1.311
  751SOL     OW 3151   4.144   1.355   0.920
  751SOL    HW1 3152   4.215   1.369   0.851
  751SOL    HW2 3153   4.068   1.305   0.879
  752SOL     OW 3154   3.316   2.330   0.270
  752SOL    HW1 3155   3.315   2.234   0.299
  752SOL    HW2 3156   3.255   2.383   0.329
  753SOL     OW 3157   2.049   3.487   6.037
  753SOL    HW1 3158   1.979   3.546   5.996
  753SOL    HW2 3159   2.117   3.463   5.968
  754SOL     OW 3160   4.275   1.101   0.223
  754SOL    HW1 3161   4.183   1.135   0.203
  754SOL    HW2 3162   4.335   1.179   0.244
  755SOL     OW 3163   3.010   4.779   5.454
  755SOL    HW1 3164   2.941   4.715   5.420
  755SOL    HW2 3165   3.070   4.733   5.519
  756SOL     OW 3166   3.057   4.835   0.001
  756SOL    HW1 3167   3.049   4.921   6.977
  756SOL    HW2 3168   3.095   4.765   6.966
  757SOL     OW 3169   2.125   6.064   2.654
  757SOL    HW1 3170   2.190   6.030   2.585
  757SOL    HW2 3171   2.034   6.071   2.613
  758SOL     OW 3172   4.288   0.875   3.927
  758SOL    HW1 3173   4.300   0.789   3.877
  758SOL    HW2 3174   4.371   0.896   3.979
  759SOL     OW 3175   6.772   3.160   2.561
  759SOL    HW1 3176   6.845   3.138   2.496
  759SOL    HW2 3177   6.780   3.256   2.588
  760SOL     OW 3178   6.363   6.848   4.275
  760SOL    HW1 3179   6.393   6.757   4.304
  760SOL    HW2 3180   6.384   6.861   4.179
  761SOL     OW 3181   5.637   4.429   6.096
  761SOL    HW1 3182   5.573   4.445   6.021
  761SOL    HW2 3183   5.725   4.469   6.074
  762SOL     OW 3184   2.889   0.089   5.584
  762SOL    HW1 3185   2.970   0.123   5.632
  762SOL    HW2 3186   2.888   0.125   5.490
  763SOL     OW 3187   4.590   6.450   6.654
  763SOL    HW1 3188   4.568   6.489   6.565
  763SOL    HW2 3189   4.687   6.460   6.672
  764SOL     OW 3190   5.443   0.982   6.186
  764SOL    HW1 3191   5.366   0.940   6.137
  764SOL    HW2 3192   5.439   1.081   6.174
  765SOL     OW 3193   1.745   6.524   0.579
  765SOL    HW1 3194   1.672   6.460   0.554
  765SOL    HW2 3195   1.828   6.473   0.600
  766SOL     OW 3196   3.033   2.549   5.336
  766SOL    HW1 3197   2.960   2.484   5.317
  766SOL    HW2 3198   3.119   2.514   5.299
  767SOL     OW 3199   6.363   6.025   3.483
  767SOL    HW1 3200   6.297   6.082   3.533
  767SOL    HW2 3201   6.446   6.015   3.538
  768SOL     OW 3202   2.332   5.817   3.533
  768SOL    HW1 3203   2.345   5.813   3.632
  768SOL    HW2 3204   2.417   5.845   3.490
  769SOL     OW 3205   3.168   1.275   5.252
  769SOL    HW1 3206   3.203   1.302   5.162
  769SOL    HW2 3207   3.090   1.333   5.275
  770SOL     OW 3208   1.580   5.169   4.067
  770SOL    HW1 3209   1.533   5.080   4.067
  770SOL    HW2 3210   1.604   5.193   4.161
  771SOL     OW 3211   1.210   4.798   2.992
  771SOL    HW1 3212   1.275   4.864   2.954
  771SOL    HW2 3213   1.157   4.841   3.065
  772SOL     OW 3214   5.894   4.552   5.977
  772SOL    HW1 3215   5.948   4.474   5.946
  772SOL    HW2 3216   5.945   4.603   6.046
  773SOL     OW 3217   0.469   4.105   2.665
  773SOL    HW1 3218   0.533   4.150   2.603
  773SOL    HW2 3219   0.477   4.006   2.654
  774SOL     OW 3220   1.787   1.179   2.858
  774SOL    HW1 3221   1.763   1.270   2.824
  774SOL    HW2 3222   1.886   1.171   2.867
  775SOL     OW 3223   2.322   1.826   4.683
  775SOL    HW1 3224   2.333   1.899   4.750
  775SOL    HW2 3225   2.342   1.861   4.591
  776SOL     OW 3226   6.768   0.140   6.217
  776SOL    HW1 3227   6.722   0.159   6.304
  776SOL    HW2 3228   6.730   0.198   6.146
  777SOL     OW 3229   1.992   3.892   1.002
  777SOL    HW1 3230   1.907   3.876   1.052
  777SOL    HW2 3231   1.972   3.940   0.916
  778SOL     OW 3232   2.293   0.109   1.555
  778SOL    HW1 3233   2.269   0.206   1.547
  778SOL    HW2 3234   2.209   0.055   1.561
  779SOL     OW 3235   6.715   1.906   1.726
  779SOL    HW1 3236   6.785   1.955   1.675
  779SOL    HW2 3237   6.703   1.948   1.816
  780SOL     OW 3238   0.776   2.393   4.376
  780SOL    HW1 3239   0.789   2.299   4.345
  780SOL    HW2 3240   0.731   2.446   4.304
  781SOL     OW 3241   6.660   4.931   0.514
  781SOL    HW1 3242   6.603   4.948   0.433
  781SOL    HW2 3243   6.674   5.016   0.564
  782SOL     OW 3244   2.082   3.781   5.671
  782SOL    HW1 3245   2.164   3.785   5.728
  782SOL    HW2 3246   2.012   3.842   5.710
  783SOL     OW 3247   5.916   4.582   1.321
  783SOL    HW1 3248   5.989   4.522   1.289
  783SOL    HW2 3249   5.835   4.570   1.263
  784SOL     OW 3250   3.412   5.101   1.717
  784SOL    HW1 3251   3.398   5.193   1.755
  784SOL    HW2 3252   3.395   5.033   1.788
  785SOL     OW 3253   0.022   1.551   3.839
  785SOL    HW1 3254   0.110   1.507   3.820
  785SOL    HW2 3255   0.021   1.584   3.933
  786SOL     OW 3256   6.697   0.934   2.574
  786SOL    HW1 3257   6.604   0.956   2.605
  786SOL    HW2 3258   6.763   0.984   2.630
  787SOL     OW 3259   2.008   6.917   6.801
  787SOL    HW1 3260   1.923   6.880   6.839
  787SOL    HW2 3261   1.987   6.970   6.718
  788SOL     OW 3262   3.937   2.727   1.426
  788SOL    HW1 3263   3.932   2.780   1.510
  788SOL    HW2 3264   3.971   2.635   1.446
  789SOL     OW 3265   4.653   5.504   2.342
  789SOL    HW1 3266   4.566   5.476   2.301
  789SOL    HW2 3267   4.635   5.569   2.416
  790SOL     OW 3268   2.257   1.082   1.698
  790SOL    HW1 3269   2.268   1.155   1.630
  790SOL    HW2 3270   2.340   1.074   1.752
  791SOL     OW 3271   2.649   5.960   5.603
  791SOL    HW1 3272   2.667   5.987   5.508
  791SOL    HW2 3273   2.554   5.932   5.613
  792SOL     OW 3274   0.513   0.819   2.114
  792SOL    HW1 3275   0.532   0.829   2.016
  792SOL    HW2 3276   0.420   0.784   2.126
  793SOL     OW 3277   4.971   5.750   5.089
  793SOL    HW1 3278   4.885   5.699   5.087
  793SOL    HW2 3279   5.029   5.716   5.163
  794SOL     OW 3280   2.983   3.437   5.785
  794SOL    HW1 3281   3.040   3.515   5.761
  794SOL    HW2 3282   3.039   3.355   5.793
  795SOL     OW 3283   3.699   0.432   5.882
  795SOL    HW1 3284   3.734   0.504   5.942
  795SOL    HW2 3285   3.721   0.343   5.921
  796SOL     OW 3286   1.870   3.296   0.389
  796SOL    HW1 3287   1.901   3.232   0.459
  796SOL    HW2 3288   1.782   3.265   0.353
  797SOL     OW 3289   4.155   0.210   0.569
  797SOL    HW1 3290   4.124   0.305   0.575
  797SOL    HW2 3291   4.091   0.151   0.618
  798SOL     OW 3292   3.527   6.356   1.376
  798SOL    HW1 3293   3.524   6.264   1.337
  798SOL    HW2 3294   3.587   6.356   1.456
  799SOL     OW 3295   0.410   1.502   6.388
  799SOL    HW1 3296   0.338   1.468   6.448
  799SOL    HW2 3297   0.384   1.487   6.292
  800SOL     OW 3298   6.720   1.935   2.607
  800SOL    HW1 3299   6.751   1.840   2.603
  800SOL    HW2 3300   6.664   1.955   2.528
  801SOL     OW 3301   2.254   4.249   5.177
  801SOL    HW1 3302   2.253   4.298   5.090
  801SOL    HW2 3303   2.322   4.176   5.174
  802SOL     OW 3304   3.894   2.057   6.757
  802SOL    HW1 3305   3.856   2.150   6.753
  802SOL    HW2 3306   3.988   2.061   6.790
  803SOL     OW 3307   1.830   0.073   5.979
  803SOL    HW1 3308   1.872   0.130   5.908
  803SOL    HW2 3309   1.751   0.025   5.941
  804SOL     OW 3310   6.743   6.905   1.573
  804SOL    HW1 3311   6.796   6.831   1.532
  804SOL    HW2 3312   6.687   6.870   1.648
  805SOL     OW 3313   1.362   0.211   4.463
  805SOL    HW1 3314   1.274   0.190   4.506
  805SOL    HW2 3315   1.431   0.147   4.496
  806SOL     OW 3316   6.491   0.654   6.097
  806SOL    HW1 3317   6.565   0.643   6.164
  806SOL    HW2 3318   6.405   0.623   6.136
  807SOL     OW 3319   0.519   0.065   4.288
  807SOL    HW1 3320   0.540   0.002   4.214
  807SOL    HW2 3321   0.572   0.149   4.276
  808SOL     OW 3322   5.290   2.874   6.482
  808SOL    HW1 3323   5.324   2.823   6.561
  808SOL    HW2 3324   5.272   2.811   6.407
  809SOL     OW 3325   1.041   4.808   0.566
  809SOL    HW1 3326   0.960   4.755   0.540
  809SOL    HW2 3327   1.015   4.882   0.628
  810SOL     OW 3328   2.833   3.325   0.590
  810SOL    HW1 3329   2.929   3.354   0.599
  810SOL    HW2 3330   2.781   3.357   0.669
  811SOL     OW 3331   5.360   5.292   4.390
  811SOL    HW1 3332   5.316   5.232   4.456
  811SOL    HW2 3333   5.291   5.334   4.331
  812SOL     OW 3334   0.428   1.736   1.758
  812SOL    HW1 3335   0.331   1.724   1.736
  812SOL    HW2 3336   0.437   1.797   1.837
  813SOL     OW 3337   2.800   0.041   4.702
  813SOL    HW1 3338   2.728   0.028   4.634
  813SOL    HW2 3339   2.872   0.099   4.664
  814SOL     OW 3340   6.531   6.140   2.383
  814SOL    HW1 3341   6.629   6.151   2.393
  814SOL    HW2 3342   6.505   6.045   2.404
  815SOL     OW 3343   5.406   2.679   3.045
  815SOL    HW1 3344   5.470   2.752   3.072
  815SOL    HW2 3345   5.352   2.651   3.124
  816SOL     OW 3346   4.936   4.949   0.185
  816SOL    HW1 3347   4.935   5.025   0.250
  816SOL    HW2 3348   4.979   4.977   0.100
  817SOL     OW 3349   1.146   5.166   1.947
  817SOL    HW1 3350   1.211   5.094   1.923
  817SOL    HW2 3351   1.191   5.255   1.941
  818SOL     OW 3352   5.796   2.651   3.806
  818SOL    HW1 3353   5.823   2.569   3.857
  818SOL    HW2 3354   5.703   2.677   3.832
  819SOL     OW 3355   5.793   2.555   1.978
  819SOL    HW1 3356   5.725   2.502   2.030
  819SOL    HW2 3357   5.778   2.653   1.993
  820SOL     OW 3358   3.373   2.051   4.670
  820SOL    HW1 3359   3.360   2.025   4.766
  820SOL    HW2 3360   3.302   2.116   4.643
  821SOL     OW 3361   6.137   4.799   5.897
  821SOL    HW1 3362   6.045   4.838   5.905
  821SOL    HW2 3363   6.159   4.788   5.800
  822SOL     OW 3364   0.506   3.946   3.030
  822SOL    HW1 3365   0.442   3.904   2.966
  822SOL    HW2 3366   0.547   4.028   2.988
  823SOL     OW 3367   6.294   4.609   6.257
  823SOL    HW1 3368   6.214   4.555   6.232
  823SOL    HW2 3369   6.350   4.625   6.176
  824SOL     OW 3370   5.279   0.824   5.564
  824SOL    HW1 3371   5.252   0.920   5.563
  824SOL    HW2 3372   5.197   0.767   5.575
  825SOL     OW 3373   6.490   5.728   0.893
  825SOL    HW1 3374   6.430   5.654   0.862
  825SOL    HW2 3375   6.584   5.709   0.864
  826SOL     OW 3376   3.234   2.438   5.630
  826SOL    HW1 3377   3.208   2.533   5.614
  826SOL    HW2 3378   3.154   2.378   5.617
  827SOL     OW 3379   2.922   4.327   5.350
  827SOL    HW1 3380   2.878   4.354   5.435
  827SOL    HW2 3381   2.939   4.408   5.293
  828SOL     OW 3382   6.148   5.942   6.131
  828SOL    HW1 3383   6.153   5.933   6.231
  828SOL    HW2 3384   6.054   5.924   6.101
  829SOL     OW 3385   2.902   3.230   1.870
  829SOL    HW1 3386   2.981   3.281   1.904
  829SOL    HW2 3387   2.842   3.208   1.946
  830SOL     OW 3388   5.679   5.089   6.815
  830SOL    HW1 3389   5.767   5.051   6.840
  830SOL    HW2 3390   5.691   5.184   6.784
  831SOL     OW 3391   6.655   0.019   1.350
  831SOL    HW1 3392   6.724   0.078   1.309
  831SOL    HW2 3393   6.700   6.980   1.413
  832SOL     OW 3394   4.466   1.592   4.526
  832SOL    HW1 3395   4.505   1.509   4.485
  832SOL    HW2 3396   4.538   1.662   4.534
  833SOL     OW 3397   2.016   3.693   6.566
  833SOL    HW1 3398   2.075   3.680   6.486
  833SOL    HW2 3399   1.985   3.788   6.568
  834SOL     OW 3400   5.466   2.961   0.398
  834SOL    HW1 3401   5.389   3.006   0.352
  834SOL    HW2 3402   5.433   2.913   0.480
  835SOL     OW 3403   2.371   0.618   4.941
  835SOL    HW1 3404   2.381   0.620   5.041
  835SOL    HW2 3405   2.313   0.541   4.915
  836SOL     OW 3406   2.985   1.031   5.125
  836SOL    HW1 3407   2.941   0.949   5.088
  836SOL    HW2 3408   3.084   1.023   5.114
  837SOL     OW 3409   1.191   7.025   0.779
  837SOL    HW1 3410   1.184   0.097   0.759
  837SOL    HW2 3411   1.119   6.975   0.731
  838SOL     OW 3412   2.014   6.093   4.317
  838SOL    HW1 3413   1.991   6.176   4.368
  838SOL    HW2 3414   1.957   6.017   4.348
  839SOL     OW 3415   2.061   1.387   1.794
  839SOL    HW1 3416   2.059   1.409   1.892
  839SOL    HW2 3417   2.147   1.340   1.772
  840SOL     OW 3418   6.217   5.521   7.015
  840SOL    HW1 3419   6.154   5.457   6.971
  840SOL    HW2 3420   6.295   5.470   0.028
  841SOL     OW 3421   3.767   5.831   5.925
  841SOL    HW1 3422   3.755   5.886   6.007
  841SOL    HW2 3423   3.708   5.750   5.929
  842SOL     OW 3424   3.543   6.436   6.920
  842SOL    HW1 3425   3.529   6.371   6.994
  842SOL    HW2 3426   3.609   6.399   6.855
  843SOL     OW 3427   1.676   1.903   1.687
  843SOL    HW1 3428   1.677   1.992   1.731
  843SOL    HW2 3429   1.764   1.858   1.700
  844SOL     OW 3430   0.061   6.396   1.459
  844SOL    HW1 3431   6.990   6.373   1.478
  844SOL    HW2 3432   0.070   6.495   1.450
  845SOL     OW 3433   5.266   2.833   3.351
  845SOL    HW1 3434   5.318   2.766   3.403
  845SOL    HW2 3435   5.168   2.821   3.370
  846SOL     OW 3436   2.903   0.642   6.025
  846SOL    HW1 3437   2.998   0.615   6.014
  846SOL    HW2 3438   2.877   0.637   6.121
  847SOL     OW 3439   2.015   3.340   1.957
  847SOL    HW1 3440   2.080   3.407   1.923
  847SOL    HW2 3441   2.044   3.308   2.047
  848SOL     OW 3442   6.847   6.650   5.958
  848SOL    HW1 3443   6.812   6.570   5.909
  848SOL    HW2 3444   6.779   6.724   5.953
  849SOL     OW 3445   6.338   4.226   6.179
  849SOL    HW1 3446   6.330   4.262   6.273
  849SOL    HW2 3447   6.266   4.159   6.163
  850SOL     OW 3448   6.813   0.295   5.289
  850SOL    HW1 3449   6.825   0.365   5.218
  850SOL    HW2 3450   6.814   0.205   5.247
  851SOL     OW 3451   6.450   2.945   6.768
  851SOL    HW1 3452   6.540   2.973   6.801
  851SOL    HW2 3453   6.379   2.988   6.824
  852SOL     OW 3454   0.555   4.630   0.948
  852SOL    HW1 3455   0.488   4.571   0.992
  852SOL    HW2 3456   0.571   4.598   0.855
  853SOL     OW 3457   1.462   4.576   6.376
  853SOL    HW1 3458   1.434   4.481   6.388
  853SOL    HW2 3459   1.553   4.589   6.416
  854SOL     OW 3460   5.356   6.518   0.100
  854SOL    HW1 3461   5.411   6.438   0.075
  854SOL    HW2 3462   5.277   6.488   0.152
  855SOL     OW 3463   6.463   0.136   0.706
  855SOL    HW1 3464   6.533   0.159   0.638
  855SOL    HW2 3465   6.471   0.198   0.784
  856SOL     OW 3466   1.320   0.836   5.953
  856SOL    HW1 3467   1.401   0.806   5.904
  856SOL    HW2 3468   1.336   0.831   6.051
  857SOL     OW 3469   6.643   5.684   1.754
  857SOL    HW1 3470   6.638   5.592   1.794
  857SOL    HW2 3471   6.613   5.680   1.659
  858SOL     OW 3472   3.352   4.182   0.939
  858SOL    HW1 3473   3.260   4.192   0.979
  858SOL    HW2 3474   3.393   4.098   0.972
  859SOL     OW 3475   5.642   6.033   5.245
  859SOL    HW1 3476   5.661   5.970   5.320
  859SOL    HW2 3477   5.682   5.998   5.161
  860SOL     OW 3478   5.653   2.809   6.813
  860SOL    HW1 3479   5.640   2.800   6.714
  860SOL    HW2 3480   5.676   2.904   6.835
  861SOL     OW 3481   2.747   5.477   3.213
  861SOL    HW1 3482   2.711   5.491   3.306
  861SOL    HW2 3483   2.675   5.440   3.155
  862SOL     OW 3484   2.204   4.591   3.252
  862SOL    HW1 3485   2.185   4.590   3.350
  862SOL    HW2 3486   2.294   4.634   3.237
  863SOL     OW 3487   5.738   1.413   6.288
  863SOL    HW1 3488   5.740   1.490   6.224
  863SOL    HW2 3489   5.772   1.331   6.242
  864SOL     OW 3490   4.017   6.531   5.449
  864SOL    HW1 3491   4.097   6.478   5.477
  864SOL    HW2 3492   3.958   6.475   5.391
  865SOL     OW 3493   2.108   0.568   5.710
  865SOL    HW1 3494   2.049   0.510   5.654
  865SOL    HW2 3495   2.199   0.527   5.718
  866SOL     OW 3496   3.667   0.102   0.731
  866SOL    HW1 3497   3.717   0.143   0.808
  866SOL    HW2 3498   3.694   0.006   0.722
  867SOL     OW 3499   4.937   3.569   0.732
  867SOL    HW1 3500   4.948   3.606   0.640
  867SOL    HW2 3501   4.848   3.594   0.768
  868SOL     OW 3502   0.177   1.392   2.159
  868SOL    HW1 3503   0.168   1.433   2.250
  868SOL    HW2 3504   0.157   1.294   2.165
  869SOL     OW 3505   6.469   4.145   3.530
  869SOL    HW1 3506   6.444   4.221   3.469
  869SOL    HW2 3507   6.394   4.126   3.592
  870SOL     OW 3508   4.523   4.509   1.150
  870SOL    HW1 3509   4.609   4.463   1.172
  870SOL    HW2 3510   4.461   4.503   1.228
  871SOL     OW 3511   5.159   2.883   3.867
  871SOL    HW1 3512   5.216   2.960   3.837
  871SOL    HW2 3513   5.072   2.884   3.817
  872SOL     OW 3514   6.579   2.264   4.761
  872SOL    HW1 3515   6.621   2.346   4.800
  872SOL    HW2 3516   6.553   2.282   4.666
  873SOL     OW 3517   4.500   5.849   5.332
  873SOL    HW1 3518   4.485   5.809   5.242
  873SOL    HW2 3519   4.469   5.944   5.332
  874SOL     OW 3520   6.541   4.044   0.622
  874SOL    HW1 3521   6.535   4.117   0.554
  874SOL    HW2 3522   6.530   3.955   0.578
  875SOL     OW 3523   4.868   4.970   0.898
  875SOL    HW1 3524   4.870   4.912   0.817
  875SOL    HW2 3525   4.776   5.006   0.911
  876SOL     OW 3526   0.753   5.559   1.843
  876SOL    HW1 3527   0.761   5.501   1.924
  876SOL    HW2 3528   0.693   5.637   1.863
  877SOL     OW 3529   3.152   4.606   5.687
  877SOL    HW1 3530   3.193   4.515   5.692
  877SOL    HW2 3531   3.055   4.600   5.711
  878SOL     OW 3532   4.606   6.903   3.809
  878SOL    HW1 3533   4.701   6.898   3.778
  878SOL    HW2 3534   4.604   6.899   3.909
  879SOL     OW 3535   3.623   0.618   1.708
  879SOL    HW1 3536   3.533   0.651   1.733
  879SOL    HW2 3537   3.614   0.531   1.659
  880SOL     OW 3538   3.575   3.294   3.816
  880SOL    HW1 3539   3.565   3.363   3.745
  880SOL    HW2 3540   3.600   3.206   3.776
  881SOL     OW 3541   5.326   3.079   4.937
  881SOL    HW1 3542   5.227   3.064   4.934
  881SOL    HW2 3543   5.345   3.177   4.942
  882SOL     OW 3544   0.586   2.938   4.124
  882SOL    HW1 3545   0.598   2.879   4.204
  882SOL    HW2 3546   0.655   3.010   4.125
  883SOL     OW 3547   2.985   0.946   1.136
  883SOL    HW1 3548   2.939   0.906   1.215
  883SOL    HW2 3549   2.919   0.995   1.079
  884SOL     OW 3550   6.212   4.139   5.463
  884SOL    HW1 3551   6.132   4.103   5.415
  884SOL    HW2 3552   6.222   4.093   5.551
  885SOL     OW 3553   3.391   0.823   4.966
  885SOL    HW1 3554   3.345   0.878   5.036
  885SOL    HW2 3555   3.342   0.831   4.879
  886SOL     OW 3556   3.339   6.981   7.014
  886SOL    HW1 3557   3.418   0.014   6.998
  886SOL    HW2 3558   3.367   6.900   0.042
  887SOL     OW 3559   3.735   6.592   3.531
  887SOL    HW1 3560   3.647   6.613   3.574
  887SOL    HW2 3561   3.769   6.504   3.567
  888SOL     OW 3562   6.981   6.207   3.753
  888SOL    HW1 3563   6.915   6.145   3.711
  888SOL    HW2 3564   0.044   6.159   3.765
  889SOL     OW 3565   6.836   2.319   0.658
  889SOL    HW1 3566   6.844   2.236   0.713
  889SOL    HW2 3567   6.764   2.307   0.590
  890SOL     OW 3568   1.544   5.100   2.586
  890SOL    HW1 3569   1.475   5.168   2.558
  890SOL    HW2 3570   1.556   5.033   2.514
  891SOL     OW 3571   5.902   4.196   1.576
  891SOL    HW1 3572   5.999   4.200   1.553
  891SOL    HW2 3573   5.868   4.289   1.592
  892SOL     OW 3574   2.744   3.820   5.282
  892SOL    HW1 3575   2.662   3.794   5.332
  892SOL    HW2 3576   2.767   3.915   5.303
  893SOL     OW 3577   2.243   6.308   3.490
  893SOL    HW1 3578   2.209   6.322   3.583
  893SOL    HW2 3579   2.194   6.366   3.426
  894SOL     OW 3580   0.861   3.018   1.967
  894SOL    HW1 3581   0.933   2.969   2.015
  894SOL    HW2 3582   0.853   2.983   1.874
  895SOL     OW 3583   1.262   4.875   3.927
  895SOL    HW1 3584   1.352   4.885   3.970
  895SOL    HW2 3585   1.237   4.962   3.884
  896SOL     OW 3586   5.262   4.926   1.390
  896SOL    HW1 3587   5.236   4.874   1.309
  896SOL    HW2 3588   5.315   5.006   1.363
  897SOL     OW 3589   4.033   1.393   6.795
  897SOL    HW1 3590   4.101   1.339   6.843
  897SOL    HW2 3591   3.975   1.441   6.861
  898SOL     OW 3592   3.641   6.632   2.848
  898SOL    HW1 3593   3.565   6.625   2.913
  898SOL    HW2 3594   3.638   6.553   2.785
  899SOL     OW 3595   0.459   6.663   0.198
  899SOL    HW1 3596   0.507   6.575   0.205
  899SOL    HW2 3597   0.371   6.657   0.244
  900SOL     OW 3598   5.805   0.207   0.474
  900SOL    HW1 3599   5.886   0.162   0.511
  900SOL    HW2 3600   5.829   0.300   0.446
  901SOL     OW 3601   2.114   7.021   3.636
  901SOL    HW1 3602   2.086   6.990   3.545
  901SOL    HW2 3603   2.104   6.947   3.702
  902SOL     OW 3604   1.270   2.160   0.963
  902SOL    HW1 3605   1.263   2.078   0.907
  902SOL    HW2 3606   1.230   2.143   1.053
  903SOL     OW 3607   0.413   2.761   6.604
  903SOL    HW1 3608   0.350   2.686   6.582
  903SOL    HW2 3609   0.503   2.740   6.565
  904SOL     OW 3610   1.851   1.505   2.353
  904SOL    HW1 3611   1.842   1.512   2.254
  904SOL    HW2 3612   1.930   1.559   2.383
  905SOL     OW 3613   5.171   2.200   6.560
  905SOL    HW1 3614   5.119   2.247   6.489
  905SOL    HW2 3615   5.171   2.254   6.643
  906SOL     OW 3616   6.842   2.110   6.778
  906SOL    HW1 3617   6.870   2.048   6.852
  906SOL    HW2 3618   6.871   2.203   6.800
  907SOL     OW 3619   5.523   3.034   0.791
  907SOL    HW1 3620   5.546   2.948   0.747
  907SOL    HW2 3621   5.476   3.016   0.878
  908SOL     OW 3622   2.928   4.797   3.117
  908SOL    HW1 3623   2.847   4.741   3.136
  908SOL    HW2 3624   2.982   4.805   3.201
  909SOL     OW 3625   4.202   6.168   1.368
  909SOL    HW1 3626   4.108   6.179   1.336
  909SOL    HW2 3627   4.264   6.216   1.306
  910SOL     OW 3628   3.552   1.961   0.771
  910SOL    HW1 3629   3.453   1.967   0.772
  910SOL    HW2 3630   3.590   2.014   0.847
  911SOL     OW 3631   1.064   6.495   6.261
  911SOL    HW1 3632   1.033   6.517   6.168
  911SOL    HW2 3633   1.054   6.397   6.277
  912SOL     OW 3634   6.249   2.615   3.070
  912SOL    HW1 3635   6.328   2.554   3.069
  912SOL    HW2 3636   6.221   2.631   3.164
  913SOL     OW 3637   3.888   0.282   3.181
  913SOL    HW1 3638   3.894   0.290   3.082
  913SOL    HW2 3639   3.976   0.308   3.222
  914SOL     OW 3640   2.349   0.267   5.978
  914SOL    HW1 3641   2.254   0.296   5.991
  914SOL    HW2 3642   2.408   0.323   6.036
  915SOL     OW 3643   6.005   4.196   6.808
  915SOL    HW1 3644   6.101   4.198   6.783
  915SOL    HW2 3645   5.988   4.264   6.880
  916SOL     OW 3646   1.260   3.182   1.886
  916SOL    HW1 3647   1.287   3.110   1.951
  916SOL    HW2 3648   1.307   3.168   1.799
  917SOL     OW 3649   0.566   6.720   1.326
  917SOL    HW1 3650   0.607   6.704   1.237
  917SOL    HW2 3651   0.509   6.802   1.322
  918SOL     OW 3652   3.461   0.624   0.947
  918SOL    HW1 3653   3.404   0.687   0.894
  918SOL    HW2 3654   3.497   0.672   1.028
  919SOL     OW 3655   5.997   1.327   2.383
  919SOL    HW1 3656   6.027   1.316   2.288
  919SOL    HW2 3657   5.911   1.378   2.385
  920SOL     OW 3658   2.250   4.196   1.922
  920SOL    HW1 3659   2.298   4.245   1.849
  920SOL    HW2 3660   2.260   4.097   1.907
  921SOL     OW 3661   3.806   5.957   4.292
  921SOL    HW1 3662   3.847   5.969   4.383
  921SOL    HW2 3663   3.876   5.975   4.223
  922SOL     OW 3664   3.349   3.428   4.344
  922SOL    HW1 3665   3.443   3.464   4.345
  922SOL    HW2 3666   3.350   3.332   4.372
  923SOL     OW 3667   2.356   3.342   6.524
  923SOL    HW1 3668   2.286   3.279   6.557
  923SOL    HW2 3669   2.322   3.390   6.443
  924SOL     OW 3670   6.773   3.513   1.630
  924SOL    HW1 3671   6.734   3.469   1.710
  924SOL    HW2 3672   6.700   3.558   1.578
  925SOL     OW 3673   0.136   2.409   0.124
  925SOL    HW1 3674   0.128   2.328   0.067
  925SOL    HW2 3675   0.146   2.490   0.066
  926SOL     OW 3676   6.527   1.302   1.120
  926SOL    HW1 3677   6.582   1.326   1.040
  926SOL    HW2 3678   6.454   1.240   1.092
  927SOL     OW 3679   5.602   3.617   3.251
  927SOL    HW1 3680   5.697   3.597   3.227
  927SOL    HW2 3681   5.585   3.590   3.345
  928SOL     OW 3682   2.329   5.840   0.184
  928SOL    HW1 3683   2.392   5.903   0.229
  928SOL    HW2 3684   2.242   5.839   0.235
  929SOL     OW 3685   0.240   0.951   6.857
  929SOL    HW1 3686   0.224   0.912   6.766
  929SOL    HW2 3687   0.203   1.044   6.861
  930SOL     OW 3688   5.487   6.730   6.266
  930SOL    HW1 3689   5.426   6.677   6.207
  930SOL    HW2 3690   5.495   6.823   6.230
  931SOL     OW 3691   6.667   0.981   4.500
  931SOL    HW1 3692   6.763   1.008   4.514
  931SOL    HW2 3693   6.610   1.062   4.495
  932SOL     OW 3694   2.522   0.972   2.985
  932SOL    HW1 3695   2.543   0.961   2.888
  932SOL    HW2 3696   2.469   0.893   3.017
  933SOL     OW 3697   1.460   4.735   3.185
  933SOL    HW1 3698   1.546   4.731   3.134
  933SOL    HW2 3699   1.397   4.667   3.148
  934SOL     OW 3700   2.688   5.564   6.541
  934SOL    HW1 3701   2.640   5.551   6.628
  934SOL    HW2 3702   2.716   5.659   6.533
  935SOL     OW 3703   5.199   4.269   4.387
  935SOL    HW1 3704   5.137   4.315   4.452
  935SOL    HW2 3705   5.234   4.336   4.321
  936SOL     OW 3706   0.782   6.934   6.225
  936SOL    HW1 3707   0.682   6.939   6.223
  936SOL    HW2 3708   0.816   6.911   6.133
  937SOL     OW 3709   5.756   1.670   6.601
  937SOL    HW1 3710   5.777   1.580   6.638
  937SOL    HW2 3711   5.698   1.661   6.520
  938SOL     OW 3712   5.885   5.048   5.232
  938SOL    HW1 3713   5.945   5.105   5.287
  938SOL    HW2 3714   5.932   5.023   5.147
  939SOL     OW 3715   0.127   0.043   3.774
  939SOL    HW1 3716   0.183   0.021   3.695
  939SOL    HW2 3717   0.055   0.107   3.747
  940SOL     OW 3718   0.573   3.541   0.468
  940SOL    HW1 3719   0.605   3.514   0.377
  940SOL    HW2 3720   0.614   3.629   0.492
  941SOL     OW 3721   5.986   0.654   0.540
  941SOL    HW1 3722   5.904   0.670   0.595
  941SOL    HW2 3723   6.045   0.734   0.545
  942SOL     OW 3724   5.732   0.141   2.434
  942SOL    HW1 3725   5.756   0.160   2.529
  942SOL    HW2 3726   5.638   0.170   2.418
  943SOL     OW 3727   1.561   4.889   2.387
  943SOL    HW1 3728   1.599   4.848   2.304
  943SOL    HW2 3729   1.462   4.876   2.389
  944SOL     OW 3730   0.285   5.888   5.348
  944SOL    HW1 3731   0.381   5.900   5.376
  944SOL    HW2 3732   0.282   5.868   5.250
  945SOL     OW 3733   0.607   4.868   6.156
  945SOL    HW1 3734   0.608   4.876   6.056
  945SOL    HW2 3735   0.538   4.930   6.193
  946SOL     OW 3736   5.028   4.111   5.129
  946SOL    HW1 3737   5.084   4.029   5.143
  946SOL    HW2 3738   4.968   4.097   5.050
  947SOL     OW 3739   3.543   3.069   3.617
  947SOL    HW1 3740   3.622   3.012   3.637
  947SOL    HW2 3741   3.478   3.018   3.560
  948SOL     OW 3742   4.552   0.995   3.006
  948SOL    HW1 3743   4.526   0.899   3.019
  948SOL    HW2 3744   4.533   1.046   3.089
  949SOL     OW 3745   3.166   5.789   0.025
  949SOL    HW1 3746   3.109   5.862   7.013
  949SOL    HW2 3747   3.112   5.705   0.033
  950SOL     OW 3748   6.124   5.702   2.306
  950SOL    HW1 3749   6.180   5.709   2.388
  950SOL    HW2 3750   6.183   5.703   2.225
  951SOL     OW 3751   1.059   6.875   3.881
  951SOL    HW1 3752   1.101   6.961   3.912
  951SOL    HW2 3753   1.012   6.891   3.794
  952SOL     OW 3754   4.687   2.528   2.828
  952SOL    HW1 3755   4.634   2.579   2.896
  952SOL    HW2 3756   4.747   2.591   2.778
  953SOL     OW 3757   5.587   5.179   4.603
  953SOL    HW1 3758   5.590   5.272   4.567
  953SOL    HW2 3759   5.633   5.117   4.539
  954SOL     OW 3760   3.706   6.006   2.288
  954SOL    HW1 3761   3.787   5.967   2.242
  954SOL    HW2 3762   3.651   6.056   2.222
  955SOL     OW 3763   1.764   4.477   0.696
  955SOL    HW1 3764   1.771   4.379   0.679
  955SOL    HW2 3765   1.770   4.495   0.795
  956SOL     OW 3766   6.532   0.740   1.758
  956SOL    HW1 3767   6.487   0.758   1.671
  956SOL    HW2 3768   6.626   0.710   1.742
  957SOL     OW 3769   5.540   2.321   1.877
  957SOL    HW1 3770   5.448   2.351   1.849
  957SOL    HW2 3771   5.608   2.360   1.816
  958SOL     OW 3772   3.830   6.598   1.459
  958SOL    HW1 3773   3.751   6.638   1.413
  958SOL    HW2 3774   3.911   6.655   1.443
  959SOL     OW 3775   3.494   6.889   5.174
  959SOL    HW1 3776   3.578   6.841   5.149
  959SOL    HW2 3777   3.477   6.964   5.110
  960SOL     OW 3778   1.364   0.207   1.033
  960SOL    HW1 3779   1.408   0.225   0.944
  960SOL    HW2 3780   1.362   0.108   1.049
  961SOL     OW 3781   4.294   6.334   3.143
  961SOL    HW1 3782   4.334   6.355   3.054
  961SOL    HW2 3783   4.251   6.244   3.140
  962SOL     OW 3784   6.486   0.902   4.697
  962SOL    HW1 3785   6.562   0.898   4.632
  962SOL    HW2 3786   6.425   0.824   4.683
  963SOL     OW 3787   4.485   0.779   0.543
  963SOL    HW1 3788   4.401   0.833   0.535
  963SOL    HW2 3789   4.544   0.818   0.613
  964SOL     OW 3790   4.965   4.976   5.871
  964SOL    HW1 3791   5.019   5.006   5.793
  964SOL    HW2 3792   4.976   5.040   5.947
  965SOL     OW 3793   6.229   1.608   2.774
  965SOL    HW1 3794   6.180   1.553   2.707
  965SOL    HW2 3795   6.230   1.704   2.744
  966SOL     OW 3796   5.943   2.924   3.199
  966SOL    HW1 3797   5.913   2.886   3.286
  966SOL    HW2 3798   5.947   2.850   3.131
  967SOL     OW 3799   2.909   4.813   0.239
  967SOL    HW1 3800   2.985   4.805   0.175
  967SOL    HW2 3801   2.831   4.760   0.206
  968SOL     OW 3802   4.052   6.631   1.766
  968SOL    HW1 3803   3.979   6.562   1.771
  968SOL    HW2 3804   4.074   6.649   1.671
  969SOL     OW 3805   2.511   4.770   6.107
  969SOL    HW1 3806   2.527   4.755   6.204
  969SOL    HW2 3807   2.590   4.739   6.054
  970SOL     OW 3808   5.329   0.475   6.339
  970SOL    HW1 3809   5.396   0.476   6.265
  970SOL    HW2 3810   5.375   0.489   6.426
  971SOL     OW 3811   6.878   3.664   2.557
  971SOL    HW1 3812   6.839   3.724   2.627
  971SOL    HW2 3813   6.977   3.659   2.570
  972SOL     OW 3814   6.171   1.963   1.841
  972SOL    HW1 3815   6.166   1.908   1.925
  972SOL    HW2 3816   6.213   2.051   1.862
  973SOL     OW 3817   1.105   5.655   6.506
  973SOL    HW1 3818   1.046   5.599   6.448
  973SOL    HW2 3819   1.063   5.664   6.596
  974SOL     OW 3820   0.341   5.769   2.128
  974SOL    HW1 3821   0.366   5.859   2.093
  974SOL    HW2 3822   0.422   5.723   2.163
  975SOL     OW 3823   2.229   6.936   6.962
  975SOL    HW1 3824   2.320   6.912   6.929
  975SOL    HW2 3825   2.164   6.931   6.886
  976SOL     OW 3826   0.189   3.365   1.187
  976SOL    HW1 3827   0.143   3.281   1.158
  976SOL    HW2 3828   0.121   3.431   1.220
  977SOL     OW 3829   0.868   0.430   2.362
  977SOL    HW1 3830   0.934   0.499   2.333
  977SOL    HW2 3831   0.819   0.463   2.443
  978SOL     OW 3832   5.327   1.561   1.550
  978SOL    HW1 3833   5.387   1.553   1.470
  978SOL    HW2 3834   5.339   1.651   1.591
  979SOL     OW 3835   0.956   3.219   0.009
  979SOL    HW1 3836   0.889   3.145   0.002
  979SOL    HW2 3837   1.048   3.180   0.004
  980SOL     OW 3838   4.655   1.774   4.406
  980SOL    HW1 3839   4.632   1.771   4.309
  980SOL    HW2 3840   4.748   1.738   4.419
  981SOL     OW 3841   0.421   1.164   4.638
  981SOL    HW1 3842   0.505   1.214   4.621
  981SOL    HW2 3843   0.440   1.065   4.634
  982SOL     OW 3844   1.110   1.550   5.162
  982SOL    HW1 3845   1.138   1.624   5.224
  982SOL    HW2 3846   1.188   1.523   5.106
  983SOL     OW 3847   6.938   3.484   2.907
  983SOL    HW1 3848   6.969   3.396   2.944
  983SOL    HW2 3849   6.874   3.527   2.971
  984SOL     OW 3850   1.874   2.538   3.028
  984SOL    HW1 3851   1.917   2.590   3.101
  984SOL    HW2 3852   1.893   2.440   3.040
  985SOL     OW 3853   7.006   3.914   4.281
  985SOL    HW1 3854   6.953   3.931   4.199
  985SOL    HW2 3855   6.997   3.992   4.344
  986SOL     OW 3856   4.344   4.803   1.346
  986SOL    HW1 3857   4.319   4.707   1.359
  986SOL    HW2 3858   4.435   4.820   1.386
  987SOL     OW 3859   4.791   6.283   2.248
  987SOL    HW1 3860   4.796   6.278   2.347
  987SOL    HW2 3861   4.827   6.371   2.217
  988SOL     OW 3862   3.409   3.848   1.646
  988SOL    HW1 3863   3.483   3.820   1.585
  988SOL    HW2 3864   3.440   3.924   1.703
  989SOL     OW 3865   6.531   1.644   0.114
  989SOL    HW1 3866   6.616   1.681   0.077
  989SOL    HW2 3867   6.549   1.557   0.160
  990SOL     OW 3868   3.144   0.757   2.190
  990SOL    HW1 3869   3.183   0.733   2.278
  990SOL    HW2 3870   3.072   0.692   2.166
  991SOL     OW 3871   0.261   4.077   4.038
  991SOL    HW1 3872   0.325   4.138   3.992
  991SOL    HW2 3873   0.255   3.991   3.988
  992SOL     OW 3874   0.052   2.937   1.005
  992SOL    HW1 3875   6.983   2.922   0.974
  992SOL    HW2 3876   0.079   3.031   0.984
  993SOL     OW 3877   0.312   4.035   0.196
  993SOL    HW1 3878   0.308   4.033   0.296
  993SOL    HW2 3879   0.287   3.945   0.159
  994SOL     OW 3880   3.961   5.163   2.041
  994SOL    HW1 3881   3.899   5.094   2.004
  994SOL    HW2 3882   3.911   5.222   2.105
  995SOL     OW 3883   4.315   3.055   6.164
  995SOL    HW1 3884   4.269   3.026   6.248
  995SOL    HW2 3885   4.265   3.131   6.123
  996SOL     OW 3886   3.433   5.062   4.923
  996SOL    HW1 3887   3.460   5.023   4.835
  996SOL    HW2 3888   3.365   5.002   4.966
  997SOL     OW 3889   0.664   6.733   3.421
  997SOL    HW1 3890   0.724   6.658   3.394
  997SOL    HW2 3891   0.589   6.741   3.355
  998SOL     OW 3892   6.473   0.221   5.934
  998SOL    HW1 3893   6.439   0.135   5.974
  998SOL    HW2 3894   6.467   0.216   5.834
  999SOL     OW 3895   4.974   3.614   1.706
  999SOL    HW1 3896   5.051   3.572   1.658
  999SOL    HW2 3897   4.911   3.655   1.640
 1000SOL     OW 3898   4.263   1.757   1.435
 1000SOL    HW1 3899   4.315   1.835   1.470
 1000SOL    HW2 3900   4.180   1.790   1.391
 1001SOL     OW 3901   4.114   5.843   1.478
 1001SOL    HW1 3902   4.065   5.802   1.402
 1001SOL    HW2 3903   4.085   5.938   1.490
 1002SOL     OW 3904   5.546   2.391   1.438
 1002SOL    HW1 3905   5.592   2.309   1.470
 1002SOL    HW2 3906   5.530   2.385   1.340
 1003SOL     OW 3907   2.189   6.038   3.160
 1003SOL    HW1 3908   2.149   6.071   3.075
 1003SOL    HW2 3909   2.167   6.101   3.234
 1004SOL     OW 3910   0.157   0.760   2.421
 1004SOL    HW1 3911   0.170   0.858   2.430
 1004SOL    HW2 3912   0.061   0.741   2.399
 1005SOL     OW 3913   1.511   3.744   3.644
 1005SOL    HW1 3914   1.515   3.821   3.581
 1005SOL    HW2 3915   1.604   3.717   3.669
 1006SOL     OW 3916   1.334   3.715   0.064
 1006SOL    HW1 3917   1.261   3.666   0.017
 1006SOL    HW2 3918   1.419   3.663   0.058
 1007SOL     OW 3919   4.906   0.786   5.785
 1007SOL    HW1 3920   4.928   0.882   5.801
 1007SOL    HW2 3921   4.991   0.733   5.776
 1008SOL     OW 3922   6.989   2.952   5.202
 1008SOL    HW1 3923   0.060   2.932   5.226
 1008SOL    HW2 3924   6.985   2.987   5.109
 1009SOL     OW 3925   6.230   4.727   5.624
 1009SOL    HW1 3926   6.306   4.792   5.616
 1009SOL    HW2 3927   6.263   4.635   5.607
 1010SOL     OW 3928   2.963   2.636   1.296
 1010SOL    HW1 3929   3.032   2.568   1.272
 1010SOL    HW2 3930   2.912   2.662   1.214
 1011SOL     OW 3931   0.730   5.484   3.216
 1011SOL    HW1 3932   0.821   5.443   3.203
 1011SOL    HW2 3933   0.660   5.414   3.202
 1012SOL     OW 3934   0.011   6.489   2.227
 1012SOL    HW1 3935   0.014   6.389   2.229
 1012SOL    HW2 3936   0.103   6.526   2.235
 1013SOL     OW 3937   0.103   1.052   6.607
 1013SOL    HW1 3938   0.080   1.105   6.689
 1013SOL    HW2 3939   0.042   0.973   6.600
 1014SOL     OW 3940   0.143   3.831   4.952
 1014SOL    HW1 3941   0.224   3.797   4.999
 1014SOL    HW2 3942   0.164   3.848   4.856
 1015SOL     OW 3943   2.490   0.702   6.161
 1015SOL    HW1 3944   2.394   0.717   6.138
 1015SOL    HW2 3945   2.537   0.790   6.167
 1016SOL     OW 3946   4.603   5.030   1.014
 1016SOL    HW1 3947   4.634   5.102   1.076
 1016SOL    HW2 3948   4.512   4.999   1.041
 1017SOL     OW 3949   3.473   1.813   1.080
 1017SOL    HW1 3950   3.418   1.878   1.132
 1017SOL    HW2 3951   3.522   1.861   1.007
 1018SOL     OW 3952   0.787   4.585   4.075
 1018SOL    HW1 3953   0.759   4.495   4.042
 1018SOL    HW2 3954   0.886   4.588   4.086
 1019SOL     OW 3955   0.087   5.456   0.801
 1019SOL    HW1 3956   0.076   5.546   0.843
 1019SOL    HW2 3957   0.114   5.390   0.871
 1020SOL     OW 3958   6.151   1.252   1.322
 1020SOL    HW1 3959   6.121   1.193   1.397
 1020SOL    HW2 3960   6.137   1.348   1.348
 1021SOL     OW 3961   5.988   6.685   2.003
 1021SOL    HW1 3962   5.916   6.752   2.022
 1021SOL    HW2 3963   6.068   6.704   2.061
 1022SOL     OW 3964   2.934   5.004   5.593
 1022SOL    HW1 3965   2.991   5.032   5.670
 1022SOL    HW2 3966   2.975   4.924   5.549
 1023SOL     OW 3967   7.007   0.567   2.766
 1023SOL    HW1 3968   0.019   0.644   2.714
 1023SOL    HW2 3969   6.923   0.595   2.813
 1024SOL     OW 3970   0.693   1.786   4.123
 1024SOL    HW1 3971   0.694   1.721   4.199
 1024SOL    HW2 3972   0.670   1.738   4.038
 1025SOL     OW 3973   4.302   3.314   0.299
 1025SOL    HW1 3974   4.288   3.367   0.216
 1025SOL    HW2 3975   4.376   3.247   0.284
 1026SOL     OW 3976   2.864   2.824   1.608
 1026SOL    HW1 3977   2.907   2.791   1.524
 1026SOL    HW2 3978   2.934   2.835   1.679
 1027SOL     OW 3979   2.212   0.213   1.818
 1027SOL    HW1 3980   2.312   0.220   1.818
 1027SOL    HW2 3981   2.185   0.118   1.804
 1028SOL     OW 3982   1.401   6.922   3.034
 1028SOL    HW1 3983   1.357   6.959   2.952
 1028SOL    HW2 3984   1.341   6.938   3.113
 1029SOL     OW 3985   1.141   2.152   5.793
 1029SOL    HW1 3986   1.076   2.144   5.717
 1029SOL    HW2 3987   1.093   2.139   5.879
 1030SOL     OW 3988   3.209   3.126   1.763
 1030SOL    HW1 3989   3.289   3.078   1.727
 1030SOL    HW2 3990   3.135   3.121   1.696
 1031SOL     OW 3991   5.032   3.579   1.059
 1031SOL    HW1 3992   5.126   3.592   1.090
 1031SOL    HW2 3993   5.014   3.481   1.046
 1032SOL     OW 3994   2.266   1.712   5.697
 1032SOL    HW1 3995   2.298   1.806   5.691
 1032SOL    HW2 3996   2.251   1.687   5.792
 1033SOL     OW 3997   1.616   5.549   1.834
 1033SOL    HW1 3998   1.560   5.612   1.780
 1033SOL    HW2 3999   1.642   5.592   1.920
 1034SOL     OW 4000   1.330   5.855   4.144
 1034SOL    HW1 4001   1.274   5.899   4.074
 1034SOL    HW2 4002   1.271   5.797   4.201
 1035SOL     OW 4003   0.148   2.195   6.848
 1035SOL    HW1 4004   0.201   2.111   6.860
 1035SOL    HW2 4005   0.191   2.252   6.777
 1036SOL     OW 4006   4.088   1.177   1.707
 1036SOL    HW1 4007   4.112   1.080   1.696
 1036SOL    HW2 4008   4.028   1.204   1.631
 1037SOL     OW 4009   1.364   1.525   3.163
 1037SOL    HW1 4010   1.320   1.519   3.253
 1037SOL    HW2 4011   1.382   1.433   3.129
 1038SOL     OW 4012   1.684   1.196   5.577
 1038SOL    HW1 4013   1.703   1.283   5.532
 1038SOL    HW2 4014   1.585   1.182   5.583
 1039SOL     OW 4015   3.190   3.601   4.501
 1039SOL    HW1 4016   3.231   3.554   4.423
 1039SOL    HW2 4017   3.092   3.583   4.504
 1040SOL     OW 4018   5.030   1.021   2.092
 1040SOL    HW1 4019   4.948   1.077   2.106
 1040SOL    HW2 4020   5.074   1.048   2.006
 1041SOL     OW 4021   0.087   6.349   3.548
 1041SOL    HW1 4022   0.037   6.294   3.615
 1041SOL    HW2 4023   0.152   6.409   3.596
 1042SOL     OW 4024   4.766   5.398   2.894
 1042SOL    HW1 4025   4.676   5.380   2.933
 1042SOL    HW2 4026   4.780   5.338   2.814
 1043SOL     OW 4027   3.602   2.115   3.739
 1043SOL    HW1 4028   3.532   2.063   3.689
 1043SOL    HW2 4029   3.651   2.173   3.674
 1044SOL     OW 4030   5.870   5.429   1.947
 1044SOL    HW1 4031   5.966   5.456   1.941
 1044SOL    HW2 4032   5.856   5.373   2.029
 1045SOL     OW 4033   3.905   0.961   3.109
 1045SOL    HW1 4034   3.879   0.912   3.026
 1045SOL    HW2 4035   4.002   0.985   3.104
 1046SOL     OW 4036   1.879   1.815   6.781
 1046SOL    HW1 4037   1.792   1.864   6.791
 1046SOL    HW2 4038   1.938   1.836   6.858
 1047SOL     OW 4039   3.162   0.552   3.606
 1047SOL    HW1 4040   3.138   0.485   3.677
 1047SOL    HW2 4041   3.244   0.520   3.558
 1048SOL     OW 4042   2.979   5.426   2.101
 1048SOL    HW1 4043   3.045   5.430   2.176
 1048SOL    HW2 4044   2.996   5.343   2.047
 1049SOL     OW 4045   5.578   6.903   3.897
 1049SOL    HW1 4046   5.497   6.933   3.846
 1049SOL    HW2 4047   5.642   6.979   3.905
 1050SOL     OW 4048   3.805   5.649   2.285
 1050SOL    HW1 4049   3.836   5.608   2.370
 1050SOL    HW2 4050   3.869   5.722   2.258
 1051SOL     OW 4051   0.053   5.641   0.412
 1051SOL    HW1 4052   0.017   5.576   0.345
 1051SOL    HW2 4053   0.095   5.718   0.364
 1052SOL     OW 4054   4.819   0.816   5.540
 1052SOL    HW1 4055   4.845   0.806   5.636
 1052SOL    HW2 4056   4.781   0.730   5.507
 1053SOL     OW 4057   5.646   3.906   2.602
 1053SOL    HW1 4058   5.583   3.896   2.679
 1053SOL    HW2 4059   5.738   3.878   2.630
 1054SOL     OW 4060   2.687   3.414   0.813
 1054SOL    HW1 4061   2.750   3.424   0.890
 1054SOL    HW2 4062   2.596   3.392   0.846
 1055SOL     OW 4063   4.883   6.094   5.620
 1055SOL    HW1 4064   4.791   6.093   5.657
 1055SOL    HW2 4065   4.901   6.182   5.577
 1056SOL     OW 4066   1.193   3.519   6.921
 1056SOL    HW1 4067   1.268   3.481   6.977
 1056SOL    HW2 4068   1.224   3.529   6.827
 1057SOL     OW 4069   3.602   2.745   1.541
 1057SOL    HW1 4070   3.650   2.658   1.552
 1057SOL    HW2 4071   3.535   2.756   1.615
 1058SOL     OW 4072   4.865   2.673   3.996
 1058SOL    HW1 4073   4.880   2.762   3.954
 1058SOL    HW2 4074   4.904   2.601   3.938
 1059SOL     OW 4075   2.469   6.797   1.927
 1059SOL    HW1 4076   2.380   6.824   1.964
 1059SOL    HW2 4077   2.520   6.746   1.996
 1060SOL     OW 4078   0.498   4.707   4.475
 1060SOL    HW1 4079   0.443   4.743   4.400
 1060SOL    HW2 4080   0.513   4.779   4.543
 1061SOL     OW 4081   6.551   3.806   5.966
 1061SOL    HW1 4082   6.505   3.798   5.878
 1061SOL    HW2 4083   6.573   3.902   5.983
 1062SOL     OW 4084   4.467   5.626   5.527
 1062SOL    HW1 4085   4.530   5.673   5.589
 1062SOL    HW2 4086   4.450   5.684   5.447
 1063SOL     OW 4087   6.979   6.599   0.314
 1063SOL    HW1 4088   6.991   6.503   0.341
 1063SOL    HW2 4089   6.891   6.633   0.349
 1064SOL     OW 4090   1.542   4.278   1.613
 1064SOL    HW1 4091   1.557   4.226   1.697
 1064SOL    HW2 4092   1.455   4.250   1.571
 1065SOL     OW 4093   4.358   0.356   3.218
 1065SOL    HW1 4094   4.380   0.399   3.131
 1065SOL    HW2 4095   4.372   0.257   3.211
 1066SOL     OW 4096   4.714   6.823   2.574
 1066SOL    HW1 4097   4.713   6.903   2.513
 1066SOL    HW2 4098   4.640   6.761   2.548
 1067SOL     OW 4099   2.070   1.537   6.957
 1067SOL    HW1 4100   2.066   1.462   7.023
 1067SOL    HW2 4101   1.987   1.538   6.901
 1068SOL     OW 4102   6.428   3.944   1.565
 1068SOL    HW1 4103   6.386   3.941   1.656
 1068SOL    HW2 4104   6.482   4.027   1.556
 1069SOL     OW 4105   5.304   5.620   0.803
 1069SOL    HW1 4106   5.328   5.636   0.707
 1069SOL    HW2 4107   5.324   5.525   0.826
 1070SOL     OW 4108   1.761   6.923   2.396
 1070SOL    HW1 4109   1.825   6.923   2.472
 1070SOL    HW2 4110   1.775   7.005   2.341
 1071SOL     OW 4111   2.152   2.054   4.103
 1071SOL    HW1 4112   2.207   2.135   4.120
 1071SOL    HW2 4113   2.088   2.072   4.028
 1072SOL     OW 4114   2.686   1.042   1.070
 1072SOL    HW1 4115   2.724   1.134   1.053
 1072SOL    HW2 4116   2.694   1.020   1.167
 1073SOL     OW 4117   5.285   1.204   3.491
 1073SOL    HW1 4118   5.237   1.201   3.579
 1073SOL    HW2 4119   5.218   1.206   3.417
 1074SOL     OW 4120   2.529   5.157   1.853
 1074SOL    HW1 4121   2.594   5.130   1.924
 1074SOL    HW2 4122   2.560   5.242   1.810
 1075SOL     OW 4123   5.932   1.115   3.373
 1075SOL    HW1 4124   6.022   1.136   3.409
 1075SOL    HW2 4125   5.863   1.128   3.444
 1076SOL     OW 4126   0.504   2.436   5.612
 1076SOL    HW1 4127   0.493   2.500   5.536
 1076SOL    HW2 4128   0.568   2.364   5.587
 1077SOL     OW 4129   6.616   6.217   0.886
 1077SOL    HW1 4130   6.542   6.157   0.855
 1077SOL    HW2 4131   6.588   6.313   0.875
 1078SOL     OW 4132   6.202   0.892   2.923
 1078SOL    HW1 4133   6.136   0.823   2.953
 1078SOL    HW2 4134   6.249   0.929   3.003
 1079SOL     OW 4135   1.068   4.895   2.023
 1079SOL    HW1 4136   1.024   4.851   1.945
 1079SOL    HW2 4137   0.999   4.914   2.093
 1080SOL     OW 4138   2.664   5.736   3.657
 1080SOL    HW1 4139   2.752   5.714   3.700
 1080SOL    HW2 4140   2.598   5.758   3.728
 1081SOL     OW 4141   6.683   5.116   5.583
 1081SOL    HW1 4142   6.700   5.091   5.678
 1081SOL    HW2 4143   6.697   5.215   5.572
 1082SOL     OW 4144   5.721   1.947   6.147
 1082SOL    HW1 4145   5.776   1.934   6.065
 1082SOL    HW2 4146   5.776   1.994   6.216
 1083SOL     OW 4147   4.460   2.998   6.929
 1083SOL    HW1 4148   4.532   3.039   6.985
 1083SOL    HW2 4149   4.371   3.028   6.962
 1084SOL     OW 4150   6.729   6.841   6.278
 1084SOL    HW1 4151   6.659   6.807   6.341
 1084SOL    HW2 4152   6.686   6.891   6.203
 1085SOL     OW 4153   2.168   3.195   4.098
 1085SOL    HW1 4154   2.158   3.123   4.166
 1085SOL    HW2 4155   2.180   3.283   4.144
 1086SOL     OW 4156   0.122   5.199   0.031
 1086SOL    HW1 4157   0.028   5.191   0.066
 1086SOL    HW2 4158   0.185   5.214   0.107
 1087SOL     OW 4159   0.735   1.991   4.922
 1087SOL    HW1 4160   0.644   1.951   4.930
 1087SOL    HW2 4161   0.736   2.054   4.844
 1088SOL     OW 4162   0.667   4.532   3.391
 1088SOL    HW1 4163   0.742   4.467   3.405
 1088SOL    HW2 4164   0.593   4.512   3.454
 1089SOL     OW 4165   0.456   5.818   4.485
 1089SOL    HW1 4166   0.376   5.830   4.543
 1089SOL    HW2 4167   0.524   5.889   4.506
 1090SOL     OW 4168   3.981   1.942   2.802
 1090SOL    HW1 4169   4.064   1.888   2.795
 1090SOL    HW2 4170   3.997   2.033   2.762
 1091SOL     OW 4171   2.187   3.338   3.547
 1091SOL    HW1 4172   2.202   3.436   3.535
 1091SOL    HW2 4173   2.176   3.316   3.644
 1092SOL     OW 4174   1.032   5.364   0.555
 1092SOL    HW1 4175   1.006   5.410   0.640
 1092SOL    HW2 4176   0.980   5.279   0.546
 1093SOL     OW 4177   2.958   6.695   1.483
 1093SOL    HW1 4178   2.872   6.725   1.525
 1093SOL    HW2 4179   2.950   6.599   1.455
 1094SOL     OW 4180   0.701   6.694   2.708
 1094SOL    HW1 4181   0.767   6.628   2.742
 1094SOL    HW2 4182   0.719   6.783   2.749
 1095SOL     OW 4183   0.055   2.985   6.690
 1095SOL    HW1 4184   0.101   3.057   6.742
 1095SOL    HW2 4185   0.120   2.940   6.630
 1096SOL     OW 4186   3.630   4.348   1.147
 1096SOL    HW1 4187   3.691   4.420   1.114
 1096SOL    HW2 4188   3.610   4.285   1.073
 1097SOL     OW 4189   1.725   4.660   3.083
 1097SOL    HW1 4190   1.798   4.647   3.150
 1097SOL    HW2 4191   1.671   4.576   3.076
 1098SOL     OW 4192   5.894   3.545   6.310
 1098SOL    HW1 4193   5.981   3.583   6.279
 1098SOL    HW2 4194   5.907   3.498   6.397
 1099SOL     OW 4195   4.501   0.708   6.324
 1099SOL    HW1 4196   4.579   0.734   6.381
 1099SOL    HW2 4197   4.462   0.623   6.358
 1100SOL     OW 4198   4.212   1.244   4.896
 1100SOL    HW1 4199   4.248   1.153   4.917
 1100SOL    HW2 4200   4.288   1.307   4.880
 1101SOL     OW 4201   5.382   3.512   5.602
 1101SOL    HW1 4202   5.386   3.602   5.645
 1101SOL    HW2 4203   5.312   3.512   5.531
 1102SOL     OW 4204   2.172   1.204   4.679
 1102SOL    HW1 4205   2.227   1.160   4.609
 1102SOL    HW2 4206   2.084   1.157   4.687
 1103SOL     OW 4207   2.767   2.053   0.176
 1103SOL    HW1 4208   2.740   1.988   0.105
 1103SOL    HW2 4209   2.845   2.017   0.227
 1104SOL     OW 4210   1.538   3.977   3.514
 1104SOL    HW1 4211   1.587   4.004   3.597
 1104SOL    HW2 4212   1.593   4.001   3.433
 1105SOL     OW 4213   5.211   2.926   4.393
 1105SOL    HW1 4214   5.208   2.996   4.464
 1105SOL    HW2 4215   5.239   2.968   4.306
 1106SOL     OW 4216   0.806   1.845   1.718
 1106SOL    HW1 4217   0.865   1.779   1.671
 1106SOL    HW2 4218   0.747   1.890   1.652
 1107SOL     OW 4219   1.170   0.293   7.000
 1107SOL    HW1 4220   1.232   0.215   6.995
 1107SOL    HW2 4221   1.214   0.368   0.025
 1108SOL     OW 4222   3.480   6.471   5.326
 1108SOL    HW1 4223   3.546   6.454   5.253
 1108SOL    HW2 4224   3.401   6.520   5.289
 1109SOL     OW 4225   5.836   1.005   4.083
 1109SOL    HW1 4226   5.769   0.965   4.146
 1109SOL    HW2 4227   5.859   1.098   4.114
 1110SOL     OW 4228   3.926   1.511   3.312
 1110SOL    HW1 4229   3.860   1.544   3.380
 1110SOL    HW2 4230   3.894   1.425   3.274
 1111SOL     OW 4231   5.772   5.123   6.496
 1111SOL    HW1 4232   5.803   5.031   6.521
 1111SOL    HW2 4233   5.683   5.141   6.538
 1112SOL     OW 4234   6.390   0.579   3.344
 1112SOL    HW1 4235   6.396   0.674   3.375
 1112SOL    HW2 4236   6.472   0.530   3.374
 1113SOL     OW 4237   6.254   4.230   1.425
 1113SOL    HW1 4238   6.193   4.164   1.381
 1113SOL    HW2 4239   6.261   4.209   1.523
 1114SOL     OW 4240   3.062   2.105   6.378
 1114SOL    HW1 4241   3.034   2.174   6.312
 1114SOL    HW2 4242   2.980   2.063   6.418
 1115SOL     OW 4243   4.093   3.641   5.390
 1115SOL    HW1 4244   3.999   3.671   5.373
 1115SOL    HW2 4245   4.143   3.712   5.439
 1116SOL     OW 4246   5.722   0.117   0.049
 1116SOL    HW1 4247   5.670   0.178   7.014
 1116SOL    HW2 4248   5.663   0.082   0.121
 1117SOL     OW 4249   1.216   1.826   1.869
 1117SOL    HW1 4250   1.221   1.744   1.925
 1117SOL    HW2 4251   1.230   1.802   1.773
 1118SOL     OW 4252   2.714   5.180   0.119
 1118SOL    HW1 4253   2.618   5.153   0.118
 1118SOL    HW2 4254   2.771   5.099   0.134
 1119SOL     OW 4255   4.250   4.250   1.393
 1119SOL    HW1 4256   4.300   4.242   1.307
 1119SOL    HW2 4257   4.286   4.183   1.459
 1120SOL     OW 4258   6.615   5.558   1.228
 1120SOL    HW1 4259   6.551   5.493   1.187
 1120SOL    HW2 4260   6.708   5.523   1.220
 1121SOL     OW 4261   0.157   4.672   4.705
 1121SOL    HW1 4262   0.127   4.599   4.643
 1121SOL    HW2 4263   0.198   4.745   4.651
 1122SOL     OW 4264   5.904   3.017   2.081
 1122SOL    HW1 4265   5.835   3.041   2.150
 1122SOL    HW2 4266   5.891   2.921   2.055
 1123SOL     OW 4267   5.182   2.411   3.853
 1123SOL    HW1 4268   5.102   2.471   3.857
 1123SOL    HW2 4269   5.245   2.445   3.783
 1124SOL     OW 4270   0.029   4.772   5.873
 1124SOL    HW1 4271   6.981   4.718   5.831
 1124SOL    HW2 4272   0.073   4.719   5.945
 1125SOL     OW 4273   1.905   2.224   3.639
 1125SOL    HW1 4274   1.909   2.324   3.640
 1125SOL    HW2 4275   1.903   2.191   3.545
 1126SOL     OW 4276   5.975   6.055   5.626
 1126SOL    HW1 4277   6.056   6.008   5.590
 1126SOL    HW2 4278   5.969   6.146   5.585
 1127SOL     OW 4279   5.681   6.211   4.469
 1127SOL    HW1 4280   5.593   6.168   4.488
 1127SOL    HW2 4281   5.702   6.203   4.372
 1128SOL     OW 4282   6.144   1.582   4.796
 1128SOL    HW1 4283   6.205   1.636   4.738
 1128SOL    HW2 4284   6.195   1.546   4.874
 1129SOL     OW 4285   2.240   6.581   0.607
 1129SOL    HW1 4286   2.171   6.558   0.538
 1129SOL    HW2 4287   2.210   6.549   0.697
 1130SOL     OW 4288   2.053   4.693   1.215
 1130SOL    HW1 4289   1.986   4.767   1.212
 1130SOL    HW2 4290   2.041   4.634   1.135
 1131SOL     OW 4291   2.091   0.508   5.295
 1131SOL    HW1 4292   2.026   0.547   5.360
 1131SOL    HW2 4293   2.133   0.427   5.336
 1132SOL     OW 4294   4.104   0.270   3.356
 1132SOL    HW1 4295   4.110   0.235   3.449
 1132SOL    HW2 4296   4.194   0.263   3.312
 1133SOL     OW 4297   1.000   0.488   6.870
 1133SOL    HW1 4298   0.918   0.479   6.928
 1133SOL    HW2 4299   1.070   0.424   6.902
 1134SOL     OW 4300   5.230   0.060   3.089
 1134SOL    HW1 4301   5.252   0.121   3.013
 1134SOL    HW2 4302   5.157   0.101   3.144
 1135SOL     OW 4303   2.515   6.470   3.589
 1135SOL    HW1 4304   2.458   6.549   3.568
 1135SOL    HW2 4305   2.481   6.390   3.539
 1136SOL     OW 4306   4.085   4.727   2.601
 1136SOL    HW1 4307   4.034   4.673   2.667
 1136SOL    HW2 4308   4.112   4.814   2.642
 1137SOL     OW 4309   0.986   6.232   0.231
 1137SOL    HW1 4310   0.971   6.305   0.164
 1137SOL    HW2 4311   1.083   6.229   0.256
 1138SOL     OW 4312   0.399   1.636   5.166
 1138SOL    HW1 4313   0.488   1.677   5.189
 1138SOL    HW2 4314   0.340   1.639   5.246
 1139SOL     OW 4315   2.814   4.806   3.725
 1139SOL    HW1 4316   2.796   4.877   3.793
 1139SOL    HW2 4317   2.800   4.844   3.633
 1140SOL     OW 4318   2.923   0.212   2.342
 1140SOL    HW1 4319   2.958   0.292   2.292
 1140SOL    HW2 4320   2.999   0.165   2.386
 1141SOL     OW 4321   6.952   6.202   0.060
 1141SOL    HW1 4322   6.913   6.205   6.994
 1141SOL    HW2 4323   6.999   6.289   0.079
 1142SOL     OW 4324   3.307   0.589   4.182
 1142SOL    HW1 4325   3.352   0.633   4.104
 1142SOL    HW2 4326   3.375   0.572   4.254
 1143SOL     OW 4327   1.919   3.130   2.669
 1143SOL    HW1 4328   2.002   3.170   2.707
 1143SOL    HW2 4329   1.873   3.196   2.611
 1144SOL     OW 4330   5.975   4.183   3.781
 1144SOL    HW1 4331   5.976   4.258   3.847
 1144SOL    HW2 4332   6.011   4.100   3.824
 1145SOL     OW 4333   1.067   2.681   0.751
 1145SOL    HW1 4334   1.073   2.720   0.843
 1145SOL    HW2 4335   1.159   2.674   0.711
 1146SOL     OW 4336   0.953   1.920   1.932
 1146SOL    HW1 4337   1.040   1.879   1.902
 1146SOL    HW2 4338   0.884   1.906   1.861
 1147SOL     OW 4339   3.140   6.260   0.895
 1147SOL    HW1 4340   3.064   6.315   0.861
 1147SOL    HW2 4341   3.179   6.207   0.820
 1148SOL     OW 4342   4.392   6.123   1.018
 1148SOL    HW1 4343   4.352   6.194   1.077
 1148SOL    HW2 4344   4.434   6.053   1.075
 1149SOL     OW 4345   5.274   2.713   2.382
 1149SOL    HW1 4346   5.236   2.647   2.317
 1149SOL    HW2 4347   5.283   2.671   2.472
 1150SOL     OW 4348   0.569   3.875   0.243
 1150SOL    HW1 4349   0.495   3.929   0.283
 1150SOL    HW2 4350   0.538   3.833   0.158
 1151SOL     OW 4351   5.449   4.925   4.750
 1151SOL    HW1 4352   5.470   4.963   4.660
 1151SOL    HW2 4353   5.350   4.910   4.758
 1152SOL     OW 4354   5.365   6.674   6.508
 1152SOL    HW1 4355   5.401   6.688   6.416
 1152SOL    HW2 4356   5.307   6.751   6.533
 1153SOL     OW 4357   6.607   0.148   1.744
 1153SOL    HW1 4358   6.681   0.155   1.811
 1153SOL    HW2 4359   6.645   0.160   1.652
 1154SOL     OW 4360   0.625   4.219   0.440
 1154SOL    HW1 4361   0.691   4.291   0.460
 1154SOL    HW2 4362   0.590   4.229   0.347
 1155SOL     OW 4363   3.083   4.994   5.816
 1155SOL    HW1 4364   3.078   4.921   5.885
 1155SOL    HW2 4365   3.163   5.051   5.835
 1156SOL     OW 4366   4.688   2.356   5.145
 1156SOL    HW1 4367   4.668   2.452   5.166
 1156SOL    HW2 4368   4.787   2.342   5.142
 1157SOL     OW 4369   5.106   1.132   5.995
 1157SOL    HW1 4370   5.073   1.081   5.917
 1157SOL    HW2 4371   5.049   1.113   6.075
 1158SOL     OW 4372   6.468   5.561   4.794
 1158SOL    HW1 4373   6.540   5.503   4.833
 1158SOL    HW2 4374   6.505   5.650   4.769
 1159SOL     OW 4375   6.095   6.941   3.378
 1159SOL    HW1 4376   6.175   6.910   3.326
 1159SOL    HW2 4377   6.022   6.873   3.369
 1160SOL     OW 4378   4.146   5.276   1.563
 1160SOL    HW1 4379   4.191   5.343   1.622
 1160SOL    HW2 4380   4.090   5.215   1.619
 1161SOL     OW 4381   0.495   5.825   6.550
 1161SOL    HW1 4382   0.591   5.831   6.577
 1161SOL    HW2 4383   0.481   5.880   6.467
 1162SOL     OW 4384   2.530   2.682   5.798
 1162SOL    HW1 4385   2.600   2.744   5.833
 1162SOL    HW2 4386   2.566   2.590   5.792
 1163SOL     OW 4387   5.918   4.593   2.061
 1163SOL    HW1 4388   5.972   4.578   1.978
 1163SOL    HW2 4389   5.831   4.636   2.037
 1164SOL     OW 4390   5.097   2.118   4.974
 1164SOL    HW1 4391   5.081   2.043   5.037
 1164SOL    HW2 4392   5.057   2.202   5.011
 1165SOL     OW 4393   4.150   5.923   3.248
 1165SOL    HW1 4394   4.064   5.970   3.266
 1165SOL    HW2 4395   4.155   5.840   3.304
 1166SOL     OW 4396   2.771   5.755   0.146
 1166SOL    HW1 4397   2.775   5.818   0.068
 1166SOL    HW2 4398   2.685   5.768   0.194
 1167SOL     OW 4399   4.935   5.405   0.739
 1167SOL    HW1 4400   4.991   5.329   0.771
 1167SOL    HW2 4401   4.907   5.461   0.817
 1168SOL     OW 4402   6.030   2.341   1.310
 1168SOL    HW1 4403   5.986   2.388   1.387
 1168SOL    HW2 4404   6.114   2.297   1.342
 1169SOL     OW 4405   4.251   1.655   5.709
 1169SOL    HW1 4406   4.231   1.557   5.707
 1169SOL    HW2 4407   4.168   1.706   5.690
 1170SOL     OW 4408   5.585   0.472   3.544
 1170SOL    HW1 4409   5.673   0.498   3.585
 1170SOL    HW2 4410   5.564   0.533   3.468
 1171SOL     OW 4411   2.864   6.904   0.004
 1171SOL    HW1 4412   2.911   6.894   0.092
 1171SOL    HW2 4413   2.919   6.962   6.968
 1172SOL     OW 4414   5.631   4.224   0.563
 1172SOL    HW1 4415   5.716   4.195   0.519
 1172SOL    HW2 4416   5.592   4.148   0.615
 1173SOL     OW 4417   3.120   1.550   0.840
 1173SOL    HW1 4418   3.075   1.548   0.750
 1173SOL    HW2 4419   3.217   1.533   0.829
 1174SOL     OW 4420   3.716   3.975   2.046
 1174SOL    HW1 4421   3.800   3.939   2.005
 1174SOL    HW2 4422   3.691   3.921   2.125
 1175SOL     OW 4423   4.986   3.421   6.488
 1175SOL    HW1 4424   4.894   3.384   6.491
 1175SOL    HW2 4425   4.989   3.500   6.427
 1176SOL     OW 4426   5.150   3.397   0.236
 1176SOL    HW1 4427   5.079   3.349   0.185
 1176SOL    HW2 4428   5.132   3.496   0.233
 1177SOL     OW 4429   6.639   3.882   4.927
 1177SOL    HW1 4430   6.714   3.836   4.974
 1177SOL    HW2 4431   6.562   3.819   4.915
 1178SOL     OW 4432   2.904   4.195   0.306
 1178SOL    HW1 4433   2.960   4.145   0.240
 1178SOL    HW2 4434   2.858   4.270   0.259
 1179SOL     OW 4435   2.013   6.058   0.495
 1179SOL    HW1 4436   2.029   5.961   0.475
 1179SOL    HW2 4437   1.932   6.068   0.553
 1180SOL     OW 4438   2.765   6.738   3.900
 1180SOL    HW1 4439   2.738   6.647   3.871
 1180SOL    HW2 4440   2.752   6.803   3.825
 1181SOL     OW 4441   0.560   5.488   5.245
 1181SOL    HW1 4442   0.485   5.438   5.289
 1181SOL    HW2 4443   0.547   5.586   5.260
 1182SOL     OW 4444   4.315   5.120   3.486
 1182SOL    HW1 4445   4.330   5.210   3.527
 1182SOL    HW2 4446   4.322   5.050   3.557
 1183SOL     OW 4447   2.229   3.979   0.014
 1183SOL    HW1 4448   2.252   3.890   0.052
 1183SOL    HW2 4449   2.267   3.987   6.946
 1184SOL     OW 4450   7.012   0.823   4.430
 1184SOL    HW1 4451   0.004   0.795   4.525
 1184SOL    HW2 4452   0.031   0.758   4.368
 1185SOL     OW 4453   0.773   0.673   1.135
 1185SOL    HW1 4454   0.754   0.641   1.042
 1185SOL    HW2 4455   0.724   0.615   1.200
 1186SOL     OW 4456   5.691   6.348   5.885
 1186SOL    HW1 4457   5.755   6.390   5.948
 1186SOL    HW2 4458   5.616   6.411   5.865
 1187SOL     OW 4459   5.816   0.161   6.653
 1187SOL    HW1 4460   5.820   0.092   6.725
 1187SOL    HW2 4461   5.758   0.127   6.578
 1188SOL     OW 4462   3.609   5.626   5.989
 1188SOL    HW1 4463   3.547   5.570   5.935
 1188SOL    HW2 4464   3.692   5.573   6.010
 1189SOL     OW 4465   6.228   2.409   1.521
 1189SOL    HW1 4466   6.285   2.342   1.475
 1189SOL    HW2 4467   6.232   2.496   1.472
 1190SOL     OW 4468   3.276   5.198   3.392
 1190SOL    HW1 4469   3.223   5.242   3.464
 1190SOL    HW2 4470   3.317   5.268   3.333
 1191SOL     OW 4471   4.448   5.476   4.125
 1191SOL    HW1 4472   4.365   5.422   4.113
 1191SOL    HW2 4473   4.450   5.550   4.058
 1192SOL     OW 4474   4.677   5.149   2.086
 1192SOL    HW1 4475   4.735   5.152   2.167
 1192SOL    HW2 4476   4.604   5.216   2.095
 1193SOL     OW 4477   6.240   2.403   5.236
 1193SOL    HW1 4478   6.224   2.499   5.259
 1193SOL    HW2 4479   6.153   2.360   5.213
 1194SOL     OW 4480   5.956   0.128   1.848
 1194SOL    HW1 4481   5.984   0.217   1.884
 1194SOL    HW2 4482   6.033   0.065   1.851
 1195SOL     OW 4483   6.928   4.128   0.696
 1195SOL    HW1 4484   6.983   4.048   0.718
 1195SOL    HW2 4485   6.916   4.184   0.777
 1196SOL     OW 4486   0.104   5.707   2.831
 1196SOL    HW1 4487   0.189   5.668   2.796
 1196SOL    HW2 4488   0.030   5.639   2.825
 1197SOL     OW 4489   4.562   0.165   4.994
 1197SOL    HW1 4490   4.541   0.204   4.904
 1197SOL    HW2 4491   4.539   0.068   4.994
 1198SOL     OW 4492   1.368   3.012   2.431
 1198SOL    HW1 4493   1.348   2.918   2.458
 1198SOL    HW2 4494   1.296   3.044   2.369
 1199SOL     OW 4495   3.642   3.799   1.518
 1199SOL    HW1 4496   3.659   3.897   1.518
 1199SOL    HW2 4497   3.714   3.752   1.570
 1200SOL     OW 4498   3.586   3.860   4.410
 1200SOL    HW1 4499   3.501   3.827   4.452
 1200SOL    HW2 4500   3.628   3.929   4.469
 1201SOL     OW 4501   1.263   0.774   4.514
 1201SOL    HW1 4502   1.282   0.817   4.426
 1201SOL    HW2 4503   1.211   0.838   4.572
 1202SOL     OW 4504   0.329   5.468   5.629
 1202SOL    HW1 4505   0.355   5.431   5.718
 1202SOL    HW2 4506   0.308   5.566   5.638
 1203SOL     OW 4507   6.758   6.530   6.787
 1203SOL    HW1 4508   6.826   6.573   6.728
 1203SOL    HW2 4509   6.688   6.597   6.810
 1204SOL     OW 4510   3.968   0.076   1.446
 1204SOL    HW1 4511   4.040   0.015   1.477
 1204SOL    HW2 4512   4.005   0.139   1.377
 1205SOL     OW 4513   4.687   3.614   0.798
 1205SOL    HW1 4514   4.637   3.647   0.718
 1205SOL    HW2 4515   4.701   3.689   0.863
 1206SOL     OW 4516   2.614   3.003   5.618
 1206SOL    HW1 4517   2.691   3.065   5.605
 1206SOL    HW2 4518   2.528   3.055   5.617
 1207SOL     OW 4519   2.204   6.494   0.874
 1207SOL    HW1 4520   2.208   6.594   0.879
 1207SOL    HW2 4521   2.287   6.455   0.914
 1208SOL     OW 4522   3.368   3.616   1.071
 1208SOL    HW1 4523   3.347   3.520   1.092
 1208SOL    HW2 4524   3.411   3.659   1.150
 1209SOL     OW 4525   4.418   1.076   4.951
 1209SOL    HW1 4526   4.415   0.986   4.908
 1209SOL    HW2 4527   4.440   1.145   4.882
 1210SOL     OW 4528   2.701   0.877   3.286
 1210SOL    HW1 4529   2.706   0.856   3.188
 1210SOL    HW2 4530   2.765   0.951   3.307
 1211SOL     OW 4531   0.407   3.859   2.084
 1211SOL    HW1 4532   0.407   3.759   2.090
 1211SOL    HW2 4533   0.337   3.888   2.019
 1212SOL     OW 4534   6.098   0.201   0.515
 1212SOL    HW1 4535   6.143   0.140   0.580
 1212SOL    HW2 4536   6.167   0.245   0.457
 1213SOL     OW 4537   6.403   2.329   0.737
 1213SOL    HW1 4538   6.422   2.309   0.833
 1213SOL    HW2 4539   6.316   2.289   0.711
 1214SOL     OW 4540   0.848   2.732   6.665
 1214SOL    HW1 4541   0.913   2.805   6.686
 1214SOL    HW2 4542   0.878   2.647   6.708
 1215SOL     OW 4543   0.593   4.686   3.178
 1215SOL    HW1 4544   0.610   4.627   3.257
 1215SOL    HW2 4545   0.668   4.677   3.113
 1216SOL     OW 4546   4.944   0.480   1.022
 1216SOL    HW1 4547   5.025   0.483   1.080
 1216SOL    HW2 4548   4.903   0.572   1.018
 1217SOL     OW 4549   2.312   4.572   0.500
 1217SOL    HW1 4550   2.371   4.540   0.574
 1217SOL    HW2 4551   2.290   4.669   0.514
 1218SOL     OW 4552   2.343   4.518   4.621
 1218SOL    HW1 4553   2.323   4.499   4.525
 1218SOL    HW2 4554   2.424   4.576   4.628
 1219SOL     OW 4555   5.430   6.252   1.405
 1219SOL    HW1 4556   5.494   6.296   1.343
 1219SOL    HW2 4557   5.342   6.299   1.402
 1220SOL     OW 4558   0.958   4.462   3.173
 1220SOL    HW1 4559   0.892   4.502   3.110
 1220SOL    HW2 4560   0.928   4.371   3.200
 1221SOL     OW 4561   5.751   3.777   6.322
 1221SOL    HW1 4562   5.799   3.690   6.315
 1221SOL    HW2 4563   5.777   3.836   6.246
 1222SOL     OW 4564   6.396   0.490   6.619
 1222SOL    HW1 4565   6.325   0.453   6.559
 1222SOL    HW2 4566   6.455   0.416   6.651
 1223SOL     OW 4567   3.936   1.007   0.536
 1223SOL    HW1 4568   3.911   0.912   0.552
 1223SOL    HW2 4569   4.033   1.013   0.514
 1224SOL     OW 4570   3.743   4.908   0.178
 1224SOL    HW1 4571   3.731   4.999   0.218
 1224SOL    HW2 4572   3.785   4.917   0.088
 1225SOL     OW 4573   3.307   3.459   6.295
 1225SOL    HW1 4574   3.337   3.478   6.388
 1225SOL    HW2 4575   3.222   3.407   6.297
 1226SOL     OW 4576   2.640   5.168   1.298
 1226SOL    HW1 4577   2.580   5.095   1.332
 1226SOL    HW2 4578   2.585   5.248   1.276
 1227SOL     OW 4579   6.923   3.816   6.693
 1227SOL    HW1 4580   6.974   3.772   6.620
 1227SOL    HW2 4581   6.827   3.788   6.689
 1228SOL     OW 4582   3.675   2.085   6.324
 1228SOL    HW1 4583   3.757   2.085   6.382
 1228SOL    HW2 4584   3.673   2.169   6.271
 1229SOL     OW 4585   3.802   5.220   5.711
 1229SOL    HW1 4586   3.893   5.197   5.675
 1229SOL    HW2 4587   3.803   5.216   5.811
 1230SOL     OW 4588   4.666   0.016   2.922
 1230SOL    HW1 4589   4.758   7.009   2.899
 1230SOL    HW2 4590   4.666   0.116   2.928
 1231SOL     OW 4591   1.833   3.089   4.547
 1231SOL    HW1 4592   1.784   3.176   4.541
 1231SOL    HW2 4593   1.804   3.039   4.629
 1232SOL     OW 4594   0.937   2.014   5.184
 1232SOL    HW1 4595   0.920   1.972   5.095
 1232SOL    HW2 4596   1.002   2.089   5.173
 1233SOL     OW 4597   1.226   3.868   4.571
 1233SOL    HW1 4598   1.127   3.854   4.580
 1233SOL    HW2 4599   1.271   3.840   4.656
 1234SOL     OW 4600   6.671   4.115   4.762
 1234SOL    HW1 4601   6.685   4.078   4.670
 1234SOL    HW2 4602   6.668   4.039   4.828
 1235SOL     OW 4603   6.810   6.121   2.435
 1235SOL    HW1 4604   6.901   6.127   2.477
 1235SOL    HW2 4605   6.818   6.080   2.344
 1236SOL     OW 4606   5.031   1.276   0.914
 1236SOL    HW1 4607   4.948   1.254   0.863
 1236SOL    HW2 4608   5.088   1.195   0.922
 1237SOL     OW 4609   1.654   4.684   5.658
 1237SOL    HW1 4610   1.600   4.613   5.702
 1237SOL    HW2 4611   1.613   4.708   5.570
 1238SOL     OW 4612   2.813   0.435   0.263
 1238SOL    HW1 4613   2.745   0.414   0.192
 1238SOL    HW2 4614   2.857   0.522   0.242
 1239SOL     OW 4615   6.987   7.023   6.245
 1239SOL    HW1 4616   7.006   7.022   6.343
 1239SOL    HW2 4617   6.906   0.053   6.227
 1240SOL     OW 4618   5.297   6.111   1.899
 1240SOL    HW1 4619   5.286   6.024   1.851
 1240SOL    HW2 4620   5.343   6.177   1.840
 1241SOL     OW 4621   6.344   3.986   4.036
 1241SOL    HW1 4622   6.354   4.040   4.119
 1241SOL    HW2 4623   6.381   3.894   4.051
 1242SOL     OW 4624   6.401   3.132   1.449
 1242SOL    HW1 4625   6.353   3.216   1.425
 1242SOL    HW2 4626   6.357   3.055   1.403
 1243SOL     OW 4627   6.708   6.678   5.374
 1243SOL    HW1 4628   6.776   6.720   5.434
 1243SOL    HW2 4629   6.735   6.692   5.279
 1244SOL     OW 4630   6.816   6.887   4.432
 1244SOL    HW1 4631   6.728   6.916   4.394
 1244SOL    HW2 4632   6.881   6.872   4.358
 1245SOL     OW 4633   4.542   4.456   6.791
 1245SOL    HW1 4634   4.527   4.542   6.840
 1245SOL    HW2 4635   4.457   4.430   6.745
 1246SOL     OW 4636   2.523   6.368   1.379
 1246SOL    HW1 4637   2.618   6.353   1.353
 1246SOL    HW2 4638   2.519   6.421   1.464
 1247SOL     OW 4639   1.978   0.927   6.379
 1247SOL    HW1 4640   1.882   0.926   6.349
 1247SOL    HW2 4641   2.030   0.862   6.324
 1248SOL     OW 4642   2.381   0.202   4.539
 1248SOL    HW1 4643   2.411   0.289   4.579
 1248SOL    HW2 4644   2.303   0.167   4.591
 1249SOL     OW 4645   5.309   2.503   2.198
 1249SOL    HW1 4646   5.227   2.446   2.202
 1249SOL    HW2 4647   5.362   2.491   2.282
 1250SOL     OW 4648   6.381   5.206   4.848
 1250SOL    HW1 4649   6.328   5.122   4.861
 1250SOL    HW2 4650   6.477   5.183   4.832
 1251SOL     OW 4651   3.232   0.194   4.099
 1251SOL    HW1 4652   3.227   0.139   4.016
 1251SOL    HW2 4653   3.198   0.286   4.080
 1252SOL     OW 4654   3.791   3.475   5.281
 1252SOL    HW1 4655   3.812   3.568   5.313
 1252SOL    HW2 4656   3.702   3.475   5.236
 1253SOL     OW 4657   3.334   4.927   1.905
 1253SOL    HW1 4658   3.411   4.872   1.937
 1253SOL    HW2 4659   3.258   4.919   1.969
 1254SOL     OW 4660   0.036   2.782   2.762
 1254SOL    HW1 4661   0.128   2.822   2.760
 1254SOL    HW2 4662   0.032   2.713   2.834
 1255SOL     OW 4663   6.595   1.753   4.738
 1255SOL    HW1 4664   6.609   1.809   4.656
 1255SOL    HW2 4665   6.650   1.790   4.813
 1256SOL     OW 4666   6.656   6.288   3.412
 1256SOL    HW1 4667   6.562   6.322   3.399
 1256SOL    HW2 4668   6.673   6.276   3.510
 1257SOL     OW 4669   0.067   6.848   4.512
 1257SOL    HW1 4670   0.140   6.785   4.536
 1257SOL    HW2 4671   7.004   6.802   4.522
 1258SOL     OW 4672   1.542   5.155   3.598
 1258SOL    HW1 4673   1.537   5.055   3.604
 1258SOL    HW2 4674   1.638   5.183   3.596
 1259SOL     OW 4675   3.524   0.969   4.091
 1259SOL    HW1 4676   3.529   1.061   4.129
 1259SOL    HW2 4677   3.615   0.928   4.089
 1260SOL     OW 4678   1.412   1.489   6.636
 1260SOL    HW1 4679   1.328   1.435   6.646
 1260SOL    HW2 4680   1.491   1.428   6.641
 1261SOL     OW 4681   0.182   5.510   6.700
 1261SOL    HW1 4682   0.269   5.557   6.715
 1261SOL    HW2 4683   0.156   5.517   6.604
 1262SOL     OW 4684   4.758   5.111   1.382
 1262SOL    HW1 4685   4.841   5.080   1.335
 1262SOL    HW2 4686   4.724   5.039   1.442
 1263SOL     OW 4687   0.647   1.110   2.696
 1263SOL    HW1 4688   0.681   1.170   2.624
 1263SOL    HW2 4689   0.548   1.123   2.707
 1264SOL     OW 4690   0.127   4.515   6.069
 1264SOL    HW1 4691   0.146   4.497   6.166
 1264SOL    HW2 4692   0.210   4.549   6.024
 1265SOL     OW 4693   5.916   5.465   4.513
 1265SOL    HW1 4694   6.002   5.419   4.491
 1265SOL    HW2 4695   5.867   5.412   4.582
 1266SOL     OW 4696   0.525   0.911   4.654
 1266SOL    HW1 4697   0.456   0.840   4.666
 1266SOL    HW2 4698   0.613   0.878   4.689
 1267SOL     OW 4699   5.196   1.330   1.492
 1267SOL    HW1 4700   5.234   1.412   1.534
 1267SOL    HW2 4701   5.097   1.329   1.504
 1268SOL     OW 4702   2.989   3.097   0.037
 1268SOL    HW1 4703   2.920   3.062   6.998
 1268SOL    HW2 4704   3.024   3.022   0.092
 1269SOL     OW 4705   5.730   3.165   3.732
 1269SOL    HW1 4706   5.787   3.114   3.796
 1269SOL    HW2 4707   5.774   3.253   3.712
 1270SOL     OW 4708   2.175   4.775   2.795
 1270SOL    HW1 4709   2.233   4.709   2.746
 1270SOL    HW2 4710   2.099   4.726   2.839
 1271SOL     OW 4711   3.393   1.307   1.783
 1271SOL    HW1 4712   3.325   1.277   1.851
 1271SOL    HW2 4713   3.439   1.228   1.745
 1272SOL     OW 4714   6.024   4.714   6.799
 1272SOL    HW1 4715   5.945   4.657   6.777
 1272SOL    HW2 4716   5.994   4.795   6.848
 1273SOL     OW 4717   1.254   3.991   5.699
 1273SOL    HW1 4718   1.170   4.045   5.701
 1273SOL    HW2 4719   1.298   4.000   5.610
 1274SOL     OW 4720   0.199   4.311   0.399
 1274SOL    HW1 4721   0.252   4.228   0.381
 1274SOL    HW2 4722   0.242   4.364   0.473
 1275SOL     OW 4723   3.639   1.131   3.542
 1275SOL    HW1 4724   3.621   1.036   3.518
 1275SOL    HW2 4725   3.556   1.171   3.583
 1276SOL     OW 4726   5.260   5.416   4.933
 1276SOL    HW1 4727   5.355   5.447   4.939
 1276SOL    HW2 4728   5.206   5.485   4.883
 1277SOL     OW 4729   1.991   5.305   6.257
 1277SOL    HW1 4730   1.908   5.252   6.278
 1277SOL    HW2 4731   2.055   5.247   6.207
 1278SOL     OW 4732   1.742   0.219   4.539
 1278SOL    HW1 4733   1.680   0.149   4.503
 1278SOL    HW2 4734   1.690   0.281   4.599
 1279SOL     OW 4735   2.148   4.556   6.307
 1279SOL    HW1 4736   2.161   4.490   6.233
 1279SOL    HW2 4737   2.124   4.507   6.391
 1280SOL     OW 4738   4.406   6.759   3.577
 1280SOL    HW1 4739   4.405   6.749   3.677
 1280SOL    HW2 4740   4.500   6.755   3.545
 1281SOL     OW 4741   2.738   6.258   3.429
 1281SOL    HW1 4742   2.641   6.238   3.438
 1281SOL    HW2 4743   2.753   6.357   3.436
 1282SOL     OW 4744   6.740   2.434   6.951
 1282SOL    HW1 4745   6.834   2.405   6.933
 1282SOL    HW2 4746   6.714   2.504   6.884
 1283SOL     OW 4747   6.525   3.193   5.471
 1283SOL    HW1 4748   6.578   3.244   5.403
 1283SOL    HW2 4749   6.545   3.096   5.462
 1284SOL     OW 4750   4.237   0.852   1.655
 1284SOL    HW1 4751   4.251   0.753   1.656
 1284SOL    HW2 4752   4.139   0.872   1.646
 1285SOL     OW 4753   4.243   1.167   5.253
 1285SOL    HW1 4754   4.280   1.210   5.335
 1285SOL    HW2 4755   4.212   1.237   5.189
 1286SOL     OW 4756   4.615   2.556   0.727
 1286SOL    HW1 4757   4.518   2.574   0.742
 1286SOL    HW2 4758   4.625   2.480   0.663
 1287SOL     OW 4759   5.504   4.296   5.394
 1287SOL    HW1 4760   5.537   4.209   5.432
 1287SOL    HW2 4761   5.408   4.307   5.416
 1288SOL     OW 4762   3.930   4.756   5.655
 1288SOL    HW1 4763   4.005   4.800   5.606
 1288SOL    HW2 4764   3.949   4.757   5.753
 1289SOL     OW 4765   0.541   0.268   1.866
 1289SOL    HW1 4766   0.624   0.323   1.853
 1289SOL    HW2 4767   0.462   0.328   1.870
 1290SOL     OW 4768   1.650   7.003   0.387
 1290SOL    HW1 4769   1.592   0.045   0.434
 1290SOL    HW2 4770   1.638   6.913   0.427
 1291SOL     OW 4771   0.054   4.624   4.154
 1291SOL    HW1 4772   0.034   4.713   4.196
 1291SOL    HW2 4773   0.099   4.565   4.221
 1292SOL     OW 4774   0.751   5.615   2.323
 1292SOL    HW1 4775   0.831   5.610   2.262
 1292SOL    HW2 4776   0.780   5.650   2.412
 1293SOL     OW 4777   2.705   2.445   6.713
 1293SOL    HW1 4778   2.772   2.377   6.744
 1293SOL    HW2 4779   2.706   2.523   6.776
 1294SOL     OW 4780   0.998   4.100   5.819
 1294SOL    HW1 4781   0.924   4.101   5.751
 1294SOL    HW2 4782   0.989   4.019   5.877
 1295SOL     OW 4783   0.233   2.817   0.592
 1295SOL    HW1 4784   0.215   2.796   0.496
 1295SOL    HW2 4785   0.182   2.752   0.650
 1296SOL     OW 4786   4.769   6.500   5.268
 1296SOL    HW1 4787   4.676   6.495   5.232
 1296SOL    HW2 4788   4.795   6.596   5.278
 1297SOL     OW 4789   1.268   6.361   1.733
 1297SOL    HW1 4790   1.302   6.328   1.821
 1297SOL    HW2 4791   1.298   6.455   1.719
 1298SOL     OW 4792   5.250   6.284   3.550
 1298SOL    HW1 4793   5.176   6.334   3.594
 1298SOL    HW2 4794   5.251   6.304   3.453
 1299SOL     OW 4795   2.215   2.601   3.637
 1299SOL    HW1 4796   2.253   2.636   3.551
 1299SOL    HW2 4797   2.284   2.543   3.682
 1300SOL     OW 4798   1.862   3.386   1.572
 1300SOL    HW1 4799   1.960   3.404   1.564
 1300SOL    HW2 4800   1.847   3.303   1.625
 1301SOL     OW 4801   0.805   6.654   2.135
 1301SOL    HW1 4802   0.720   6.650   2.188
 1301SOL    HW2 4803   0.823   6.748   2.108
 1302SOL     OW 4804   5.698   0.201   5.253
 1302SOL    HW1 4805   5.764   0.207   5.327
 1302SOL    HW2 4806   5.675   0.293   5.221
 1303SOL     OW 4807   3.966   0.926   1.590
 1303SOL    HW1 4808   3.979   0.863   1.513
 1303SOL    HW2 4809   3.879   0.907   1.635
 1304SOL     OW 4810   1.905   0.444   1.286
 1304SOL    HW1 4811   1.860   0.507   1.223
 1304SOL    HW2 4812   1.942   0.494   1.364
 1305SOL     OW 4813   5.539   4.503   0.040
 1305SOL    HW1 4814   5.500   4.508   0.132
 1305SOL    HW2 4815   5.558   4.407   0.018
 1306SOL     OW 4816   1.592   6.156   4.339
 1306SOL    HW1 4817   1.503   6.193   4.366
 1306SOL    HW2 4818   1.582   6.101   4.256
 1307SOL     OW 4819   2.178   3.449   4.182
 1307SOL    HW1 4820   2.251   3.507   4.146
 1307SOL    HW2 4821   2.089   3.488   4.158
 1308SOL     OW 4822   0.170   6.979   6.094
 1308SOL    HW1 4823   0.082   7.003   6.134
 1308SOL    HW2 4824   0.177   6.880   6.084
 1309SOL     OW 4825   5.372   4.148   5.154
 1309SOL    HW1 4826   5.329   4.117   5.239
 1309SOL    HW2 4827   5.336   4.238   5.129
 1310SOL     OW 4828   0.370   3.863   3.250
 1310SOL    HW1 4829   0.412   3.890   3.164
 1310SOL    HW2 4830   0.311   3.784   3.236
 1311SOL     OW 4831   6.525   5.998   6.282
 1311SOL    HW1 4832   6.455   5.942   6.326
 1311SOL    HW2 4833   6.609   5.996   6.336
 1312SOL     OW 4834   1.391   0.023   6.689
 1312SOL    HW1 4835   1.450   0.011   6.609
 1312SOL    HW2 4836   1.355   0.117   6.689
 1313SOL     OW 4837   6.931   4.830   2.182
 1313SOL    HW1 4838   6.927   4.748   2.239
 1313SOL    HW2 4839   6.841   4.872   2.177
 1314SOL     OW 4840   3.318   1.832   4.422
 1314SOL    HW1 4841   3.356   1.885   4.498
 1314SOL    HW2 4842   3.371   1.849   4.339
 1315SOL     OW 4843   6.739   1.088   2.979
 1315SOL    HW1 4844   6.835   1.079   3.008
 1315SOL    HW2 4845   6.705   1.178   3.005
 1316SOL     OW 4846   3.077   0.327   5.701
 1316SOL    HW1 4847   3.125   0.299   5.618
 1316SOL    HW2 4848   3.122   0.407   5.740
 1317SOL     OW 4849   1.570   4.159   5.031
 1317SOL    HW1 4850   1.606   4.073   4.995
 1317SOL    HW2 4851   1.542   4.218   4.956
 1318SOL     OW 4852   1.419   2.649   0.139
 1318SOL    HW1 4853   1.486   2.723   0.137
 1318SOL    HW2 4854   1.416   2.610   0.231
 1319SOL     OW 4855   0.494   5.112   0.533
 1319SOL    HW1 4856   0.477   5.208   0.512
 1319SOL    HW2 4857   0.562   5.075   0.471
 1320SOL     OW 4858   3.278   3.388   6.950
 1320SOL    HW1 4859   3.323   3.302   6.974
 1320SOL    HW2 4860   3.233   3.379   6.861
 1321SOL     OW 4861   4.784   2.444   6.474
 1321SOL    HW1 4862   4.861   2.508   6.476
 1321SOL    HW2 4863   4.698   2.494   6.482
 1322SOL     OW 4864   3.982   1.709   4.546
 1322SOL    HW1 4865   4.059   1.681   4.604
 1322SOL    HW2 4866   3.952   1.800   4.574
 1323SOL     OW 4867   3.218   6.614   0.047
 1323SOL    HW1 4868   3.303   6.659   0.021
 1323SOL    HW2 4869   3.198   6.631   0.144
 1324SOL     OW 4870   0.372   3.125   0.030
 1324SOL    HW1 4871   0.430   3.207   0.037
 1324SOL    HW2 4872   0.392   3.077   6.970
 1325SOL     OW 4873   4.246   6.249   5.186
 1325SOL    HW1 4874   4.224   6.254   5.283
 1325SOL    HW2 4875   4.161   6.240   5.133
 1326SOL     OW 4876   4.939   3.790   5.182
 1326SOL    HW1 4877   4.855   3.824   5.224
 1326SOL    HW2 4878   4.917   3.713   5.122
 1327SOL     OW 4879   1.218   6.138   0.795
 1327SOL    HW1 4880   1.123   6.163   0.780
 1327SOL    HW2 4881   1.254   6.187   0.875
 1328SOL     OW 4882   2.191   3.307   0.006
 1328SOL    HW1 4883   2.192   3.385   6.968
 1328SOL    HW2 4884   2.235   3.228   6.987
 1329SOL     OW 4885   0.138   2.121   2.209
 1329SOL    HW1 4886   0.081   2.201   2.186
 1329SOL    HW2 4887   0.192   2.141   2.291
 1330SOL     OW 4888   1.132   2.105   1.180
 1330SOL    HW1 4889   1.207   2.074   1.237
 1330SOL    HW2 4890   1.047   2.104   1.232
 1331SOL     OW 4891   4.676   2.680   3.211
 1331SOL    HW1 4892   4.670   2.710   3.306
 1331SOL    HW2 4893   4.634   2.589   3.202
 1332SOL     OW 4894   3.161   0.031   0.730
 1332SOL    HW1 4895   3.140   6.974   0.676
 1332SOL    HW2 4896   3.214   0.095   0.675
 1333SOL     OW 4897   2.895   3.458   3.272
 1333SOL    HW1 4898   2.961   3.492   3.339
 1333SOL    HW2 4899   2.894   3.519   3.192
 1334SOL     OW 4900   6.974   1.544   4.483
 1334SOL    HW1 4901   6.952   1.458   4.437
 1334SOL    HW2 4902   6.929   1.620   4.435
 1335SOL     OW 4903   2.086   2.014   2.339
 1335SOL    HW1 4904   2.045   2.105   2.340
 1335SOL    HW2 4905   2.160   2.011   2.273
 1336SOL     OW 4906   3.653   1.418   5.226
 1336SOL    HW1 4907   3.697   1.345   5.279
 1336SOL    HW2 4908   3.675   1.408   5.130
 1337SOL     OW 4909   0.295   1.444   3.182
 1337SOL    HW1 4910   0.305   1.512   3.110
 1337SOL    HW2 4911   0.369   1.455   3.249
 1338SOL     OW 4912   0.220   3.110   4.039
 1338SOL    HW1 4913   0.265   3.081   4.123
 1338SOL    HW2 4914   0.222   3.210   4.032
 1339SOL     OW 4915   5.859   1.396   0.149
 1339SOL    HW1 4916   5.902   1.317   0.192
 1339SOL    HW2 4917   5.788   1.432   0.209
 1340SOL     OW 4918   5.470   1.202   2.715
 1340SOL    HW1 4919   5.388   1.178   2.768
 1340SOL    HW2 4920   5.540   1.133   2.730
 1341SOL     OW 4921   4.707   6.600   6.963
 1341SOL    HW1 4922   4.626   6.578   7.017
 1341SOL    HW2 4923   4.685   6.674   6.899
 1342SOL     OW 4924   3.087   5.554   6.174
 1342SOL    HW1 4925   3.004   5.575   6.225
 1342SOL    HW2 4926   3.069   5.562   6.076
 1343SOL     OW 4927   5.396   5.706   2.780
 1343SOL    HW1 4928   5.314   5.763   2.785
 1343SOL    HW2 4929   5.442   5.708   2.869
 1344SOL     OW 4930   0.702   6.553   4.330
 1344SOL    HW1 4931   0.640   6.479   4.304
 1344SOL    HW2 4932   0.765   6.571   4.254
 1345SOL     OW 4933   0.693   5.002   2.208
 1345SOL    HW1 4934   0.663   4.948   2.130
 1345SOL    HW2 4935   0.656   5.095   2.201
 1346SOL     OW 4936   2.176   5.248   5.681
 1346SOL    HW1 4937   2.259   5.196   5.661
 1346SOL    HW2 4938   2.144   5.292   5.597
 1347SOL     OW 4939   0.533   6.491   6.638
 1347SOL    HW1 4940   0.438   6.511   6.612
 1347SOL    HW2 4941   0.544   6.393   6.652
 1348SOL     OW 4942   0.016   6.540   5.255
 1348SOL    HW1 4943   0.053   6.593   5.331
 1348SOL    HW2 4944   6.963   6.486   5.287
 1349SOL     OW 4945   5.358   2.727   4.569
 1349SOL    HW1 4946   5.412   2.728   4.653
 1349SOL    HW2 4947   5.347   2.821   4.535
 1350SOL     OW 4948   5.266   5.065   5.319
 1350SOL    HW1 4949   5.353   5.041   5.363
 1350SOL    HW2 4950   5.283   5.102   5.228
 1351SOL     OW 4951   5.289   2.699   4.066
 1351SOL    HW1 4952   5.249   2.781   4.025
 1351SOL    HW2 4953   5.217   2.634   4.089
 1352SOL     OW 4954   6.471   6.409   4.778
 1352SOL    HW1 4955   6.550   6.456   4.740
 1352SOL    HW2 4956   6.480   6.311   4.762
 1353SOL     OW 4957   0.867   2.334   0.483
 1353SOL    HW1 4958   0.772   2.305   0.484
 1353SOL    HW2 4959   0.906   2.322   0.575
 1354SOL     OW 4960   6.993   4.760   1.874
 1354SOL    HW1 4961   0.009   4.670   1.866
 1354SOL    HW2 4962   6.957   4.772   1.967
 1355SOL     OW 4963   6.426   4.116   4.241
 1355SOL    HW1 4964   6.523   4.138   4.234
 1355SOL    HW2 4965   6.374   4.199   4.263
 1356SOL     OW 4966   3.572   2.974   2.064
 1356SOL    HW1 4967   3.660   2.986   2.109
 1356SOL    HW2 4968   3.499   3.008   2.124
 1357SOL     OW 4969   0.063   4.735   6.554
 1357SOL    HW1 4970   0.056   4.686   6.641
 1357SOL    HW2 4971   0.029   4.828   6.565
 1358SOL     OW 4972   6.312   6.565   6.828
 1358SOL    HW1 4973   6.262   6.597   6.747
 1358SOL    HW2 4974   6.341   6.471   6.813
 1359SOL     OW 4975   6.089   4.513   2.444
 1359SOL    HW1 4976   5.999   4.525   2.487
 1359SOL    HW2 4977   6.081   4.453   2.365
 1360SOL     OW 4978   2.427   3.425   0.153
 1360SOL    HW1 4979   2.487   3.394   0.079
 1360SOL    HW2 4980   2.332   3.408   0.128
 1361SOL     OW 4981   6.284   4.348   4.775
 1361SOL    HW1 4982   6.330   4.436   4.787
 1361SOL    HW2 4983   6.212   4.339   4.844
 1362SOL     OW 4984   3.916   3.838   2.909
 1362SOL    HW1 4985   3.983   3.862   2.979
 1362SOL    HW2 4986   3.921   3.740   2.889
 1363SOL     OW 4987   0.530   5.176   4.594
 1363SOL    HW1 4988   0.617   5.187   4.641
 1363SOL    HW2 4989   0.456   5.212   4.651
 1364SOL     OW 4990   5.492   4.377   0.400
 1364SOL    HW1 4991   5.540   4.314   0.461
 1364SOL    HW2 4992   5.544   4.462   0.392
 1365SOL     OW 4993   0.654   4.621   6.224
 1365SOL    HW1 4994   0.640   4.596   6.320
 1365SOL    HW2 4995   0.648   4.720   6.214
 1366SOL     OW 4996   1.726   6.378   6.203
 1366SOL    HW1 4997   1.717   6.471   6.237
 1366SOL    HW2 4998   1.705   6.313   6.275
 1367SOL     OW 4999   2.632   0.129   2.383
 1367SOL    HW1 5000   2.663   0.195   2.314
 1367SOL    HW2 5001   2.707   0.068   2.408
 1368SOL     OW 5002   5.040   6.774   4.577
 1368SOL    HW1 5003   5.114   6.741   4.519
 1368SOL    HW2 5004   4.952   6.758   4.531
 1369SOL     OW 5005   1.516   6.523   3.299
 1369SOL    HW1 5006   1.589   6.480   3.244
 1369SOL    HW2 5007   1.532   6.503   3.395
 1370SOL     OW 5008   3.283   0.989   1.831
 1370SOL    HW1 5009   3.228   1.017   1.752
 1370SOL    HW2 5010   3.377   1.021   1.820
 1371SOL     OW 5011   4.608   1.343   4.512
 1371SOL    HW1 5012   4.687   1.332   4.573
 1371SOL    HW2 5013   4.639   1.353   4.418
 1372SOL     OW 5014   1.736   3.165   0.755
 1372SOL    HW1 5015   1.637   3.157   0.751
 1372SOL    HW2 5016   1.770   3.126   0.841
 1373SOL     OW 5017   6.526   4.345   0.575
 1373SOL    HW1 5018   6.486   4.436   0.588
 1373SOL    HW2 5019   6.498   4.308   0.487
 1374SOL     OW 5020   4.387   2.334   0.725
 1374SOL    HW1 5021   4.313   2.280   0.684
 1374SOL    HW2 5022   4.376   2.430   0.700
 1375SOL     OW 5023   7.010   4.893   6.113
 1375SOL    HW1 5024   6.976   4.817   6.169
 1375SOL    HW2 5025   7.005   4.867   6.017
 1376SOL     OW 5026   4.818   2.985   3.420
 1376SOL    HW1 5027   4.846   3.032   3.336
 1376SOL    HW2 5028   4.847   3.039   3.499
 1377SOL     OW 5029   6.757   4.104   5.762
 1377SOL    HW1 5030   6.731   4.124   5.668
 1377SOL    HW2 5031   6.852   4.130   5.777
 1378SOL     OW 5032   6.745   2.057   4.868
 1378SOL    HW1 5033   6.812   2.008   4.812
 1378SOL    HW2 5034   6.698   2.125   4.811
 1379SOL     OW 5035   3.326   6.596   2.689
 1379SOL    HW1 5036   3.261   6.647   2.633
 1379SOL    HW2 5037   3.285   6.509   2.717
 1380SOL     OW 5038   6.974   6.710   2.471
 1380SOL    HW1 5039   6.910   6.724   2.396
 1380SOL    HW2 5040   6.990   6.612   2.483
 1381SOL     OW 5041   5.404   2.577   0.120
 1381SOL    HW1 5042   5.503   2.574   0.132
 1381SOL    HW2 5043   5.360   2.514   0.184
 1382SOL     OW 5044   6.129   4.960   6.641
 1382SOL    HW1 5045   6.210   5.017   6.629
 1382SOL    HW2 5046   6.149   4.866   6.613
 1383SOL     OW 5047   1.263   1.061   0.331
 1383SOL    HW1 5048   1.311   0.977   0.306
 1383SOL    HW2 5049   1.199   1.085   0.258
 1384SOL     OW 5050   3.351   1.417   3.392
 1384SOL    HW1 5051   3.431   1.402   3.333
 1384SOL    HW2 5052   3.361   1.362   3.475
 1385SOL     OW 5053   6.989   3.027   2.967
 1385SOL    HW1 5054   0.000   2.938   2.995
 1385SOL    HW2 5055   0.035   3.096   2.975
 1386SOL     OW 5056   2.368   2.672   4.145
 1386SOL    HW1 5057   2.391   2.686   4.049
 1386SOL    HW2 5058   2.451   2.648   4.196
 1387SOL     OW 5059   3.243   0.919   4.083
 1387SOL    HW1 5060   3.340   0.906   4.061
 1387SOL    HW2 5061   3.235   0.975   4.165
 1388SOL     OW 5062   6.406   6.676   3.973
 1388SOL    HW1 5063   6.428   6.605   4.040
 1388SOL    HW2 5064   6.491   6.714   3.935
 1389SOL     OW 5065   0.204   0.861   4.014
 1389SOL    HW1 5066   0.203   0.852   3.914
 1389SOL    HW2 5067   0.114   0.892   4.045
 1390SOL     OW 5068   3.835   1.515   6.928
 1390SOL    HW1 5069   3.758   1.488   6.986
 1390SOL    HW2 5070   3.802   1.576   6.855
 1391SOL     OW 5071   6.146   1.454   5.461
 1391SOL    HW1 5072   6.084   1.378   5.443
 1391SOL    HW2 5073   6.174   1.497   5.375
 1392SOL     OW 5074   4.898   5.665   6.030
 1392SOL    HW1 5075   4.962   5.620   5.967
 1392SOL    HW2 5076   4.857   5.744   5.985
 1393SOL     OW 5077   6.339   1.981   6.800
 1393SOL    HW1 5078   6.420   2.035   6.825
 1393SOL    HW2 5079   6.257   2.035   6.814
 1394SOL     OW 5080   3.831   6.337   3.599
 1394SOL    HW1 5081   3.831   6.241   3.625
 1394SOL    HW2 5082   3.909   6.355   3.539
 1395SOL     OW 5083   0.089   3.481   2.699
 1395SOL    HW1 5084   0.042   3.463   2.786
 1395SOL    HW2 5085   0.177   3.524   2.718
 1396SOL     OW 5086   1.614   0.633   4.353
 1396SOL    HW1 5087   1.599   0.714   4.409
 1396SOL    HW2 5088   1.706   0.636   4.314
 1397SOL     OW 5089   0.273   5.785   5.039
 1397SOL    HW1 5090   0.249   5.879   5.017
 1397SOL    HW2 5091   0.209   5.723   4.992
 1398SOL     OW 5092   1.875   1.291   0.564
 1398SOL    HW1 5093   1.880   1.390   0.551
 1398SOL    HW2 5094   1.807   1.271   0.635
 1399SOL     OW 5095   4.273   6.829   0.729
 1399SOL    HW1 5096   4.210   6.898   0.693
 1399SOL    HW2 5097   4.223   6.744   0.745
 1400SOL     OW 5098   6.690   0.570   4.650
 1400SOL    HW1 5099   6.665   0.613   4.737
 1400SOL    HW2 5100   6.646   0.481   4.643
 1401SOL     OW 5101   5.663   6.847   4.247
 1401SOL    HW1 5102   5.748   6.840   4.300
 1401SOL    HW2 5103   5.650   6.764   4.194
 1402SOL     OW 5104   5.560   3.839   0.478
 1402SOL    HW1 5105   5.604   3.749   0.484
 1402SOL    HW2 5106   5.548   3.877   0.569
 1403SOL     OW 5107   3.360   3.479   0.614
 1403SOL    HW1 5108   3.416   3.398   0.600
 1403SOL    HW2 5109   3.407   3.541   0.677
 1404SOL     OW 5110   4.996   0.265   1.367
 1404SOL    HW1 5111   4.947   0.228   1.288
 1404SOL    HW2 5112   5.090   0.286   1.342
 1405SOL     OW 5113   1.674   3.664   1.132
 1405SOL    HW1 5114   1.603   3.658   1.203
 1405SOL    HW2 5115   1.634   3.698   1.047
 1406SOL     OW 5116   2.463   3.577   1.391
 1406SOL    HW1 5117   2.481   3.543   1.483
 1406SOL    HW2 5118   2.426   3.670   1.397
 1407SOL     OW 5119   0.244   3.539   1.482
 1407SOL    HW1 5120   0.228   3.574   1.575
 1407SOL    HW2 5121   0.233   3.614   1.417
 1408SOL     OW 5122   6.076   5.725   6.567
 1408SOL    HW1 5123   5.994   5.676   6.597
 1408SOL    HW2 5124   6.120   5.767   6.646
 1409SOL     OW 5125   0.060   1.719   5.772
 1409SOL    HW1 5126   7.015   1.738   5.703
 1409SOL    HW2 5127   0.027   1.646   5.833
 1410SOL     OW 5128   2.523   3.188   6.115
 1410SOL    HW1 5129   2.476   3.135   6.044
 1410SOL    HW2 5130   2.519   3.285   6.093
 1411SOL     OW 5131   3.691   6.057   0.050
 1411SOL    HW1 5132   3.675   5.958   0.053
 1411SOL    HW2 5133   3.739   6.085   0.133
 1412SOL     OW 5134   0.664   2.938   0.661
 1412SOL    HW1 5135   0.729   3.014   0.652
 1412SOL    HW2 5136   0.705   2.855   0.624
 1413SOL     OW 5137   1.874   2.208   5.417
 1413SOL    HW1 5138   1.865   2.210   5.516
 1413SOL    HW2 5139   1.969   2.226   5.391
 1414SOL     OW 5140   1.157   3.426   2.241
 1414SOL    HW1 5141   1.098   3.490   2.190
 1414SOL    HW2 5142   1.145   3.441   2.339
 1415SOL     OW 5143   2.678   2.322   4.404
 1415SOL    HW1 5144   2.770   2.308   4.441
 1415SOL    HW2 5145   2.611   2.278   4.463
 1416SOL     OW 5146   4.323   0.121   5.216
 1416SOL    HW1 5147   4.225   0.128   5.198
 1416SOL    HW2 5148   4.373   0.132   5.130
 1417SOL     OW 5149   2.907   3.086   6.001
 1417SOL    HW1 5150   2.928   3.106   6.096
 1417SOL    HW2 5151   2.992   3.079   5.948
 1418SOL     OW 5152   3.581   3.852   0.447
 1418SOL    HW1 5153   3.538   3.932   0.487
 1418SOL    HW2 5154   3.660   3.880   0.391
 1419SOL     OW 5155   1.709   4.713   4.277
 1419SOL    HW1 5156   1.785   4.670   4.326
 1419SOL    HW2 5157   1.672   4.788   4.333
 1420SOL     OW 5158   3.853   4.926   2.502
 1420SOL    HW1 5159   3.868   4.839   2.549
 1420SOL    HW2 5160   3.929   4.988   2.522
 1421SOL     OW 5161   1.156   4.685   4.705
 1421SOL    HW1 5162   1.231   4.709   4.765
 1421SOL    HW2 5163   1.081   4.645   4.759
 1422SOL     OW 5164   2.410   4.129   5.613
 1422SOL    HW1 5165   2.469   4.134   5.533
 1422SOL    HW2 5166   2.324   4.083   5.589
 1423SOL     OW 5167   4.343   1.912   4.780
 1423SOL    HW1 5168   4.334   1.984   4.711
 1423SOL    HW2 5169   4.316   1.824   4.740
 1424SOL     OW 5170   6.332   3.022   6.527
 1424SOL    HW1 5171   6.347   2.994   6.432
 1424SOL    HW2 5172   6.407   2.986   6.583
 1425SOL     OW 5173   3.948   6.249   4.672
 1425SOL    HW1 5174   3.988   6.340   4.670
 1425SOL    HW2 5175   3.852   6.254   4.641
 1426SOL     OW 5176   2.150   2.151   6.562
 1426SOL    HW1 5177   2.175   2.067   6.611
 1426SOL    HW2 5178   2.220   2.221   6.578
 1427SOL     OW 5179   1.025   0.661   3.244
 1427SOL    HW1 5180   1.119   0.650   3.214
 1427SOL    HW2 5181   0.966   0.596   3.197
 1428SOL     OW 5182   0.289   2.674   2.526
 1428SOL    HW1 5183   0.278   2.575   2.520
 1428SOL    HW2 5184   0.262   2.715   2.439
 1429SOL     OW 5185   6.290   1.630   0.290
 1429SOL    HW1 5186   6.253   1.689   0.219
 1429SOL    HW2 5187   6.373   1.670   0.328
 1430SOL     OW 5188   2.747   4.771   4.175
 1430SOL    HW1 5189   2.743   4.736   4.082
 1430SOL    HW2 5190   2.691   4.854   4.182
 1431SOL     OW 5191   2.904   1.815   6.082
 1431SOL    HW1 5192   2.909   1.774   6.173
 1431SOL    HW2 5193   2.995   1.847   6.056
 1432SOL     OW 5194   2.590   0.939   0.840
 1432SOL    HW1 5195   2.502   0.894   0.852
 1432SOL    HW2 5196   2.622   0.973   0.929
 1433SOL     OW 5197   3.105   0.833   3.415
 1433SOL    HW1 5198   3.148   0.916   3.449
 1433SOL    HW2 5199   3.064   0.851   3.325
 1434SOL     OW 5200   0.235   2.586   6.487
 1434SOL    HW1 5201   0.244   2.533   6.403
 1434SOL    HW2 5202   0.158   2.650   6.478
 1435SOL     OW 5203   0.659   0.010   3.542
 1435SOL    HW1 5204   0.667   6.946   3.496
 1435SOL    HW2 5205   0.655   7.021   3.641
 1436SOL     OW 5206   5.882   2.880   0.455
 1436SOL    HW1 5207   5.882   2.817   0.378
 1436SOL    HW2 5208   5.797   2.934   0.454
 1437SOL     OW 5209   4.673   1.181   6.198
 1437SOL    HW1 5210   4.763   1.146   6.173
 1437SOL    HW2 5211   4.678   1.280   6.212
 1438SOL     OW 5212   2.712   0.988   1.325
 1438SOL    HW1 5213   2.794   0.969   1.380
 1438SOL    HW2 5214   2.634   1.002   1.385
 1439SOL     OW 5215   0.326   5.419   0.030
 1439SOL    HW1 5216   0.304   5.322   0.048
 1439SOL    HW2 5217   0.248   5.463   7.011
 1440SOL     OW 5218   3.207   2.957   4.119
 1440SOL    HW1 5219   3.306   2.969   4.107
 1440SOL    HW2 5220   3.160   2.983   4.034
 1441SOL     OW 5221   6.101   3.237   3.905
 1441SOL    HW1 5222   6.070   3.147   3.935
 1441SOL    HW2 5223   6.027   3.282   3.854
 1442SOL     OW 5224   6.044   4.409   0.115
 1442SOL    HW1 5225   6.028   4.319   0.156
 1442SOL    HW2 5226   6.136   4.412   0.077
 1443SOL     OW 5227   0.788   0.652   3.659
 1443SOL    HW1 5228   0.761   0.739   3.619
 1443SOL    HW2 5229   0.869   0.617   3.611
 1444SOL     OW 5230   4.498   6.802   2.966
 1444SOL    HW1 5231   4.531   6.884   2.920
 1444SOL    HW2 5232   4.398   6.803   2.968
 1445SOL     OW 5233   0.426   2.370   1.616
 1445SOL    HW1 5234   0.414   2.270   1.619
 1445SOL    HW2 5235   0.352   2.414   1.667
 1446SOL     OW 5236   3.910   2.152   1.047
 1446SOL    HW1 5237   3.947   2.087   1.114
 1446SOL    HW2 5238   3.940   2.127   0.956
 1447SOL     OW 5239   6.500   0.922   5.377
 1447SOL    HW1 5240   6.543   0.903   5.289
 1447SOL    HW2 5241   6.436   0.849   5.400
 1448SOL     OW 5242   5.840   1.715   0.456
 1448SOL    HW1 5243   5.886   1.728   0.544
 1448SOL    HW2 5244   5.884   1.773   0.387
 1449SOL     OW 5245   6.127   6.301   0.614
 1449SOL    HW1 5246   6.061   6.249   0.667
 1449SOL    HW2 5247   6.079   6.364   0.553
 1450SOL     OW 5248   6.005   3.173   2.826
 1450SOL    HW1 5249   6.037   3.078   2.821
 1450SOL    HW2 5250   6.012   3.205   2.921
 1451SOL     OW 5251   2.223   6.578   2.886
 1451SOL    HW1 5252   2.264   6.656   2.839
 1451SOL    HW2 5253   2.134   6.606   2.924
 1452SOL     OW 5254   4.933   0.542   4.860
 1452SOL    HW1 5255   4.918   0.635   4.893
 1452SOL    HW2 5256   4.972   0.486   4.934
 1453SOL     OW 5257   5.064   3.980   4.762
 1453SOL    HW1 5258   5.152   3.950   4.798
 1453SOL    HW2 5259   4.990   3.950   4.823
 1454SOL     OW 5260   5.757   2.795   2.084
 1454SOL    HW1 5261   5.684   2.831   2.025
 1454SOL    HW2 5262   5.728   2.801   2.180
 1455SOL     OW 5263   0.920   0.559   1.859
 1455SOL    HW1 5264   1.008   0.522   1.887
 1455SOL    HW2 5265   0.902   0.533   1.764
 1456SOL     OW 5266   6.774   0.080   4.849
 1456SOL    HW1 5267   6.680   0.066   4.818
 1456SOL    HW2 5268   6.836   0.021   4.797
 1457SOL     OW 5269   1.151   6.859   3.459
 1457SOL    HW1 5270   1.098   6.781   3.425
 1457SOL    HW2 5271   1.178   6.843   3.554
 1458SOL     OW 5272   5.034   0.063   5.352
 1458SOL    HW1 5273   5.031   0.069   5.252
 1458SOL    HW2 5274   4.959   0.116   5.391
 1459SOL     OW 5275   2.864   6.265   6.543
 1459SOL    HW1 5276   2.785   6.246   6.601
 1459SOL    HW2 5277   2.930   6.321   6.594
 1460SOL     OW 5278   0.621   6.442   0.336
 1460SOL    HW1 5279   0.533   6.408   0.368
 1460SOL    HW2 5280   0.694   6.407   0.395
 1461SOL     OW 5281   6.197   4.572   3.454
 1461SOL    HW1 5282   6.114   4.619   3.424
 1461SOL    HW2 5283   6.276   4.630   3.435
 1462SOL     OW 5284   6.407   1.449   0.850
 1462SOL    HW1 5285   6.412   1.530   0.908
 1462SOL    HW2 5286   6.499   1.409   0.842
 1463SOL     OW 5287   0.693   0.258   5.462
 1463SOL    HW1 5288   0.691   0.158   5.472
 1463SOL    HW2 5289   0.631   0.285   5.388
 1464SOL     OW 5290   0.100   6.998   0.283
 1464SOL    HW1 5291   0.015   0.026   0.283
 1464SOL    HW2 5292   0.177   0.035   0.263
 1465SOL     OW 5293   0.308   0.616   3.182
 1465SOL    HW1 5294   0.344   0.524   3.198
 1465SOL    HW2 5295   0.384   0.681   3.179
 1466SOL     OW 5296   6.777   5.807   2.522
 1466SOL    HW1 5297   6.720   5.858   2.458
 1466SOL    HW2 5298   6.738   5.715   2.536
 1467SOL     OW 5299   1.689   0.757   3.256
 1467SOL    HW1 5300   1.620   0.814   3.302
 1467SOL    HW2 5301   1.678   0.764   3.157
 1468SOL     OW 5302   5.603   5.439   3.806
 1468SOL    HW1 5303   5.504   5.431   3.813
 1468SOL    HW2 5304   5.644   5.348   3.796
 1469SOL     OW 5305   0.151   0.383   2.888
 1469SOL    HW1 5306   0.163   0.315   2.815
 1469SOL    HW2 5307   0.073   0.441   2.865
 1470SOL     OW 5308   1.427   0.938   3.033
 1470SOL    HW1 5309   1.377   1.023   3.018
 1470SOL    HW2 5310   1.369   0.860   3.009
 1471SOL     OW 5311   6.614   0.585   6.934
 1471SOL    HW1 5312   6.643   0.664   6.879
 1471SOL    HW2 5313   6.515   0.580   6.936
 1472SOL     OW 5314   4.747   6.810   4.938
 1472SOL    HW1 5315   4.712   6.823   5.031
 1472SOL    HW2 5316   4.707   6.880   4.877
 1473SOL     OW 5317   6.071   5.915   2.796
 1473SOL    HW1 5318   6.059   5.883   2.702
 1473SOL    HW2 5319   6.111   5.842   2.852
 1474SOL     OW 5320   6.374   5.421   3.759
 1474SOL    HW1 5321   6.467   5.442   3.790
 1474SOL    HW2 5322   6.353   5.325   3.781
 1475SOL     OW 5323   0.156   0.407   2.087
 1475SOL    HW1 5324   0.215   0.399   2.007
 1475SOL    HW2 5325   0.207   0.448   2.162
 1476SOL     OW 5326   1.467   0.790   1.824
 1476SOL    HW1 5327   1.423   0.831   1.904
 1476SOL    HW2 5328   1.434   0.696   1.812
 1477SOL     OW 5329   3.259   0.550   5.829
 1477SOL    HW1 5330   3.217   0.636   5.856
 1477SOL    HW2 5331   3.357   0.563   5.814
 1478SOL     OW 5332   6.261   4.940   0.783
 1478SOL    HW1 5333   6.226   4.875   0.715
 1478SOL    HW2 5334   6.279   5.028   0.739
 1479SOL     OW 5335   1.441   4.328   0.354
 1479SOL    HW1 5336   1.463   4.423   0.333
 1479SOL    HW2 5337   1.352   4.305   0.315
 1480SOL     OW 5338   2.107   1.164   6.454
 1480SOL    HW1 5339   2.065   1.080   6.418
 1480SOL    HW2 5340   2.159   1.209   6.382
 1481SOL     OW 5341   5.717   2.195   5.492
 1481SOL    HW1 5342   5.652   2.126   5.460
 1481SOL    HW2 5343   5.810   2.166   5.470
 1482SOL     OW 5344   5.785   1.102   1.390
 1482SOL    HW1 5345   5.801   1.185   1.444
 1482SOL    HW2 5346   5.809   1.120   1.294
 1483SOL     OW 5347   6.271   3.088   6.941
 1483SOL    HW1 5348   6.236   3.005   6.984
 1483SOL    HW2 5349   6.267   3.164   7.006
 1484SOL     OW 5350   6.425   4.456   2.723
 1484SOL    HW1 5351   6.416   4.444   2.624
 1484SOL    HW2 5352   6.513   4.499   2.743
 1485SOL     OW 5353   5.606   2.717   2.635
 1485SOL    HW1 5354   5.561   2.800   2.602
 1485SOL    HW2 5355   5.668   2.682   2.565
 1486SOL     OW 5356   4.488   2.472   3.187
 1486SOL    HW1 5357   4.514   2.404   3.119
 1486SOL    HW2 5358   4.423   2.537   3.146
 1487SOL     OW 5359   6.227   1.481   6.352
 1487SOL    HW1 5360   6.210   1.487   6.254
 1487SOL    HW2 5361   6.144   1.502   6.402
 1488SOL     OW 5362   4.706   1.503   3.071
 1488SOL    HW1 5363   4.638   1.566   3.107
 1488SOL    HW2 5364   4.706   1.506   2.971
 1489SOL     OW 5365   3.546   4.941   4.689
 1489SOL    HW1 5366   3.599   4.865   4.726
 1489SOL    HW2 5367   3.602   5.024   4.692
 1490SOL     OW 5368   1.049   1.637   0.442
 1490SOL    HW1 5369   0.997   1.552   0.436
 1490SOL    HW2 5370   1.115   1.641   0.367
 1491SOL     OW 5371   6.406   3.871   3.472
 1491SOL    HW1 5372   6.451   3.959   3.490
 1491SOL    HW2 5373   6.457   3.822   3.401
 1492SOL     OW 5374   4.971   1.949   1.968
 1492SOL    HW1 5375   5.011   2.038   1.943
 1492SOL    HW2 5376   5.017   1.877   1.918
 1493SOL     OW 5377   4.506   0.217   4.737
 1493SOL    HW1 5378   4.446   0.155   4.686
 1493SOL    HW2 5379   4.493   0.311   4.704
 1494SOL     OW 5380   3.480   2.621   5.590
 1494SOL    HW1 5381   3.436   2.710   5.593
 1494SOL    HW2 5382   3.411   2.550   5.580
 1495SOL     OW 5383   0.147   3.438   3.494
 1495SOL    HW1 5384   0.144   3.364   3.562
 1495SOL    HW2 5385   0.224   3.423   3.432
 1496SOL     OW 5386   6.773   0.530   1.941
 1496SOL    HW1 5387   6.674   0.522   1.955
 1496SOL    HW2 5388   6.819   0.534   2.030
 1497SOL     OW 5389   0.208   5.276   4.343
 1497SOL    HW1 5390   0.186   5.364   4.386
 1497SOL    HW2 5391   0.124   5.230   4.318
 1498SOL     OW 5392   2.500   4.490   6.209
 1498SOL    HW1 5393   2.441   4.410   6.214
 1498SOL    HW2 5394   2.453   4.570   6.247
 1499SOL     OW 5395   1.146   4.152   4.958
 1499SOL    HW1 5396   1.240   4.122   4.973
 1499SOL    HW2 5397   1.115   4.205   5.037
 1500SOL     OW 5398   5.709   6.981   1.172
 1500SOL    HW1 5399   5.674   6.950   1.261
 1500SOL    HW2 5400   5.671   0.046   1.150
 1501SOL     OW 5401   4.255   0.535   6.836
 1501SOL    HW1 5402   4.354   0.544   6.826
 1501SOL    HW2 5403   4.228   0.440   6.815
 1502SOL     OW 5404   6.594   6.965   6.860
 1502SOL    HW1 5405   6.687   6.971   6.896
 1502SOL    HW2 5406   6.546   6.889   6.904
 1503SOL     OW 5407   2.087   2.851   0.535
 1503SOL    HW1 5408   2.034   2.799   0.603
 1503SOL    HW2 5409   2.035   2.931   0.507
 1504SOL     OW 5410   3.000   0.110   5.029
 1504SOL    HW1 5411   3.076   0.130   4.967
 1504SOL    HW2 5412   3.033   0.063   5.110
 1505SOL     OW 5413   5.634   0.143   5.571
 1505SOL    HW1 5414   5.721   0.145   5.521
 1505SOL    HW2 5415   5.573   0.075   5.531
 1506SOL     OW 5416   1.069   5.041   3.589
 1506SOL    HW1 5417   0.982   5.073   3.625
 1506SOL    HW2 5418   1.143   5.068   3.652
 1507SOL     OW 5419   1.885   1.630   4.635
 1507SOL    HW1 5420   1.893   1.701   4.566
 1507SOL    HW2 5421   1.948   1.648   4.710
 1508SOL     OW 5422   4.738   0.127   0.868
 1508SOL    HW1 5423   4.790   0.181   0.803
 1508SOL    HW2 5424   4.704   0.045   0.824
 1509SOL     OW 5425   4.572   3.062   6.105
 1509SOL    HW1 5426   4.617   3.140   6.149
 1509SOL    HW2 5427   4.476   3.058   6.133
 1510SOL     OW 5428   6.723   2.463   4.898
 1510SOL    HW1 5429   6.668   2.533   4.944
 1510SOL    HW2 5430   6.777   2.506   4.826
 1511SOL     OW 5431   2.523   1.557   6.678
 1511SOL    HW1 5432   2.510   1.479   6.617
 1511SOL    HW2 5433   2.434   1.600   6.696
 1512SOL     OW 5434   6.995   0.226   2.104
 1512SOL    HW1 5435   7.024   0.131   2.113
 1512SOL    HW2 5436   0.050   0.284   2.090
 1513SOL     OW 5437   3.741   6.989   3.844
 1513SOL    HW1 5438   3.656   6.942   3.820
 1513SOL    HW2 5439   3.792   7.010   3.761
 1514SOL     OW 5440   5.141   1.478   5.040
 1514SOL    HW1 5441   5.237   1.497   5.062
 1514SOL    HW2 5442   5.125   1.495   4.942
 1515SOL     OW 5443   6.848   4.220   5.319
 1515SOL    HW1 5444   6.818   4.293   5.381
 1515SOL    HW2 5445   6.820   4.241   5.226
 1516SOL     OW 5446   0.769   0.976   0.978
 1516SOL    HW1 5447   0.744   0.953   1.072
 1516SOL    HW2 5448   0.700   0.942   0.915
 1517SOL     OW 5449   4.421   5.355   3.598
 1517SOL    HW1 5450   4.501   5.402   3.561
 1517SOL    HW2 5451   4.368   5.418   3.654
 1518SOL     OW 5452   6.600   4.118   6.907
 1518SOL    HW1 5453   6.553   4.193   6.860
 1518SOL    HW2 5454   6.671   4.081   6.846
 1519SOL     OW 5455   6.787   4.361   1.173
 1519SOL    HW1 5456   6.801   4.370   1.271
 1519SOL    HW2 5457   6.717   4.426   1.143
 1520SOL     OW 5458   2.101   3.663   2.160
 1520SOL    HW1 5459   2.134   3.605   2.085
 1520SOL    HW2 5460   2.113   3.615   2.247
 1521SOL     OW 5461   1.680   3.325   0.071
 1521SOL    HW1 5462   1.772   3.363   0.071
 1521SOL    HW2 5463   1.655   3.298   0.164
 1522SOL     OW 5464   6.702   1.701   6.512
 1522SOL    HW1 5465   6.615   1.652   6.506
 1522SOL    HW2 5466   6.685   1.799   6.513
 1523SOL     OW 5467   5.367   3.478   6.687
 1523SOL    HW1 5468   5.276   3.442   6.706
 1523SOL    HW2 5469   5.422   3.409   6.640
 1524SOL     OW 5470   0.895   1.620   1.572
 1524SOL    HW1 5471   0.818   1.567   1.606
 1524SOL    HW2 5472   0.977   1.563   1.570
 1525SOL     OW 5473   4.390   1.362   5.901
 1525SOL    HW1 5474   4.447   1.444   5.891
 1525SOL    HW2 5475   4.327   1.355   5.824
 1526SOL     OW 5476   0.137   1.527   1.309
 1526SOL    HW1 5477   0.208   1.515   1.379
 1526SOL    HW2 5478   0.179   1.555   1.223
 1527SOL     OW 5479   3.475   1.636   5.165
 1527SOL    HW1 5480   3.499   1.721   5.212
 1527SOL    HW2 5481   3.529   1.561   5.203
 1528SOL     OW 5482   4.894   6.170   2.673
 1528SOL    HW1 5483   4.844   6.085   2.692
 1528SOL    HW2 5484   4.897   6.226   2.756
 1529SOL     OW 5485   4.922   1.079   6.203
 1529SOL    HW1 5486   4.934   0.982   6.185
 1529SOL    HW2 5487   4.973   1.105   6.285
 1530SOL     OW 5488   3.277   6.368   1.742
 1530SOL    HW1 5489   3.298   6.271   1.729
 1530SOL    HW2 5490   3.310   6.420   1.664
 1531SOL     OW 5491   5.788   0.893   5.208
 1531SOL    HW1 5492   5.786   0.846   5.297
 1531SOL    HW2 5493   5.717   0.855   5.149
 1532SOL     OW 5494   3.547   2.072   5.090
 1532SOL    HW1 5495   3.476   2.052   5.023
 1532SOL    HW2 5496   3.526   2.158   5.136
 1533SOL     OW 5497   6.902   2.912   6.494
 1533SOL    HW1 5498   6.979   2.939   6.552
 1533SOL    HW2 5499   6.829   2.875   6.551
 1534SOL     OW 5500   2.088   5.465   0.357
 1534SOL    HW1 5501   2.105   5.514   0.271
 1534SOL    HW2 5502   2.023   5.518   0.413
 1535SOL     OW 5503   5.156   5.004   4.345
 1535SOL    HW1 5504   5.253   5.005   4.318
 1535SOL    HW2 5505   5.146   4.951   4.429
 1536SOL     OW 5506   2.431   5.236   4.541
 1536SOL    HW1 5507   2.339   5.198   4.527
 1536SOL    HW2 5508   2.437   5.327   4.500
 1537SOL     OW 5509   3.231   5.356   3.621
 1537SOL    HW1 5510   3.327   5.384   3.615
 1537SOL    HW2 5511   3.206   5.346   3.717
 1538SOL     OW 5512   3.221   4.297   6.540
 1538SOL    HW1 5513   3.210   4.342   6.452
 1538SOL    HW2 5514   3.300   4.236   6.536
 1539SOL     OW 5515   3.485   4.059   1.783
 1539SOL    HW1 5516   3.476   4.155   1.755
 1539SOL    HW2 5517   3.426   4.041   1.861
 1540SOL     OW 5518   0.940   0.571   4.680
 1540SOL    HW1 5519   0.850   0.577   4.636
 1540SOL    HW2 5520   1.008   0.542   4.613
 1541SOL     OW 5521   3.600   3.078   1.207
 1541SOL    HW1 5522   3.569   2.987   1.181
 1541SOL    HW2 5523   3.648   3.074   1.295
 1542SOL     OW 5524   0.492   5.747   1.498
 1542SOL    HW1 5525   0.587   5.733   1.472
 1542SOL    HW2 5526   0.484   5.746   1.598
 1543SOL     OW 5527   3.534   3.506   3.628
 1543SOL    HW1 5528   3.593   3.587   3.627
 1543SOL    HW2 5529   3.582   3.430   3.583
 1544SOL     OW 5530   3.115   4.001   2.156
 1544SOL    HW1 5531   3.196   4.043   2.198
 1544SOL    HW2 5532   3.055   4.073   2.121
 1545SOL     OW 5533   5.759   0.724   5.442
 1545SOL    HW1 5534   5.813   0.728   5.526
 1545SOL    HW2 5535   5.662   0.737   5.464
 1546SOL     OW 5536   6.313   0.641   6.320
 1546SOL    HW1 5537   6.356   0.555   6.347
 1546SOL    HW2 5538   6.356   0.716   6.369
 1547SOL     OW 5539   2.648   4.676   2.682
 1547SOL    HW1 5540   2.654   4.712   2.589
 1547SOL    HW2 5541   2.721   4.716   2.738
 1548SOL     OW 5542   3.942   4.369   5.811
 1548SOL    HW1 5543   3.866   4.423   5.776
 1548SOL    HW2 5544   3.909   4.308   5.884
 1549SOL     OW 5545   6.274   1.512   1.890
 1549SOL    HW1 5546   6.261   1.579   1.964
 1549SOL    HW2 5547   6.354   1.455   1.911
 1550SOL     OW 5548   2.636   6.807   5.474
 1550SOL    HW1 5549   2.665   6.713   5.490
 1550SOL    HW2 5550   2.716   6.863   5.452
 1551SOL     OW 5551   1.962   3.140   1.213
 1551SOL    HW1 5552   2.046   3.118   1.163
 1551SOL    HW2 5553   1.886   3.148   1.149
 1552SOL     OW 5554   1.309   6.968   1.003
 1552SOL    HW1 5555   1.247   6.991   0.928
 1552SOL    HW2 5556   1.260   6.916   1.073
 1553SOL     OW 5557   6.034   1.404   6.969
 1553SOL    HW1 5558   5.973   1.408   0.023
 1553SOL    HW2 5559   6.129   1.401   7.001
 1554SOL     OW 5560   4.172   2.241   2.991
 1554SOL    HW1 5561   4.233   2.169   3.024
 1554SOL    HW2 5562   4.224   2.326   2.980
 1555SOL     OW 5563   4.749   1.581   5.381
 1555SOL    HW1 5564   4.687   1.520   5.429
 1555SOL    HW2 5565   4.697   1.637   5.315
 1556SOL     OW 5566   3.558   0.200   1.033
 1556SOL    HW1 5567   3.651   0.236   1.046
 1556SOL    HW2 5568   3.505   0.264   0.977
 1557SOL     OW 5569   2.267   2.566   0.889
 1557SOL    HW1 5570   2.184   2.517   0.864
 1557SOL    HW2 5571   2.244   2.638   0.955
 1558SOL     OW 5572   6.418   2.363   4.953
 1558SOL    HW1 5573   6.463   2.335   4.868
 1558SOL    HW2 5574   6.466   2.321   5.031
 1559SOL     OW 5575   0.605   4.037   2.224
 1559SOL    HW1 5576   0.523   3.984   2.202
 1559SOL    HW2 5577   0.674   3.977   2.265
 1560SOL     OW 5578   3.652   1.710   0.194
 1560SOL    HW1 5579   3.707   1.781   0.151
 1560SOL    HW2 5580   3.703   1.669   0.270
 1561SOL     OW 5581   5.641   6.352   2.017
 1561SOL    HW1 5582   5.660   6.350   1.919
 1561SOL    HW2 5583   5.683   6.434   2.057
 1562SOL     OW 5584   2.671   6.544   2.338
 1562SOL    HW1 5585   2.648   6.448   2.354
 1562SOL    HW2 5586   2.767   6.552   2.312
 1563SOL     OW 5587   3.015   2.196   4.783
 1563SOL    HW1 5588   3.069   2.261   4.836
 1563SOL    HW2 5589   2.936   2.166   4.837
 1564SOL     OW 5590   1.293   1.657   2.431
 1564SOL    HW1 5591   1.337   1.738   2.470
 1564SOL    HW2 5592   1.309   1.579   2.491
 1565SOL     OW 5593   3.916   5.713   4.268
 1565SOL    HW1 5594   3.968   5.733   4.185
 1565SOL    HW2 5595   3.862   5.794   4.293
 1566SOL     OW 5596   5.247   4.867   3.611
 1566SOL    HW1 5597   5.268   4.963   3.630
 1566SOL    HW2 5598   5.270   4.812   3.691
 1567SOL     OW 5599   5.972   5.223   6.351
 1567SOL    HW1 5600   5.980   5.197   6.255
 1567SOL    HW2 5601   5.893   5.177   6.392
 1568SOL     OW 5602   2.164   6.127   4.082
 1568SOL    HW1 5603   2.193   6.222   4.089
 1568SOL    HW2 5604   2.119   6.099   4.167
 1569SOL     OW 5605   3.281   0.578   2.868
 1569SOL    HW1 5606   3.282   0.480   2.851
 1569SOL    HW2 5607   3.373   0.615   2.857
 1570SOL     OW 5608   2.949   6.831   6.579
 1570SOL    HW1 5609   2.893   6.787   6.509
 1570SOL    HW2 5610   2.924   6.794   6.669
 1571SOL     OW 5611   1.230   2.297   3.164
 1571SOL    HW1 5612   1.215   2.396   3.167
 1571SOL    HW2 5613   1.166   2.251   3.226
 1572SOL     OW 5614   1.657   5.284   1.534
 1572SOL    HW1 5615   1.607   5.229   1.602
 1572SOL    HW2 5616   1.725   5.340   1.581
 1573SOL     OW 5617   5.364   5.524   1.608
 1573SOL    HW1 5618   5.305   5.575   1.545
 1573SOL    HW2 5619   5.346   5.426   1.598
 1574SOL     OW 5620   6.347   3.161   2.059
 1574SOL    HW1 5621   6.398   3.104   1.994
 1574SOL    HW2 5622   6.397   3.164   2.146
 1575SOL     OW 5623   1.239   0.657   1.641
 1575SOL    HW1 5624   1.215   0.577   1.586
 1575SOL    HW2 5625   1.168   0.727   1.632
 1576SOL     OW 5626   0.670   6.072   2.488
 1576SOL    HW1 5627   0.654   5.973   2.493
 1576SOL    HW2 5628   0.582   6.119   2.485
 1577SOL     OW 5629   3.101   0.546   6.655
 1577SOL    HW1 5630   3.190   0.510   6.626
 1577SOL    HW2 5631   3.036   0.471   6.661
 1578SOL     OW 5632   4.214   0.914   0.431
 1578SOL    HW1 5633   4.197   0.933   0.334
 1578SOL    HW2 5634   4.173   0.826   0.455
 1579SOL     OW 5635   0.765   2.842   1.776
 1579SOL    HW1 5636   0.798   2.779   1.706
 1579SOL    HW2 5637   0.666   2.837   1.781
 1580SOL     OW 5638   2.936   3.750   3.358
 1580SOL    HW1 5639   2.891   3.732   3.271
 1580SOL    HW2 5640   2.999   3.676   3.380
 1581SOL     OW 5641   6.956   5.177   5.216
 1581SOL    HW1 5642   6.983   5.114   5.288
 1581SOL    HW2 5643   7.024   5.250   5.209
 1582SOL     OW 5644   4.476   5.748   5.097
 1582SOL    HW1 5645   4.416   5.669   5.097
 1582SOL    HW2 5646   4.480   5.787   5.004
 1583SOL     OW 5647   0.940   6.475   5.090
 1583SOL    HW1 5648   1.031   6.434   5.090
 1583SOL    HW2 5649   0.872   6.404   5.112
 1584SOL     OW 5650   1.503   5.056   6.677
 1584SOL    HW1 5651   1.596   5.074   6.645
 1584SOL    HW2 5652   1.447   5.024   6.601
 1585SOL     OW 5653   3.680   1.568   3.447
 1585SOL    HW1 5654   3.617   1.608   3.514
 1585SOL    HW2 5655   3.631   1.551   3.362
 1586SOL     OW 5656   3.333   4.926   3.426
 1586SOL    HW1 5657   3.419   4.923   3.375
 1586SOL    HW2 5658   3.280   5.005   3.396
 1587SOL     OW 5659   2.096   5.674   5.690
 1587SOL    HW1 5660   2.193   5.682   5.671
 1587SOL    HW2 5661   2.082   5.661   5.788
 1588SOL     OW 5662   4.516   0.180   2.540
 1588SOL    HW1 5663   4.603   0.140   2.510
 1588SOL    HW2 5664   4.453   0.183   2.463
 1589SOL     OW 5665   6.356   3.937   2.728
 1589SOL    HW1 5666   6.258   3.946   2.742
 1589SOL    HW2 5667   6.401   4.024   2.748
 1590SOL     OW 5668   4.888   1.982   3.441
 1590SOL    HW1 5669   4.909   2.042   3.364
 1590SOL    HW2 5670   4.911   2.029   3.527
 1591SOL     OW 5671   6.738   5.380   1.621
 1591SOL    HW1 5672   6.676   5.354   1.548
 1591SOL    HW2 5673   6.686   5.406   1.703
 1592SOL     OW 5674   1.174   4.798   6.706
 1592SOL    HW1 5675   1.218   4.744   6.635
 1592SOL    HW2 5676   1.128   4.878   6.665
 1593SOL     OW 5677   1.214   6.878   6.117
 1593SOL    HW1 5678   1.233   6.823   6.198
 1593SOL    HW2 5679   1.207   6.818   6.037
 1594SOL     OW 5680   6.713   6.682   1.805
 1594SOL    HW1 5681   6.652   6.609   1.776
 1594SOL    HW2 5682   6.801   6.673   1.758
 1595SOL     OW 5683   1.584   4.045   6.895
 1595SOL    HW1 5684   1.493   4.004   6.882
 1595SOL    HW2 5685   1.649   3.974   6.920
 1596SOL     OW 5686   5.867   3.520   3.120
 1596SOL    HW1 5687   5.829   3.555   3.034
 1596SOL    HW2 5688   5.937   3.452   3.100
 1597SOL     OW 5689   3.022   5.811   0.978
 1597SOL    HW1 5690   3.031   5.748   1.054
 1597SOL    HW2 5691   3.099   5.800   0.916
 1598SOL     OW 5692   1.493   5.594   6.768
 1598SOL    HW1 5693   1.488   5.598   6.668
 1598SOL    HW2 5694   1.401   5.598   6.806
 1599SOL     OW 5695   3.756   5.121   4.673
 1599SOL    HW1 5696   3.767   5.108   4.771
 1599SOL    HW2 5697   3.845   5.109   4.628
 1600SOL     OW 5698   3.028   0.418   2.217
 1600SOL    HW1 5699   2.979   0.491   2.170
 1600SOL    HW2 5700   3.091   0.374   2.153
 1601SOL     OW 5701   6.835   6.334   4.034
 1601SOL    HW1 5702   6.869   6.422   4.065
 1601SOL    HW2 5703   6.867   6.316   3.941
 1602SOL     OW 5704   4.644   5.278   3.756
 1602SOL    HW1 5705   4.575   5.231   3.810
 1602SOL    HW2 5706   4.600   5.325   3.679
 1603SOL     OW 5707   2.809   5.265   4.254
 1603SOL    HW1 5708   2.795   5.358   4.287
 1603SOL    HW2 5709   2.905   5.240   4.265
 1604SOL     OW 5710   4.234   5.006   1.786
 1604SOL    HW1 5711   4.224   5.086   1.845
 1604SOL    HW2 5712   4.281   5.033   1.702
 1605SOL     OW 5713   5.781   5.379   1.468
 1605SOL    HW1 5714   5.704   5.330   1.510
 1605SOL    HW2 5715   5.832   5.429   1.538
 1606SOL     OW 5716   3.929   5.213   5.274
 1606SOL    HW1 5717   3.962   5.298   5.315
 1606SOL    HW2 5718   3.829   5.211   5.277
 1607SOL     OW 5719   4.172   6.999   2.012
 1607SOL    HW1 5720   4.219   6.928   1.961
 1607SOL    HW2 5721   4.134   6.961   2.097
 1608SOL     OW 5722   6.916   0.389   3.179
 1608SOL    HW1 5723   6.938   0.485   3.167
 1608SOL    HW2 5724   6.938   0.360   3.272
 1609SOL     OW 5725   2.870   6.606   0.755
 1609SOL    HW1 5726   2.908   6.630   0.844
 1609SOL    HW2 5727   2.838   6.512   0.756
 1610SOL     OW 5728   5.112   6.315   0.264
 1610SOL    HW1 5729   5.123   6.403   0.310
 1610SOL    HW2 5730   5.028   6.270   0.296
 1611SOL     OW 5731   1.814   3.912   1.193
 1611SOL    HW1 5732   1.777   3.978   1.257
 1611SOL    HW2 5733   1.743   3.847   1.167
 1612SOL     OW 5734   2.968   6.277   1.486
 1612SOL    HW1 5735   2.936   6.183   1.476
 1612SOL    HW2 5736   3.067   6.277   1.502
 1613SOL     OW 5737   0.704   5.872   2.155
 1613SOL    HW1 5738   0.801   5.886   2.135
 1613SOL    HW2 5739   0.689   5.878   2.254
 1614SOL     OW 5740   5.529   2.069   6.303
 1614SOL    HW1 5741   5.513   2.043   6.398
 1614SOL    HW2 5742   5.612   2.025   6.269
 1615SOL     OW 5743   0.075   5.079   6.288
 1615SOL    HW1 5744   0.068   4.984   6.256
 1615SOL    HW2 5745   0.087   5.140   6.210
 1616SOL     OW 5746   3.758   0.624   4.747
 1616SOL    HW1 5747   3.723   0.610   4.654
 1616SOL    HW2 5748   3.802   0.540   4.778
 1617SOL     OW 5749   4.784   0.311   3.169
 1617SOL    HW1 5750   4.720   0.343   3.238
 1617SOL    HW2 5751   4.742   0.317   3.079
 1618SOL     OW 5752   1.693   5.644   2.528
 1618SOL    HW1 5753   1.792   5.637   2.541
 1618SOL    HW2 5754   1.673   5.713   2.458
 1619SOL     OW 5755   1.030   4.999   6.597
 1619SOL    HW1 5756   1.037   5.097   6.616
 1619SOL    HW2 5757   0.936   4.977   6.569
 1620SOL     OW 5758   2.822   5.373   1.340
 1620SOL    HW1 5759   2.724   5.356   1.353
 1620SOL    HW2 5760   2.872   5.352   1.424
 1621SOL     OW 5761   6.374   6.996   1.400
 1621SOL    HW1 5762   6.321   0.056   1.411
 1621SOL    HW2 5763   6.471   7.018   1.392
 1622SOL     OW 5764   0.416   4.097   6.064
 1622SOL    HW1 5765   0.507   4.095   6.023
 1622SOL    HW2 5766   0.404   4.183   6.115
 1623SOL     OW 5767   0.182   2.596   4.619
 1623SOL    HW1 5768   0.252   2.526   4.603
 1623SOL    HW2 5769   0.176   2.656   4.540
 1624SOL     OW 5770   4.124   1.334   0.274
 1624SOL    HW1 5771   4.115   1.434   0.271
 1624SOL    HW2 5772   4.057   1.297   0.337
 1625SOL     OW 5773   1.356   5.180   6.870
 1625SOL    HW1 5774   1.333   5.109   6.937
 1625SOL    HW2 5775   1.400   5.138   6.791
 1626SOL     OW 5776   2.890   1.416   2.238
 1626SOL    HW1 5777   2.800   1.425   2.281
 1626SOL    HW2 5778   2.942   1.347   2.287
 1627SOL     OW 5779   5.618   3.085   4.350
 1627SOL    HW1 5780   5.581   3.167   4.308
 1627SOL    HW2 5781   5.558   3.007   4.330
 1628SOL     OW 5782   5.256   6.508   6.785
 1628SOL    HW1 5783   5.312   6.527   6.866
 1628SOL    HW2 5784   5.314   6.468   6.714
 1629SOL     OW 5785   2.789   1.794   3.187
 1629SOL    HW1 5786   2.770   1.700   3.158
 1629SOL    HW2 5787   2.720   1.823   3.253
 1630SOL     OW 5788   6.821   4.057   6.184
 1630SOL    HW1 5789   6.756   4.029   6.254
 1630SOL    HW2 5790   6.772   4.080   6.100
 1631SOL     OW 5791   6.462   3.231   0.937
 1631SOL    HW1 5792   6.489   3.306   0.997
 1631SOL    HW2 5793   6.509   3.240   0.849
 1632SOL     OW 5794   5.004   4.567   2.762
 1632SOL    HW1 5795   5.080   4.559   2.826
 1632SOL    HW2 5796   5.039   4.583   2.670
 1633SOL     OW 5797   4.912   3.991   4.305
 1633SOL    HW1 5798   4.872   3.982   4.396
 1633SOL    HW2 5799   5.009   4.012   4.314
 1634SOL     OW 5800   4.057   0.542   4.106
 1634SOL    HW1 5801   4.151   0.539   4.139
 1634SOL    HW2 5802   4.012   0.623   4.141
 1635SOL     OW 5803   2.600   5.306   6.249
 1635SOL    HW1 5804   2.557   5.365   6.318
 1635SOL    HW2 5805   2.539   5.229   6.230
 1636SOL     OW 5806   3.618   5.790   0.684
 1636SOL    HW1 5807   3.607   5.890   0.681
 1636SOL    HW2 5808   3.710   5.766   0.654
 1637SOL     OW 5809   6.545   6.355   3.706
 1637SOL    HW1 5810   6.620   6.410   3.743
 1637SOL    HW2 5811   6.461   6.408   3.707
 1638SOL     OW 5812   0.328   3.055   1.514
 1638SOL    HW1 5813   0.360   3.079   1.423
 1638SOL    HW2 5814   0.395   3.083   1.582
 1639SOL     OW 5815   6.863   3.957   1.965
 1639SOL    HW1 5816   6.812   3.872   1.949
 1639SOL    HW2 5817   6.810   4.035   1.933
 1640SOL     OW 5818   6.744   0.151   0.515
 1640SOL    HW1 5819   6.715   0.247   0.524
 1640SOL    HW2 5820   6.766   0.115   0.605
 1641SOL     OW 5821   0.308   2.266   3.414
 1641SOL    HW1 5822   0.351   2.276   3.324
 1641SOL    HW2 5823   0.210   2.250   3.402
 1642SOL     OW 5824   6.702   2.422   6.552
 1642SOL    HW1 5825   6.712   2.457   6.646
 1642SOL    HW2 5826   6.792   2.401   6.515
 1643SOL     OW 5827   3.420   4.930   3.046
 1643SOL    HW1 5828   3.325   4.936   3.014
 1643SOL    HW2 5829   3.425   4.960   3.142
 1644SOL     OW 5830   5.688   3.048   6.972
 1644SOL    HW1 5831   5.642   2.983   0.007
 1644SOL    HW2 5832   5.773   3.079   7.015
 1645SOL     OW 5833   2.748   6.809   6.171
 1645SOL    HW1 5834   2.680   6.778   6.105
 1645SOL    HW2 5835   2.836   6.820   6.126
 1646SOL     OW 5836   1.927   6.303   0.306
 1646SOL    HW1 5837   1.864   6.227   0.319
 1646SOL    HW2 5838   2.021   6.268   0.301
 1647SOL     OW 5839   5.526   2.725   3.915
 1647SOL    HW1 5840   5.440   2.709   3.963
 1647SOL    HW2 5841   5.509   2.741   3.818
 1648SOL     OW 5842   5.670   6.552   0.147
 1648SOL    HW1 5843   5.693   6.648   0.129
 1648SOL    HW2 5844   5.605   6.520   0.078
 1649SOL     OW 5845   3.522   0.926   3.150
 1649SOL    HW1 5846   3.465   0.881   3.081
 1649SOL    HW2 5847   3.466   0.992   3.201
 1650SOL     OW 5848   1.448   5.750   6.308
 1650SOL    HW1 5849   1.488   5.679   6.250
 1650SOL    HW2 5850   1.413   5.709   6.392
 1651SOL     OW 5851   0.316   2.471   2.854
 1651SOL    HW1 5852   0.275   2.404   2.916
 1651SOL    HW2 5853   0.411   2.445   2.836
 1652SOL     OW 5854   0.882   3.337   1.749
 1652SOL    HW1 5855   0.941   3.344   1.829
 1652SOL    HW2 5856   0.868   3.428   1.711
 1653SOL     OW 5857   0.096   5.721   2.219
 1653SOL    HW1 5858   0.052   5.712   2.130
 1653SOL    HW2 5859   0.191   5.750   2.207
 1654SOL     OW 5860   0.351   3.161   1.280
 1654SOL    HW1 5861   0.351   3.259   1.299
 1654SOL    HW2 5862   0.306   3.144   1.192
 1655SOL     OW 5863   6.931   1.072   4.492
 1655SOL    HW1 5864   6.969   0.986   4.459
 1655SOL    HW2 5865   6.989   1.110   4.564
 1656SOL     OW 5866   2.775   5.550   4.081
 1656SOL    HW1 5867   2.818   5.475   4.029
 1656SOL    HW2 5868   2.816   5.555   4.172
 1657SOL     OW 5869   6.303   1.142   5.076
 1657SOL    HW1 5870   6.284   1.122   4.979
 1657SOL    HW2 5871   6.395   1.181   5.084
 1658SOL     OW 5872   0.031   0.248   0.452
 1658SOL    HW1 5873   6.978   0.275   0.395
 1658SOL    HW2 5874   0.023   0.152   0.476
 1659SOL     OW 5875   3.934   0.169   6.954
 1659SOL    HW1 5876   3.897   0.088   6.909
 1659SOL    HW2 5877   3.989   0.141   0.008
 1660SOL     OW 5878   1.503   0.298   2.319
 1660SOL    HW1 5879   1.438   0.361   2.278
 1660SOL    HW2 5880   1.453   0.229   2.372
 1661SOL     OW 5881   2.729   5.428   2.130
 1661SOL    HW1 5882   2.709   5.382   2.216
 1661SOL    HW2 5883   2.824   5.456   2.128
 1662SOL     OW 5884   6.678   0.890   5.580
 1662SOL    HW1 5885   6.629   0.874   5.494
 1662SOL    HW2 5886   6.623   0.948   5.640
 1663SOL     OW 5887   5.331   5.637   2.341
 1663SOL    HW1 5888   5.347   5.545   2.377
 1663SOL    HW2 5889   5.345   5.705   2.413
 1664SOL     OW 5890   1.649   0.663   5.284
 1664SOL    HW1 5891   1.730   0.679   5.228
 1664SOL    HW2 5892   1.567   0.661   5.226
 1665SOL     OW 5893   0.058   3.669   1.942
 1665SOL    HW1 5894   6.988   3.644   1.963
 1665SOL    HW2 5895   0.112   3.670   2.026
 1666SOL     OW 5896   5.746   6.761   6.863
 1666SOL    HW1 5897   5.735   6.745   6.961
 1666SOL    HW2 5898   5.800   6.687   6.823
 1667SOL     OW 5899   6.568   6.493   1.383
 1667SOL    HW1 5900   6.606   6.425   1.446
 1667SOL    HW2 5901   6.641   6.527   1.323
 1668SOL     OW 5902   5.044   5.049   3.390
 1668SOL    HW1 5903   5.104   5.011   3.320
 1668SOL    HW2 5904   5.091   5.048   3.478
 1669SOL     OW 5905   6.686   4.642   5.601
 1669SOL    HW1 5906   6.725   4.727   5.567
 1669SOL    HW2 5907   6.738   4.565   5.565
 1670SOL     OW 5908   0.997   4.635   5.738
 1670SOL    HW1 5909   1.057   4.631   5.817
 1670SOL    HW2 5910   0.922   4.698   5.756
 1671SOL     OW 5911   5.353   1.632   2.991
 1671SOL    HW1 5912   5.446   1.596   2.986
 1671SOL    HW2 5913   5.331   1.657   3.085
 1672SOL     OW 5914   1.295   3.914   6.398
 1672SOL    HW1 5915   1.332   3.943   6.486
 1672SOL    HW2 5916   1.330   3.823   6.376
 1673SOL     OW 5917   2.077   1.736   4.810
 1673SOL    HW1 5918   2.116   1.651   4.847
 1673SOL    HW2 5919   2.133   1.768   4.734
 1674SOL     OW 5920   6.161   2.900   2.337
 1674SOL    HW1 5921   6.081   2.886   2.395
 1674SOL    HW2 5922   6.154   2.842   2.256
 1675SOL     OW 5923   4.875   0.220   1.117
 1675SOL    HW1 5924   4.810   0.184   1.050
 1675SOL    HW2 5925   4.890   0.318   1.100
 1676SOL     OW 5926   2.027   2.258   2.246
 1676SOL    HW1 5927   2.001   2.218   2.158
 1676SOL    HW2 5928   2.105   2.319   2.233
 1677SOL     OW 5929   3.886   4.032   3.402
 1677SOL    HW1 5930   3.966   4.057   3.457
 1677SOL    HW2 5931   3.803   4.059   3.451
 1678SOL     OW 5932   0.490   6.035   1.401
 1678SOL    HW1 5933   0.509   6.015   1.497
 1678SOL    HW2 5934   0.530   6.123   1.376
 1679SOL     OW 5935   1.524   1.384   5.190
 1679SOL    HW1 5936   1.451   1.316   5.179
 1679SOL    HW2 5937   1.613   1.339   5.185
 1680SOL     OW 5938   5.391   3.303   5.305
 1680SOL    HW1 5939   5.441   3.381   5.267
 1680SOL    HW2 5940   5.453   3.225   5.312
 1681SOL     OW 5941   1.879   5.694   4.791
 1681SOL    HW1 5942   1.951   5.693   4.860
 1681SOL    HW2 5943   1.790   5.707   4.837
 1682SOL     OW 5944   2.096   0.697   6.054
 1682SOL    HW1 5945   2.124   0.601   6.063
 1682SOL    HW2 5946   1.997   0.703   6.063
 1683SOL     OW 5947   5.648   6.522   2.803
 1683SOL    HW1 5948   5.724   6.558   2.749
 1683SOL    HW2 5949   5.678   6.438   2.850
 1684SOL     OW 5950   0.933   4.755   1.726
 1684SOL    HW1 5951   0.870   4.833   1.725
 1684SOL    HW2 5952   0.881   4.670   1.737
 1685SOL     OW 5953   1.558   1.968   5.457
 1685SOL    HW1 5954   1.528   1.887   5.407
 1685SOL    HW2 5955   1.602   1.941   5.542
 1686SOL     OW 5956   3.810   5.823   3.843
 1686SOL    HW1 5957   3.806   5.912   3.887
 1686SOL    HW2 5958   3.717   5.792   3.820
 1687SOL     OW 5959   0.588   3.952   1.871
 1687SOL    HW1 5960   0.533   3.957   1.954
 1687SOL    HW2 5961   0.679   3.988   1.889
 1688SOL     OW 5962   1.788   2.665   3.439
 1688SOL    HW1 5963   1.772   2.571   3.408
 1688SOL    HW2 5964   1.875   2.670   3.488
 1689SOL     OW 5965   6.523   1.206   2.810
 1689SOL    HW1 5966   6.584   1.143   2.857
 1689SOL    HW2 5967   6.431   1.197   2.848
 1690SOL     OW 5968   1.066   3.045   4.159
 1690SOL    HW1 5969   0.972   3.080   4.163
 1690SOL    HW2 5970   1.123   3.098   4.223
 1691SOL     OW 5971   5.304   3.382   4.587
 1691SOL    HW1 5972   5.376   3.364   4.520
 1691SOL    HW2 5973   5.282   3.480   4.586
 1692SOL     OW 5974   5.189   5.236   1.150
 1692SOL    HW1 5975   5.224   5.197   1.065
 1692SOL    HW2 5976   5.257   5.297   1.190
 1693SOL     OW 5977   0.275   1.784   4.677
 1693SOL    HW1 5978   0.262   1.846   4.754
 1693SOL    HW2 5979   0.193   1.786   4.619
 1694SOL     OW 5980   6.074   0.858   4.483
 1694SOL    HW1 5981   6.004   0.829   4.418
 1694SOL    HW2 5982   6.057   0.952   4.512
 1695SOL     OW 5983   3.483   0.797   0.039
 1695SOL    HW1 5984   3.558   0.821   0.101
 1695SOL    HW2 5985   3.510   0.815   6.969
 1696SOL     OW 5986   3.994   5.834   0.954
 1696SOL    HW1 5987   4.045   5.768   1.009
 1696SOL    HW2 5988   4.058   5.899   0.913
 1697SOL     OW 5989   5.683   2.362   0.780
 1697SOL    HW1 5990   5.642   2.399   0.863
 1697SOL    HW2 5991   5.752   2.426   0.746
 1698SOL     OW 5992   3.358   0.738   1.654
 1698SOL    HW1 5993   3.292   0.768   1.723
 1698SOL    HW2 5994   3.330   0.649   1.618
 1699SOL     OW 5995   2.798   2.084   6.142
 1699SOL    HW1 5996   2.871   2.133   6.191
 1699SOL    HW2 5997   2.835   1.997   6.107
 1700SOL     OW 5998   5.562   3.259   3.428
 1700SOL    HW1 5999   5.494   3.190   3.453
 1700SOL    HW2 6000   5.614   3.228   3.349
 1701SOL     OW 6001   6.033   5.277   4.849
 1701SOL    HW1 6002   5.950   5.329   4.828
 1701SOL    HW2 6003   6.102   5.295   4.779
 1702SOL     OW 6004   1.124   1.349   6.230
 1702SOL    HW1 6005   1.108   1.448   6.224
 1702SOL    HW2 6006   1.221   1.333   6.247
 1703SOL     OW 6007   4.400   1.319   6.197
 1703SOL    HW1 6008   4.398   1.314   6.098
 1703SOL    HW2 6009   4.418   1.228   6.235
 1704SOL     OW 6010   1.118   1.757   6.862
 1704SOL    HW1 6011   1.181   1.703   6.917
 1704SOL    HW2 6012   1.158   1.846   6.843
 1705SOL     OW 6013   3.721   1.824   1.951
 1705SOL    HW1 6014   3.647   1.865   1.898
 1705SOL    HW2 6015   3.747   1.737   1.910
 1706SOL     OW 6016   4.791   1.713   1.425
 1706SOL    HW1 6017   4.805   1.778   1.500
 1706SOL    HW2 6018   4.879   1.674   1.398
 1707SOL     OW 6019   5.113   2.022   2.779
 1707SOL    HW1 6020   5.185   1.955   2.797
 1707SOL    HW2 6021   5.152   2.113   2.771
 1708SOL     OW 6022   4.196   5.447   1.771
 1708SOL    HW1 6023   4.288   5.477   1.746
 1708SOL    HW2 6024   4.132   5.522   1.755
 1709SOL     OW 6025   4.237   6.352   0.640
 1709SOL    HW1 6026   4.217   6.449   0.633
 1709SOL    HW2 6027   4.320   6.339   0.694
 1710SOL     OW 6028   4.154   4.788   3.466
 1710SOL    HW1 6029   4.103   4.770   3.382
 1710SOL    HW2 6030   4.252   4.777   3.449
 1711SOL     OW 6031   2.701   4.827   5.631
 1711SOL    HW1 6032   2.780   4.888   5.621
 1711SOL    HW2 6033   2.670   4.799   5.540
 1712SOL     OW 6034   0.149   2.169   4.706
 1712SOL    HW1 6035   0.058   2.129   4.697
 1712SOL    HW2 6036   0.173   2.216   4.621
 1713SOL     OW 6037   3.539   1.294   2.933
 1713SOL    HW1 6038   3.445   1.272   2.958
 1713SOL    HW2 6039   3.602   1.258   3.002
 1714SOL     OW 6040   3.334   1.940   0.102
 1714SOL    HW1 6041   3.302   1.845   0.102
 1714SOL    HW2 6042   3.292   1.989   0.178
 1715SOL     OW 6043   2.216   5.645   2.526
 1715SOL    HW1 6044   2.286   5.583   2.490
 1715SOL    HW2 6045   2.260   5.726   2.565
 1716SOL     OW 6046   4.846   0.203   4.101
 1716SOL    HW1 6047   4.751   0.219   4.076
 1716SOL    HW2 6048   4.901   0.283   4.076
 1717SOL     OW 6049   3.823   5.389   5.483
 1717SOL    HW1 6050   3.808   5.354   5.575
 1717SOL    HW2 6051   3.853   5.485   5.489
 1718SOL     OW 6052   2.606   1.907   2.583
 1718SOL    HW1 6053   2.679   1.844   2.556
 1718SOL    HW2 6054   2.644   1.999   2.596
 1719SOL     OW 6055   1.980   5.063   1.056
 1719SOL    HW1 6056   1.915   4.987   1.050
 1719SOL    HW2 6057   1.938   5.140   1.103
 1720SOL     OW 6058   7.004   3.120   5.902
 1720SOL    HW1 6059   6.947   3.096   5.980
 1720SOL    HW2 6060   6.945   3.142   5.824
 1721SOL     OW 6061   1.306   0.417   2.144
 1721SOL    HW1 6062   1.239   0.389   2.075
 1721SOL    HW2 6063   1.305   0.517   2.152
 1722SOL     OW 6064   3.396   1.726   3.323
 1722SOL    HW1 6065   3.489   1.747   3.294
 1722SOL    HW2 6066   3.344   1.690   3.245
 1723SOL     OW 6067   4.408   2.108   6.870
 1723SOL    HW1 6068   4.459   2.048   6.931
 1723SOL    HW2 6069   4.438   2.094   6.776
 1724SOL     OW 6070   6.520   1.783   1.557
 1724SOL    HW1 6071   6.583   1.771   1.480
 1724SOL    HW2 6072   6.573   1.795   1.641
 1725SOL     OW 6073   1.848   4.766   6.736
 1725SOL    HW1 6074   1.792   4.762   6.819
 1725SOL    HW2 6075   1.901   4.852   6.736
 1726SOL     OW 6076   5.627   4.127   4.033
 1726SOL    HW1 6077   5.614   4.060   4.106
 1726SOL    HW2 6078   5.641   4.079   3.946
 1727SOL     OW 6079   3.633   3.701   2.973
 1727SOL    HW1 6080   3.618   3.658   3.062
 1727SOL    HW2 6081   3.731   3.709   2.956
 1728SOL     OW 6082   4.721   4.116   5.520
 1728SOL    HW1 6083   4.714   4.164   5.433
 1728SOL    HW2 6084   4.680   4.172   5.592
 1729SOL     OW 6085   0.867   3.742   2.839
 1729SOL    HW1 6086   0.898   3.757   2.745
 1729SOL    HW2 6087   0.904   3.655   2.873
 1730SOL     OW 6088   3.202   6.216   5.501
 1730SOL    HW1 6089   3.299   6.239   5.493
 1730SOL    HW2 6090   3.159   6.278   5.566
 1731SOL     OW 6091   5.517   5.156   3.769
 1731SOL    HW1 6092   5.613   5.155   3.740
 1731SOL    HW2 6093   5.513   5.158   3.868
 1732SOL     OW 6094   1.764   4.323   6.577
 1732SOL    HW1 6095   1.798   4.230   6.564
 1732SOL    HW2 6096   1.741   4.363   6.489
 1733SOL     OW 6097   2.637   4.642   0.776
 1733SOL    HW1 6098   2.620   4.547   0.802
 1733SOL    HW2 6099   2.555   4.697   0.793
 1734SOL     OW 6100   5.770   2.970   1.015
 1734SOL    HW1 6101   5.793   2.975   1.112
 1734SOL    HW2 6102   5.672   2.957   1.005
 1735SOL     OW 6103   4.430   5.556   6.463
 1735SOL    HW1 6104   4.387   5.578   6.375
 1735SOL    HW2 6105   4.524   5.589   6.463
 1736SOL     OW 6106   4.541   3.944   1.117
 1736SOL    HW1 6107   4.564   3.947   1.214
 1736SOL    HW2 6108   4.575   3.858   1.078
 1737SOL     OW 6109   5.429   0.656   4.186
 1737SOL    HW1 6110   5.368   0.726   4.224
 1737SOL    HW2 6111   5.374   0.578   4.156
 1738SOL     OW 6112   2.050   3.592   4.657
 1738SOL    HW1 6113   2.032   3.532   4.580
 1738SOL    HW2 6114   2.034   3.543   4.743
 1739SOL     OW 6115   5.955   0.507   4.209
 1739SOL    HW1 6116   5.916   0.415   4.194
 1739SOL    HW2 6117   6.050   0.498   4.239
 1740SOL     OW 6118   0.205   1.945   4.909
 1740SOL    HW1 6119   0.143   1.916   4.982
 1740SOL    HW2 6120   0.175   2.032   4.871
 1741SOL     OW 6121   1.992   1.484   3.412
 1741SOL    HW1 6122   1.976   1.410   3.348
 1741SOL    HW2 6123   2.073   1.536   3.385
 1742SOL     OW 6124   5.904   1.173   6.605
 1742SOL    HW1 6125   5.844   1.096   6.627
 1742SOL    HW2 6126   5.956   1.151   6.522
 1743SOL     OW 6127   1.335   1.241   3.043
 1743SOL    HW1 6128   1.242   1.215   3.016
 1743SOL    HW2 6129   1.394   1.239   2.962
 1744SOL     OW 6130   5.254   2.512   3.230
 1744SOL    HW1 6131   5.289   2.449   3.299
 1744SOL    HW2 6132   5.159   2.536   3.252
 1745SOL     OW 6133   6.175   6.085   1.410
 1745SOL    HW1 6134   6.087   6.132   1.404
 1745SOL    HW2 6135   6.196   6.067   1.506
 1746SOL     OW 6136   2.178   3.555   3.842
 1746SOL    HW1 6137   2.202   3.458   3.833
 1746SOL    HW2 6138   2.148   3.591   3.754
 1747SOL     OW 6139   3.791   1.353   2.265
 1747SOL    HW1 6140   3.771   1.374   2.169
 1747SOL    HW2 6141   3.836   1.431   2.308
 1748SOL     OW 6142   6.486   1.202   4.368
 1748SOL    HW1 6143   6.389   1.199   4.344
 1748SOL    HW2 6144   6.541   1.180   4.288
 1749SOL     OW 6145   3.006   6.322   0.515
 1749SOL    HW1 6146   3.021   6.391   0.444
 1749SOL    HW2 6147   3.070   6.247   0.502
 1750SOL     OW 6148   3.868   0.413   4.893
 1750SOL    HW1 6149   3.964   0.386   4.901
 1750SOL    HW2 6150   3.824   0.403   4.982
 1751SOL     OW 6151   6.112   2.464   4.617
 1751SOL    HW1 6152   6.191   2.408   4.592
 1751SOL    HW2 6153   6.042   2.456   4.545
 1752SOL     OW 6154   6.457   1.107   1.487
 1752SOL    HW1 6155   6.542   1.149   1.457
 1752SOL    HW2 6156   6.382   1.172   1.476
 1753SOL     OW 6157   6.784   1.523   2.011
 1753SOL    HW1 6158   6.761   1.612   2.052
 1753SOL    HW2 6159   6.733   1.451   2.058
 1754SOL     OW 6160   2.492   5.553   5.795
 1754SOL    HW1 6161   2.401   5.513   5.808
 1754SOL    HW2 6162   2.557   5.508   5.857
 1755SOL     OW 6163   6.359   6.170   5.345
 1755SOL    HW1 6164   6.262   6.188   5.329
 1755SOL    HW2 6165   6.385   6.202   5.436
 1756SOL     OW 6166   4.625   0.013   6.179
 1756SOL    HW1 6167   4.606   0.110   6.188
 1756SOL    HW2 6168   4.717   0.000   6.141
 1757SOL     OW 6169   2.548   5.004   4.128
 1757SOL    HW1 6170   2.552   5.085   4.187
 1757SOL    HW2 6171   2.454   4.971   4.122
 1758SOL     OW 6172   1.605   6.921   5.164
 1758SOL    HW1 6173   1.601   7.020   5.167
 1758SOL    HW2 6174   1.697   6.890   5.190
 1759SOL     OW 6175   1.401   6.357   6.017
 1759SOL    HW1 6176   1.444   6.435   6.063
 1759SOL    HW2 6177   1.455   6.275   6.032
 1760SOL     OW 6178   5.874   1.144   5.190
 1760SOL    HW1 6179   5.852   1.046   5.187
 1760SOL    HW2 6180   5.791   1.198   5.182
 1761SOL     OW 6181   0.174   1.026   0.984
 1761SOL    HW1 6182   0.149   1.073   1.069
 1761SOL    HW2 6183   0.259   1.064   0.948
 1762SOL     OW 6184   0.605   1.272   5.052
 1762SOL    HW1 6185   0.540   1.209   5.008
 1762SOL    HW2 6186   0.684   1.286   4.992
 1763SOL     OW 6187   0.949   4.570   4.823
 1763SOL    HW1 6188   0.870   4.539   4.769
 1763SOL    HW2 6189   1.014   4.495   4.832
 1764SOL     OW 6190   0.802   3.858   2.320
 1764SOL    HW1 6191   0.899   3.838   2.311
 1764SOL    HW2 6192   0.749   3.799   2.260
 1765SOL     OW 6193   4.676   2.550   1.760
 1765SOL    HW1 6194   4.770   2.537   1.729
 1765SOL    HW2 6195   4.671   2.629   1.821
 1766SOL     OW 6196   4.745   4.165   3.940
 1766SOL    HW1 6197   4.794   4.204   3.862
 1766SOL    HW2 6198   4.707   4.239   3.996
 1767SOL     OW 6199   0.690   4.975   2.489
 1767SOL    HW1 6200   0.708   4.961   2.392
 1767SOL    HW2 6201   0.618   5.044   2.500
 1768SOL     OW 6202   4.254   0.118   1.087
 1768SOL    HW1 6203   4.193   0.168   1.025
 1768SOL    HW2 6204   4.284   0.033   1.044
 1769SOL     OW 6205   5.976   0.843   6.803
 1769SOL    HW1 6206   6.021   0.902   6.870
 1769SOL    HW2 6207   5.887   0.881   6.780
 1770SOL     OW 6208   0.666   4.320   5.629
 1770SOL    HW1 6209   0.724   4.388   5.582
 1770SOL    HW2 6210   0.712   4.231   5.628
 1771SOL     OW 6211   1.118   4.709   0.199
 1771SOL    HW1 6212   1.082   4.701   0.292
 1771SOL    HW2 6213   1.185   4.636   0.183
 1772SOL     OW 6214   3.892   5.392   3.885
 1772SOL    HW1 6215   3.818   5.431   3.941
 1772SOL    HW2 6216   3.918   5.303   3.922
 1773SOL     OW 6217   1.294   0.961   5.026
 1773SOL    HW1 6218   1.329   0.911   5.105
 1773SOL    HW2 6219   1.267   0.897   4.954
 1774SOL     OW 6220   5.790   6.909   1.921
 1774SOL    HW1 6221   5.768   6.945   2.012
 1774SOL    HW2 6222   5.867   6.960   1.882
 1775SOL     OW 6223   2.229   5.244   6.080
 1775SOL    HW1 6224   2.289   5.203   6.148
 1775SOL    HW2 6225   2.200   5.175   6.015
 1776SOL     OW 6226   4.908   1.052   5.429
 1776SOL    HW1 6227   4.885   1.132   5.484
 1776SOL    HW2 6228   4.873   0.969   5.473
 1777SOL     OW 6229   4.223   6.975   6.381
 1777SOL    HW1 6230   4.228   6.878   6.358
 1777SOL    HW2 6231   4.192   0.001   6.300
 1778SOL     OW 6232   5.337   1.252   4.258
 1778SOL    HW1 6233   5.240   1.227   4.260
 1778SOL    HW2 6234   5.362   1.283   4.167
 1779SOL     OW 6235   4.995   0.084   5.080
 1779SOL    HW1 6236   5.089   0.119   5.081
 1779SOL    HW2 6237   4.956   0.096   4.989
 1780SOL     OW 6238   1.759   5.354   4.464
 1780SOL    HW1 6239   1.854   5.322   4.466
 1780SOL    HW2 6240   1.733   5.387   4.554
 1781SOL     OW 6241   4.661   6.997   4.756
 1781SOL    HW1 6242   4.615   0.061   4.750
 1781SOL    HW2 6243   4.639   6.943   4.674
 1782SOL     OW 6244   1.736   1.427   2.784
 1782SOL    HW1 6245   1.656   1.474   2.822
 1782SOL    HW2 6246   1.744   1.447   2.687
 1783SOL     OW 6247   2.379   3.715   6.069
 1783SOL    HW1 6248   2.397   3.617   6.078
 1783SOL    HW2 6249   2.298   3.739   6.123
 1784SOL     OW 6250   2.297   0.600   1.408
 1784SOL    HW1 6251   2.327   0.535   1.337
 1784SOL    HW2 6252   2.275   0.687   1.365
 1785SOL     OW 6253   0.104   6.434   4.285
 1785SOL    HW1 6254   0.138   6.504   4.347
 1785SOL    HW2 6255   0.179   6.373   4.258
 1786SOL     OW 6256   1.794   5.307   0.867
 1786SOL    HW1 6257   1.820   5.346   0.956
 1786SOL    HW2 6258   1.695   5.298   0.863
 1787SOL     OW 6259   1.216   2.424   5.395
 1787SOL    HW1 6260   1.203   2.383   5.485
 1787SOL    HW2 6261   1.174   2.515   5.393
 1788SOL     OW 6262   4.710   3.805   0.463
 1788SOL    HW1 6263   4.637   3.765   0.519
 1788SOL    HW2 6264   4.778   3.734   0.442
 1789SOL     OW 6265   6.363   3.375   1.730
 1789SOL    HW1 6266   6.287   3.320   1.762
 1789SOL    HW2 6267   6.403   3.332   1.648
 1790SOL     OW 6268   3.188   1.635   4.662
 1790SOL    HW1 6269   3.097   1.632   4.622
 1790SOL    HW2 6270   3.253   1.589   4.602
 1791SOL     OW 6271   6.364   0.943   3.822
 1791SOL    HW1 6272   6.417   0.859   3.812
 1791SOL    HW2 6273   6.414   1.019   3.779
 1792SOL     OW 6274   6.990   1.897   5.327
 1792SOL    HW1 6275   6.915   1.834   5.305
 1792SOL    HW2 6276   7.013   1.889   5.424
 1793SOL     OW 6277   6.980   1.201   5.221
 1793SOL    HW1 6278   6.964   1.173   5.127
 1793SOL    HW2 6279   6.936   1.136   5.283
 1794SOL     OW 6280   6.348   0.530   6.883
 1794SOL    HW1 6281   6.292   0.458   6.924
 1794SOL    HW2 6282   6.370   0.505   6.789
 1795SOL     OW 6283   5.729   4.648   6.950
 1795SOL    HW1 6284   5.645   4.612   6.988
 1795SOL    HW2 6285   5.708   4.719   6.883
 1796SOL     OW 6286   1.514   0.683   5.792
 1796SOL    HW1 6287   1.521   0.584   5.806
 1796SOL    HW2 6288   1.565   0.709   5.710
 1797SOL     OW 6289   1.912   6.972   5.076
 1797SOL    HW1 6290   1.839   7.021   5.027
 1797SOL    HW2 6291   2.000   6.990   5.032
 1798SOL     OW 6292   3.826   3.027   4.413
 1798SOL    HW1 6293   3.762   3.020   4.336
 1798SOL    HW2 6294   3.797   2.966   4.486
 1799SOL     OW 6295   3.613   0.776   6.802
 1799SOL    HW1 6296   3.574   0.699   6.752
 1799SOL    HW2 6297   3.675   0.827   6.742
 1800SOL     OW 6298   5.153   4.384   4.000
 1800SOL    HW1 6299   5.194   4.419   4.084
 1800SOL    HW2 6300   5.104   4.457   3.953
 1801SOL     OW 6301   1.426   1.351   1.706
 1801SOL    HW1 6302   1.456   1.292   1.780
 1801SOL    HW2 6303   1.504   1.400   1.667
 1802SOL     OW 6304   6.640   5.061   3.319
 1802SOL    HW1 6305   6.550   5.059   3.363
 1802SOL    HW2 6306   6.674   5.155   3.317
 1803SOL     OW 6307   6.751   6.480   2.248
 1803SOL    HW1 6308   6.850   6.484   2.234
 1803SOL    HW2 6309   6.717   6.390   2.221
 1804SOL     OW 6310   3.084   3.551   6.030
 1804SOL    HW1 6311   3.067   3.506   5.942
 1804SOL    HW2 6312   3.162   3.507   6.075
 1805SOL     OW 6313   0.852   6.810   5.953
 1805SOL    HW1 6314   0.765   6.776   5.918
 1805SOL    HW2 6315   0.912   6.734   5.975
 1806SOL     OW 6316   6.809   2.333   2.405
 1806SOL    HW1 6317   6.783   2.331   2.501
 1806SOL    HW2 6318   6.813   2.239   2.370
 1807SOL     OW 6319   6.592   3.673   0.751
 1807SOL    HW1 6320   6.660   3.741   0.723
 1807SOL    HW2 6321   6.602   3.591   0.695
 1808SOL     OW 6322   5.274   2.231   5.311
 1808SOL    HW1 6323   5.269   2.317   5.362
 1808SOL    HW2 6324   5.197   2.173   5.336
 1809SOL     OW 6325   3.484   2.162   5.582
 1809SOL    HW1 6326   3.462   2.222   5.505
 1809SOL    HW2 6327   3.443   2.072   5.567
 1810SOL     OW 6328   0.555   0.513   4.119
 1810SOL    HW1 6329   0.516   0.540   4.031
 1810SOL    HW2 6330   0.537   0.585   4.186
 1811SOL     OW 6331   4.144   5.014   2.179
 1811SOL    HW1 6332   4.077   5.064   2.126
 1811SOL    HW2 6333   4.122   4.916   2.178
 1812SOL     OW 6334   4.025   0.057   5.993
 1812SOL    HW1 6335   4.083   0.098   6.064
 1812SOL    HW2 6336   4.075   0.056   5.906
 1813SOL     OW 6337   4.678   4.650   2.650
 1813SOL    HW1 6338   4.707   4.586   2.579
 1813SOL    HW2 6339   4.609   4.606   2.708
 1814SOL     OW 6340   0.120   0.024   0.599
 1814SOL    HW1 6341   0.115   0.017   0.699
 1814SOL    HW2 6342   0.212   0.050   0.572
 1815SOL     OW 6343   5.633   6.039   1.994
 1815SOL    HW1 6344   5.630   6.136   2.019
 1815SOL    HW2 6345   5.643   6.031   1.894
 1816SOL     OW 6346   4.589   6.301   5.476
 1816SOL    HW1 6347   4.577   6.228   5.543
 1816SOL    HW2 6348   4.532   6.379   5.501
 1817SOL     OW 6349   3.037   1.612   3.126
 1817SOL    HW1 6350   2.982   1.684   3.168
 1817SOL    HW2 6351   2.986   1.526   3.128
 1818SOL     OW 6352   1.728   6.498   0.201
 1818SOL    HW1 6353   1.786   6.425   0.237
 1818SOL    HW2 6354   1.755   6.585   0.241
 1819SOL     OW 6355   0.722   4.572   2.524
 1819SOL    HW1 6356   0.722   4.657   2.577
 1819SOL    HW2 6357   0.774   4.502   2.574
 1820SOL     OW 6358   3.815   0.010   2.959
 1820SOL    HW1 6359   3.895   0.061   2.927
 1820SOL    HW2 6360   3.828   7.009   3.055
 1821SOL     OW 6361   3.256   0.979   2.125
 1821SOL    HW1 6362   3.262   0.997   2.026
 1821SOL    HW2 6363   3.205   0.895   2.141
 1822SOL     OW 6364   1.182   3.116   2.267
 1822SOL    HW1 6365   1.200   3.207   2.230
 1822SOL    HW2 6366   1.087   3.111   2.298
 1823SOL     OW 6367   3.965   6.578   2.830
 1823SOL    HW1 6368   4.010   6.544   2.913
 1823SOL    HW2 6369   3.875   6.614   2.854
 1824SOL     OW 6370   4.561   4.137   0.876
 1824SOL    HW1 6371   4.510   4.217   0.909
 1824SOL    HW2 6372   4.584   4.078   0.952
 1825SOL     OW 6373   1.344   2.641   5.140
 1825SOL    HW1 6374   1.340   2.606   5.046
 1825SOL    HW2 6375   1.427   2.696   5.152
 1826SOL     OW 6376   3.606   1.695   1.571
 1826SOL    HW1 6377   3.534   1.626   1.579
 1826SOL    HW2 6378   3.566   1.787   1.575
 1827SOL     OW 6379   5.058   5.170   0.796
 1827SOL    HW1 6380   5.074   5.133   0.705
 1827SOL    HW2 6381   5.037   5.094   0.859
 1828SOL     OW 6382   1.444   3.073   5.892
 1828SOL    HW1 6383   1.416   3.010   5.965
 1828SOL    HW2 6384   1.444   3.166   5.928
 1829SOL     OW 6385   4.143   0.354   3.815
 1829SOL    HW1 6386   4.192   0.375   3.900
 1829SOL    HW2 6387   4.072   0.422   3.799
 1830SOL     OW 6388   6.232   0.173   5.107
 1830SOL    HW1 6389   6.264   0.079   5.107
 1830SOL    HW2 6390   6.168   0.187   5.182
 1831SOL     OW 6391   5.193   5.532   2.856
 1831SOL    HW1 6392   5.286   5.562   2.879
 1831SOL    HW2 6393   5.198   5.458   2.789
 1832SOL     OW 6394   2.423   4.057   0.289
 1832SOL    HW1 6395   2.356   4.087   0.222
 1832SOL    HW2 6396   2.475   3.980   0.252
 1833SOL     OW 6397   4.782   0.367   1.828
 1833SOL    HW1 6398   4.782   0.268   1.840
 1833SOL    HW2 6399   4.870   0.397   1.791
 1834SOL     OW 6400   3.130   2.530   0.325
 1834SOL    HW1 6401   3.105   2.541   0.229
 1834SOL    HW2 6402   3.104   2.613   0.376
 1835SOL     OW 6403   0.779   4.912   1.122
 1835SOL    HW1 6404   0.867   4.936   1.163
 1835SOL    HW2 6405   0.756   4.818   1.145
 1836SOL     OW 6406   5.027   1.452   2.200
 1836SOL    HW1 6407   4.979   1.411   2.123
 1836SOL    HW2 6408   5.111   1.401   2.219
 1837SOL     OW 6409   2.411   0.896   5.832
 1837SOL    HW1 6410   2.379   0.911   5.926
 1837SOL    HW2 6411   2.456   0.807   5.826
 1838SOL     OW 6412   6.726   0.585   0.747
 1838SOL    HW1 6413   6.825   0.597   0.751
 1838SOL    HW2 6414   6.685   0.620   0.832
 1839SOL     OW 6415   6.025   1.852   0.292
 1839SOL    HW1 6416   5.980   1.923   0.239
 1839SOL    HW2 6417   6.074   1.893   0.368
 1840SOL     OW 6418   3.517   0.125   3.307
 1840SOL    HW1 6419   3.527   0.224   3.295
 1840SOL    HW2 6420   3.422   0.103   3.328
 1841SOL     OW 6421   2.075   0.164   2.042
 1841SOL    HW1 6422   1.982   0.197   2.061
 1841SOL    HW2 6423   2.109   0.209   1.960
 1842SOL     OW 6424   1.960   4.789   0.490
 1842SOL    HW1 6425   1.977   4.691   0.502
 1842SOL    HW2 6426   1.991   4.838   0.571
 1843SOL     OW 6427   3.964   1.185   4.616
 1843SOL    HW1 6428   3.905   1.239   4.556
 1843SOL    HW2 6429   4.036   1.141   4.562
 1844SOL     OW 6430   4.941   1.356   5.870
 1844SOL    HW1 6431   4.903   1.404   5.950
 1844SOL    HW2 6432   4.998   1.280   5.901
 1845SOL     OW 6433   2.466   0.704   3.478
 1845SOL    HW1 6434   2.465   0.639   3.402
 1845SOL    HW2 6435   2.560   0.729   3.500
 1846SOL     OW 6436   4.462   0.794   3.378
 1846SOL    HW1 6437   4.550   0.753   3.354
 1846SOL    HW2 6438   4.391   0.724   3.377
 1847SOL     OW 6439   2.005   0.347   4.388
 1847SOL    HW1 6440   2.013   0.438   4.347
 1847SOL    HW2 6441   1.995   0.356   4.487
 1848SOL     OW 6442   2.053   5.721   4.239
 1848SOL    HW1 6443   2.014   5.651   4.180
 1848SOL    HW2 6444   1.981   5.783   4.270
 1849SOL     OW 6445   4.813   2.729   2.722
 1849SOL    HW1 6446   4.913   2.732   2.719
 1849SOL    HW2 6447   4.781   2.780   2.802
 1850SOL     OW 6448   5.118   2.026   2.191
 1850SOL    HW1 6449   5.048   2.085   2.232
 1850SOL    HW2 6450   5.074   1.959   2.132
 1851SOL     OW 6451   0.198   2.928   6.487
 1851SOL    HW1 6452   0.267   2.859   6.465
 1851SOL    HW2 6453   0.188   2.991   6.410
 1852SOL     OW 6454   0.853   3.851   1.704
 1852SOL    HW1 6455   0.771   3.795   1.711
 1852SOL    HW2 6456   0.925   3.814   1.762
 1853SOL     OW 6457   6.949   3.306   4.653
 1853SOL    HW1 6458   7.014   3.372   4.615
 1853SOL    HW2 6459   6.947   3.315   4.752
 1854SOL     OW 6460   0.632   5.737   3.257
 1854SOL    HW1 6461   0.564   5.747   3.329
 1854SOL    HW2 6462   0.658   5.641   3.249
 1855SOL     OW 6463   5.165   3.617   4.353
 1855SOL    HW1 6464   5.105   3.540   4.376
 1855SOL    HW2 6465   5.212   3.649   4.435
 1856SOL     OW 6466   3.574   3.326   7.003
 1856SOL    HW1 6467   3.640   3.363   6.937
 1856SOL    HW2 6468   3.615   3.249   0.026
 1857SOL     OW 6469   5.302   1.144   0.490
 1857SOL    HW1 6470   5.390   1.170   0.451
 1857SOL    HW2 6471   5.259   1.225   0.531
 1858SOL     OW 6472   4.439   1.936   4.435
 1858SOL    HW1 6473   4.360   1.880   4.411
 1858SOL    HW2 6474   4.504   1.881   4.487
 1859SOL     OW 6475   5.503   1.642   4.974
 1859SOL    HW1 6476   5.563   1.636   4.894
 1859SOL    HW2 6477   5.467   1.552   4.996
 1860SOL     OW 6478   1.085   1.610   4.883
 1860SOL    HW1 6479   1.104   1.596   4.980
 1860SOL    HW2 6480   1.123   1.534   4.830
 1861SOL     OW 6481   5.771   0.791   3.003
 1861SOL    HW1 6482   5.865   0.820   3.022
 1861SOL    HW2 6483   5.772   0.700   2.961
 1862SOL     OW 6484   2.172   6.426   6.866
 1862SOL    HW1 6485   2.147   6.338   6.907
 1862SOL    HW2 6486   2.112   6.497   6.901
 1863SOL     OW 6487   0.530   2.958   1.056
 1863SOL    HW1 6488   0.549   2.893   1.129
 1863SOL    HW2 6489   0.495   2.908   0.976
 1864SOL     OW 6490   2.705   5.963   4.329
 1864SOL    HW1 6491   2.677   5.944   4.234
 1864SOL    HW2 6492   2.804   5.953   4.338
 1865SOL     OW 6493   4.833   1.598   0.648
 1865SOL    HW1 6494   4.814   1.689   0.686
 1865SOL    HW2 6495   4.866   1.538   0.721
 1866SOL     OW 6496   0.296   4.121   4.317
 1866SOL    HW1 6497   0.353   4.049   4.357
 1866SOL    HW2 6498   0.280   4.100   4.221
 1867SOL     OW 6499   2.818   2.412   1.448
 1867SOL    HW1 6500   2.819   2.483   1.377
 1867SOL    HW2 6501   2.812   2.455   1.538
 1868SOL     OW 6502   4.996   4.219   4.690
 1868SOL    HW1 6503   4.933   4.255   4.759
 1868SOL    HW2 6504   5.018   4.123   4.712
 1869SOL     OW 6505   4.772   2.049   4.023
 1869SOL    HW1 6506   4.752   2.142   4.054
 1869SOL    HW2 6507   4.686   2.000   4.007
 1870SOL     OW 6508   1.369   4.115   3.834
 1870SOL    HW1 6509   1.460   4.078   3.853
 1870SOL    HW2 6510   1.370   4.161   3.745
 1871SOL     OW 6511   0.758   6.701   0.352
 1871SOL    HW1 6512   0.677   6.760   0.348
 1871SOL    HW2 6513   0.729   6.606   0.359
 1872SOL     OW 6514   3.280   2.041   0.347
 1872SOL    HW1 6515   3.229   2.088   0.419
 1872SOL    HW2 6516   3.288   1.944   0.369
 1873SOL     OW 6517   6.662   1.125   0.158
 1873SOL    HW1 6518   6.685   1.134   0.062
 1873SOL    HW2 6519   6.578   1.073   0.168
 1874SOL     OW 6520   0.791   6.904   6.630
 1874SOL    HW1 6521   0.859   6.879   6.561
 1874SOL    HW2 6522   0.707   6.853   6.613
 1875SOL     OW 6523   6.255   5.788   6.986
 1875SOL    HW1 6524   6.235   5.691   6.995
 1875SOL    HW2 6525   6.354   5.802   6.989
 1876SOL     OW 6526   5.481   6.523   5.830
 1876SOL    HW1 6527   5.433   6.580   5.896
 1876SOL    HW2 6528   5.483   6.570   5.741
 1877SOL     OW 6529   0.271   0.712   2.191
 1877SOL    HW1 6530   0.230   0.696   2.280
 1877SOL    HW2 6531   0.208   0.764   2.134
 1878SOL     OW 6532   0.692   4.236   3.215
 1878SOL    HW1 6533   0.641   4.267   3.295
 1878SOL    HW2 6534   0.644   4.159   3.173
 1879SOL     OW 6535   2.651   5.456   4.890
 1879SOL    HW1 6536   2.590   5.534   4.901
 1879SOL    HW2 6537   2.736   5.486   4.847
 1880SOL     OW 6538   0.175   2.732   3.148
 1880SOL    HW1 6539   0.268   2.705   3.173
 1880SOL    HW2 6540   0.113   2.714   3.224
 1881SOL     OW 6541   1.074   2.169   3.357
 1881SOL    HW1 6542   1.139   2.106   3.401
 1881SOL    HW2 6543   1.026   2.221   3.428
 1882SOL     OW 6544   1.347   5.730   0.269
 1882SOL    HW1 6545   1.373   5.826   0.257
 1882SOL    HW2 6546   1.382   5.697   0.357
 1883SOL     OW 6547   1.071   3.893   2.220
 1883SOL    HW1 6548   1.064   3.988   2.250
 1883SOL    HW2 6549   1.075   3.890   2.120
 1884SOL     OW 6550   3.589   0.969   0.354
 1884SOL    HW1 6551   3.605   0.877   0.319
 1884SOL    HW2 6552   3.628   1.036   0.290
 1885SOL     OW 6553   6.905   2.512   0.938
 1885SOL    HW1 6554   6.818   2.462   0.938
 1885SOL    HW2 6555   6.963   2.477   1.011
 1886SOL     OW 6556   2.255   1.651   6.407
 1886SOL    HW1 6557   2.242   1.655   6.506
 1886SOL    HW2 6558   2.296   1.736   6.375
 1887SOL     OW 6559   0.484   4.946   5.612
 1887SOL    HW1 6560   0.518   4.852   5.605
 1887SOL    HW2 6561   0.554   5.010   5.583
 1888SOL     OW 6562   1.945   1.613   5.524
 1888SOL    HW1 6563   1.930   1.711   5.539
 1888SOL    HW2 6564   2.032   1.599   5.477
 1889SOL     OW 6565   4.626   3.314   0.418
 1889SOL    HW1 6566   4.699   3.282   0.478
 1889SOL    HW2 6567   4.665   3.369   0.344
 1890SOL     OW 6568   1.016   6.195   6.118
 1890SOL    HW1 6569   1.085   6.192   6.190
 1890SOL    HW2 6570   1.061   6.203   6.029
 1891SOL     OW 6571   5.892   3.491   5.562
 1891SOL    HW1 6572   5.848   3.415   5.609
 1891SOL    HW2 6573   5.975   3.459   5.517
 1892SOL     OW 6574   3.823   5.979   1.129
 1892SOL    HW1 6575   3.867   5.905   1.078
 1892SOL    HW2 6576   3.754   5.941   1.190
 1893SOL     OW 6577   3.667   2.089   4.376
 1893SOL    HW1 6578   3.716   2.035   4.444
 1893SOL    HW2 6579   3.732   2.123   4.307
 1894SOL     OW 6580   4.497   3.963   1.636
 1894SOL    HW1 6581   4.458   3.893   1.695
 1894SOL    HW2 6582   4.440   4.045   1.638
 1895SOL     OW 6583   6.137   1.390   2.628
 1895SOL    HW1 6584   6.149   1.319   2.698
 1895SOL    HW2 6585   6.040   1.410   2.617
 1896SOL     OW 6586   6.161   1.414   4.354
 1896SOL    HW1 6587   6.236   1.459   4.403
 1896SOL    HW2 6588   6.178   1.315   4.352
 1897SOL     OW 6589   6.339   5.404   3.476
 1897SOL    HW1 6590   6.357   5.394   3.574
 1897SOL    HW2 6591   6.419   5.375   3.424
 1898SOL     OW 6592   5.181   5.676   1.132
 1898SOL    HW1 6593   5.120   5.614   1.083
 1898SOL    HW2 6594   5.205   5.754   1.074
 1899SOL     OW 6595   7.004   3.331   3.293
 1899SOL    HW1 6596   0.026   3.301   3.210
 1899SOL    HW2 6597   0.046   3.367   3.358
 1900SOL     OW 6598   1.624   6.488   6.719
 1900SOL    HW1 6599   1.714   6.532   6.712
 1900SOL    HW2 6600   1.588   6.502   6.811
 1901SOL     OW 6601   1.812   0.670   6.761
 1901SOL    HW1 6602   1.895   0.725   6.775
 1901SOL    HW2 6603   1.837   0.573   6.761
 1902SOL     OW 6604   1.038   2.655   4.095
 1902SOL    HW1 6605   1.069   2.729   4.034
 1902SOL    HW2 6606   1.114   2.592   4.111
 1903SOL     OW 6607   6.148   4.987   3.553
 1903SOL    HW1 6608   6.143   5.032   3.642
 1903SOL    HW2 6609   6.243   4.958   3.535
 1904SOL     OW 6610   0.377   0.328   4.684
 1904SOL    HW1 6611   0.466   0.317   4.728
 1904SOL    HW2 6612   0.390   0.345   4.586
 1905SOL     OW 6613   6.897   2.180   3.885
 1905SOL    HW1 6614   6.869   2.259   3.940
 1905SOL    HW2 6615   6.983   2.200   3.839
 1906SOL     OW 6616   2.469   6.997   6.036
 1906SOL    HW1 6617   2.421   6.977   5.950
 1906SOL    HW2 6618   2.422   0.046   6.084
 1907SOL     OW 6619   2.979   0.379   3.251
 1907SOL    HW1 6620   2.947   0.427   3.333
 1907SOL    HW2 6621   3.070   0.414   3.226
 1908SOL     OW 6622   4.633   1.070   5.872
 1908SOL    HW1 6623   4.664   1.113   5.787
 1908SOL    HW2 6624   4.657   1.129   5.950
 1909SOL     OW 6625   2.615   4.607   4.593
 1909SOL    HW1 6626   2.654   4.672   4.659
 1909SOL    HW2 6627   2.689   4.553   4.553
 1910SOL     OW 6628   5.158   2.323   6.810
 1910SOL    HW1 6629   5.143   2.418   6.838
 1910SOL    HW2 6630   5.204   2.274   6.884
 1911SOL     OW 6631   6.709   2.226   5.125
 1911SOL    HW1 6632   6.619   2.243   5.165
 1911SOL    HW2 6633   6.707   2.251   5.028
 1912SOL     OW 6634   2.950   6.576   2.262
 1912SOL    HW1 6635   2.962   6.675   2.254
 1912SOL    HW2 6636   2.957   6.534   2.172
 1913SOL     OW 6637   2.044   6.281   5.118
 1913SOL    HW1 6638   2.049   6.349   5.045
 1913SOL    HW2 6639   2.114   6.300   5.186
 1914SOL     OW 6640   2.266   2.808   6.438
 1914SOL    HW1 6641   2.246   2.787   6.533
 1914SOL    HW2 6642   2.242   2.729   6.381
 1915SOL     OW 6643   3.922   0.499   6.423
 1915SOL    HW1 6644   3.854   0.437   6.462
 1915SOL    HW2 6645   3.915   0.589   6.466
 1916SOL     OW 6646   4.115   5.598   1.070
 1916SOL    HW1 6647   4.200   5.650   1.064
 1916SOL    HW2 6648   4.135   5.503   1.093
 1917SOL     OW 6649   3.485   4.147   4.512
 1917SOL    HW1 6650   3.549   4.098   4.571
 1917SOL    HW2 6651   3.493   4.246   4.530
 1918SOL     OW 6652   6.106   6.185   6.010
 1918SOL    HW1 6653   6.032   6.126   5.976
 1918SOL    HW2 6654   6.142   6.147   6.096
 1919SOL     OW 6655   0.929   6.021   2.473
 1919SOL    HW1 6656   0.904   5.928   2.500
 1919SOL    HW2 6657   0.847   6.078   2.471
 1920SOL     OW 6658   0.879   4.339   3.446
 1920SOL    HW1 6659   0.932   4.257   3.469
 1920SOL    HW2 6660   0.942   4.410   3.414
 1921SOL     OW 6661   0.968   5.883   6.945
 1921SOL    HW1 6662   0.894   5.950   6.949
 1921SOL    HW2 6663   1.019   5.884   0.006
 1922SOL     OW 6664   4.159   3.478   1.447
 1922SOL    HW1 6665   4.164   3.551   1.380
 1922SOL    HW2 6666   4.140   3.391   1.401
 1923SOL     OW 6667   2.596   1.151   0.693
 1923SOL    HW1 6668   2.525   1.198   0.746
 1923SOL    HW2 6669   2.617   1.063   0.736
 1924SOL     OW 6670   6.512   4.266   1.970
 1924SOL    HW1 6671   6.448   4.192   1.991
 1924SOL    HW2 6672   6.549   4.303   2.055
 1925SOL     OW 6673   3.333   3.671   1.870
 1925SOL    HW1 6674   3.325   3.737   1.944
 1925SOL    HW2 6675   3.357   3.718   1.785
 1926SOL     OW 6676   1.628   0.814   4.571
 1926SOL    HW1 6677   1.571   0.890   4.539
 1926SOL    HW2 6678   1.698   0.849   4.634
 1927SOL     OW 6679   4.256   3.568   6.886
 1927SOL    HW1 6680   4.209   3.491   6.843
 1927SOL    HW2 6681   4.297   3.626   6.816
 1928SOL     OW 6682   6.640   3.531   5.919
 1928SOL    HW1 6683   6.605   3.615   5.962
 1928SOL    HW2 6684   6.719   3.554   5.862
 1929SOL     OW 6685   1.492   5.867   2.039
 1929SOL    HW1 6686   1.582   5.909   2.040
 1929SOL    HW2 6687   1.440   5.900   1.960
 1930SOL     OW 6688   6.206   4.518   6.754
 1930SOL    HW1 6689   6.148   4.599   6.757
 1930SOL    HW2 6690   6.239   4.504   6.661
 1931SOL     OW 6691   0.154   3.732   3.358
 1931SOL    HW1 6692   0.198   3.756   3.445
 1931SOL    HW2 6693   0.180   3.639   3.332
 1932SOL     OW 6694   5.020   3.745   2.533
 1932SOL    HW1 6695   5.079   3.718   2.457
 1932SOL    HW2 6696   4.942   3.682   2.538
 1933SOL     OW 6697   2.991   4.685   0.671
 1933SOL    HW1 6698   2.942   4.686   0.758
 1933SOL    HW2 6699   3.005   4.591   0.641
 1934SOL     OW 6700   1.282   0.042   5.850
 1934SOL    HW1 6701   1.204   0.022   5.790
 1934SOL    HW2 6702   1.248   0.072   5.940
 1935SOL     OW 6703   2.646   0.190   4.869
 1935SOL    HW1 6704   2.708   0.225   4.939
 1935SOL    HW2 6705   2.696   0.130   4.807
 1936SOL     OW 6706   5.404   5.746   4.703
 1936SOL    HW1 6707   5.456   5.782   4.626
 1936SOL    HW2 6708   5.451   5.769   4.788
 1937SOL     OW 6709   3.894   6.359   1.763
 1937SOL    HW1 6710   3.943   6.294   1.704
 1937SOL    HW2 6711   3.798   6.362   1.736
 1938SOL     OW 6712   3.577   1.479   3.213
 1938SOL    HW1 6713   3.535   1.415   3.149
 1938SOL    HW2 6714   3.628   1.549   3.162
 1939SOL     OW 6715   1.017   0.903   3.773
 1939SOL    HW1 6716   1.076   0.823   3.786
 1939SOL    HW2 6717   1.019   0.958   3.856
 1940SOL     OW 6718   5.346   5.545   6.932
 1940SOL    HW1 6719   5.340   5.467   6.994
 1940SOL    HW2 6720   5.313   5.518   6.841
 1941SOL     OW 6721   6.682   4.631   3.476
 1941SOL    HW1 6722   6.653   4.611   3.570
 1941SOL    HW2 6723   6.722   4.723   3.472
 1942SOL     OW 6724   5.611   5.555   1.971
 1942SOL    HW1 6725   5.675   5.628   1.950
 1942SOL    HW2 6726   5.661   5.474   2.001
 1943SOL     OW 6727   3.067   5.316   2.735
 1943SOL    HW1 6728   3.160   5.283   2.717
 1943SOL    HW2 6729   3.066   5.365   2.822
 1944SOL     OW 6730   5.047   1.714   6.934
 1944SOL    HW1 6731   5.104   1.677   7.008
 1944SOL    HW2 6732   5.096   1.789   6.889
 1945SOL     OW 6733   5.007   5.413   3.040
 1945SOL    HW1 6734   4.921   5.420   2.991
 1945SOL    HW2 6735   5.083   5.426   2.976
 1946SOL     OW 6736   0.937   0.977   0.663
 1946SOL    HW1 6737   1.002   1.020   0.599
 1946SOL    HW2 6738   0.974   0.982   0.755
 1947SOL     OW 6739   5.192   6.546   4.700
 1947SOL    HW1 6740   5.152   6.637   4.711
 1947SOL    HW2 6741   5.292   6.553   4.698
 1948SOL     OW 6742   0.005   5.713   4.761
 1948SOL    HW1 6743   6.955   5.679   4.704
 1948SOL    HW2 6744   0.047   5.636   4.809
 1949SOL     OW 6745   4.041   4.096   6.015
 1949SOL    HW1 6746   4.100   4.175   6.000
 1949SOL    HW2 6747   3.946   4.122   6.002
 1950SOL     OW 6748   4.072   3.570   0.080
 1950SOL    HW1 6749   4.109   3.590   7.014
 1950SOL    HW2 6750   3.984   3.617   0.092
 1951SOL     OW 6751   6.392   2.765   0.311
 1951SOL    HW1 6752   6.382   2.780   0.213
 1951SOL    HW2 6753   6.489   2.772   0.336
 1952SOL     OW 6754   3.736   2.307   0.471
 1952SOL    HW1 6755   3.768   2.266   0.557
 1952SOL    HW2 6756   3.717   2.404   0.486
 1953SOL     OW 6757   6.622   2.062   0.046
 1953SOL    HW1 6758   6.623   2.148   7.020
 1953SOL    HW2 6759   6.527   2.037   0.067
 1954SOL     OW 6760   5.112   2.051   4.208
 1954SOL    HW1 6761   5.048   2.047   4.285
 1954SOL    HW2 6762   5.129   2.147   4.183
 1955SOL     OW 6763   1.589   7.007   2.143
 1955SOL    HW1 6764   1.623   7.018   2.050
 1955SOL    HW2 6765   1.625   0.054   2.202
 1956SOL     OW 6766   5.394   6.472   2.574
 1956SOL    HW1 6767   5.459   6.533   2.619
 1956SOL    HW2 6768   5.309   6.468   2.627
 1957SOL     OW 6769   6.614   5.643   5.145
 1957SOL    HW1 6770   6.622   5.677   5.239
 1957SOL    HW2 6771   6.525   5.671   5.107
 1958SOL     OW 6772   6.100   3.039   4.160
 1958SOL    HW1 6773   6.033   2.969   4.186
 1958SOL    HW2 6774   6.075   3.126   4.201
 1959SOL     OW 6775   0.528   2.910   5.668
 1959SOL    HW1 6776   0.481   2.822   5.670
 1959SOL    HW2 6777   0.533   2.943   5.573
 1960SOL     OW 6778   6.431   4.724   1.141
 1960SOL    HW1 6779   6.466   4.652   1.082
 1960SOL    HW2 6780   6.351   4.766   1.099
 1961SOL     OW 6781   5.737   4.588   4.866
 1961SOL    HW1 6782   5.659   4.525   4.869
 1961SOL    HW2 6783   5.812   4.545   4.816
 1962SOL     OW 6784   1.354   6.154   3.883
 1962SOL    HW1 6785   1.402   6.136   3.797
 1962SOL    HW2 6786   1.306   6.071   3.913
 1963SOL     OW 6787   0.728   0.496   2.040
 1963SOL    HW1 6788   0.758   0.468   2.132
 1963SOL    HW2 6789   0.808   0.516   1.984
 1964SOL     OW 6790   4.500   2.546   1.530
 1964SOL    HW1 6791   4.564   2.564   1.604
 1964SOL    HW2 6792   4.541   2.572   1.442
 1965SOL     OW 6793   0.604   2.886   2.885
 1965SOL    HW1 6794   0.697   2.887   2.848
 1965SOL    HW2 6795   0.561   2.797   2.867
 1966SOL     OW 6796   0.758   5.304   5.192
 1966SOL    HW1 6797   0.845   5.349   5.212
 1966SOL    HW2 6798   0.683   5.370   5.201
 1967SOL     OW 6799   4.694   2.019   6.068
 1967SOL    HW1 6800   4.690   1.919   6.075
 1967SOL    HW2 6801   4.613   2.058   6.111
 1968SOL     OW 6802   3.143   6.217   0.178
 1968SOL    HW1 6803   3.103   6.168   0.256
 1968SOL    HW2 6804   3.072   6.237   0.111
 1969SOL     OW 6805   6.907   1.794   1.925
 1969SOL    HW1 6806   6.996   1.751   1.940
 1969SOL    HW2 6807   6.862   1.810   2.013
 1970SOL     OW 6808   2.278   0.879   6.111
 1970SOL    HW1 6809   2.219   0.799   6.096
 1970SOL    HW2 6810   2.223   0.962   6.106
 1971SOL     OW 6811   6.760   0.010   6.506
 1971SOL    HW1 6812   6.811   6.990   6.579
 1971SOL    HW2 6813   6.757   6.975   6.425
 1972SOL     OW 6814   0.284   3.128   3.222
 1972SOL    HW1 6815   0.325   3.040   3.198
 1972SOL    HW2 6816   0.331   3.166   3.301
 1973SOL     OW 6817   3.450   3.042   1.662
 1973SOL    HW1 6818   3.530   3.045   1.601
 1973SOL    HW2 6819   3.467   3.099   1.742
 1974SOL     OW 6820   6.199   6.041   3.965
 1974SOL    HW1 6821   6.245   6.090   4.039
 1974SOL    HW2 6822   6.155   6.106   3.903
 1975SOL     OW 6823   2.321   0.924   3.433
 1975SOL    HW1 6824   2.355   0.831   3.442
 1975SOL    HW2 6825   2.228   0.930   3.469
 1976SOL     OW 6826   0.322   6.105   0.466
 1976SOL    HW1 6827   0.379   6.079   0.388
 1976SOL    HW2 6828   0.227   6.117   0.436
 1977SOL     OW 6829   1.108   2.987   3.657
 1977SOL    HW1 6830   1.046   3.001   3.580
 1977SOL    HW2 6831   1.182   2.924   3.630
 1978SOL     OW 6832   1.624   1.327   4.275
 1978SOL    HW1 6833   1.649   1.260   4.205
 1978SOL    HW2 6834   1.707   1.360   4.321
 1979SOL     OW 6835   0.041   4.410   4.791
 1979SOL    HW1 6836   6.968   4.405   4.771
 1979SOL    HW2 6837   0.093   4.399   4.706
 1980SOL     OW 6838   3.136   6.869   0.276
 1980SOL    HW1 6839   3.053   6.912   0.311
 1980SOL    HW2 6840   3.161   6.791   0.334
 1981SOL     OW 6841   5.266   2.238   2.486
 1981SOL    HW1 6842   5.221   2.248   2.574
 1981SOL    HW2 6843   5.279   2.141   2.465
 1982SOL     OW 6844   6.083   4.779   4.789
 1982SOL    HW1 6845   6.029   4.695   4.802
 1982SOL    HW2 6846   6.173   4.755   4.754
 1983SOL     OW 6847   0.808   2.308   2.647
 1983SOL    HW1 6848   0.735   2.368   2.614
 1983SOL    HW2 6849   0.824   2.325   2.744
 1984SOL     OW 6850   4.796   1.242   5.643
 1984SOL    HW1 6851   4.810   1.322   5.702
 1984SOL    HW2 6852   4.713   1.256   5.590
 1985SOL     OW 6853   1.278   1.362   2.544
 1985SOL    HW1 6854   1.238   1.383   2.633
 1985SOL    HW2 6855   1.249   1.270   2.515
 1986SOL     OW 6856   1.324   1.587   6.994
 1986SOL    HW1 6857   1.363   1.519   6.933
 1986SOL    HW2 6858   1.309   1.546   0.060
 1987SOL     OW 6859   2.606   2.941   1.640
 1987SOL    HW1 6860   2.694   2.898   1.623
 1987SOL    HW2 6861   2.617   3.040   1.644
 1988SOL     OW 6862   5.212   4.353   0.764
 1988SOL    HW1 6863   5.229   4.360   0.666
 1988SOL    HW2 6864   5.218   4.257   0.792
 1989SOL     OW 6865   2.189   0.762   5.221
 1989SOL    HW1 6866   2.125   0.768   5.145
 1989SOL    HW2 6867   2.168   0.682   5.277
 1990SOL     OW 6868   3.055   0.093   1.973
 1990SOL    HW1 6869   3.067   0.043   1.887
 1990SOL    HW2 6870   2.963   0.131   1.976
 1991SOL     OW 6871   3.407   5.457   5.897
 1991SOL    HW1 6872   3.364   5.405   5.971
 1991SOL    HW2 6873   3.337   5.495   5.838
 1992SOL     OW 6874   2.640   6.641   5.968
 1992SOL    HW1 6875   2.574   6.574   6.000
 1992SOL    HW2 6876   2.692   6.603   5.891
 1993SOL     OW 6877   4.000   3.296   5.355
 1993SOL    HW1 6878   3.938   3.370   5.328
 1993SOL    HW2 6879   3.947   3.215   5.379
 1994SOL     OW 6880   1.365   2.042   1.893
 1994SOL    HW1 6881   1.313   1.961   1.866
 1994SOL    HW2 6882   1.367   2.049   1.993
 1995SOL     OW 6883   6.297   2.153   2.300
 1995SOL    HW1 6884   6.304   2.073   2.241
 1995SOL    HW2 6885   6.368   2.218   2.276
 1996SOL     OW 6886   2.791   3.238   1.206
 1996SOL    HW1 6887   2.847   3.227   1.123
 1996SOL    HW2 6888   2.745   3.327   1.205
 1997SOL     OW 6889   5.124   0.619   5.672
 1997SOL    HW1 6890   5.185   0.600   5.749
 1997SOL    HW2 6891   5.125   0.541   5.609
 1998SOL     OW 6892   3.163   3.894   6.053
 1998SOL    HW1 6893   3.233   3.831   6.085
 1998SOL    HW2 6894   3.073   3.862   6.082
 1999SOL     OW 6895   2.864   0.235   1.655
 1999SOL    HW1 6896   2.909   0.301   1.714
 1999SOL    HW2 6897   2.806   0.282   1.589
 2000SOL     OW 6898   4.217   1.649   5.092
 2000SOL    HW1 6899   4.198   1.737   5.135
 2000SOL    HW2 6900   4.139   1.623   5.035
 2001SOL     OW 6901   3.460   2.323   1.695
 2001SOL    HW1 6902   3.538   2.312   1.756
 2001SOL    HW2 6903   3.488   2.374   1.613
 2002SOL     OW 6904   1.254   6.179   6.240
 2002SOL    HW1 6905   1.325   6.248   6.253
 2002SOL    HW2 6906   1.297   6.089   6.228
 2003SOL     OW 6907   4.746   0.055   3.593
 2003SOL    HW1 6908   4.725   0.017   3.502
 2003SOL    HW2 6909   4.690   0.008   3.662
 2004SOL     OW 6910   5.054   1.027   4.640
 2004SOL    HW1 6911   4.982   1.068   4.697
 2004SOL    HW2 6912   5.134   1.008   4.695
 2005SOL     OW 6913   1.751   5.721   0.099
 2005SOL    HW1 6914   1.831   5.728   0.040
 2005SOL    HW2 6915   1.696   5.642   0.072
 2006SOL     OW 6916   5.012   4.129   3.522
 2006SOL    HW1 6917   4.961   4.180   3.452
 2006SOL    HW2 6918   4.948   4.074   3.576
 2007SOL     OW 6919   4.573   5.567   0.729
 2007SOL    HW1 6920   4.512   5.528   0.798
 2007SOL    HW2 6921   4.582   5.503   0.652
 2008SOL     OW 6922   0.312   5.739   3.758
 2008SOL    HW1 6923   0.307   5.642   3.734
 2008SOL    HW2 6924   0.233   5.763   3.815
 2009SOL     OW 6925   6.785   0.282   1.542
 2009SOL    HW1 6926   6.793   0.368   1.592
 2009SOL    HW2 6927   6.863   0.224   1.563
 2010SOL     OW 6928   1.852   1.046   0.957
 2010SOL    HW1 6929   1.770   1.001   0.992
 2010SOL    HW2 6930   1.918   0.977   0.926
 2011SOL     OW 6931   6.286   2.071   4.752
 2011SOL    HW1 6932   6.187   2.055   4.759
 2011SOL    HW2 6933   6.302   2.155   4.700
 2012SOL     OW 6934   0.569   3.547   1.287
 2012SOL    HW1 6935   0.470   3.559   1.280
 2012SOL    HW2 6936   0.615   3.623   1.241
 2013SOL     OW 6937   5.667   0.858   3.355
 2013SOL    HW1 6938   5.640   0.910   3.275
 2013SOL    HW2 6939   5.595   0.863   3.424
 2014SOL     OW 6940   1.375   5.687   3.307
 2014SOL    HW1 6941   1.292   5.646   3.268
 2014SOL    HW2 6942   1.391   5.649   3.398
 2015SOL     OW 6943   2.686   1.252   6.560
 2015SOL    HW1 6944   2.595   1.268   6.522
 2015SOL    HW2 6945   2.756   1.270   6.491
 2016SOL     OW 6946   0.536   6.082   5.005
 2016SOL    HW1 6947   0.620   6.124   5.037
 2016SOL    HW2 6948   0.544   5.982   5.011
 2017SOL     OW 6949   3.402   6.916   3.510
 2017SOL    HW1 6950   3.440   6.926   3.602
 2017SOL    HW2 6951   3.305   6.941   3.511
 2018SOL     OW 6952   6.348   5.586   5.708
 2018SOL    HW1 6953   6.314   5.680   5.702
 2018SOL    HW2 6954   6.315   5.534   5.629
 2019SOL     OW 6955   5.226   3.112   1.914
 2019SOL    HW1 6956   5.263   3.049   1.982
 2019SOL    HW2 6957   5.241   3.207   1.944
 2020SOL     OW 6958   1.302   5.166   5.032
 2020SOL    HW1 6959   1.381   5.123   4.989
 2020SOL    HW2 6960   1.231   5.183   4.964
 2021SOL     OW 6961   2.146   0.002   3.208
 2021SOL    HW1 6962   2.133   0.012   3.109
 2021SOL    HW2 6963   2.197   0.081   3.243
 2022SOL     OW 6964   1.881   3.705   1.847
 2022SOL    HW1 6965   1.800   3.699   1.906
 2022SOL    HW2 6966   1.859   3.668   1.757
 2023SOL     OW 6967   0.059   2.092   0.317
 2023SOL    HW1 6968   0.125   2.164   0.297
 2023SOL    HW2 6969   6.991   2.130   0.315
 2024SOL     OW 6970   6.481   0.713   2.897
 2024SOL    HW1 6971   6.471   0.760   2.809
 2024SOL    HW2 6972   6.536   0.769   2.959
 2025SOL     OW 6973   1.530   2.874   1.638
 2025SOL    HW1 6974   1.608   2.863   1.699
 2025SOL    HW2 6975   1.517   2.789   1.586
 2026SOL     OW 6976   1.460   2.517   6.012
 2026SOL    HW1 6977   1.431   2.423   5.998
 2026SOL    HW2 6978   1.380   2.576   6.020
 2027SOL     OW 6979   1.137   1.161   1.144
 2027SOL    HW1 6980   1.218   1.218   1.161
 2027SOL    HW2 6981   1.070   1.214   1.092
 2028SOL     OW 6982   3.489   1.527   6.819
 2028SOL    HW1 6983   3.506   1.494   6.912
 2028SOL    HW2 6984   3.573   1.566   6.782
 2029SOL     OW 6985   0.110   0.504   6.945
 2029SOL    HW1 6986   0.052   0.538   6.871
 2029SOL    HW2 6987   0.113   0.573   7.018
 2030SOL     OW 6988   1.740   1.862   3.585
 2030SOL    HW1 6989   1.737   1.955   3.622
 2030SOL    HW2 6990   1.647   1.833   3.562
 2031SOL     OW 6991   5.074   6.255   2.136
 2031SOL    HW1 6992   5.039   6.250   2.043
 2031SOL    HW2 6993   4.998   6.269   2.200
 2032SOL     OW 6994   5.660   5.750   0.972
 2032SOL    HW1 6995   5.697   5.657   0.964
 2032SOL    HW2 6996   5.651   5.774   1.069
 2033SOL     OW 6997   3.635   4.310   6.982
 2033SOL    HW1 6998   3.568   4.258   6.930
 2033SOL    HW2 6999   3.608   4.313   0.053
 2034SOL     OW 7000   2.394   6.407   3.888
 2034SOL    HW1 7001   2.423   6.334   3.826
 2034SOL    HW2 7002   2.324   6.463   3.842
 2035SOL     OW 7003   0.167   1.119   2.679
 2035SOL    HW1 7004   0.207   1.142   2.768
 2035SOL    HW2 7005   0.070   1.101   2.690
 2036SOL     OW 7006   0.043   6.189   2.156
 2036SOL    HW1 7007   0.016   6.094   2.141
 2036SOL    HW2 7008   0.105   6.218   2.082
 2037SOL     OW 7009   6.218   2.050   6.077
 2037SOL    HW1 7010   6.276   2.001   6.143
 2037SOL    HW2 7011   6.234   2.013   5.986
 2038SOL     OW 7012   0.599   1.932   0.068
 2038SOL    HW1 7013   0.650   1.952   0.152
 2038SOL    HW2 7014   0.611   1.836   0.044
 2039SOL     OW 7015   0.255   5.867   3.299
 2039SOL    HW1 7016   0.220   5.832   3.212
 2039SOL    HW2 7017   0.178   5.884   3.361
 2040SOL     OW 7018   3.180   3.130   5.122
 2040SOL    HW1 7019   3.238   3.200   5.164
 2040SOL    HW2 7020   3.147   3.162   5.033
 2041SOL     OW 7021   6.853   6.251   6.816
 2041SOL    HW1 7022   6.807   6.339   6.816
 2041SOL    HW2 7023   6.915   6.246   6.738
 2042SOL     OW 7024   5.846   5.275   7.021
 2042SOL    HW1 7025   5.781   5.340   6.981
 2042SOL    HW2 7026   5.885   5.315   0.080
 2043SOL     OW 7027   6.568   4.520   2.265
 2043SOL    HW1 7028   6.503   4.492   2.336
 2043SOL    HW2 7029   6.521   4.577   2.197
 2044SOL     OW 7030   4.841   0.382   2.279
 2044SOL    HW1 7031   4.773   0.403   2.349
 2044SOL    HW2 7032   4.837   0.452   2.207
 2045SOL     OW 7033   2.145   4.353   5.395
 2045SOL    HW1 7034   2.168   4.302   5.312
 2045SOL    HW2 7035   2.226   4.403   5.426
 2046SOL     OW 7036   0.175   0.332   4.332
 2046SOL    HW1 7037   0.104   0.288   4.387
 2046SOL    HW2 7038   0.133   0.402   4.274
 2047SOL     OW 7039   4.143   2.223   0.294
 2047SOL    HW1 7040   4.238   2.253   0.288
 2047SOL    HW2 7041   4.103   2.221   0.202
 2048SOL     OW 7042   4.187   6.313   6.989
 2048SOL    HW1 7043   4.218   6.226   0.001
 2048SOL    HW2 7044   4.226   6.326   6.897
 2049SOL     OW 7045   4.317   1.878   6.462
 2049SOL    HW1 7046   4.369   1.855   6.380
 2049SOL    HW2 7047   4.262   1.960   6.445
 2050SOL     OW 7048   6.010   2.892   3.849
 2050SOL    HW1 7049   6.103   2.854   3.851
 2050SOL    HW2 7050   5.946   2.821   3.819
 2051SOL     OW 7051   6.565   4.650   6.658
 2051SOL    HW1 7052   6.632   4.654   6.584
 2051SOL    HW2 7053   6.529   4.741   6.676
 2052SOL     OW 7054   0.494   3.743   0.019
 2052SOL    HW1 7055   0.566   3.679   7.015
 2052SOL    HW2 7056   0.418   3.738   6.979
 2053SOL     OW 7057   6.279   0.465   1.088
 2053SOL    HW1 7058   6.247   0.513   1.007
 2053SOL    HW2 7059   6.266   0.523   1.168
 2054SOL     OW 7060   5.501   2.934   1.651
 2054SOL    HW1 7061   5.417   2.976   1.617
 2054SOL    HW2 7062   5.505   2.839   1.621
 2055SOL     OW 7063   6.110   3.367   2.525
 2055SOL    HW1 7064   6.129   3.289   2.465
 2055SOL    HW2 7065   6.070   3.334   2.611
 2056SOL     OW 7066   2.197   1.380   2.595
 2056SOL    HW1 7067   2.134   1.333   2.533
 2056SOL    HW2 7068   2.150   1.399   2.681
 2057SOL     OW 7069   5.358   2.418   3.628
 2057SOL    HW1 7070   5.385   2.507   3.591
 2057SOL    HW2 7071   5.297   2.371   3.563
 2058SOL     OW 7072   1.097   1.721   3.314
 2058SOL    HW1 7073   1.192   1.742   3.293
 2058SOL    HW2 7074   1.091   1.631   3.357
 2059SOL     OW 7075   2.719   6.393   5.820
 2059SOL    HW1 7076   2.658   6.358   5.891
 2059SOL    HW2 7077   2.786   6.322   5.796
 2060SOL     OW 7078   6.545   4.043   0.883
 2060SOL    HW1 7079   6.456   4.014   0.919
 2060SOL    HW2 7080   6.541   4.045   0.783
 2061SOL     OW 7081   0.702   1.808   3.193
 2061SOL    HW1 7082   0.624   1.868   3.206
 2061SOL    HW2 7083   0.755   1.803   3.278
 2062SOL     OW 7084   5.438   0.634   3.207
 2062SOL    HW1 7085   5.367   0.685   3.160
 2062SOL    HW2 7086   5.528   0.670   3.182
 2063SOL     OW 7087   0.579   1.666   6.242
 2063SOL    HW1 7088   0.551   1.628   6.330
 2063SOL    HW2 7089   0.630   1.598   6.190
 2064SOL     OW 7090   0.766   1.480   5.457
 2064SOL    HW1 7091   0.800   1.452   5.367
 2064SOL    HW2 7092   0.840   1.521   5.509
 2065SOL     OW 7093   6.656   4.091   2.549
 2065SOL    HW1 7094   6.692   4.140   2.470
 2065SOL    HW2 7095   6.668   3.992   2.535
 2066SOL     OW 7096   0.713   6.066   4.231
 2066SOL    HW1 7097   0.767   5.982   4.230
 2066SOL    HW2 7098   0.763   6.138   4.279
 2067SOL     OW 7099   0.759   6.780   0.686
 2067SOL    HW1 7100   0.695   6.716   0.642
 2067SOL    HW2 7101   0.716   6.820   0.767
 2068SOL     OW 7102   1.000   1.589   5.561
 2068SOL    HW1 7103   1.076   1.582   5.625
 2068SOL    HW2 7104   1.029   1.639   5.479
 2069SOL     OW 7105   0.674   2.646   3.692
 2069SOL    HW1 7106   0.771   2.659   3.714
 2069SOL    HW2 7107   0.621   2.643   3.777
 2070SOL     OW 7108   1.901   6.789   2.091
 2070SOL    HW1 7109   1.948   6.862   2.140
 2070SOL    HW2 7110   1.880   6.819   1.998
 2071SOL     OW 7111   6.585   6.150   5.162
 2071SOL    HW1 7112   6.489   6.140   5.189
 2071SOL    HW2 7113   6.617   6.063   5.124
 2072SOL     OW 7114   4.678   6.430   1.973
 2072SOL    HW1 7115   4.578   6.432   1.981
 2072SOL    HW2 7116   4.707   6.340   1.941
 2073SOL     OW 7117   3.679   6.936   4.612
 2073SOL    HW1 7118   3.602   6.982   4.656
 2073SOL    HW2 7119   3.753   6.925   4.678
 2074SOL     OW 7120   0.654   2.857   6.833
 2074SOL    HW1 7121   0.717   2.823   6.763
 2074SOL    HW2 7122   0.564   2.871   6.792
 2075SOL     OW 7123   5.137   2.254   1.614
 2075SOL    HW1 7124   5.190   2.328   1.572
 2075SOL    HW2 7125   5.058   2.293   1.661
 2076SOL     OW 7126   5.153   6.569   0.382
 2076SOL    HW1 7127   5.225   6.609   0.439
 2076SOL    HW2 7128   5.133   6.630   0.306
 2077SOL     OW 7129   4.769   2.855   2.259
 2077SOL    HW1 7130   4.679   2.839   2.300
 2077SOL    HW2 7131   4.760   2.925   2.187
 2078SOL     OW 7132   1.902   6.072   6.626
 2078SOL    HW1 7133   1.925   6.008   6.553
 2078SOL    HW2 7134   1.817   6.043   6.671
 2079SOL     OW 7135   6.001   1.300   3.709
 2079SOL    HW1 7136   6.009   1.384   3.656
 2079SOL    HW2 7137   5.917   1.252   3.684
 2080SOL     OW 7138   1.851   1.280   4.934
 2080SOL    HW1 7139   1.913   1.358   4.939
 2080SOL    HW2 7140   1.885   1.215   4.867
 2081SOL     OW 7141   1.672   5.951   5.526
 2081SOL    HW1 7142   1.728   5.899   5.591
 2081SOL    HW2 7143   1.653   5.894   5.446
 2082SOL     OW 7144   6.783   0.342   2.791
 2082SOL    HW1 7145   6.809   0.342   2.695
 2082SOL    HW2 7146   6.853   0.296   2.845
 2083SOL     OW 7147   4.359   4.211   6.437
 2083SOL    HW1 7148   4.451   4.190   6.401
 2083SOL    HW2 7149   4.304   4.127   6.438
 2084SOL     OW 7150   0.017   4.466   3.913
 2084SOL    HW1 7151   0.001   4.536   3.844
 2084SOL    HW2 7152   0.029   4.510   4.002
 2085SOL     OW 7153   5.002   1.090   0.342
 2085SOL    HW1 7154   4.907   1.061   0.356
 2085SOL    HW2 7155   5.037   1.132   0.426
 2086SOL     OW 7156   3.023   6.369   5.633
 2086SOL    HW1 7157   3.047   6.397   5.726
 2086SOL    HW2 7158   2.935   6.323   5.633
 2087SOL     OW 7159   4.448   0.180   1.925
 2087SOL    HW1 7160   4.428   0.106   1.989
 2087SOL    HW2 7161   4.434   0.268   1.970
 2088SOL     OW 7162   2.612   5.384   0.892
 2088SOL    HW1 7163   2.594   5.478   0.921
 2088SOL    HW2 7164   2.683   5.385   0.821
 2089SOL     OW 7165   4.429   1.317   6.935
 2089SOL    HW1 7166   4.526   1.330   6.955
 2089SOL    HW2 7167   4.396   1.392   6.878
 2090SOL     OW 7168   4.156   3.684   5.011
 2090SOL    HW1 7169   4.098   3.622   4.957
 2090SOL    HW2 7170   4.199   3.633   5.085
 2091SOL     OW 7171   6.864   5.788   0.136
 2091SOL    HW1 7172   6.812   5.710   0.171
 2091SOL    HW2 7173   6.851   5.866   0.196
 2092SOL     OW 7174   4.955   5.836   0.285
 2092SOL    HW1 7175   4.878   5.792   0.331
 2092SOL    HW2 7176   5.015   5.877   0.354
 2093SOL     OW 7177   1.802   2.515   1.631
 2093SOL    HW1 7178   1.829   2.420   1.643
 2093SOL    HW2 7179   1.778   2.555   1.719
 2094SOL     OW 7180   5.572   1.869   1.922
 2094SOL    HW1 7181   5.613   1.904   2.007
 2094SOL    HW2 7182   5.480   1.908   1.911
 2095SOL     OW 7183   5.236   0.425   4.622
 2095SOL    HW1 7184   5.323   0.382   4.594
 2095SOL    HW2 7185   5.191   0.367   4.690
 2096SOL     OW 7186   4.772   4.367   2.840
 2096SOL    HW1 7187   4.708   4.351   2.765
 2096SOL    HW2 7188   4.818   4.455   2.827
 2097SOL     OW 7189   1.408   3.027   0.225
 2097SOL    HW1 7190   1.473   2.992   0.158
 2097SOL    HW2 7191   1.406   3.127   0.220
 2098SOL     OW 7192   4.108   5.431   3.190
 2098SOL    HW1 7193   4.077   5.337   3.204
 2098SOL    HW2 7194   4.208   5.434   3.198
 2099SOL     OW 7195   2.619   2.673   5.280
 2099SOL    HW1 7196   2.541   2.733   5.299
 2099SOL    HW2 7197   2.704   2.721   5.304
 2100SOL     OW 7198   3.631   3.728   5.584
 2100SOL    HW1 7199   3.650   3.756   5.490
 2100SOL    HW2 7200   3.706   3.672   5.618
 2101SOL     OW 7201   1.588   6.496   2.823
 2101SOL    HW1 7202   1.534   6.580   2.821
 2101SOL    HW2 7203   1.528   6.417   2.810
 2102SOL     OW 7204   6.967   5.346   1.839
 2102SOL    HW1 7205   6.914   5.391   1.912
 2102SOL    HW2 7206   6.912   5.341   1.756
 2103SOL     OW 7207   2.986   3.497   6.370
 2103SOL    HW1 7208   2.968   3.518   6.466
 2103SOL    HW2 7209   2.899   3.491   6.321
 2104SOL     OW 7210   1.206   3.450   6.343
 2104SOL    HW1 7211   1.242   3.409   6.427
 2104SOL    HW2 7212   1.121   3.404   6.317
 2105SOL     OW 7213   4.729   5.181   4.094
 2105SOL    HW1 7214   4.747   5.278   4.080
 2105SOL    HW2 7215   4.658   5.169   4.162
 2106SOL     OW 7216   4.778   4.698   0.149
 2106SOL    HW1 7217   4.829   4.784   0.154
 2106SOL    HW2 7218   4.796   4.644   0.231
 2107SOL     OW 7219   4.440   2.795   5.566
 2107SOL    HW1 7220   4.400   2.874   5.518
 2107SOL    HW2 7221   4.539   2.804   5.569
 2108SOL     OW 7222   6.979   6.128   5.572
 2108SOL    HW1 7223   6.949   6.045   5.525
 2108SOL    HW2 7224   7.001   6.106   5.668
 2109SOL     OW 7225   4.642   6.688   3.178
 2109SOL    HW1 7226   4.616   6.591   3.177
 2109SOL    HW2 7227   4.610   6.732   3.094
 2110SOL     OW 7228   2.794   2.905   5.813
 2110SOL    HW1 7229   2.823   2.981   5.871
 2110SOL    HW2 7230   2.734   2.939   5.741
 2111SOL     OW 7231   0.653   1.853   6.530
 2111SOL    HW1 7232   0.678   1.915   6.455
 2111SOL    HW2 7233   0.736   1.823   6.578
 2112SOL     OW 7234   4.894   2.442   1.352
 2112SOL    HW1 7235   4.849   2.362   1.312
 2112SOL    HW2 7236   4.850   2.525   1.318
 2113SOL     OW 7237   1.572   0.395   4.739
 2113SOL    HW1 7238   1.523   0.309   4.757
 2113SOL    HW2 7239   1.507   0.466   4.714
 2114SOL     OW 7240   1.130   3.010   0.820
 2114SOL    HW1 7241   1.046   3.004   0.874
 2114SOL    HW2 7242   1.172   2.920   0.813
 2115SOL     OW 7243   2.213   3.972   2.787
 2115SOL    HW1 7244   2.290   4.035   2.781
 2115SOL    HW2 7245   2.151   3.986   2.710
 2116SOL     OW 7246   6.870   4.715   3.211
 2116SOL    HW1 7247   6.794   4.672   3.162
 2116SOL    HW2 7248   6.839   4.742   3.302
 2117SOL     OW 7249   6.999   4.328   1.007
 2117SOL    HW1 7250   6.967   4.355   0.916
 2117SOL    HW2 7251   6.929   4.349   1.075
 2118SOL     OW 7252   6.812   3.673   2.022
 2118SOL    HW1 7253   6.838   3.693   2.117
 2118SOL    HW2 7254   6.759   3.588   2.020
 2119SOL     OW 7255   2.367   5.286   1.034
 2119SOL    HW1 7256   2.432   5.306   0.960
 2119SOL    HW2 7257   2.403   5.323   1.120
 2120SOL     OW 7258   0.521   5.172   4.289
 2120SOL    HW1 7259   0.496   5.100   4.225
 2120SOL    HW2 7260   0.447   5.186   4.355
 2121SOL     OW 7261   0.278   4.494   5.743
 2121SOL    HW1 7262   0.314   4.551   5.817
 2121SOL    HW2 7263   0.327   4.408   5.740
 2122SOL     OW 7264   5.913   4.285   5.395
 2122SOL    HW1 7265   5.986   4.224   5.363
 2122SOL    HW2 7266   5.880   4.253   5.483
 2123SOL     OW 7267   0.007   5.054   1.836
 2123SOL    HW1 7268   7.011   5.152   1.837
 2123SOL    HW2 7269   6.951   5.004   1.806
 2124SOL     OW 7270   2.347   1.542   1.959
 2124SOL    HW1 7271   2.350   1.542   1.859
 2124SOL    HW2 7272   2.396   1.622   1.994
 2125SOL     OW 7273   1.942   0.280   0.416
 2125SOL    HW1 7274   1.889   0.304   0.334
 2125SOL    HW2 7275   1.942   0.180   0.427
 2126SOL     OW 7276   3.178   1.123   1.112
 2126SOL    HW1 7277   3.121   1.042   1.123
 2126SOL    HW2 7278   3.165   1.161   1.021
 2127SOL     OW 7279   6.505   3.467   4.175
 2127SOL    HW1 7280   6.502   3.396   4.245
 2127SOL    HW2 7281   6.429   3.454   4.112
 2128SOL     OW 7282   6.572   3.878   4.515
 2128SOL    HW1 7283   6.587   3.831   4.428
 2128SOL    HW2 7284   6.624   3.964   4.515
 2129SOL     OW 7285   4.599   3.005   5.300
 2129SOL    HW1 7286   4.503   2.991   5.324
 2129SOL    HW2 7287   4.610   2.995   5.201
 2130SOL     OW 7288   3.953   6.973   2.624
 2130SOL    HW1 7289   3.970   0.009   2.701
 2130SOL    HW2 7290   3.874   6.916   2.643
 2131SOL     OW 7291   6.830   0.873   1.415
 2131SOL    HW1 7292   6.795   0.780   1.411
 2131SOL    HW2 7293   6.867   0.899   1.326
 2132SOL     OW 7294   4.160   2.236   1.529
 2132SOL    HW1 7295   4.179   2.140   1.544
 2132SOL    HW2 7296   4.090   2.246   1.458
 2133SOL     OW 7297   2.347   3.030   5.927
 2133SOL    HW1 7298   2.300   2.949   5.963
 2133SOL    HW2 7299   2.365   3.018   5.830
 2134SOL     OW 7300   0.554   2.562   0.873
 2134SOL    HW1 7301   0.511   2.652   0.880
 2134SOL    HW2 7302   0.651   2.572   0.852
 2135SOL     OW 7303   0.965   4.005   4.806
 2135SOL    HW1 7304   1.043   4.034   4.861
 2135SOL    HW2 7305   0.948   4.072   4.734
 2136SOL     OW 7306   2.096   4.384   2.684
 2136SOL    HW1 7307   2.094   4.411   2.588
 2136SOL    HW2 7308   2.004   4.356   2.713
 2137SOL     OW 7309   2.721   5.394   5.360
 2137SOL    HW1 7310   2.669   5.394   5.275
 2137SOL    HW2 7311   2.742   5.300   5.387
 2138SOL     OW 7312   6.204   6.816   3.012
 2138SOL    HW1 7313   6.275   6.799   3.080
 2138SOL    HW2 7314   6.243   6.813   2.920
 2139SOL     OW 7315   4.506   0.897   4.186
 2139SOL    HW1 7316   4.591   0.949   4.187
 2139SOL    HW2 7317   4.514   0.819   4.248
 2140SOL     OW 7318   2.650   6.745   4.177
 2140SOL    HW1 7319   2.562   6.708   4.206
 2140SOL    HW2 7320   2.655   6.747   4.077
 2141SOL     OW 7321   6.508   2.744   2.246
 2141SOL    HW1 7322   6.432   2.806   2.229
 2141SOL    HW2 7323   6.580   2.793   2.296
 2142SOL     OW 7324   1.151   1.458   3.420
 2142SOL    HW1 7325   1.207   1.428   3.498
 2142SOL    HW2 7326   1.098   1.381   3.386
 2143SOL     OW 7327   3.010   5.152   1.438
 2143SOL    HW1 7328   3.096   5.119   1.476
 2143SOL    HW2 7329   2.938   5.085   1.453
 2144SOL     OW 7330   0.729   5.674   4.904
 2144SOL    HW1 7331   0.782   5.590   4.892
 2144SOL    HW2 7332   0.716   5.719   4.816
 2145SOL     OW 7333   4.031   6.559   4.321
 2145SOL    HW1 7334   4.089   6.501   4.378
 2145SOL    HW2 7335   3.998   6.637   4.374
 2146SOL     OW 7336   2.503   2.410   0.835
 2146SOL    HW1 7337   2.434   2.479   0.858
 2146SOL    HW2 7338   2.513   2.347   0.912
 2147SOL     OW 7339   5.728   1.147   0.044
 2147SOL    HW1 7340   5.681   1.130   6.982
 2147SOL    HW2 7341   5.786   1.227   0.036
 2148SOL     OW 7342   5.957   3.838   6.099
 2148SOL    HW1 7343   6.047   3.872   6.124
 2148SOL    HW2 7344   5.966   3.763   6.033
 2149SOL     OW 7345   2.312   1.593   1.194
 2149SOL    HW1 7346   2.345   1.677   1.151
 2149SOL    HW2 7347   2.254   1.543   1.131
 2150SOL     OW 7348   2.249   2.481   1.668
 2150SOL    HW1 7349   2.339   2.506   1.633
 2150SOL    HW2 7350   2.219   2.549   1.734
 2151SOL     OW 7351   1.515   6.297   6.529
 2151SOL    HW1 7352   1.582   6.344   6.586
 2151SOL    HW2 7353   1.496   6.351   6.448
 2152SOL     OW 7354   4.500   4.455   2.446
 2152SOL    HW1 7355   4.497   4.451   2.346
 2152SOL    HW2 7356   4.453   4.538   2.477
 2153SOL     OW 7357   4.385   2.002   2.149
 2153SOL    HW1 7358   4.449   1.928   2.130
 2153SOL    HW2 7359   4.427   2.067   2.213
 2154SOL     OW 7360   3.588   6.968   4.155
 2154SOL    HW1 7361   3.668   7.006   4.108
 2154SOL    HW2 7362   3.557   6.885   4.109
 2155SOL     OW 7363   4.049   0.250   1.257
 2155SOL    HW1 7364   4.140   0.208   1.255
 2155SOL    HW2 7365   4.050   0.333   1.200
 2156SOL     OW 7366   0.067   0.301   5.042
 2156SOL    HW1 7367   7.007   0.280   4.994
 2156SOL    HW2 7368   0.076   0.400   5.054
 2157SOL     OW 7369   5.322   6.021   3.523
 2157SOL    HW1 7370   5.354   5.963   3.598
 2157SOL    HW2 7371   5.306   6.114   3.557
 2158SOL     OW 7372   3.684   5.913   0.376
 2158SOL    HW1 7373   3.741   5.985   0.337
 2158SOL    HW2 7374   3.734   5.826   0.375
 2159SOL     OW 7375   1.589   0.690   4.957
 2159SOL    HW1 7376   1.537   0.685   4.871
 2159SOL    HW2 7377   1.526   0.689   5.034
 2160SOL     OW 7378   4.812   4.703   6.700
 2160SOL    HW1 7379   4.846   4.644   6.626
 2160SOL    HW2 7380   4.713   4.709   6.694
 2161SOL     OW 7381   6.450   4.401   1.730
 2161SOL    HW1 7382   6.467   4.356   1.818
 2161SOL    HW2 7383   6.537   4.421   1.685
 2162SOL     OW 7384   2.871   0.368   2.725
 2162SOL    HW1 7385   2.818   0.284   2.732
 2162SOL    HW2 7386   2.818   0.437   2.676
 2163SOL     OW 7387   1.692   4.913   0.483
 2163SOL    HW1 7388   1.661   4.953   0.569
 2163SOL    HW2 7389   1.745   4.830   0.502
 2164SOL     OW 7390   2.123   2.321   6.318
 2164SOL    HW1 7391   2.162   2.237   6.356
 2164SOL    HW2 7392   2.038   2.342   6.366
 2165SOL     OW 7393   0.468   2.177   3.604
 2165SOL    HW1 7394   0.463   2.226   3.691
 2165SOL    HW2 7395   0.406   2.219   3.538
 2166SOL     OW 7396   0.588   3.792   4.192
 2166SOL    HW1 7397   0.671   3.835   4.156
 2166SOL    HW2 7398   0.536   3.751   4.117
 2167SOL     OW 7399   0.296   2.856   3.717
 2167SOL    HW1 7400   0.366   2.906   3.768
 2167SOL    HW2 7401   0.318   2.857   3.620
 2168SOL     OW 7402   1.007   1.744   3.021
 2168SOL    HW1 7403   1.028   1.763   3.117
 2168SOL    HW2 7404   0.941   1.669   3.015
 2169SOL     OW 7405   6.250   0.709   1.220
 2169SOL    HW1 7406   6.194   0.768   1.162
 2169SOL    HW2 7407   6.345   0.739   1.216
 2170SOL     OW 7408   0.081   4.343   5.060
 2170SOL    HW1 7409   0.033   4.257   5.075
 2170SOL    HW2 7410   0.057   4.380   4.970
 2171SOL     OW 7411   0.684   5.739   1.168
 2171SOL    HW1 7412   0.616   5.812   1.173
 2171SOL    HW2 7413   0.775   5.776   1.190
 2172SOL     OW 7414   2.289   2.396   5.679
 2172SOL    HW1 7415   2.373   2.386   5.733
 2172SOL    HW2 7416   2.239   2.477   5.708
 2173SOL     OW 7417   4.652   0.614   5.423
 2173SOL    HW1 7418   4.615   0.563   5.346
 2173SOL    HW2 7419   4.600   0.699   5.435
 2174SOL     OW 7420   6.833   6.113   4.771
 2174SOL    HW1 7421   6.864   6.055   4.846
 2174SOL    HW2 7422   6.884   6.091   4.688
 2175SOL     OW 7423   1.813   3.564   4.377
 2175SOL    HW1 7424   1.889   3.505   4.404
 2175SOL    HW2 7425   1.841   3.660   4.381
 2176SOL     OW 7426   5.403   1.802   1.683
 2176SOL    HW1 7427   5.499   1.776   1.695
 2176SOL    HW2 7428   5.362   1.818   1.773
 2177SOL     OW 7429   0.130   0.362   2.426
 2177SOL    HW1 7430   0.146   0.343   2.523
 2177SOL    HW2 7431   0.043   0.410   2.416
 2178SOL     OW 7432   1.689   1.169   1.830
 2178SOL    HW1 7433   1.767   1.106   1.836
 2178SOL    HW2 7434   1.721   1.263   1.841
 2179SOL     OW 7435   1.941   3.965   6.033
 2179SOL    HW1 7436   1.902   4.018   6.108
 2179SOL    HW2 7437   1.895   3.988   5.948
 2180SOL     OW 7438   1.141   2.847   2.317
 2180SOL    HW1 7439   1.139   2.911   2.241
 2180SOL    HW2 7440   1.176   2.759   2.285
 2181SOL     OW 7441   4.261   5.076   3.918
 2181SOL    HW1 7442   4.272   5.011   3.842
 2181SOL    HW2 7443   4.296   5.034   4.002
 2182SOL     OW 7444   1.402   4.744   3.576
 2182SOL    HW1 7445   1.318   4.691   3.564
 2182SOL    HW2 7446   1.386   4.838   3.546
 2183SOL     OW 7447   2.085   4.370   0.115
 2183SOL    HW1 7448   2.040   4.288   0.151
 2183SOL    HW2 7449   2.051   4.390   0.024
 2184SOL     OW 7450   4.006   6.818   6.071
 2184SOL    HW1 7451   3.952   6.786   5.993
 2184SOL    HW2 7452   4.030   6.914   6.058
 2185SOL     OW 7453   0.689   0.988   6.953
 2185SOL    HW1 7454   0.736   0.900   6.950
 2185SOL    HW2 7455   0.649   1.008   6.863
 2186SOL     OW 7456   6.711   5.542   0.249
 2186SOL    HW1 7457   6.753   5.470   0.304
 2186SOL    HW2 7458   6.699   5.625   0.304
 2187SOL     OW 7459   0.492   5.628   2.293
 2187SOL    HW1 7460   0.591   5.624   2.284
 2187SOL    HW2 7461   0.454   5.536   2.285
 2188SOL     OW 7462   1.582   5.540   5.427
 2188SOL    HW1 7463   1.671   5.548   5.382
 2188SOL    HW2 7464   1.583   5.593   5.512
 2189SOL     OW 7465   1.220   6.804   1.507
 2189SOL    HW1 7466   1.147   6.849   1.456
 2189SOL    HW2 7467   1.305   6.806   1.454
 2190SOL     OW 7468   6.504   2.688   1.137
 2190SOL    HW1 7469   6.523   2.617   1.068
 2190SOL    HW2 7470   6.585   2.700   1.195
 2191SOL     OW 7471   2.368   1.959   5.728
 2191SOL    HW1 7472   2.428   1.957   5.648
 2191SOL    HW2 7473   2.274   1.976   5.699
 2192SOL     OW 7474   5.202   1.075   2.880
 2192SOL    HW1 7475   5.134   1.145   2.857
 2192SOL    HW2 7476   5.213   1.013   2.802
 2193SOL     OW 7477   6.607   0.224   6.438
 2193SOL    HW1 7478   6.511   0.198   6.436
 2193SOL    HW2 7479   6.661   0.149   6.476
 2194SOL     OW 7480   1.655   4.044   6.554
 2194SOL    HW1 7481   1.587   4.055   6.626
 2194SOL    HW2 7482   1.620   4.082   6.468
 2195SOL     OW 7483   6.960   6.483   5.638
 2195SOL    HW1 7484   6.864   6.512   5.645
 2195SOL    HW2 7485   7.019   6.563   5.651
 2196SOL     OW 7486   2.967   6.817   4.558
 2196SOL    HW1 7487   3.064   6.839   4.572
 2196SOL    HW2 7488   2.913   6.864   4.628
 2197SOL     OW 7489   2.912   3.749   6.081
 2197SOL    HW1 7490   2.822   3.713   6.058
 2197SOL    HW2 7491   2.981   3.680   6.061
 2198SOL     OW 7492   6.050   0.353   1.985
 2198SOL    HW1 7493   5.993   0.435   1.976
 2198SOL    HW2 7494   6.097   0.355   2.073
 2199SOL     OW 7495   5.178   6.838   3.951
 2199SOL    HW1 7496   5.230   6.880   3.876
 2199SOL    HW2 7497   5.140   6.909   4.009
 2200SOL     OW 7498   2.113   2.087   4.462
 2200SOL    HW1 7499   2.033   2.062   4.408
 2200SOL    HW2 7500   2.190   2.105   4.400
 2201SOL     OW 7501   6.530   3.084   2.953
 2201SOL    HW1 7502   6.485   3.125   3.033
 2201SOL    HW2 7503   6.461   3.058   2.886
 2202SOL     OW 7504   3.649   5.929   1.730
 2202SOL    HW1 7505   3.631   5.991   1.653
 2202SOL    HW2 7506   3.637   5.834   1.699
 2203SOL     OW 7507   2.336   3.356   1.078
 2203SOL    HW1 7508   2.359   3.267   1.117
 2203SOL    HW2 7509   2.350   3.427   1.147
 2204SOL     OW 7510   4.398   2.608   1.000
 2204SOL    HW1 7511   4.449   2.523   1.016
 2204SOL    HW2 7512   4.300   2.588   0.999
 2205SOL     OW 7513   1.347   0.298   6.665
 2205SOL    HW1 7514   1.360   0.365   6.738
 2205SOL    HW2 7515   1.277   0.330   6.602
 2206SOL     OW 7516   3.006   4.332   5.874
 2206SOL    HW1 7517   2.981   4.416   5.922
 2206SOL    HW2 7518   3.077   4.353   5.807
 2207SOL     OW 7519   3.284   4.442   6.762
 2207SOL    HW1 7520   3.336   4.522   6.730
 2207SOL    HW2 7521   3.273   4.378   6.686
 2208SOL     OW 7522   1.354   4.928   3.366
 2208SOL    HW1 7523   1.402   4.881   3.291
 2208SOL    HW2 7524   1.329   5.020   3.337
 2209SOL     OW 7525   2.463   6.984   5.066
 2209SOL    HW1 7526   2.529   0.025   5.103
 2209SOL    HW2 7527   2.486   6.892   5.099
 2210SOL     OW 7528   0.717   4.482   3.768
 2210SOL    HW1 7529   0.793   4.472   3.704
 2210SOL    HW2 7530   0.655   4.404   3.757
 2211SOL     OW 7531   7.005   0.640   1.180
 2211SOL    HW1 7532   0.032   0.661   1.097
 2211SOL    HW2 7533   6.919   0.595   1.155
 2212SOL     OW 7534   2.108   5.797   0.412
 2212SOL    HW1 7535   2.198   5.781   0.452
 2212SOL    HW2 7536   2.095   5.737   0.333
 2213SOL     OW 7537   3.594   1.870   5.268
 2213SOL    HW1 7538   3.632   1.890   5.358
 2213SOL    HW2 7539   3.590   1.954   5.214
 2214SOL     OW 7540   2.948   3.553   4.886
 2214SOL    HW1 7541   2.918   3.632   4.939
 2214SOL    HW2 7542   2.892   3.474   4.911
 2215SOL     OW 7543   5.390   0.648   0.314
 2215SOL    HW1 7544   5.304   0.673   0.359
 2215SOL    HW2 7545   5.462   0.711   0.341
 2216SOL     OW 7546   0.773   1.047   6.401
 2216SOL    HW1 7547   0.864   1.053   6.359
 2216SOL    HW2 7548   0.726   1.134   6.390
 2217SOL     OW 7549   4.087   6.842   2.212
 2217SOL    HW1 7550   4.134   6.767   2.259
 2217SOL    HW2 7551   4.044   6.902   2.280
 2218SOL     OW 7552   0.262   5.204   0.311
 2218SOL    HW1 7553   0.329   5.145   0.266
 2218SOL    HW2 7554   0.310   5.276   0.362
 2219SOL     OW 7555   5.967   1.802   0.674
 2219SOL    HW1 7556   5.927   1.868   0.737
 2219SOL    HW2 7557   6.052   1.766   0.713
 2220SOL     OW 7558   2.323   5.944   5.459
 2220SOL    HW1 7559   2.350   5.981   5.371
 2220SOL    HW2 7560   2.252   6.001   5.499
 2221SOL     OW 7561   5.917   1.687   5.413
 2221SOL    HW1 7562   5.979   1.743   5.468
 2221SOL    HW2 7563   5.869   1.745   5.347
 2222SOL     OW 7564   6.174   0.501   1.398
 2222SOL    HW1 7565   6.166   0.575   1.331
 2222SOL    HW2 7566   6.117   0.424   1.369
 2223SOL     OW 7567   5.818   1.168   6.097
 2223SOL    HW1 7568   5.918   1.173   6.088
 2223SOL    HW2 7569   5.778   1.153   6.006
 2224SOL     OW 7570   6.232   3.793   0.542
 2224SOL    HW1 7571   6.273   3.737   0.614
 2224SOL    HW2 7572   6.282   3.779   0.457
 2225SOL     OW 7573   6.158   6.790   4.053
 2225SOL    HW1 7574   6.252   6.758   4.040
 2225SOL    HW2 7575   6.097   6.712   4.064
 2226SOL     OW 7576   3.622   5.066   0.960
 2226SOL    HW1 7577   3.537   5.063   0.909
 2226SOL    HW2 7578   3.665   4.976   0.959
 2227SOL     OW 7579   5.738   2.643   0.172
 2227SOL    HW1 7580   5.825   2.625   0.218
 2227SOL    HW2 7581   5.749   2.630   0.073
 2228SOL     OW 7582   4.229   5.082   0.759
 2228SOL    HW1 7583   4.164   5.159   0.764
 2228SOL    HW2 7584   4.321   5.115   0.780
 2229SOL     OW 7585   3.683   2.826   5.316
 2229SOL    HW1 7586   3.670   2.858   5.222
 2229SOL    HW2 7587   3.751   2.753   5.317
 2230SOL     OW 7588   6.515   6.481   0.882
 2230SOL    HW1 7589   6.515   6.554   0.951
 2230SOL    HW2 7590   6.422   6.450   0.865
 2231SOL     OW 7591   0.150   1.011   1.536
 2231SOL    HW1 7592   0.210   1.083   1.503
 2231SOL    HW2 7593   0.070   1.052   1.581
 2232SOL     OW 7594   1.264   1.593   4.513
 2232SOL    HW1 7595   1.314   1.665   4.561
 2232SOL    HW2 7596   1.258   1.616   4.416
 2233SOL     OW 7597   2.612   2.797   0.710
 2233SOL    HW1 7598   2.548   2.840   0.773
 2233SOL    HW2 7599   2.619   2.850   0.626
 2234SOL     OW 7600   3.362   1.450   0.779
 2234SOL    HW1 7601   3.360   1.350   0.783
 2234SOL    HW2 7602   3.430   1.480   0.713
 2235SOL     OW 7603   2.816   0.172   1.900
 2235SOL    HW1 7604   2.740   0.221   1.941
 2235SOL    HW2 7605   2.821   0.194   1.802
 2236SOL     OW 7606   1.854   3.926   5.728
 2236SOL    HW1 7607   1.780   3.860   5.719
 2236SOL    HW2 7608   1.830   4.011   5.680
 2237SOL     OW 7609   5.302   4.661   3.798
 2237SOL    HW1 7610   5.395   4.696   3.805
 2237SOL    HW2 7611   5.252   4.677   3.883
 2238SOL     OW 7612   4.690   5.528   1.727
 2238SOL    HW1 7613   4.590   5.534   1.723
 2238SOL    HW2 7614   4.727   5.614   1.761
 2239SOL     OW 7615   3.700   5.430   4.079
 2239SOL    HW1 7616   3.603   5.447   4.063
 2239SOL    HW2 7617   3.712   5.379   4.164
 2240SOL     OW 7618   3.500   5.400   2.822
 2240SOL    HW1 7619   3.588   5.390   2.869
 2240SOL    HW2 7620   3.431   5.434   2.887
 2241SOL     OW 7621   6.889   6.077   2.986
 2241SOL    HW1 7622   6.984   6.070   2.953
 2241SOL    HW2 7623   6.827   6.057   2.910
 2242SOL     OW 7624   5.087   2.794   2.632
 2242SOL    HW1 7625   5.143   2.873   2.610
 2242SOL    HW2 7626   5.126   2.746   2.711
 2243SOL     OW 7627   1.711   6.871   5.893
 2243SOL    HW1 7628   1.658   6.885   5.809
 2243SOL    HW2 7629   1.731   6.773   5.903
 2244SOL     OW 7630   2.713   6.806   0.697
 2244SOL    HW1 7631   2.736   6.879   0.762
 2244SOL    HW2 7632   2.754   6.720   0.729
 2245SOL     OW 7633   0.980   1.217   1.506
 2245SOL    HW1 7634   1.007   1.184   1.596
 2245SOL    HW2 7635   1.061   1.248   1.456
 2246SOL     OW 7636   2.106   0.995   4.322
 2246SOL    HW1 7637   2.052   0.961   4.244
 2246SOL    HW2 7638   2.095   1.094   4.329
 2247SOL     OW 7639   3.556   2.846   3.209
 2247SOL    HW1 7640   3.523   2.795   3.129
 2247SOL    HW2 7641   3.614   2.922   3.178
 2248SOL     OW 7642   6.511   4.044   5.111
 2248SOL    HW1 7643   6.561   4.123   5.146
 2248SOL    HW2 7644   6.572   3.987   5.057
 2249SOL     OW 7645   5.538   0.033   3.226
 2249SOL    HW1 7646   5.635   0.012   3.219
 2249SOL    HW2 7647   5.485   6.985   3.181
 2250SOL     OW 7648   3.466   4.060   4.901
 2250SOL    HW1 7649   3.421   3.972   4.916
 2250SOL    HW2 7650   3.532   4.052   4.826
 2251SOL     OW 7651   5.343   0.252   6.649
 2251SOL    HW1 7652   5.381   0.161   6.668
 2251SOL    HW2 7653   5.413   0.308   6.607
 2252SOL     OW 7654   4.498   1.657   3.199
 2252SOL    HW1 7655   4.401   1.668   3.175
 2252SOL    HW2 7656   4.539   1.746   3.216
 2253SOL     OW 7657   6.940   3.507   0.119
 2253SOL    HW1 7658   6.926   3.582   0.055
 2253SOL    HW2 7659   6.986   3.431   0.072
 2254SOL     OW 7660   3.370   3.189   4.577
 2254SOL    HW1 7661   3.295   3.178   4.511
 2254SOL    HW2 7662   3.425   3.106   4.580
 2255SOL     OW 7663   3.929   3.114   6.013
 2255SOL    HW1 7664   3.949   3.024   5.975
 2255SOL    HW2 7665   3.835   3.116   6.046
 2256SOL     OW 7666   5.106   6.272   1.819
 2256SOL    HW1 7667   5.174   6.206   1.853
 2256SOL    HW2 7668   5.139   6.312   1.733
 2257SOL     OW 7669   0.706   2.154   4.718
 2257SOL    HW1 7670   0.610   2.140   4.740
 2257SOL    HW2 7671   0.733   2.092   4.644
 2258SOL     OW 7672   1.589   5.181   4.337
 2258SOL    HW1 7673   1.493   5.210   4.344
 2258SOL    HW2 7674   1.648   5.249   4.380
 2259SOL     OW 7675   5.344   2.658   5.611
 2259SOL    HW1 7676   5.367   2.732   5.674
 2259SOL    HW2 7677   5.297   2.585   5.660
 2260SOL     OW 7678   6.996   4.731   1.296
 2260SOL    HW1 7679   6.924   4.668   1.264
 2260SOL    HW2 7680   7.019   4.710   1.391
 2261SOL     OW 7681   6.171   4.824   0.262
 2261SOL    HW1 7682   6.081   4.856   0.235
 2261SOL    HW2 7683   6.207   4.881   0.336
 2262SOL     OW 7684   5.987   0.298   3.711
 2262SOL    HW1 7685   5.967   0.224   3.648
 2262SOL    HW2 7686   6.086   0.308   3.720
 2263SOL     OW 7687   3.248   5.789   0.315
 2263SOL    HW1 7688   3.289   5.880   0.316
 2263SOL    HW2 7689   3.206   5.773   0.226
 2264SOL     OW 7690   3.244   5.264   6.367
 2264SOL    HW1 7691   3.262   5.170   6.396
 2264SOL    HW2 7692   3.166   5.301   6.419
 2265SOL     OW 7693   2.411   0.794   3.861
 2265SOL    HW1 7694   2.389   0.891   3.852
 2265SOL    HW2 7695   2.501   0.776   3.822
 2266SOL     OW 7696   5.148   1.332   0.613
 2266SOL    HW1 7697   5.108   1.422   0.595
 2266SOL    HW2 7698   5.097   1.286   0.685
 2267SOL     OW 7699   4.869   3.250   4.860
 2267SOL    HW1 7700   4.776   3.227   4.831
 2267SOL    HW2 7701   4.929   3.171   4.845
 2268SOL     OW 7702   5.791   4.133   6.603
 2268SOL    HW1 7703   5.841   4.106   6.685
 2268SOL    HW2 7704   5.836   4.094   6.523
 2269SOL     OW 7705   6.869   4.476   5.477
 2269SOL    HW1 7706   6.894   4.550   5.415
 2269SOL    HW2 7707   6.951   4.443   5.524
 2270SOL     OW 7708   3.822   2.543   5.956
 2270SOL    HW1 7709   3.876   2.555   5.873
 2270SOL    HW2 7710   3.765   2.461   5.948
 2271SOL     OW 7711   5.847   4.660   0.219
 2271SOL    HW1 7712   5.870   4.564   0.200
 2271SOL    HW2 7713   5.820   4.705   0.134
 2272SOL     OW 7714   6.071   2.067   6.803
 2272SOL    HW1 7715   6.053   1.999   6.731
 2272SOL    HW2 7716   5.988   2.078   6.858
 2273SOL     OW 7717   1.569   1.390   2.152
 2273SOL    HW1 7718   1.550   1.352   2.061
 2273SOL    HW2 7719   1.648   1.451   2.146
 2274SOL     OW 7720   0.857   1.934   6.025
 2274SOL    HW1 7721   0.833   1.881   6.106
 2274SOL    HW2 7722   0.898   2.021   6.054
 2275SOL     OW 7723   6.517   6.630   4.357
 2275SOL    HW1 7724   6.590   6.607   4.292
 2275SOL    HW2 7725   6.557   6.642   4.448
 2276SOL     OW 7726   2.508   5.679   1.745
 2276SOL    HW1 7727   2.427   5.737   1.747
 2276SOL    HW2 7728   2.551   5.679   1.835
 2277SOL     OW 7729   3.546   4.173   4.068
 2277SOL    HW1 7730   3.518   4.138   3.979
 2277SOL    HW2 7731   3.620   4.117   4.104
 2278SOL     OW 7732   6.178   3.781   4.575
 2278SOL    HW1 7733   6.208   3.702   4.522
 2278SOL    HW2 7734   6.078   3.778   4.585
 2279SOL     OW 7735   6.062   6.763   6.070
 2279SOL    HW1 7736   6.061   6.736   6.166
 2279SOL    HW2 7737   6.154   6.747   6.033
 2280SOL     OW 7738   6.943   0.603   4.785
 2280SOL    HW1 7739   6.870   0.646   4.731
 2280SOL    HW2 7740   6.907   0.522   4.832
 2281SOL     OW 7741   3.334   0.678   1.949
 2281SOL    HW1 7742   3.417   0.698   2.001
 2281SOL    HW2 7743   3.273   0.757   1.952
 2282SOL     OW 7744   5.603   6.982   5.377
 2282SOL    HW1 7745   5.685   6.946   5.423
 2282SOL    HW2 7746   5.629   0.031   5.316
 2283SOL     OW 7747   1.310   6.242   1.974
 2283SOL    HW1 7748   1.245   6.236   2.050
 2283SOL    HW2 7749   1.392   6.290   2.004
 2284SOL     OW 7750   1.618   2.818   0.065
 2284SOL    HW1 7751   1.604   2.887   7.019
 2284SOL    HW2 7752   1.712   2.825   0.099
 2285SOL     OW 7753   1.767   2.934   1.390
 2285SOL    HW1 7754   1.857   2.948   1.429
 2285SOL    HW2 7755   1.726   2.852   1.429
 2286SOL     OW 7756   5.726   6.831   3.668
 2286SOL    HW1 7757   5.663   6.865   3.598
 2286SOL    HW2 7758   5.677   6.822   3.755
 2287SOL     OW 7759   2.391   0.012   3.730
 2287SOL    HW1 7760   2.384   7.019   3.828
 2287SOL    HW2 7761   2.300   0.022   3.691
 2288SOL     OW 7762   5.926   4.972   4.089
 2288SOL    HW1 7763   5.873   4.989   4.006
 2288SOL    HW2 7764   5.958   5.059   4.127
 2289SOL     OW 7765   0.398   4.968   0.748
 2289SOL    HW1 7766   0.478   4.922   0.786
 2289SOL    HW2 7767   0.417   4.995   0.653
 2290SOL     OW 7768   0.084   3.590   0.853
 2290SOL    HW1 7769   0.066   3.634   0.941
 2290SOL    HW2 7770   0.140   3.651   0.796
 2291SOL     OW 7771   1.616   2.363   5.099
 2291SOL    HW1 7772   1.551   2.408   5.161
 2291SOL    HW2 7773   1.574   2.283   5.058
 2292SOL     OW 7774   0.563   1.968   4.287
 2292SOL    HW1 7775   0.614   1.906   4.227
 2292SOL    HW2 7776   0.534   2.048   4.235
 2293SOL     OW 7777   4.998   6.193   1.339
 2293SOL    HW1 7778   5.070   6.254   1.373
 2293SOL    HW2 7779   4.909   6.234   1.356
 2294SOL     OW 7780   3.301   0.405   6.843
 2294SOL    HW1 7781   3.237   0.421   6.918
 2294SOL    HW2 7782   3.306   0.307   6.824
 2295SOL     OW 7783   0.648   1.685   2.970
 2295SOL    HW1 7784   0.727   1.638   2.932
 2295SOL    HW2 7785   0.675   1.734   3.053
 2296SOL     OW 7786   4.457   4.980   0.510
 2296SOL    HW1 7787   4.400   5.060   0.496
 2296SOL    HW2 7788   4.445   4.916   0.434
 2297SOL     OW 7789   4.409   4.062   5.556
 2297SOL    HW1 7790   4.503   4.027   5.551
 2297SOL    HW2 7791   4.405   4.136   5.624
 2298SOL     OW 7792   4.169   3.163   1.831
 2298SOL    HW1 7793   4.132   3.135   1.742
 2298SOL    HW2 7794   4.267   3.181   1.822
 2299SOL     OW 7795   4.772   6.157   5.298
 2299SOL    HW1 7796   4.866   6.168   5.331
 2299SOL    HW2 7797   4.711   6.212   5.354
 2300SOL     OW 7798   2.412   5.440   2.535
 2300SOL    HW1 7799   2.397   5.343   2.554
 2300SOL    HW2 7800   2.465   5.481   2.610
 2301SOL     OW 7801   3.155   2.935   2.736
 2301SOL    HW1 7802   3.102   2.867   2.686
 2301SOL    HW2 7803   3.166   2.905   2.831
 2302SOL     OW 7804   3.806   0.456   0.701
 2302SOL    HW1 7805   3.783   0.443   0.798
 2302SOL    HW2 7806   3.905   0.450   0.689
 2303SOL     OW 7807   2.082   3.267   6.431
 2303SOL    HW1 7808   2.057   3.173   6.406
 2303SOL    HW2 7809   2.147   3.303   6.364
 2304SOL     OW 7810   4.331   6.947   3.801
 2304SOL    HW1 7811   4.417   6.901   3.821
 2304SOL    HW2 7812   4.349   0.017   3.773
 2305SOL     OW 7813   2.337   6.835   2.776
 2305SOL    HW1 7814   2.403   6.909   2.791
 2305SOL    HW2 7815   2.318   6.827   2.678
 2306SOL     OW 7816   2.700   5.073   2.055
 2306SOL    HW1 7817   2.723   4.976   2.050
 2306SOL    HW2 7818   2.759   5.119   2.121
 2307SOL     OW 7819   0.229   4.148   2.562
 2307SOL    HW1 7820   0.237   4.224   2.498
 2307SOL    HW2 7821   0.321   4.114   2.585
 2308SOL     OW 7822   1.537   6.347   0.474
 2308SOL    HW1 7823   1.599   6.321   0.400
 2308SOL    HW2 7824   1.485   6.267   0.504
 2309SOL     OW 7825   2.445   6.430   6.670
 2309SOL    HW1 7826   2.446   6.456   6.574
 2309SOL    HW2 7827   2.352   6.439   6.707
 2310SOL     OW 7828   5.660   6.343   1.278
 2310SOL    HW1 7829   5.685   6.437   1.255
 2310SOL    HW2 7830   5.656   6.288   1.195
 2311SOL     OW 7831   2.274   5.886   1.995
 2311SOL    HW1 7832   2.346   5.934   2.046
 2311SOL    HW2 7833   2.290   5.896   1.897
 2312SOL     OW 7834   3.280   6.524   4.147
 2312SOL    HW1 7835   3.348   6.535   4.220
 2312SOL    HW2 7836   3.203   6.586   4.164
 2313SOL     OW 7837   5.193   5.655   1.405
 2313SOL    HW1 7838   5.157   5.562   1.400
 2313SOL    HW2 7839   5.214   5.688   1.313
 2314SOL     OW 7840   5.691   0.463   5.162
 2314SOL    HW1 7841   5.619   0.531   5.150
 2314SOL    HW2 7842   5.778   0.501   5.130
 2315SOL     OW 7843   4.963   3.430   5.560
 2315SOL    HW1 7844   4.884   3.465   5.509
 2315SOL    HW2 7845   4.938   3.345   5.606
 2316SOL     OW 7846   3.110   0.715   4.390
 2316SOL    HW1 7847   3.128   0.687   4.296
 2316SOL    HW2 7848   3.176   0.671   4.451
 2317SOL     OW 7849   6.678   6.021   3.270
 2317SOL    HW1 7850   6.606   6.090   3.268
 2317SOL    HW2 7851   6.752   6.051   3.331
 2318SOL     OW 7852   2.275   2.927   4.159
 2318SOL    HW1 7853   2.312   2.838   4.134
 2318SOL    HW2 7854   2.268   2.985   4.078
 2319SOL     OW 7855   2.883   5.779   4.708
 2319SOL    HW1 7856   2.943   5.859   4.703
 2319SOL    HW2 7857   2.845   5.761   4.617
 2320SOL     OW 7858   0.776   3.157   4.544
 2320SOL    HW1 7859   0.761   3.254   4.526
 2320SOL    HW2 7860   0.862   3.128   4.501
 2321SOL     OW 7861   2.215   5.558   6.764
 2321SOL    HW1 7862   2.240   5.618   6.840
 2321SOL    HW2 7863   2.123   5.520   6.779
 2322SOL     OW 7864   1.684   4.053   3.305
 2322SOL    HW1 7865   1.752   4.012   3.244
 2322SOL    HW2 7866   1.709   4.147   3.325
 2323SOL     OW 7867   3.362   4.712   1.734
 2323SOL    HW1 7868   3.449   4.678   1.772
 2323SOL    HW2 7869   3.326   4.784   1.793
 2324SOL     OW 7870   6.792   5.867   0.675
 2324SOL    HW1 7871   6.720   5.917   0.627
 2324SOL    HW2 7872   6.770   5.770   0.677
 2325SOL     OW 7873   1.028   4.314   1.147
 2325SOL    HW1 7874   1.062   4.388   1.088
 2325SOL    HW2 7875   0.977   4.353   1.223
 2326SOL     OW 7876   3.336   5.833   6.784
 2326SOL    HW1 7877   3.434   5.817   6.770
 2326SOL    HW2 7878   3.289   5.833   6.696
 2327SOL     OW 7879   6.496   1.494   4.006
 2327SOL    HW1 7880   6.474   1.398   3.990
 2327SOL    HW2 7881   6.534   1.534   3.922
 2328SOL     OW 7882   1.362   1.781   3.242
 2328SOL    HW1 7883   1.363   1.699   3.184
 2328SOL    HW2 7884   1.354   1.863   3.184
 2329SOL     OW 7885   1.934   4.625   4.443
 2329SOL    HW1 7886   2.029   4.648   4.426
 2329SOL    HW2 7887   1.924   4.525   4.447
 2330SOL     OW 7888   0.331   3.754   1.339
 2330SOL    HW1 7889   0.320   3.769   1.241
 2330SOL    HW2 7890   0.428   3.765   1.363
 2331SOL     OW 7891   3.936   5.720   6.703
 2331SOL    HW1 7892   3.906   5.667   6.624
 2331SOL    HW2 7893   3.981   5.659   6.769
 2332SOL     OW 7894   5.386   1.343   5.656
 2332SOL    HW1 7895   5.391   1.369   5.753
 2332SOL    HW2 7896   5.450   1.399   5.604
 2333SOL     OW 7897   0.405   4.436   2.816
 2333SOL    HW1 7898   0.460   4.461   2.736
 2333SOL    HW2 7899   0.384   4.519   2.869
 2334SOL     OW 7900   2.168   0.533   6.849
 2334SOL    HW1 7901   2.262   0.534   6.882
 2334SOL    HW2 7902   2.133   0.627   6.845
 2335SOL     OW 7903   6.523   1.287   3.597
 2335SOL    HW1 7904   6.428   1.258   3.583
 2335SOL    HW2 7905   6.563   1.237   3.674
 2336SOL     OW 7906   4.413   2.426   4.887
 2336SOL    HW1 7907   4.330   2.420   4.942
 2336SOL    HW2 7908   4.469   2.344   4.901
 2337SOL     OW 7909   4.390   0.913   1.903
 2337SOL    HW1 7910   4.470   0.969   1.926
 2337SOL    HW2 7911   4.364   0.930   1.808
 2338SOL     OW 7912   1.168   3.259   5.417
 2338SOL    HW1 7913   1.117   3.251   5.502
 2338SOL    HW2 7914   1.174   3.170   5.372
 2339SOL     OW 7915   3.212   3.358   4.089
 2339SOL    HW1 7916   3.266   3.369   4.173
 2339SOL    HW2 7917   3.158   3.441   4.074
 2340SOL     OW 7918   6.274   4.383   7.011
 2340SOL    HW1 7919   6.313   4.463   0.032
 2340SOL    HW2 7920   6.262   4.403   6.914
 2341SOL     OW 7921   3.783   4.905   1.882
 2341SOL    HW1 7922   3.734   4.956   1.953
 2341SOL    HW2 7923   3.722   4.835   1.844
 2342SOL     OW 7924   0.833   6.929   5.185
 2342SOL    HW1 7925   0.797   6.843   5.149
 2342SOL    HW2 7926   0.862   6.916   5.280
 2343SOL     OW 7927   1.981   5.728   3.483
 2343SOL    HW1 7928   2.053   5.733   3.413
 2343SOL    HW2 7929   2.012   5.672   3.559
 2344SOL     OW 7930   1.947   5.779   6.931
 2344SOL    HW1 7931   2.024   5.835   6.900
 2344SOL    HW2 7932   1.881   5.769   6.856
 2345SOL     OW 7933   3.511   5.596   5.076
 2345SOL    HW1 7934   3.427   5.645   5.100
 2345SOL    HW2 7935   3.488   5.504   5.045
 2346SOL     OW 7936   3.814   3.079   5.426
 2346SOL    HW1 7937   3.805   2.984   5.396
 2346SOL    HW2 7938   3.802   3.084   5.526
 2347SOL     OW 7939   3.126   2.804   1.398
 2347SOL    HW1 7940   3.205   2.767   1.447
 2347SOL    HW2 7941   3.071   2.729   1.361
 2348SOL     OW 7942   2.223   0.234   3.328
 2348SOL    HW1 7943   2.274   0.178   3.393
 2348SOL    HW2 7944   2.141   0.270   3.372
 2349SOL     OW 7945   1.059   4.458   6.385
 2349SOL    HW1 7946   0.992   4.483   6.314
 2349SOL    HW2 7947   1.061   4.358   6.394
 2350SOL     OW 7948   4.993   0.154   6.342
 2350SOL    HW1 7949   4.934   0.233   6.358
 2350SOL    HW2 7950   4.949   0.072   6.379
 2351SOL     OW 7951   3.209   5.147   4.061
 2351SOL    HW1 7952   3.185   5.056   4.028
 2351SOL    HW2 7953   3.147   5.173   4.135
 2352SOL     OW 7954   0.745   4.369   2.188
 2352SOL    HW1 7955   0.751   4.466   2.166
 2352SOL    HW2 7956   0.679   4.356   2.262
 2353SOL     OW 7957   3.085   4.830   6.018
 2353SOL    HW1 7958   3.013   4.763   6.036
 2353SOL    HW2 7959   3.159   4.788   5.966
 2354SOL     OW 7960   3.311   1.338   5.709
 2354SOL    HW1 7961   3.374   1.416   5.706
 2354SOL    HW2 7962   3.244   1.347   5.636
 2355SOL     OW 7963   2.547   5.972   0.297
 2355SOL    HW1 7964   2.543   6.068   0.322
 2355SOL    HW2 7965   2.617   5.926   0.351
 2356SOL     OW 7966   1.471   3.162   6.489
 2356SOL    HW1 7967   1.546   3.171   6.555
 2356SOL    HW2 7968   1.384   3.177   6.536
 2357SOL     OW 7969   4.292   6.678   2.639
 2357SOL    HW1 7970   4.313   6.756   2.698
 2357SOL    HW2 7971   4.213   6.700   2.582
 2358SOL     OW 7972   3.999   4.953   4.969
 2358SOL    HW1 7973   3.966   4.893   5.041
 2358SOL    HW2 7974   4.039   5.035   5.009
 2359SOL     OW 7975   6.104   0.898   5.886
 2359SOL    HW1 7976   6.129   0.802   5.897
 2359SOL    HW2 7977   6.005   0.908   5.895
 2360SOL     OW 7978   5.290   4.663   6.989
 2360SOL    HW1 7979   5.278   4.665   6.889
 2360SOL    HW2 7980   5.385   4.638   7.010
 2361SOL     OW 7981   2.424   1.382   5.122
 2361SOL    HW1 7982   2.504   1.431   5.087
 2361SOL    HW2 7983   2.361   1.363   5.047
 2362SOL     OW 7984   2.177   7.014   4.959
 2362SOL    HW1 7985   2.240   6.947   4.999
 2362SOL    HW2 7986   2.229   0.062   4.916
 2363SOL     OW 7987   4.478   2.260   5.357
 2363SOL    HW1 7988   4.532   2.278   5.275
 2363SOL    HW2 7989   4.525   2.191   5.413
 2364SOL     OW 7990   1.338   1.684   2.784
 2364SOL    HW1 7991   1.292   1.725   2.862
 2364SOL    HW2 7992   1.397   1.751   2.740
 2365SOL     OW 7993   6.463   2.611   6.217
 2365SOL    HW1 7994   6.418   2.528   6.251
 2365SOL    HW2 7995   6.532   2.641   6.283
 2366SOL     OW 7996   2.020   5.586   6.323
 2366SOL    HW1 7997   2.078   5.608   6.245
 2366SOL    HW2 7998   1.989   5.491   6.316
 2367SOL     OW 7999   2.627   4.533   0.539
 2367SOL    HW1 8000   2.634   4.575   0.629
 2367SOL    HW2 8001   2.586   4.442   0.548
 2368SOL     OW 8002   4.351   0.015   3.557
 2368SOL    HW1 8003   4.335   6.944   3.581
 2368SOL    HW2 8004   4.429   0.021   3.496
 2369SOL     OW 8005   1.115   2.658   5.522
 2369SOL    HW1 8006   1.020   2.652   5.552
 2369SOL    HW2 8007   1.119   2.709   5.436
 2370SOL     OW 8008   5.116   3.756   6.903
 2370SOL    HW1 8009   5.040   3.820   6.894
 2370SOL    HW2 8010   5.167   3.752   6.818
 2371SOL     OW 8011   0.693   7.022   2.441
 2371SOL    HW1 8012   0.750   0.016   2.521
 2371SOL    HW2 8013   0.683   0.080   2.387
 2372SOL     OW 8014   0.057   2.421   2.091
 2372SOL    HW1 8015   0.050   2.451   2.186
 2372SOL    HW2 8016   0.056   2.500   2.031
 2373SOL     OW 8017   0.410   1.512   0.548
 2373SOL    HW1 8018   0.483   1.472   0.493
 2373SOL    HW2 8019   0.451   1.566   0.622
 2374SOL     OW 8020   6.194   1.128   3.476
 2374SOL    HW1 8021   6.217   1.125   3.573
 2374SOL    HW2 8022   6.217   1.041   3.433
 2375SOL     OW 8023   2.876   6.887   4.894
 2375SOL    HW1 8024   2.865   6.982   4.866
 2375SOL    HW2 8025   2.805   6.831   4.851
 2376SOL     OW 8026   6.559   2.679   4.150
 2376SOL    HW1 8027   6.631   2.742   4.121
 2376SOL    HW2 8028   6.529   2.624   4.073
 2377SOL     OW 8029   3.113   4.016   3.195
 2377SOL    HW1 8030   3.054   3.938   3.213
 2377SOL    HW2 8031   3.164   4.039   3.277
 2378SOL     OW 8032   4.768   1.845   0.474
 2378SOL    HW1 8033   4.679   1.802   0.457
 2378SOL    HW2 8034   4.772   1.880   0.567
 2379SOL     OW 8035   5.909   2.346   6.719
 2379SOL    HW1 8036   5.891   2.272   6.784
 2379SOL    HW2 8037   5.846   2.339   6.642
 2380SOL     OW 8038   0.504   0.649   6.582
 2380SOL    HW1 8039   0.532   0.582   6.650
 2380SOL    HW2 8040   0.583   0.675   6.526
 2381SOL     OW 8041   2.168   3.787   4.467
 2381SOL    HW1 8042   2.194   3.861   4.529
 2381SOL    HW2 8043   2.186   3.699   4.512
 2382SOL     OW 8044   2.326   4.409   3.570
 2382SOL    HW1 8045   2.337   4.336   3.639
 2382SOL    HW2 8046   2.351   4.374   3.480
 2383SOL     OW 8047   5.704   6.595   1.228
 2383SOL    HW1 8048   5.767   6.660   1.270
 2383SOL    HW2 8049   5.702   6.608   1.129
 2384SOL     OW 8050   5.939   0.353   2.886
 2384SOL    HW1 8051   5.886   0.373   2.969
 2384SOL    HW2 8052   6.016   0.293   2.909
 2385SOL     OW 8053   1.004   6.481   1.280
 2385SOL    HW1 8054   0.981   6.537   1.360
 2385SOL    HW2 8055   0.967   6.389   1.292
 2386SOL     OW 8056   5.438   5.046   4.261
 2386SOL    HW1 8057   5.427   5.142   4.286
 2386SOL    HW2 8058   5.513   5.006   4.315
 2387SOL     OW 8059   1.268   1.280   3.954
 2387SOL    HW1 8060   1.313   1.190   3.953
 2387SOL    HW2 8061   1.288   1.327   3.867
 2388SOL     OW 8062   0.968   2.253   3.588
 2388SOL    HW1 8063   0.982   2.185   3.660
 2388SOL    HW2 8064   0.871   2.272   3.578
 2389SOL     OW 8065   4.901   3.638   2.840
 2389SOL    HW1 8066   4.997   3.639   2.812
 2389SOL    HW2 8067   4.859   3.727   2.820
 2390SOL     OW 8068   3.907   3.580   2.879
 2390SOL    HW1 8069   4.003   3.557   2.894
 2390SOL    HW2 8070   3.864   3.507   2.825
 2391SOL     OW 8071   4.712   4.458   5.535
 2391SOL    HW1 8072   4.674   4.393   5.599
 2391SOL    HW2 8073   4.806   4.433   5.513
 2392SOL     OW 8074   3.747   6.671   5.483
 2392SOL    HW1 8075   3.836   6.641   5.518
 2392SOL    HW2 8076   3.675   6.619   5.528
 2393SOL     OW 8077   5.113   3.687   6.081
 2393SOL    HW1 8078   5.073   3.619   6.019
 2393SOL    HW2 8079   5.200   3.720   6.043
 2394SOL     OW 8080   1.586   3.255   4.510
 2394SOL    HW1 8081   1.567   3.344   4.551
 2394SOL    HW2 8082   1.571   3.260   4.412
 2395SOL     OW 8083   6.001   2.572   6.807
 2395SOL    HW1 8084   6.059   2.615   6.737
 2395SOL    HW2 8085   5.971   2.483   6.775
 2396SOL     OW 8086   3.954   5.070   1.677
 2396SOL    HW1 8087   3.889   5.021   1.734
 2396SOL    HW2 8088   3.939   5.046   1.581
 2397SOL     OW 8089   0.232   3.911   6.681
 2397SOL    HW1 8090   0.320   3.882   6.645
 2397SOL    HW2 8091   0.184   3.967   6.613
 2398SOL     OW 8092   2.848   3.782   6.593
 2398SOL    HW1 8093   2.892   3.851   6.650
 2398SOL    HW2 8094   2.804   3.826   6.515
 2399SOL     OW 8095   4.231   1.656   2.233
 2399SOL    HW1 8096   4.315   1.694   2.193
 2399SOL    HW2 8097   4.162   1.644   2.162
 2400SOL     OW 8098   3.147   4.562   0.344
 2400SOL    HW1 8099   3.064   4.565   0.398
 2400SOL    HW2 8100   3.124   4.552   0.247
 2401SOL     OW 8101   3.410   6.323   6.173
 2401SOL    HW1 8102   3.377   6.345   6.265
 2401SOL    HW2 8103   3.374   6.234   6.146
 2402SOL     OW 8104   6.812   1.383   3.816
 2402SOL    HW1 8105   6.747   1.457   3.800
 2402SOL    HW2 8106   6.904   1.422   3.824
 2403SOL     OW 8107   1.986   2.679   0.064
 2403SOL    HW1 8108   1.933   2.732   0.130
 2403SOL    HW2 8109   1.970   2.581   0.078
 2404SOL     OW 8110   3.955   0.764   1.377
 2404SOL    HW1 8111   4.052   0.750   1.391
 2404SOL    HW2 8112   3.911   0.677   1.356
 2405SOL     OW 8113   3.836   3.325   2.821
 2405SOL    HW1 8114   3.862   3.335   2.917
 2405SOL    HW2 8115   3.742   3.292   2.816
 2406SOL     OW 8116   2.796   6.874   3.042
 2406SOL    HW1 8117   2.762   6.875   2.948
 2406SOL    HW2 8118   2.895   6.860   3.042
 2407SOL     OW 8119   4.621   1.734   2.488
 2407SOL    HW1 8120   4.632   1.821   2.439
 2407SOL    HW2 8121   4.705   1.714   2.538
 2408SOL     OW 8122   4.143   5.067   3.309
 2408SOL    HW1 8123   4.221   5.073   3.371
 2408SOL    HW2 8124   4.071   5.130   3.340
 2409SOL     OW 8125   1.113   3.880   1.952
 2409SOL    HW1 8126   1.076   3.951   1.893
 2409SOL    HW2 8127   1.080   3.791   1.922
 2410SOL     OW 8128   4.605   2.362   5.966
 2410SOL    HW1 8129   4.691   2.382   6.012
 2410SOL    HW2 8130   4.566   2.446   5.928
 2411SOL     OW 8131   4.144   5.122   5.127
 2411SOL    HW1 8132   4.078   5.184   5.170
 2411SOL    HW2 8133   4.234   5.134   5.169
 2412SOL     OW 8134   4.405   5.087   1.560
 2412SOL    HW1 8135   4.462   5.005   1.567
 2412SOL    HW2 8136   4.395   5.113   1.464
 2413SOL     OW 8137   6.181   2.121   1.132
 2413SOL    HW1 8138   6.152   2.210   1.095
 2413SOL    HW2 8139   6.104   2.057   1.128
 2414SOL     OW 8140   4.784   4.487   2.407
 2414SOL    HW1 8141   4.735   4.411   2.366
 2414SOL    HW2 8142   4.817   4.548   2.335
 2415SOL     OW 8143   0.026   6.646   1.959
 2415SOL    HW1 8144   0.020   6.650   2.059
 2415SOL    HW2 8145   0.009   6.552   1.929
 2416SOL     OW 8146   4.145   2.162   5.314
 2416SOL    HW1 8147   4.086   2.127   5.241
 2416SOL    HW2 8148   4.209   2.090   5.342
 2417SOL     OW 8149   3.958   3.309   5.833
 2417SOL    HW1 8150   3.937   3.227   5.885
 2417SOL    HW2 8151   4.039   3.293   5.775
 2418SOL     OW 8152   3.026   3.790   4.260
 2418SOL    HW1 8153   3.081   3.852   4.204
 2418SOL    HW2 8154   3.001   3.710   4.206
 2419SOL     OW 8155   0.771   6.160   4.774
 2419SOL    HW1 8156   0.865   6.126   4.768
 2419SOL    HW2 8157   0.771   6.252   4.813
 2420SOL     OW 8158   2.799   1.392   1.962
 2420SOL    HW1 8159   2.834   1.308   1.920
 2420SOL    HW2 8160   2.821   1.393   2.059
 2421SOL     OW 8161   2.799   1.888   4.991
 2421SOL    HW1 8162   2.842   1.943   5.062
 2421SOL    HW2 8163   2.731   1.828   5.033
 2422SOL     OW 8164   5.487   1.091   1.708
 2422SOL    HW1 8165   5.548   1.033   1.762
 2422SOL    HW2 8166   5.454   1.040   1.629
 2423SOL     OW 8167   0.623   6.576   3.064
 2423SOL    HW1 8168   0.569   6.512   3.119
 2423SOL    HW2 8169   0.566   6.653   3.035
 2424SOL     OW 8170   6.069   6.480   6.402
 2424SOL    HW1 8171   6.003   6.452   6.472
 2424SOL    HW2 8172   6.035   6.560   6.353
 2425SOL     OW 8173   5.764   0.063   4.384
 2425SOL    HW1 8174   5.789   0.045   4.479
 2425SOL    HW2 8175   5.728   7.005   4.342
 2426SOL     OW 8176   0.969   5.542   4.820
 2426SOL    HW1 8177   0.986   5.512   4.727
 2426SOL    HW2 8178   1.008   5.633   4.834
 2427SOL     OW 8179   5.998   5.277   5.319
 2427SOL    HW1 8180   6.072   5.242   5.376
 2427SOL    HW2 8181   6.036   5.329   5.243
 2428SOL     OW 8182   6.242   0.198   3.430
 2428SOL    HW1 8183   6.192   0.112   3.422
 2428SOL    HW2 8184   6.316   0.200   3.363
 2429SOL     OW 8185   5.167   5.325   3.429
 2429SOL    HW1 8186   5.192   5.235   3.467
 2429SOL    HW2 8187   5.087   5.360   3.479
 2430SOL     OW 8188   6.178   1.568   1.306
 2430SOL    HW1 8189   6.130   1.647   1.343
 2430SOL    HW2 8190   6.276   1.580   1.317
 2431SOL     OW 8191   4.448   0.998   2.399
 2431SOL    HW1 8192   4.413   0.909   2.428
 2431SOL    HW2 8193   4.494   1.042   2.477
 2432SOL     OW 8194   3.094   6.915   2.968
 2432SOL    HW1 8195   3.055   6.990   3.020
 2432SOL    HW2 8196   3.194   6.921   2.969
 2433SOL     OW 8197   3.472   0.903   1.469
 2433SOL    HW1 8198   3.419   0.851   1.535
 2433SOL    HW2 8199   3.509   0.841   1.399
 2434SOL     OW 8200   4.457   0.500   4.709
 2434SOL    HW1 8201   4.359   0.508   4.691
 2434SOL    HW2 8202   4.508   0.547   4.637
 2435SOL     OW 8203   4.562   4.769   6.601
 2435SOL    HW1 8204   4.504   4.693   6.628
 2435SOL    HW2 8205   4.529   4.853   6.644
 2436SOL     OW 8206   1.738   5.691   1.163
 2436SOL    HW1 8207   1.743   5.691   1.063
 2436SOL    HW2 8208   1.803   5.757   1.200
 2437SOL     OW 8209   5.058   6.685   6.669
 2437SOL    HW1 8210   5.108   6.604   6.700
 2437SOL    HW2 8211   5.119   6.744   6.616
 2438SOL     OW 8212   3.596   1.021   6.482
 2438SOL    HW1 8213   3.573   0.925   6.465
 2438SOL    HW2 8214   3.574   1.044   6.576
 2439SOL     OW 8215   0.881   4.450   6.200
 2439SOL    HW1 8216   0.908   4.419   6.108
 2439SOL    HW2 8217   0.800   4.508   6.193
 2440SOL     OW 8218   4.678   5.769   5.681
 2440SOL    HW1 8219   4.711   5.802   5.769
 2440SOL    HW2 8220   4.741   5.797   5.609
 2441SOL     OW 8221   0.949   0.883   0.243
 2441SOL    HW1 8222   0.928   0.850   0.335
 2441SOL    HW2 8223   1.013   0.820   0.198
 2442SOL     OW 8224   0.374   4.592   4.940
 2442SOL    HW1 8225   0.394   4.515   4.999
 2442SOL    HW2 8226   0.320   4.561   4.861
 2443SOL     OW 8227   4.136   5.342   5.784
 2443SOL    HW1 8228   4.103   5.263   5.733
 2443SOL    HW2 8229   4.202   5.392   5.729
 2444SOL     OW 8230   3.348   4.377   6.071
 2444SOL    HW1 8231   3.389   4.317   6.139
 2444SOL    HW2 8232   3.249   4.360   6.068
 2445SOL     OW 8233   0.342   0.470   1.916
 2445SOL    HW1 8234   0.363   0.559   1.955
 2445SOL    HW2 8235   0.293   0.482   1.830
 2446SOL     OW 8236   6.704   5.174   3.818
 2446SOL    HW1 8237   6.735   5.213   3.731
 2446SOL    HW2 8238   6.673   5.247   3.878
 2447SOL     OW 8239   1.937   2.766   0.757
 2447SOL    HW1 8240   1.987   2.785   0.841
 2447SOL    HW2 8241   1.840   2.782   0.772
 2448SOL     OW 8242   0.504   0.675   4.333
 2448SOL    HW1 8243   0.440   0.632   4.397
 2448SOL    HW2 8244   0.497   0.774   4.341
 2449SOL     OW 8245   6.874   4.638   1.005
 2449SOL    HW1 8246   6.904   4.564   0.945
 2449SOL    HW2 8247   6.925   4.721   0.983
 2450SOL     OW 8248   2.768   4.939   3.479
 2450SOL    HW1 8249   2.671   4.918   3.475
 2450SOL    HW2 8250   2.786   5.023   3.428
 2451SOL     OW 8251   0.882   0.480   3.122
 2451SOL    HW1 8252   0.878   0.407   3.055
 2451SOL    HW2 8253   0.845   0.447   3.209
 2452SOL     OW 8254   1.519   3.621   2.828
 2452SOL    HW1 8255   1.539   3.663   2.917
 2452SOL    HW2 8256   1.527   3.690   2.757
 2453SOL     OW 8257   6.467   4.268   1.281
 2453SOL    HW1 8258   6.397   4.251   1.351
 2453SOL    HW2 8259   6.502   4.180   1.247
 2454SOL     OW 8260   2.904   0.615   1.207
 2454SOL    HW1 8261   2.924   0.697   1.259
 2454SOL    HW2 8262   2.988   0.577   1.169
 2455SOL     OW 8263   5.636   5.893   0.317
 2455SOL    HW1 8264   5.538   5.899   0.332
 2455SOL    HW2 8265   5.682   5.880   0.405
 2456SOL     OW 8266   4.964   6.948   1.367
 2456SOL    HW1 8267   5.024   7.016   1.410
 2456SOL    HW2 8268   5.009   6.909   1.287
 2457SOL     OW 8269   6.369   6.156   0.623
 2457SOL    HW1 8270   6.278   6.194   0.636
 2457SOL    HW2 8271   6.410   6.193   0.540
 2458SOL     OW 8272   2.115   5.575   3.152
 2458SOL    HW1 8273   2.017   5.552   3.153
 2458SOL    HW2 8274   2.131   5.648   3.219
 2459SOL     OW 8275   2.431   6.788   0.605
 2459SOL    HW1 8276   2.368   6.711   0.609
 2459SOL    HW2 8277   2.506   6.773   0.669
 2460SOL     OW 8278   1.978   0.767   1.211
 2460SOL    HW1 8279   1.893   0.808   1.245
 2460SOL    HW2 8280   1.957   0.698   1.142
 2461SOL     OW 8281   5.295   1.011   3.153
 2461SOL    HW1 8282   5.251   1.099   3.170
 2461SOL    HW2 8283   5.285   0.987   3.056
 2462SOL     OW 8284   2.767   5.456   0.231
 2462SOL    HW1 8285   2.682   5.508   0.224
 2462SOL    HW2 8286   2.763   5.378   0.167
 2463SOL     OW 8287   5.702   2.728   4.145
 2463SOL    HW1 8288   5.641   2.737   4.067
 2463SOL    HW2 8289   5.786   2.681   4.116
 2464SOL     OW 8290   0.735   4.949   1.546
 2464SOL    HW1 8291   0.673   5.009   1.596
 2464SOL    HW2 8292   0.702   4.938   1.452
 2465SOL     OW 8293   0.229   5.166   1.229
 2465SOL    HW1 8294   0.302   5.114   1.273
 2465SOL    HW2 8295   0.197   5.238   1.291
 2466SOL     OW 8296   3.240   0.689   2.436
 2466SOL    HW1 8297   3.169   0.624   2.465
 2466SOL    HW2 8298   3.222   0.778   2.477
 2467SOL     OW 8299   5.725   1.001   5.896
 2467SOL    HW1 8300   5.632   0.988   5.862
 2467SOL    HW2 8301   5.753   0.922   5.950
 2468SOL     OW 8302   6.674   6.091   1.804
 2468SOL    HW1 8303   6.692   6.173   1.858
 2468SOL    HW2 8304   6.755   6.031   1.806
 2469SOL     OW 8305   3.266   4.378   5.755
 2469SOL    HW1 8306   3.269   4.291   5.706
 2469SOL    HW2 8307   3.330   4.375   5.832
 2470SOL     OW 8308   2.623   3.951   6.015
 2470SOL    HW1 8309   2.531   3.948   5.977
 2470SOL    HW2 8310   2.663   3.859   6.012
 2471SOL     OW 8311   1.203   6.781   1.180
 2471SOL    HW1 8312   1.156   6.704   1.136
 2471SOL    HW2 8313   1.286   6.748   1.225
 2472SOL     OW 8314   5.361   1.495   4.707
 2472SOL    HW1 8315   5.405   1.583   4.724
 2472SOL    HW2 8316   5.400   1.454   4.625
 2473SOL     OW 8317   2.140   4.540   5.064
 2473SOL    HW1 8318   2.155   4.499   4.974
 2473SOL    HW2 8319   2.215   4.515   5.125
 2474SOL     OW 8320   0.265   4.587   6.822
 2474SOL    HW1 8321   0.167   4.599   6.804
 2474SOL    HW2 8322   0.306   4.533   6.748
 2475SOL     OW 8323   4.110   2.615   0.972
 2475SOL    HW1 8324   4.071   2.703   1.000
 2475SOL    HW2 8325   4.054   2.541   1.008
 2476SOL     OW 8326   0.823   2.525   3.300
 2476SOL    HW1 8327   0.881   2.587   3.353
 2476SOL    HW2 8328   0.756   2.482   3.360
 2477SOL     OW 8329   6.473   6.342   2.021
 2477SOL    HW1 8330   6.430   6.275   2.080
 2477SOL    HW2 8331   6.413   6.364   1.944
 2478SOL     OW 8332   5.313   6.665   2.290
 2478SOL    HW1 8333   5.342   6.621   2.375
 2478SOL    HW2 8334   5.274   6.596   2.229
 2479SOL     OW 8335   0.078   3.774   1.111
 2479SOL    HW1 8336   0.044   3.846   1.172
 2479SOL    HW2 8337   0.176   3.783   1.100
 2480SOL     OW 8338   6.880   2.686   1.234
 2480SOL    HW1 8339   6.966   2.706   1.187
 2480SOL    HW2 8340   6.865   2.754   1.306
 2481SOL     OW 8341   3.411   6.004   0.334
 2481SOL    HW1 8342   3.421   6.092   0.380
 2481SOL    HW2 8343   3.498   5.953   0.339
 2482SOL     OW 8344   4.647   3.565   5.952
 2482SOL    HW1 8345   4.710   3.642   5.962
 2482SOL    HW2 8346   4.607   3.565   5.860
 2483SOL     OW 8347   2.097   1.120   0.584
 2483SOL    HW1 8348   2.074   1.031   0.545
 2483SOL    HW2 8349   2.014   1.174   0.594
 2484SOL     OW 8350   2.272   0.793   0.813
 2484SOL    HW1 8351   2.265   0.743   0.726
 2484SOL    HW2 8352   2.260   0.729   0.889
 2485SOL     OW 8353   5.710   5.029   2.128
 2485SOL    HW1 8354   5.621   5.032   2.175
 2485SOL    HW2 8355   5.742   4.934   2.125
 2486SOL     OW 8356   1.438   5.663   3.626
 2486SOL    HW1 8357   1.454   5.568   3.653
 2486SOL    HW2 8358   1.487   5.724   3.687
 2487SOL     OW 8359   4.440   6.486   0.031
 2487SOL    HW1 8360   4.428   6.506   0.128
 2487SOL    HW2 8361   4.351   6.461   7.016
 2488SOL     OW 8362   2.670   4.182   1.730
 2488SOL    HW1 8363   2.667   4.117   1.654
 2488SOL    HW2 8364   2.749   4.242   1.720
 2489SOL     OW 8365   2.575   5.729   4.714
 2489SOL    HW1 8366   2.552   5.715   4.811
 2489SOL    HW2 8367   2.502   5.782   4.671
 2490SOL     OW 8368   6.759   5.073   0.911
 2490SOL    HW1 8369   6.688   5.038   0.972
 2490SOL    HW2 8370   6.717   5.104   0.826
 2491SOL     OW 8371   2.732   5.856   3.025
 2491SOL    HW1 8372   2.649   5.865   3.080
 2491SOL    HW2 8373   2.777   5.945   3.017
 2492SOL     OW 8374   4.833   3.175   6.347
 2492SOL    HW1 8375   4.832   3.106   6.419
 2492SOL    HW2 8376   4.739   3.206   6.329
 2493SOL     OW 8377   5.585   0.489   2.741
 2493SOL    HW1 8378   5.673   0.531   2.762
 2493SOL    HW2 8379   5.557   0.431   2.817
 2494SOL     OW 8380   4.797   3.076   2.948
 2494SOL    HW1 8381   4.754   2.989   2.925
 2494SOL    HW2 8382   4.795   3.089   3.047
 2495SOL     OW 8383   4.787   1.227   5.010
 2495SOL    HW1 8384   4.865   1.186   5.057
 2495SOL    HW2 8385   4.799   1.327   5.008
 2496SOL     OW 8386   1.248   5.338   0.342
 2496SOL    HW1 8387   1.172   5.399   0.318
 2496SOL    HW2 8388   1.308   5.327   0.263
 2497SOL     OW 8389   6.904   1.706   0.768
 2497SOL    HW1 8390   6.905   1.609   0.744
 2497SOL    HW2 8391   6.973   1.724   0.839
 2498SOL     OW 8392   2.016   3.333   3.309
 2498SOL    HW1 8393   2.079   3.296   3.377
 2498SOL    HW2 8394   2.034   3.431   3.296
 2499SOL     OW 8395   5.514   0.815   4.911
 2499SOL    HW1 8396   5.571   0.746   4.867
 2499SOL    HW2 8397   5.476   0.779   4.996
 2500SOL     OW 8398   4.932   3.486   5.955
 2500SOL    HW1 8399   4.946   3.405   6.011
 2500SOL    HW2 8400   4.835   3.496   5.934
 2501SOL     OW 8401   5.540   4.049   6.692
 2501SOL    HW1 8402   5.567   3.988   6.767
 2501SOL    HW2 8403   5.621   4.094   6.656
 2502SOL     OW 8404   2.241   6.624   3.722
 2502SOL    HW1 8405   2.259   6.636   3.624
 2502SOL    HW2 8406   2.205   6.708   3.761
 2503SOL     OW 8407   4.105   5.815   5.603
 2503SOL    HW1 8408   4.136   5.868   5.524
 2503SOL    HW2 8409   4.062   5.876   5.670
 2504SOL     OW 8410   2.364   5.075   5.044
 2504SOL    HW1 8411   2.347   5.132   5.124
 2504SOL    HW2 8412   2.309   4.992   5.050
 2505SOL     OW 8413   3.557   5.693   4.771
 2505SOL    HW1 8414   3.546   5.663   4.866
 2505SOL    HW2 8415   3.617   5.629   4.723
 2506SOL     OW 8416   6.697   3.183   6.126
 2506SOL    HW1 8417   6.664   3.198   6.219
 2506SOL    HW2 8418   6.631   3.127   6.075
 2507SOL     OW 8419   6.397   5.336   0.218
 2507SOL    HW1 8420   6.379   5.239   0.237
 2507SOL    HW2 8421   6.433   5.380   0.300
 2508SOL     OW 8422   3.008   2.086   1.942
 2508SOL    HW1 8423   2.944   2.030   1.890
 2508SOL    HW2 8424   2.960   2.165   1.981
 2509SOL     OW 8425   5.947   2.025   2.564
 2509SOL    HW1 8426   5.918   1.934   2.596
 2509SOL    HW2 8427   5.887   2.054   2.489
 2510SOL     OW 8428   3.364   4.659   0.848
 2510SOL    HW1 8429   3.333   4.667   0.943
 2510SOL    HW2 8430   3.322   4.731   0.793
 2511SOL     OW 8431   1.482   1.083   4.833
 2511SOL    HW1 8432   1.407   1.060   4.895
 2511SOL    HW2 8433   1.478   1.180   4.810
 2512SOL     OW 8434   5.189   4.032   4.157
 2512SOL    HW1 8435   5.205   4.116   4.210
 2512SOL    HW2 8436   5.163   4.057   4.064
 2513SOL     OW 8437   0.926   2.285   6.603
 2513SOL    HW1 8438   0.951   2.224   6.679
 2513SOL    HW2 8439   0.995   2.279   6.531
 2514SOL     OW 8440   0.886   1.643   4.521
 2514SOL    HW1 8441   0.966   1.583   4.528
 2514SOL    HW2 8442   0.917   1.737   4.506
 2515SOL     OW 8443   1.687   6.771   0.633
 2515SOL    HW1 8444   1.589   6.792   0.637
 2515SOL    HW2 8445   1.700   6.672   0.622
 2516SOL     OW 8446   5.953   5.715   3.603
 2516SOL    HW1 8447   5.900   5.755   3.528
 2516SOL    HW2 8448   6.009   5.640   3.568
 2517SOL     OW 8449   2.258   4.234   5.954
 2517SOL    HW1 8450   2.213   4.256   5.868
 2517SOL    HW2 8451   2.292   4.140   5.950
 2518SOL     OW 8452   2.219   2.804   6.699
 2518SOL    HW1 8453   2.261   2.733   6.755
 2518SOL    HW2 8454   2.162   2.863   6.757
 2519SOL     OW 8455   4.966   5.528   4.623
 2519SOL    HW1 8456   4.954   5.449   4.562
 2519SOL    HW2 8457   4.922   5.509   4.711
 2520SOL     OW 8458   2.086   3.416   0.891
 2520SOL    HW1 8459   2.128   3.505   0.872
 2520SOL    HW2 8460   2.141   3.366   0.957
 2521SOL     OW 8461   0.934   0.411   5.534
 2521SOL    HW1 8462   0.967   0.347   5.603
 2521SOL    HW2 8463   0.835   0.401   5.523
 2522SOL     OW 8464   1.562   3.590   4.277
 2522SOL    HW1 8465   1.532   3.496   4.267
 2522SOL    HW2 8466   1.655   3.592   4.312
 2523SOL     OW 8467   6.478   3.282   0.663
 2523SOL    HW1 8468   6.544   3.324   0.600
 2523SOL    HW2 8469   6.435   3.204   0.618
 2524SOL     OW 8470   0.704   6.383   4.555
 2524SOL    HW1 8471   0.751   6.432   4.629
 2524SOL    HW2 8472   0.696   6.442   4.475
 2525SOL     OW 8473   1.029   3.955   3.934
 2525SOL    HW1 8474   0.967   3.892   3.980
 2525SOL    HW2 8475   1.119   3.952   3.978
 2526SOL     OW 8476   0.332   2.512   4.030
 2526SOL    HW1 8477   0.356   2.516   4.127
 2526SOL    HW2 8478   0.233   2.501   4.020
 2527SOL     OW 8479   5.883   6.635   5.187
 2527SOL    HW1 8480   5.805   6.678   5.232
 2527SOL    HW2 8481   5.955   6.703   5.172
 2528SOL     OW 8482   5.932   5.000   0.204
 2528SOL    HW1 8483   5.973   5.043   0.123
 2528SOL    HW2 8484   5.834   4.990   0.189
 2529SOL     OW 8485   4.943   5.420   5.552
 2529SOL    HW1 8486   4.850   5.443   5.523
 2529SOL    HW2 8487   4.991   5.373   5.478
 2530SOL     OW 8488   1.174   5.935   3.952
 2530SOL    HW1 8489   1.190   5.873   3.876
 2530SOL    HW2 8490   1.080   5.970   3.948
 2531SOL     OW 8491   5.106   0.244   4.791
 2531SOL    HW1 8492   5.013   0.282   4.786
 2531SOL    HW2 8493   5.105   0.149   4.761
 2532SOL     OW 8494   1.127   5.784   0.652
 2532SOL    HW1 8495   1.112   5.844   0.573
 2532SOL    HW2 8496   1.055   5.714   0.653
 2533SOL     OW 8497   5.221   6.954   4.879
 2533SOL    HW1 8498   5.135   6.902   4.880
 2533SOL    HW2 8499   5.253   6.965   4.785
 2534SOL     OW 8500   1.945   0.252   3.415
 2534SOL    HW1 8501   1.880   0.270   3.489
 2534SOL    HW2 8502   1.903   0.191   3.348
 2535SOL     OW 8503   1.619   2.127   4.633
 2535SOL    HW1 8504   1.615   2.059   4.706
 2535SOL    HW2 8505   1.558   2.100   4.559
 2536SOL     OW 8506   6.220   1.040   4.064
 2536SOL    HW1 8507   6.157   1.114   4.043
 2536SOL    HW2 8508   6.179   0.953   4.036
 2537SOL     OW 8509   4.609   6.510   0.897
 2537SOL    HW1 8510   4.684   6.447   0.914
 2537SOL    HW2 8511   4.633   6.570   0.820
 2538SOL     OW 8512   1.819   5.116   4.853
 2538SOL    HW1 8513   1.899   5.113   4.793
 2538SOL    HW2 8514   1.850   5.114   4.948
 2539SOL     OW 8515   4.684   0.057   5.387
 2539SOL    HW1 8516   4.661   0.139   5.335
 2539SOL    HW2 8517   4.720   7.012   5.325
 2540SOL     OW 8518   5.436   0.515   1.878
 2540SOL    HW1 8519   5.510   0.521   1.944
 2540SOL    HW2 8520   5.348   0.518   1.926
 2541SOL     OW 8521   1.560   0.402   5.046
 2541SOL    HW1 8522   1.549   0.497   5.017
 2541SOL    HW2 8523   1.624   0.357   4.984
 2542SOL     OW 8524   4.231   1.755   4.354
 2542SOL    HW1 8525   4.202   1.726   4.263
 2542SOL    HW2 8526   4.158   1.736   4.419
 2543SOL     OW 8527   1.022   0.561   3.550
 2543SOL    HW1 8528   1.087   0.578   3.625
 2543SOL    HW2 8529   1.072   0.534   3.468
 2544SOL     OW 8530   6.793   5.055   1.661
 2544SOL    HW1 8531   6.781   5.154   1.668
 2544SOL    HW2 8532   6.805   5.030   1.565
 2545SOL     OW 8533   2.187   2.239   0.810
 2545SOL    HW1 8534   2.110   2.293   0.845
 2545SOL    HW2 8535   2.219   2.278   0.724
 2546SOL     OW 8536   6.604   3.423   1.846
 2546SOL    HW1 8537   6.605   3.467   1.935
 2546SOL    HW2 8538   6.510   3.394   1.824
 2547SOL     OW 8539   5.931   5.083   0.886
 2547SOL    HW1 8540   5.930   5.014   0.959
 2547SOL    HW2 8541   5.942   5.174   0.926
 2548SOL     OW 8542   1.585   0.013   4.394
 2548SOL    HW1 8543   1.526   7.014   4.317
 2548SOL    HW2 8544   1.566   6.976   4.471
 2549SOL     OW 8545   1.739   2.891   1.824
 2549SOL    HW1 8546   1.757   2.911   1.920
 2549SOL    HW2 8547   1.791   2.953   1.766
 2550SOL     OW 8548   5.976   6.850   0.404
 2550SOL    HW1 8549   5.930   6.855   0.493
 2550SOL    HW2 8550   5.971   6.939   0.359
 2551SOL     OW 8551   3.572   4.748   6.784
 2551SOL    HW1 8552   3.516   4.795   6.853
 2551SOL    HW2 8553   3.643   4.810   6.751
 2552SOL     OW 8554   2.195   4.831   6.765
 2552SOL    HW1 8555   2.205   4.820   6.864
 2552SOL    HW2 8556   2.112   4.883   6.745
 2553SOL     OW 8557   3.766   1.829   5.926
 2553SOL    HW1 8558   3.821   1.903   5.966
 2553SOL    HW2 8559   3.699   1.867   5.862
 2554SOL     OW 8560   2.069   5.270   0.129
 2554SOL    HW1 8561   2.072   5.338   0.203
 2554SOL    HW2 8562   2.163   5.241   0.107
 2555SOL     OW 8563   6.499   5.653   6.190
 2555SOL    HW1 8564   6.426   5.654   6.258
 2555SOL    HW2 8565   6.463   5.683   6.102
 2556SOL     OW 8566   3.579   6.932   1.106
 2556SOL    HW1 8567   3.583   0.006   1.093
 2556SOL    HW2 8568   3.509   6.893   1.046
 2557SOL     OW 8569   3.108   0.424   0.012
 2557SOL    HW1 8570   3.122   0.511   0.059
 2557SOL    HW2 8571   3.063   0.359   0.073
 2558SOL     OW 8572   5.766   4.294   5.632
 2558SOL    HW1 8573   5.678   4.288   5.679
 2558SOL    HW2 8574   5.818   4.370   5.670
 2559SOL     OW 8575   6.791   3.506   3.331
 2559SOL    HW1 8576   6.871   3.445   3.329
 2559SOL    HW2 8577   6.744   3.502   3.243
 2560SOL     OW 8578   5.388   3.064   3.471
 2560SOL    HW1 8579   5.321   3.094   3.539
 2560SOL    HW2 8580   5.351   2.986   3.420
 2561SOL     OW 8581   3.538   1.113   3.839
 2561SOL    HW1 8582   3.610   1.182   3.834
 2561SOL    HW2 8583   3.549   1.060   3.923
 2562SOL     OW 8584   3.345   6.599   3.061
 2562SOL    HW1 8585   3.245   6.602   3.059
 2562SOL    HW2 8586   3.379   6.680   3.108
 2563SOL     OW 8587   3.255   1.494   6.678
 2563SOL    HW1 8588   3.186   1.463   6.744
 2563SOL    HW2 8589   3.346   1.484   6.718
 2564SOL     OW 8590   2.456   0.681   0.157
 2564SOL    HW1 8591   2.545   0.722   0.139
 2564SOL    HW2 8592   2.411   0.729   0.233
 2565SOL     OW 8593   0.085   1.194   6.847
 2565SOL    HW1 8594   0.080   1.226   6.942
 2565SOL    HW2 8595   0.034   1.257   6.788
 2566SOL     OW 8596   2.843   0.050   1.141
 2566SOL    HW1 8597   2.836   0.038   1.240
 2566SOL    HW2 8598   2.901   0.129   1.120
 2567SOL     OW 8599   1.264   1.404   0.410
 2567SOL    HW1 8600   1.171   1.381   0.440
 2567SOL    HW2 8601   1.330   1.350   0.462
 2568SOL     OW 8602   3.155   0.143   1.002
 2568SOL    HW1 8603   3.172   0.130   0.904
 2568SOL    HW2 8604   3.088   0.216   1.014
 2569SOL     OW 8605   2.457   1.045   0.453
 2569SOL    HW1 8606   2.521   0.977   0.487
 2569SOL    HW2 8607   2.445   1.117   0.522
 2570SOL     OW 8608   5.329   5.684   6.607
 2570SOL    HW1 8609   5.275   5.725   6.534
 2570SOL    HW2 8610   5.285   5.600   6.637
 2571SOL     OW 8611   3.691   2.900   4.637
 2571SOL    HW1 8612   3.593   2.918   4.649
 2571SOL    HW2 8613   3.708   2.802   4.643
 2572SOL     OW 8614   2.779   5.773   1.459
 2572SOL    HW1 8615   2.732   5.828   1.529
 2572SOL    HW2 8616   2.724   5.693   1.437
 2573SOL     OW 8617   6.334   2.528   3.677
 2573SOL    HW1 8618   6.235   2.520   3.688
 2573SOL    HW2 8619   6.355   2.593   3.604
 2574SOL     OW 8620   5.997   2.883   0.906
 2574SOL    HW1 8621   6.064   2.956   0.892
 2574SOL    HW2 8622   5.918   2.919   0.957
 2575SOL     OW 8623   5.049   4.122   0.353
 2575SOL    HW1 8624   5.071   4.195   0.288
 2575SOL    HW2 8625   5.125   4.056   0.356
 2576SOL     OW 8626   2.915   0.182   3.452
 2576SOL    HW1 8627   2.939   0.236   3.371
 2576SOL    HW2 8628   2.824   0.207   3.483
 2577SOL     OW 8629   3.577   0.323   4.024
 2577SOL    HW1 8630   3.540   0.396   3.967
 2577SOL    HW2 8631   3.535   0.236   3.997
 2578SOL     OW 8632   5.065   2.784   4.748
 2578SOL    HW1 8633   5.152   2.736   4.755
 2578SOL    HW2 8634   5.034   2.783   4.653
 2579SOL     OW 8635   0.728   1.575   5.956
 2579SOL    HW1 8636   0.808   1.515   5.962
 2579SOL    HW2 8637   0.711   1.599   5.860
 2580SOL     OW 8638   1.588   2.668   5.788
 2580SOL    HW1 8639   1.587   2.598   5.716
 2580SOL    HW2 8640   1.557   2.627   5.874
 2581SOL     OW 8641   5.369   5.591   1.866
 2581SOL    HW1 8642   5.452   5.544   1.897
 2581SOL    HW2 8643   5.366   5.592   1.766
 2582SOL     OW 8644   1.837   5.405   2.528
 2582SOL    HW1 8645   1.831   5.450   2.439
 2582SOL    HW2 8646   1.923   5.430   2.572
 2583SOL     OW 8647   1.244   1.012   1.373
 2583SOL    HW1 8648   1.192   1.079   1.320
 2583SOL    HW2 8649   1.181   0.954   1.425
 2584SOL     OW 8650   3.474   6.311   0.975
 2584SOL    HW1 8651   3.399   6.245   0.970
 2584SOL    HW2 8652   3.552   6.270   1.023
 2585SOL     OW 8653   3.307   0.284   1.232
 2585SOL    HW1 8654   3.330   0.242   1.144
 2585SOL    HW2 8655   3.208   0.281   1.245
 2586SOL     OW 8656   5.743   1.703   5.167
 2586SOL    HW1 8657   5.657   1.689   5.118
 2586SOL    HW2 8658   5.819   1.667   5.113
 2587SOL     OW 8659   6.911   0.357   4.514
 2587SOL    HW1 8660   6.952   0.336   4.603
 2587SOL    HW2 8661   6.842   0.288   4.493
 2588SOL     OW 8662   5.602   6.925   1.434
 2588SOL    HW1 8663   5.515   6.974   1.428
 2588SOL    HW2 8664   5.628   6.914   1.530
 2589SOL     OW 8665   6.636   0.136   5.671
 2589SOL    HW1 8666   6.687   0.155   5.588
 2589SOL    HW2 8667   6.540   0.161   5.657
 2590SOL     OW 8668   3.384   0.059   2.530
 2590SOL    HW1 8669   3.474   0.053   2.485
 2590SOL    HW2 8670   3.386   0.006   2.615
 2591SOL     OW 8671   5.313   6.139   0.961
 2591SOL    HW1 8672   5.283   6.192   0.881
 2591SOL    HW2 8673   5.324   6.044   0.935
 2592SOL     OW 8674   3.189   5.748   1.636
 2592SOL    HW1 8675   3.251   5.827   1.629
 2592SOL    HW2 8676   3.197   5.691   1.554
 2593SOL     OW 8677   2.995   6.902   2.695
 2593SOL    HW1 8678   3.057   6.922   2.770
 2593SOL    HW2 8679   3.004   6.806   2.669
 2594SOL     OW 8680   0.516   0.243   6.157
 2594SOL    HW1 8681   0.478   0.334   6.167
 2594SOL    HW2 8682   0.588   0.244   6.088
 2595SOL     OW 8683   6.982   2.684   5.194
 2595SOL    HW1 8684   6.962   2.704   5.098
 2595SOL    HW2 8685   7.021   2.765   5.238
 2596SOL     OW 8686   3.725   2.466   1.612
 2596SOL    HW1 8687   3.821   2.495   1.619
 2596SOL    HW2 8688   3.704   2.404   1.688
 2597SOL     OW 8689   2.387   3.405   0.534
 2597SOL    HW1 8690   2.338   3.323   0.502
 2597SOL    HW2 8691   2.469   3.418   0.478
 2598SOL     OW 8692   6.601   2.673   4.420
 2598SOL    HW1 8693   6.588   2.769   4.446
 2598SOL    HW2 8694   6.604   2.666   4.320
 2599SOL     OW 8695   3.425   5.821   6.036
 2599SOL    HW1 8696   3.488   5.748   6.010
 2599SOL    HW2 8697   3.394   5.869   5.954
 2600SOL     OW 8698   5.087   3.281   4.167
 2600SOL    HW1 8699   5.068   3.307   4.261
 2600SOL    HW2 8700   5.100   3.363   4.111
 2601SOL     OW 8701   3.288   2.421   6.549
 2601SOL    HW1 8702   3.276   2.411   6.451
 2601SOL    HW2 8703   3.198   2.420   6.594
 2602SOL     OW 8704   6.710   4.802   4.293
 2602SOL    HW1 8705   6.739   4.756   4.377
 2602SOL    HW2 8706   6.677   4.894   4.316
 2603SOL     OW 8707   2.498   2.485   1.579
 2603SOL    HW1 8708   2.478   2.401   1.529
 2603SOL    HW2 8709   2.595   2.487   1.603
 2604SOL     OW 8710   5.399   0.450   0.990
 2604SOL    HW1 8711   5.314   0.466   0.939
 2604SOL    HW2 8712   5.429   0.536   1.031
 2605SOL     OW 8713   5.078   4.898   2.942
 2605SOL    HW1 8714   5.014   4.853   3.005
 2605SOL    HW2 8715   5.052   4.879   2.848
 2606SOL     OW 8716   6.823   4.077   6.692
 2606SOL    HW1 8717   6.879   4.121   6.761
 2606SOL    HW2 8718   6.847   3.980   6.686
 2607SOL     OW 8719   1.428   1.804   4.594
 2607SOL    HW1 8720   1.415   1.871   4.667
 2607SOL    HW2 8721   1.429   1.851   4.505
 2608SOL     OW 8722   4.952   0.217   2.773
 2608SOL    HW1 8723   5.014   0.180   2.705
 2608SOL    HW2 8724   4.936   0.149   2.845
 2609SOL     OW 8725   0.939   2.192   1.895
 2609SOL    HW1 8726   1.026   2.200   1.846
 2609SOL    HW2 8727   0.939   2.107   1.949
 2610SOL     OW 8728   6.785   5.312   4.347
 2610SOL    HW1 8729   6.732   5.270   4.420
 2610SOL    HW2 8730   6.796   5.409   4.365
 2611SOL     OW 8731   6.341   6.613   1.374
 2611SOL    HW1 8732   6.338   6.695   1.431
 2611SOL    HW2 8733   6.427   6.565   1.388
 2612SOL     OW 8734   6.103   6.440   4.653
 2612SOL    HW1 8735   6.165   6.381   4.600
 2612SOL    HW2 8736   6.013   6.398   4.655
 2613SOL     OW 8737   2.985   6.471   1.995
 2613SOL    HW1 8738   3.082   6.487   1.980
 2613SOL    HW2 8739   2.943   6.435   1.912
 2614SOL     OW 8740   6.260   6.200   5.713
 2614SOL    HW1 8741   6.178   6.235   5.668
 2614SOL    HW2 8742   6.293   6.268   5.780
 2615SOL     OW 8743   5.726   5.590   3.285
 2615SOL    HW1 8744   5.703   5.547   3.372
 2615SOL    HW2 8745   5.646   5.589   3.225
 2616SOL     OW 8746   4.085   3.433   3.964
 2616SOL    HW1 8747   4.109   3.529   3.945
 2616SOL    HW2 8748   4.098   3.415   4.061
 2617SOL     OW 8749   3.182   5.095   0.664
 2617SOL    HW1 8750   3.204   4.998   0.654
 2617SOL    HW2 8751   3.087   5.105   0.694
 2618SOL     OW 8752   6.855   6.291   3.183
 2618SOL    HW1 8753   6.778   6.299   3.246
 2618SOL    HW2 8754   6.841   6.213   3.122
 2619SOL     OW 8755   4.350   1.609   2.493
 2619SOL    HW1 8756   4.437   1.654   2.514
 2619SOL    HW2 8757   4.323   1.632   2.399
 2620SOL     OW 8758   1.744   5.388   3.440
 2620SOL    HW1 8759   1.676   5.326   3.399
 2620SOL    HW2 8760   1.727   5.481   3.409
 2621SOL     OW 8761   0.979   5.502   3.460
 2621SOL    HW1 8762   1.012   5.475   3.551
 2621SOL    HW2 8763   0.889   5.462   3.444
 2622SOL     OW 8764   1.872   3.116   5.926
 2622SOL    HW1 8765   1.838   3.033   5.883
 2622SOL    HW2 8766   1.967   3.131   5.900
 2623SOL     OW 8767   3.892   0.853   4.852
 2623SOL    HW1 8768   3.916   0.850   4.949
 2623SOL    HW2 8769   3.853   0.765   4.823
 2624SOL     OW 8770   6.432   3.184   3.205
 2624SOL    HW1 8771   6.415   3.088   3.228
 2624SOL    HW2 8772   6.393   3.242   3.277
 2625SOL     OW 8773   1.451   3.054   4.799
 2625SOL    HW1 8774   1.546   3.053   4.769
 2625SOL    HW2 8775   1.427   3.144   4.835
 2626SOL     OW 8776   0.604   6.328   3.894
 2626SOL    HW1 8777   0.537   6.317   3.821
 2626SOL    HW2 8778   0.556   6.345   3.981
 2627SOL     OW 8779   0.296   0.832   5.186
 2627SOL    HW1 8780   0.380   0.844   5.134
 2627SOL    HW2 8781   0.229   0.901   5.158
 2628SOL     OW 8782   3.592   6.166   6.845
 2628SOL    HW1 8783   3.493   6.163   6.860
 2628SOL    HW2 8784   3.639   6.129   6.925
 2629SOL     OW 8785   3.902   3.863   1.885
 2629SOL    HW1 8786   3.925   3.887   1.790
 2629SOL    HW2 8787   3.985   3.835   1.933
 2630SOL     OW 8788   3.360   2.110   2.470
 2630SOL    HW1 8789   3.418   2.168   2.527
 2630SOL    HW2 8790   3.416   2.069   2.397
 2631SOL     OW 8791   4.129   6.879   4.000
 2631SOL    HW1 8792   4.192   6.900   3.925
 2631SOL    HW2 8793   4.118   6.780   4.009
 2632SOL     OW 8794   3.649   2.275   5.994
 2632SOL    HW1 8795   3.553   2.266   5.970
 2632SOL    HW2 8796   3.657   2.304   6.089
 2633SOL     OW 8797   5.991   2.474   6.351
 2633SOL    HW1 8798   6.037   2.397   6.396
 2633SOL    HW2 8799   5.897   2.447   6.328
 2634SOL     OW 8800   1.898   4.092   2.443
 2634SOL    HW1 8801   1.840   4.128   2.516
 2634SOL    HW2 8802   1.913   4.163   2.373
 2635SOL     OW 8803   5.299   5.925   4.006
 2635SOL    HW1 8804   5.292   5.826   3.991
 2635SOL    HW2 8805   5.271   5.973   3.923
 2636SOL     OW 8806   5.649   0.266   6.849
 2636SOL    HW1 8807   5.575   0.321   6.809
 2636SOL    HW2 8808   5.719   0.249   6.780
 2637SOL     OW 8809   6.675   0.870   3.566
 2637SOL    HW1 8810   6.734   0.943   3.530
 2637SOL    HW2 8811   6.712   0.781   3.538
 2638SOL     OW 8812   6.164   0.024   2.142
 2638SOL    HW1 8813   6.085   0.071   2.181
 2638SOL    HW2 8814   6.151   0.013   2.043
 2639SOL     OW 8815   6.503   6.953   2.676
 2639SOL    HW1 8816   6.557   6.869   2.688
 2639SOL    HW2 8817   6.546   7.010   2.605
 2640SOL     OW 8818   0.010   6.341   5.897
 2640SOL    HW1 8819   0.004   6.241   5.897
 2640SOL    HW2 8820   6.996   6.376   5.812
 2641SOL     OW 8821   5.827   3.099   0.775
 2641SOL    HW1 8822   5.806   3.056   0.863
 2641SOL    HW2 8823   5.743   3.106   0.721
 2642SOL     OW 8824   5.785   0.756   4.611
 2642SOL    HW1 8825   5.831   0.674   4.642
 2642SOL    HW2 8826   5.845   0.835   4.623
 2643SOL     OW 8827   0.063   5.375   3.247
 2643SOL    HW1 8828   0.049   5.388   3.345
 2643SOL    HW2 8829   0.074   5.277   3.228
 2644SOL     OW 8830   0.404   4.256   5.682
 2644SOL    HW1 8831   0.403   4.277   5.584
 2644SOL    HW2 8832   0.494   4.281   5.720
 2645SOL     OW 8833   4.527   6.449   5.119
 2645SOL    HW1 8834   4.574   6.453   5.031
 2645SOL    HW2 8835   4.429   6.434   5.104
 2646SOL     OW 8836   6.348   0.132   6.351
 2646SOL    HW1 8837   6.317   0.193   6.278
 2646SOL    HW2 8838   6.273   0.070   6.376
 2647SOL     OW 8839   5.211   0.612   1.185
 2647SOL    HW1 8840   5.184   0.680   1.253
 2647SOL    HW2 8841   5.293   0.643   1.137
 2648SOL     OW 8842   6.306   7.012   3.769
 2648SOL    HW1 8843   6.356   0.015   3.851
 2648SOL    HW2 8844   6.209   7.003   3.790
 2649SOL     OW 8845   4.176   1.120   5.774
 2649SOL    HW1 8846   4.252   1.125   5.838
 2649SOL    HW2 8847   4.145   1.025   5.767
 2650SOL     OW 8848   1.087   4.656   3.949
 2650SOL    HW1 8849   1.144   4.735   3.924
 2650SOL    HW2 8850   1.069   4.658   4.047
 2651SOL     OW 8851   0.981   1.660   0.927
 2651SOL    HW1 8852   1.056   1.682   0.865
 2651SOL    HW2 8853   0.917   1.737   0.931
 2652SOL     OW 8854   3.047   3.113   3.865
 2652SOL    HW1 8855   3.034   3.196   3.811
 2652SOL    HW2 8856   3.016   3.130   3.959
 2653SOL     OW 8857   4.962   6.700   5.293
 2653SOL    HW1 8858   4.992   6.631   5.358
 2653SOL    HW2 8859   5.020   6.696   5.211
 2654SOL     OW 8860   4.978   3.274   0.065
 2654SOL    HW1 8861   5.021   3.184   0.057
 2654SOL    HW2 8862   4.995   3.326   7.006
 2655SOL     OW 8863   4.502   4.612   4.205
 2655SOL    HW1 8864   4.551   4.694   4.176
 2655SOL    HW2 8865   4.479   4.620   4.302
 2656SOL     OW 8866   4.622   4.425   3.751
 2656SOL    HW1 8867   4.700   4.365   3.736
 2656SOL    HW2 8868   4.604   4.432   3.850
 2657SOL     OW 8869   2.688   4.220   6.085
 2657SOL    HW1 8870   2.668   4.134   6.037
 2657SOL    HW2 8871   2.693   4.294   6.018
 2658SOL     OW 8872   5.646   4.778   6.722
 2658SOL    HW1 8873   5.558   4.823   6.738
 2658SOL    HW2 8874   5.711   4.845   6.687
 2659SOL     OW 8875   6.561   2.195   4.482
 2659SOL    HW1 8876   6.658   2.175   4.495
 2659SOL    HW2 8877   6.532   2.164   4.392
 2660SOL     OW 8878   0.451   2.183   1.282
 2660SOL    HW1 8879   0.451   2.279   1.310
 2660SOL    HW2 8880   0.490   2.127   1.355
 2661SOL     OW 8881   2.237   6.404   1.701
 2661SOL    HW1 8882   2.172   6.409   1.777
 2661SOL    HW2 8883   2.204   6.339   1.633
 2662SOL     OW 8884   4.468   6.671   5.286
 2662SOL    HW1 8885   4.521   6.618   5.220
 2662SOL    HW2 8886   4.378   6.692   5.247
 2663SOL     OW 8887   2.174   4.401   1.461
 2663SOL    HW1 8888   2.110   4.345   1.514
 2663SOL    HW2 8889   2.209   4.475   1.519
 2664SOL     OW 8890   3.447   4.149   3.443
 2664SOL    HW1 8891   3.535   4.118   3.479
 2664SOL    HW2 8892   3.447   4.141   3.343
 2665SOL     OW 8893   3.783   2.046   4.926
 2665SOL    HW1 8894   3.709   2.058   4.992
 2665SOL    HW2 8895   3.757   2.087   4.839
 2666SOL     OW 8896   4.966   3.839   1.032
 2666SOL    HW1 8897   4.975   3.874   0.939
 2666SOL    HW2 8898   4.984   3.740   1.032
 2667SOL     OW 8899   1.522   6.267   4.868
 2667SOL    HW1 8900   1.546   6.183   4.820
 2667SOL    HW2 8901   1.574   6.273   4.953
 2668SOL     OW 8902   6.646   3.254   3.846
 2668SOL    HW1 8903   6.667   3.305   3.930
 2668SOL    HW2 8904   6.730   3.210   3.813
 2669SOL     OW 8905   3.364   4.989   5.540
 2669SOL    HW1 8906   3.311   4.953   5.616
 2669SOL    HW2 8907   3.446   5.034   5.575
 2670SOL     OW 8908   6.087   1.636   6.835
 2670SOL    HW1 8909   6.065   1.706   6.902
 2670SOL    HW2 8910   6.085   1.546   6.878
 2671SOL     OW 8911   2.609   4.024   6.990
 2671SOL    HW1 8912   2.596   4.121   6.969
 2671SOL    HW2 8913   2.585   4.007   0.060
 2672SOL     OW 8914   1.175   5.375   6.949
 2672SOL    HW1 8915   1.199   5.472   6.945
 2672SOL    HW2 8916   1.247   5.321   6.906
 2673SOL     OW 8917   5.466   2.662   3.526
 2673SOL    HW1 8918   5.496   2.717   3.604
 2673SOL    HW2 8919   5.526   2.678   3.448
 2674SOL     OW 8920   1.812   4.278   4.125
 2674SOL    HW1 8921   1.854   4.208   4.067
 2674SOL    HW2 8922   1.832   4.369   4.087
 2675SOL     OW 8923   1.115   4.320   5.168
 2675SOL    HW1 8924   1.051   4.398   5.167
 2675SOL    HW2 8925   1.199   4.347   5.215
 2676SOL     OW 8926   4.506   1.006   2.663
 2676SOL    HW1 8927   4.558   0.942   2.720
 2676SOL    HW2 8928   4.409   0.985   2.669
 2677SOL     OW 8929   3.692   5.164   1.634
 2677SOL    HW1 8930   3.735   5.086   1.589
 2677SOL    HW2 8931   3.601   5.139   1.666
 2678SOL     OW 8932   0.459   4.706   0.486
 2678SOL    HW1 8933   0.384   4.762   0.452
 2678SOL    HW2 8934   0.487   4.641   0.415
 2679SOL     OW 8935   4.044   5.575   1.403
 2679SOL    HW1 8936   4.047   5.477   1.428
 2679SOL    HW2 8937   4.138   5.609   1.395
 2680SOL     OW 8938   1.581   1.899   0.619
 2680SOL    HW1 8939   1.619   1.980   0.574
 2680SOL    HW2 8940   1.541   1.839   0.549
 2681SOL     OW 8941   1.624   2.899   4.199
 2681SOL    HW1 8942   1.596   2.841   4.276
 2681SOL    HW2 8943   1.544   2.919   4.142
 2682SOL     OW 8944   5.589   2.988   2.529
 2682SOL    HW1 8945   5.620   2.993   2.434
 2682SOL    HW2 8946   5.630   3.062   2.582
 2683SOL     OW 8947   1.183   4.124   1.268
 2683SOL    HW1 8948   1.110   4.176   1.223
 2683SOL    HW2 8949   1.195   4.036   1.222
 2684SOL     OW 8950   3.850   5.599   2.595
 2684SOL    HW1 8951   3.750   5.594   2.582
 2684SOL    HW2 8952   3.892   5.518   2.554
 2685SOL     OW 8953   6.119   6.967   4.895
 2685SOL    HW1 8954   6.080   0.019   4.946
 2685SOL    HW2 8955   6.219   6.974   4.894
 2686SOL     OW 8956   1.569   2.206   3.975
 2686SOL    HW1 8957   1.608   2.211   4.067
 2686SOL    HW2 8958   1.498   2.276   3.965
 2687SOL     OW 8959   4.330   4.661   2.503
 2687SOL    HW1 8960   4.362   4.743   2.455
 2687SOL    HW2 8961   4.236   4.676   2.534
 2688SOL     OW 8962   4.296   6.055   6.191
 2688SOL    HW1 8963   4.305   6.153   6.205
 2688SOL    HW2 8964   4.335   6.006   6.269
 2689SOL     OW 8965   2.048   1.847   3.798
 2689SOL    HW1 8966   2.036   1.833   3.700
 2689SOL    HW2 8967   2.106   1.774   3.835
 2690SOL     OW 8968   3.491   2.878   3.841
 2690SOL    HW1 8969   3.412   2.909   3.789
 2690SOL    HW2 8970   3.460   2.840   3.928
 2691SOL     OW 8971   1.523   5.385   2.058
 2691SOL    HW1 8972   1.504   5.302   2.111
 2691SOL    HW2 8973   1.436   5.426   2.028
 2692SOL     OW 8974   5.679   6.148   4.164
 2692SOL    HW1 8975   5.736   6.105   4.094
 2692SOL    HW2 8976   5.698   6.247   4.167
 2693SOL     OW 8977   2.359   4.267   2.852
 2693SOL    HW1 8978   2.304   4.310   2.780
 2693SOL    HW2 8979   2.433   4.329   2.878
 2694SOL     OW 8980   3.078   0.852   3.137
 2694SOL    HW1 8981   3.028   0.768   3.115
 2694SOL    HW2 8982   3.175   0.838   3.122
 2695SOL     OW 8983   5.187   1.751   2.466
 2695SOL    HW1 8984   5.239   1.835   2.451
 2695SOL    HW2 8985   5.090   1.773   2.478
 2696SOL     OW 8986   3.189   2.680   5.505
 2696SOL    HW1 8987   3.270   2.705   5.453
 2696SOL    HW2 8988   3.117   2.650   5.442
 2697SOL     OW 8989   4.337   2.030   4.187
 2697SOL    HW1 8990   4.265   1.960   4.181
 2697SOL    HW2 8991   4.394   2.012   4.267
 2698SOL     OW 8992   1.784   4.735   0.249
 2698SOL    HW1 8993   1.847   4.742   0.326
 2698SOL    HW2 8994   1.690   4.728   0.282
 2699SOL     OW 8995   3.798   5.604   6.487
 2699SOL    HW1 8996   3.855   5.537   6.439
 2699SOL    HW2 8997   3.815   5.695   6.448
 2700SOL     OW 8998   1.725   3.765   2.171
 2700SOL    HW1 8999   1.697   3.718   2.088
 2700SOL    HW2 9000   1.762   3.855   2.147
 2701SOL     OW 9001   3.879   6.932   6.909
 2701SOL    HW1 9002   3.954   6.885   6.955
 2701SOL    HW2 9003   3.883   6.912   6.811
 2702SOL     OW 9004   0.018   1.473   2.825
 2702SOL    HW1 9005   0.050   1.528   2.902
 2702SOL    HW2 9006   0.090   1.466   2.756
 2703SOL     OW 9007   2.344   0.746   3.127
 2703SOL    HW1 9008   2.384   0.666   3.173
 2703SOL    HW2 9009   2.353   0.826   3.186
 2704SOL     OW 9010   1.440   5.359   1.370
 2704SOL    HW1 9011   1.528   5.338   1.413
 2704SOL    HW2 9012   1.368   5.356   1.439
 2705SOL     OW 9013   0.612   5.410   4.312
 2705SOL    HW1 9014   0.619   5.332   4.250
 2705SOL    HW2 9015   0.593   5.379   4.405
 2706SOL     OW 9016   0.117   0.811   1.975
 2706SOL    HW1 9017   0.020   0.816   1.953
 2706SOL    HW2 9018   0.170   0.855   1.903
 2707SOL     OW 9019   2.157   0.880   5.721
 2707SOL    HW1 9020   2.248   0.882   5.762
 2707SOL    HW2 9021   2.140   0.790   5.682
 2708SOL     OW 9022   2.036   3.002   1.441
 2708SOL    HW1 9023   2.115   3.054   1.474
 2708SOL    HW2 9024   2.013   3.032   1.348
 2709SOL     OW 9025   4.969   6.731   0.859
 2709SOL    HW1 9026   5.032   6.805   0.837
 2709SOL    HW2 9027   4.991   6.694   0.950
 2710SOL     OW 9028   6.389   4.192   2.462
 2710SOL    HW1 9029   6.473   4.144   2.487
 2710SOL    HW2 9030   6.316   4.126   2.447
 2711SOL     OW 9031   2.243   0.350   2.625
 2711SOL    HW1 9032   2.200   0.438   2.645
 2711SOL    HW2 9033   2.323   0.364   2.566
 2712SOL     OW 9034   4.001   5.335   6.540
 2712SOL    HW1 9035   4.044   5.308   6.454
 2712SOL    HW2 9036   4.010   5.260   6.606
 2713SOL     OW 9037   1.454   2.659   4.494
 2713SOL    HW1 9038   1.519   2.586   4.471
 2713SOL    HW2 9039   1.444   2.665   4.593
 2714SOL     OW 9040   4.798   1.787   0.008
 2714SOL    HW1 9041   4.797   1.753   0.102
 2714SOL    HW2 9042   4.882   1.757   6.988
 2715SOL     OW 9043   6.093   0.441   0.240
 2715SOL    HW1 9044   6.014   0.428   0.300
 2715SOL    HW2 9045   6.128   0.534   0.251
 2716SOL     OW 9046   6.171   5.174   2.047
 2716SOL    HW1 9047   6.149   5.248   1.983
 2716SOL    HW2 9048   6.091   5.113   2.055
 2717SOL     OW 9049   1.062   5.490   2.131
 2717SOL    HW1 9050   0.972   5.454   2.105
 2717SOL    HW2 9051   1.050   5.569   2.190
 2718SOL     OW 9052   1.799   3.820   3.908
 2718SOL    HW1 9053   1.739   3.755   3.861
 2718SOL    HW2 9054   1.768   3.831   4.003
 2719SOL     OW 9055   4.802   4.978   1.675
 2719SOL    HW1 9056   4.885   4.957   1.623
 2719SOL    HW2 9057   4.740   4.899   1.672
 2720SOL     OW 9058   2.031   6.156   3.831
 2720SOL    HW1 9059   2.087   6.126   3.909
 2720SOL    HW2 9060   2.071   6.122   3.746
 2721SOL     OW 9061   2.970   0.440   5.332
 2721SOL    HW1 9062   2.972   0.535   5.300
 2721SOL    HW2 9063   3.060   0.416   5.368
 2722SOL     OW 9064   6.391   5.414   2.630
 2722SOL    HW1 9065   6.359   5.321   2.613
 2722SOL    HW2 9066   6.384   5.434   2.728
 2723SOL     OW 9067   1.605   1.331   6.164
 2723SOL    HW1 9068   1.526   1.271   6.174
 2723SOL    HW2 9069   1.584   1.403   6.097
 2724SOL     OW 9070   2.970   6.312   5.302
 2724SOL    HW1 9071   3.033   6.304   5.380
 2724SOL    HW2 9072   2.935   6.222   5.278
 2725SOL     OW 9073   6.511   5.310   3.274
 2725SOL    HW1 9074   6.576   5.348   3.209
 2725SOL    HW2 9075   6.423   5.296   3.229
 2726SOL     OW 9076   5.636   4.746   1.952
 2726SOL    HW1 9077   5.574   4.823   1.940
 2726SOL    HW2 9078   5.625   4.708   2.044
 2727SOL     OW 9079   0.775   4.572   2.955
 2727SOL    HW1 9080   0.743   4.513   2.881
 2727SOL    HW2 9081   0.855   4.623   2.924
 2728SOL     OW 9082   3.062   0.505   4.867
 2728SOL    HW1 9083   3.073   0.601   4.892
 2728SOL    HW2 9084   2.967   0.477   4.884
 2729SOL     OW 9085   6.793   5.779   2.015
 2729SOL    HW1 9086   6.884   5.745   1.990
 2729SOL    HW2 9087   6.734   5.775   1.934
 2730SOL     OW 9088   1.801   0.007   0.647
 2730SOL    HW1 9089   1.732   0.076   0.625
 2730SOL    HW2 9090   1.758   6.942   0.652
 2731SOL     OW 9091   3.226   3.630   1.406
 2731SOL    HW1 9092   3.260   3.580   1.486
 2731SOL    HW2 9093   3.213   3.566   1.330
 2732SOL     OW 9094   6.132   3.190   2.331
 2732SOL    HW1 9095   6.149   3.094   2.310
 2732SOL    HW2 9096   6.092   3.235   2.251
 2733SOL     OW 9097   0.599   6.796   5.836
 2733SOL    HW1 9098   0.620   6.743   5.754
 2733SOL    HW2 9099   0.613   6.893   5.817
 2734SOL     OW 9100   1.892   5.487   2.873
 2734SOL    HW1 9101   1.823   5.558   2.860
 2734SOL    HW2 9102   1.949   5.480   2.791
 2735SOL     OW 9103   0.203   2.985   2.428
 2735SOL    HW1 9104   0.244   2.959   2.515
 2735SOL    HW2 9105   0.233   2.921   2.357
 2736SOL     OW 9106   4.907   0.802   4.965
 2736SOL    HW1 9107   4.868   0.836   5.050
 2736SOL    HW2 9108   5.000   0.838   4.954
 2737SOL     OW 9109   3.266   3.294   6.009
 2737SOL    HW1 9110   3.342   3.261   6.066
 2737SOL    HW2 9111   3.185   3.238   6.028
 2738SOL     OW 9112   5.008   5.933   4.850
 2738SOL    HW1 9113   5.043   5.890   4.766
 2738SOL    HW2 9114   4.981   5.863   4.915
 2739SOL     OW 9115   5.791   3.996   0.473
 2739SOL    HW1 9116   5.725   3.922   0.471
 2739SOL    HW2 9117   5.884   3.959   0.468
 2740SOL     OW 9118   4.961   2.157   2.375
 2740SOL    HW1 9119   4.955   2.087   2.445
 2740SOL    HW2 9120   4.968   2.247   2.417
 2741SOL     OW 9121   0.095   2.101   6.210
 2741SOL    HW1 9122   0.005   2.088   6.250
 2741SOL    HW2 9123   0.159   2.131   6.281
 2742SOL     OW 9124   1.652   6.106   6.346
 2742SOL    HW1 9125   1.609   6.161   6.417
 2742SOL    HW2 9126   1.690   6.022   6.385
 2743SOL     OW 9127   6.177   5.423   1.865
 2743SOL    HW1 9128   6.153   5.520   1.866
 2743SOL    HW2 9129   6.158   5.384   1.775
 2744SOL     OW 9130   4.063   1.883   6.999
 2744SOL    HW1 9131   4.087   1.963   6.944
 2744SOL    HW2 9132   3.970   1.894   0.010
 2745SOL     OW 9133   2.181   6.267   0.195
 2745SOL    HW1 9134   2.278   6.289   0.202
 2745SOL    HW2 9135   2.160   6.241   0.101
 2746SOL     OW 9136   2.167   2.999   4.664
 2746SOL    HW1 9137   2.228   2.975   4.589
 2746SOL    HW2 9138   2.198   2.956   4.748
 2747SOL     OW 9139   5.278   4.413   5.124
 2747SOL    HW1 9140   5.182   4.383   5.126
 2747SOL    HW2 9141   5.283   4.510   5.149
 2748SOL     OW 9142   3.339   1.048   2.363
 2748SOL    HW1 9143   3.311   1.039   2.267
 2748SOL    HW2 9144   3.425   1.098   2.367
 2749SOL     OW 9145   5.014   5.130   4.134
 2749SOL    HW1 9146   5.050   5.084   4.216
 2749SOL    HW2 9147   4.915   5.117   4.130
 2750SOL     OW 9148   0.958   5.247   1.573
 2750SOL    HW1 9149   0.908   5.231   1.658
 2750SOL    HW2 9150   0.901   5.219   1.495
 2751SOL     OW 9151   1.570   0.006   6.917
 2751SOL    HW1 9152   1.666   0.019   6.895
 2751SOL    HW2 9153   1.515   0.014   6.833
 2752SOL     OW 9154   5.014   5.749   5.417
 2752SOL    HW1 9155   4.918   5.777   5.415
 2752SOL    HW2 9156   5.023   5.659   5.374
 2753SOL     OW 9157   2.583   5.950   6.252
 2753SOL    HW1 9158   2.592   5.866   6.197
 2753SOL    HW2 9159   2.494   5.951   6.297
 2754SOL     OW 9160   6.603   0.327   4.615
 2754SOL    HW1 9161   6.506   0.304   4.616
 2754SOL    HW2 9162   6.655   0.255   4.570
 2755SOL     OW 9163   2.688   7.007   3.293
 2755SOL    HW1 9164   2.704   0.080   3.310
 2755SOL    HW2 9165   2.732   6.981   3.207
 2756SOL     OW 9166   6.304   4.613   3.811
 2756SOL    HW1 9167   6.357   4.578   3.888
 2756SOL    HW2 9168   6.299   4.544   3.739
 2757SOL     OW 9169   3.025   1.485   6.527
 2757SOL    HW1 9170   3.123   1.474   6.545
 2757SOL    HW2 9171   2.983   1.394   6.520
 2758SOL     OW 9172   5.205   5.951   3.273
 2758SOL    HW1 9173   5.146   6.032   3.269
 2758SOL    HW2 9174   5.262   5.955   3.355
 2759SOL     OW 9175   3.421   4.593   5.503
 2759SOL    HW1 9176   3.383   4.571   5.593
 2759SOL    HW2 9177   3.346   4.608   5.439
 2760SOL     OW 9178   6.272   5.654   2.558
 2760SOL    HW1 9179   6.192   5.661   2.618
 2760SOL    HW2 9180   6.325   5.574   2.583
 2761SOL     OW 9181   1.318   4.069   3.003
 2761SOL    HW1 9182   1.347   4.088   3.097
 2761SOL    HW2 9183   1.333   4.151   2.947
 2762SOL     OW 9184   1.483   2.171   6.757
 2762SOL    HW1 9185   1.534   2.231   6.695
 2762SOL    HW2 9186   1.385   2.180   6.738
 2763SOL     OW 9187   5.084   1.900   5.901
 2763SOL    HW1 9188   5.157   1.896   5.833
 2763SOL    HW2 9189   5.117   1.861   5.987
 2764SOL     OW 9190   0.312   4.795   2.789
 2764SOL    HW1 9191   0.349   4.858   2.721
 2764SOL    HW2 9192   0.237   4.743   2.749
 2765SOL     OW 9193   0.141   0.057   0.889
 2765SOL    HW1 9194   0.235   0.081   0.865
 2765SOL    HW2 9195   0.123   0.084   0.983
 2766SOL     OW 9196   4.109   0.995   6.835
 2766SOL    HW1 9197   4.207   0.975   6.833
 2766SOL    HW2 9198   4.092   1.075   6.891
 2767SOL     OW 9199   6.067   5.946   6.391
 2767SOL    HW1 9200   6.077   5.873   6.458
 2767SOL    HW2 9201   6.091   6.033   6.433
 2768SOL     OW 9202   3.638   0.668   0.725
 2768SOL    HW1 9203   3.695   0.592   0.695
 2768SOL    HW2 9204   3.594   0.645   0.811
 2769SOL     OW 9205   1.311   4.154   6.248
 2769SOL    HW1 9206   1.293   4.155   6.149
 2769SOL    HW2 9207   1.295   4.062   6.284
 2770SOL     OW 9208   4.003   6.225   5.720
 2770SOL    HW1 9209   3.965   6.228   5.628
 2770SOL    HW2 9210   4.057   6.308   5.737
 2771SOL     OW 9211   5.870   6.557   4.278
 2771SOL    HW1 9212   5.967   6.550   4.301
 2771SOL    HW2 9213   5.827   6.623   4.340
 2772SOL     OW 9214   3.506   0.752   2.378
 2772SOL    HW1 9215   3.549   0.662   2.378
 2772SOL    HW2 9216   3.412   0.744   2.411
 2773SOL     OW 9217   0.304   2.553   3.394
 2773SOL    HW1 9218   0.213   2.593   3.397
 2773SOL    HW2 9219   0.299   2.457   3.422
 2774SOL     OW 9220   5.210   2.619   2.841
 2774SOL    HW1 9221   5.173   2.541   2.892
 2774SOL    HW2 9222   5.290   2.656   2.890
 2775SOL     OW 9223   6.713   3.866   3.816
 2775SOL    HW1 9224   6.643   3.866   3.887
 2775SOL    HW2 9225   6.749   3.773   3.805
 2776SOL     OW 9226   5.157   5.690   0.033
 2776SOL    HW1 9227   5.164   5.787   0.012
 2776SOL    HW2 9228   5.221   5.638   7.002
 2777SOL     OW 9229   2.562   2.084   5.887
 2777SOL    HW1 9230   2.643   2.080   5.828
 2777SOL    HW2 9231   2.484   2.044   5.839
 2778SOL     OW 9232   2.304   6.027   6.379
 2778SOL    HW1 9233   2.243   6.106   6.386
 2778SOL    HW2 9234   2.315   5.986   6.469
 2779SOL     OW 9235   5.859   6.591   1.770
 2779SOL    HW1 9236   5.900   6.624   1.854
 2779SOL    HW2 9237   5.790   6.521   1.791
 2780SOL     OW 9238   0.313   0.423   6.507
 2780SOL    HW1 9239   0.365   0.339   6.523
 2780SOL    HW2 9240   0.375   0.502   6.516
 2781SOL     OW 9241   6.053   0.757   2.432
 2781SOL    HW1 9242   6.016   0.836   2.481
 2781SOL    HW2 9243   5.982   0.686   2.426
 2782SOL     OW 9244   4.247   0.478   5.855
 2782SOL    HW1 9245   4.238   0.565   5.904
 2782SOL    HW2 9246   4.275   0.406   5.919
 2783SOL     OW 9247   6.187   3.281   0.706
 2783SOL    HW1 9248   6.260   3.240   0.760
 2783SOL    HW2 9249   6.139   3.210   0.654
 2784SOL     OW 9250   2.875   1.791   2.178
 2784SOL    HW1 9251   2.868   1.759   2.083
 2784SOL    HW2 9252   2.971   1.807   2.201
 2785SOL     OW 9253   5.203   2.627   1.627
 2785SOL    HW1 9254   5.110   2.596   1.609
 2785SOL    HW2 9255   5.201   2.719   1.667
 2786SOL     OW 9256   6.705   5.931   1.271
 2786SOL    HW1 9257   6.615   5.907   1.233
 2786SOL    HW2 9258   6.753   5.847   1.297
 2787SOL     OW 9259   6.213   5.886   5.623
 2787SOL    HW1 9260   6.239   5.925   5.535
 2787SOL    HW2 9261   6.285   5.904   5.690
 2788SOL     OW 9262   3.419   6.475   5.908
 2788SOL    HW1 9263   3.420   6.411   5.985
 2788SOL    HW2 9264   3.388   6.565   5.939
 2789SOL     OW 9265   0.821   2.487   3.935
 2789SOL    HW1 9266   0.887   2.562   3.934
 2789SOL    HW2 9267   0.833   2.430   3.854
 2790SOL     OW 9268   2.951   5.084   0.198
 2790SOL    HW1 9269   3.008   5.097   0.117
 2790SOL    HW2 9270   2.916   4.990   0.199
 2791SOL     OW 9271   0.137   4.178   2.110
 2791SOL    HW1 9272   0.098   4.261   2.069
 2791SOL    HW2 9273   0.093   4.161   2.199
 2792SOL     OW 9274   3.315   0.448   4.784
 2792SOL    HW1 9275   3.224   0.468   4.820
 2792SOL    HW2 9276   3.329   0.498   4.698
 2793SOL     OW 9277   4.581   4.230   1.423
 2793SOL    HW1 9278   4.602   4.139   1.387
 2793SOL    HW2 9279   4.619   4.299   1.361
 2794SOL     OW 9280   6.951   0.872   6.725
 2794SOL    HW1 9281   6.874   0.893   6.666
 2794SOL    HW2 9282   6.921   0.872   6.821
 2795SOL     OW 9283   0.605   4.892   0.931
 2795SOL    HW1 9284   0.593   4.793   0.936
 2795SOL    HW2 9285   0.661   4.923   1.008
 2796SOL     OW 9286   0.666   5.916   5.638
 2796SOL    HW1 9287   0.734   5.848   5.610
 2796SOL    HW2 9288   0.685   6.003   5.593
 2797SOL     OW 9289   5.848   5.516   5.378
 2797SOL    HW1 9290   5.903   5.433   5.370
 2797SOL    HW2 9291   5.898   5.594   5.340
 2798SOL     OW 9292   6.343   6.143   2.168
 2798SOL    HW1 9293   6.422   6.135   2.229
 2798SOL    HW2 9294   6.273   6.200   2.211
 2799SOL     OW 9295   5.148   5.318   5.710
 2799SOL    HW1 9296   5.219   5.388   5.714
 2799SOL    HW2 9297   5.075   5.348   5.648
 2800SOL     OW 9298   5.954   1.167   0.291
 2800SOL    HW1 9299   5.955   1.075   0.253
 2800SOL    HW2 9300   5.910   1.167   0.380
 2801SOL     OW 9301   0.868   5.535   5.957
 2801SOL    HW1 9302   0.913   5.619   5.986
 2801SOL    HW2 9303   0.829   5.548   5.866
 2802SOL     OW 9304   6.628   6.231   5.425
 2802SOL    HW1 9305   6.711   6.284   5.407
 2802SOL    HW2 9306   6.606   6.176   5.344
 2803SOL     OW 9307   3.517   3.624   5.901
 2803SOL    HW1 9308   3.466   3.557   5.848
 2803SOL    HW2 9309   3.484   3.716   5.880
 2804SOL     OW 9310   0.737   2.594   4.179
 2804SOL    HW1 9311   0.824   2.614   4.134
 2804SOL    HW2 9312   0.663   2.596   4.111
 2805SOL     OW 9313   5.083   3.687   2.233
 2805SOL    HW1 9314   5.038   3.707   2.146
 2805SOL    HW2 9315   5.021   3.635   2.292
 2806SOL     OW 9316   2.274   3.987   6.402
 2806SOL    HW1 9317   2.243   3.932   6.325
 2806SOL    HW2 9318   2.366   4.022   6.383
 2807SOL     OW 9319   2.991   0.636   2.950
 2807SOL    HW1 9320   3.072   0.669   2.902
 2807SOL    HW2 9321   2.909   0.662   2.899
 2808SOL     OW 9322   5.887   5.466   0.637
 2808SOL    HW1 9323   5.812   5.405   0.665
 2808SOL    HW2 9324   5.867   5.502   0.546
 2809SOL     OW 9325   5.717   3.848   2.198
 2809SOL    HW1 9326   5.731   3.763   2.249
 2809SOL    HW2 9327   5.637   3.896   2.235
 2810SOL     OW 9328   2.476   6.208   3.410
 2810SOL    HW1 9329   2.387   6.246   3.433
 2810SOL    HW2 9330   2.483   6.198   3.310
 2811SOL     OW 9331   0.891   0.400   2.681
 2811SOL    HW1 9332   0.947   0.472   2.639
 2811SOL    HW2 9333   0.805   0.439   2.714
 2812SOL     OW 9334   0.753   2.923   0.233
 2812SOL    HW1 9335   0.657   2.930   0.256
 2812SOL    HW2 9336   0.809   2.962   0.306
 2813SOL     OW 9337   1.059   1.597   1.213
 2813SOL    HW1 9338   0.989   1.530   1.240
 2813SOL    HW2 9339   1.044   1.623   1.117
 2814SOL     OW 9340   2.972   3.955   6.739
 2814SOL    HW1 9341   2.982   4.041   6.689
 2814SOL    HW2 9342   3.056   3.939   6.792
 2815SOL     OW 9343   0.029   5.902   5.399
 2815SOL    HW1 9344   0.025   5.802   5.394
 2815SOL    HW2 9345   0.123   5.933   5.384
 2816SOL     OW 9346   6.721   5.905   5.093
 2816SOL    HW1 9347   6.691   5.810   5.086
 2816SOL    HW2 9348   6.804   5.917   5.039
 2817SOL     OW 9349   3.858   0.447   2.328
 2817SOL    HW1 9350   3.768   0.408   2.314
 2817SOL    HW2 9351   3.886   0.497   2.246
 2818SOL     OW 9352   1.059   0.963   0.953
 2818SOL    HW1 9353   1.115   1.019   1.014
 2818SOL    HW2 9354   0.963   0.969   0.981
 2819SOL     OW 9355   0.794   0.533   0.874
 2819SOL    HW1 9356   0.747   0.458   0.826
 2819SOL    HW2 9357   0.819   0.604   0.807
 2820SOL     OW 9358   1.089   2.316   2.147
 2820SOL    HW1 9359   1.037   2.303   2.063
 2820SOL    HW2 9360   1.057   2.253   2.218
 2821SOL     OW 9361   4.057   5.284   6.048
 2821SOL    HW1 9362   4.109   5.317   5.969
 2821SOL    HW2 9363   3.996   5.210   6.019
 2822SOL     OW 9364   3.841   3.174   1.058
 2822SOL    HW1 9365   3.882   3.252   1.107
 2822SOL    HW2 9366   3.765   3.138   1.112
 2823SOL     OW 9367   4.746   0.684   0.757
 2823SOL    HW1 9368   4.759   0.659   0.853
 2823SOL    HW2 9369   4.769   0.607   0.699
 2824SOL     OW 9370   1.631   3.799   5.640
 2824SOL    HW1 9371   1.578   3.866   5.589
 2824SOL    HW2 9372   1.579   3.714   5.649
 2825SOL     OW 9373   5.400   0.864   6.813
 2825SOL    HW1 9374   5.326   0.901   6.869
 2825SOL    HW2 9375   5.394   0.900   6.720
 2826SOL     OW 9376   1.680   3.185   6.131
 2826SOL    HW1 9377   1.735   3.154   6.054
 2826SOL    HW2 9378   1.736   3.244   6.190
 2827SOL     OW 9379   0.212   0.715   6.593
 2827SOL    HW1 9380   0.169   0.625   6.601
 2827SOL    HW2 9381   0.311   0.705   6.603
 2828SOL     OW 9382   1.679   3.369   1.347
 2828SOL    HW1 9383   1.641   3.460   1.332
 2828SOL    HW2 9384   1.757   3.375   1.410
 2829SOL     OW 9385   3.192   3.682   3.169
 2829SOL    HW1 9386   3.186   3.651   3.264
 2829SOL    HW2 9387   3.282   3.658   3.132
 2830SOL     OW 9388   3.645   4.740   5.365
 2830SOL    HW1 9389   3.726   4.695   5.404
 2830SOL    HW2 9390   3.562   4.698   5.403
 2831SOL     OW 9391   6.945   2.273   1.913
 2831SOL    HW1 9392   6.994   2.315   1.990
 2831SOL    HW2 9393   6.852   2.252   1.941
 2832SOL     OW 9394   0.838   3.455   1.252
 2832SOL    HW1 9395   0.893   3.507   1.318
 2832SOL    HW2 9396   0.741   3.462   1.276
 2833SOL     OW 9397   2.365   0.376   2.112
 2833SOL    HW1 9398   2.348   0.471   2.139
 2833SOL    HW2 9399   2.336   0.315   2.186
 2834SOL     OW 9400   4.516   6.128   4.390
 2834SOL    HW1 9401   4.429   6.082   4.409
 2834SOL    HW2 9402   4.566   6.140   4.476
 2835SOL     OW 9403   1.380   6.142   0.587
 2835SOL    HW1 9404   1.457   6.079   0.597
 2835SOL    HW2 9405   1.312   6.121   0.657
 2836SOL     OW 9406   3.667   6.791   3.379
 2836SOL    HW1 9407   3.594   6.823   3.441
 2836SOL    HW2 9408   3.725   6.726   3.428
 2837SOL     OW 9409   5.890   4.060   2.191
 2837SOL    HW1 9410   5.823   3.986   2.178
 2837SOL    HW2 9411   5.866   4.111   2.274
 2838SOL     OW 9412   4.972   4.163   6.087
 2838SOL    HW1 9413   5.017   4.074   6.075
 2838SOL    HW2 9414   5.023   4.217   6.154
 2839SOL     OW 9415   6.402   3.101   3.824
 2839SOL    HW1 9416   6.364   3.112   3.916
 2839SOL    HW2 9417   6.475   3.168   3.809
 2840SOL     OW 9418   0.959   5.356   2.941
 2840SOL    HW1 9419   0.860   5.371   2.935
 2840SOL    HW2 9420   0.977   5.271   2.991
 2841SOL     OW 9421   5.875   2.517   0.634
 2841SOL    HW1 9422   5.963   2.470   0.644
 2841SOL    HW2 9423   5.883   2.611   0.667
 2842SOL     OW 9424   1.204   5.929   4.544
 2842SOL    HW1 9425   1.292   5.883   4.531
 2842SOL    HW2 9426   1.210   6.023   4.510
 2843SOL     OW 9427   2.147   3.241   3.040
 2843SOL    HW1 9428   2.050   3.225   3.022
 2843SOL    HW2 9429   2.172   3.204   3.130
 2844SOL     OW 9430   5.004   4.176   1.349
 2844SOL    HW1 9431   4.989   4.235   1.270
 2844SOL    HW2 9432   4.956   4.213   1.428
 2845SOL     OW 9433   4.893   3.139   3.715
 2845SOL    HW1 9434   4.845   3.207   3.659
 2845SOL    HW2 9435   4.897   3.171   3.810
 2846SOL     OW 9436   4.460   0.458   0.061
 2846SOL    HW1 9437   4.539   0.428   0.007
 2846SOL    HW2 9438   4.469   0.556   0.081
 2847SOL     OW 9439   4.658   4.262   2.280
 2847SOL    HW1 9440   4.701   4.187   2.330
 2847SOL    HW2 9441   4.609   4.225   2.201
 2848SOL     OW 9442   0.666   2.852   5.027
 2848SOL    HW1 9443   0.642   2.917   5.099
 2848SOL    HW2 9444   0.740   2.890   4.971
 2849SOL     OW 9445   3.571   0.751   2.090
 2849SOL    HW1 9446   3.660   0.784   2.059
 2849SOL    HW2 9447   3.559   0.772   2.187
 2850SOL     OW 9448   2.328   6.641   3.469
 2850SOL    HW1 9449   2.363   6.729   3.438
 2850SOL    HW2 9450   2.289   6.591   3.391
 2851SOL     OW 9451   4.596   3.355   6.998
 2851SOL    HW1 9452   4.635   3.275   0.018
 2851SOL    HW2 9453   4.599   3.343   6.898
 2852SOL     OW 9454   6.228   4.281   6.445
 2852SOL    HW1 9455   6.277   4.367   6.462
 2852SOL    HW2 9456   6.131   4.300   6.432
 2853SOL     OW 9457   0.280   3.510   0.161
 2853SOL    HW1 9458   0.369   3.465   0.155
 2853SOL    HW2 9459   0.223   3.484   0.083
 2854SOL     OW 9460   3.266   1.036   6.669
 2854SOL    HW1 9461   3.266   1.042   6.569
 2854SOL    HW2 9462   3.225   0.949   6.697
 2855SOL     OW 9463   1.014   1.915   4.454
 2855SOL    HW1 9464   0.996   1.878   4.363
 2855SOL    HW2 9465   1.112   1.935   4.463
 2856SOL     OW 9466   1.633   3.746   3.098
 2856SOL    HW1 9467   1.725   3.776   3.123
 2856SOL    HW2 9468   1.588   3.704   3.177
 2857SOL     OW 9469   0.010   3.194   0.195
 2857SOL    HW1 9470   0.089   3.222   0.249
 2857SOL    HW2 9471   6.951   3.211   0.247
 2858SOL     OW 9472   5.382   6.041   2.864
 2858SOL    HW1 9473   5.420   6.106   2.798
 2858SOL    HW2 9474   5.457   6.000   2.917
 2859SOL     OW 9475   5.351   6.028   0.645
 2859SOL    HW1 9476   5.378   6.039   0.549
 2859SOL    HW2 9477   5.411   5.961   0.689
 2860SOL     OW 9478   1.997   5.971   1.753
 2860SOL    HW1 9479   1.949   5.902   1.808
 2860SOL    HW2 9480   2.060   5.925   1.691
 2861SOL     OW 9481   3.876   5.070   5.974
 2861SOL    HW1 9482   3.785   5.027   5.979
 2861SOL    HW2 9483   3.939   5.007   5.930
 2862SOL     OW 9484   4.609   3.276   1.310
 2862SOL    HW1 9485   4.636   3.345   1.242
 2862SOL    HW2 9486   4.689   3.245   1.359
 2863SOL     OW 9487   5.142   0.705   6.290
 2863SOL    HW1 9488   5.163   0.777   6.357
 2863SOL    HW2 9489   5.217   0.639   6.287
 2864SOL     OW 9490   4.355   3.420   1.657
 2864SOL    HW1 9491   4.365   3.326   1.690
 2864SOL    HW2 9492   4.272   3.427   1.601
 2865SOL     OW 9493   4.811   6.292   4.048
 2865SOL    HW1 9494   4.791   6.197   4.024
 2865SOL    HW2 9495   4.841   6.295   4.144
 2866SOL     OW 9496   5.254   4.624   6.709
 2866SOL    HW1 9497   5.194   4.544   6.715
 2866SOL    HW2 9498   5.240   4.669   6.621
 2867SOL     OW 9499   6.423   6.809   2.366
 2867SOL    HW1 9500   6.418   6.735   2.434
 2867SOL    HW2 9501   6.459   6.772   2.280
 2868SOL     OW 9502   1.040   1.627   5.870
 2868SOL    HW1 9503   0.987   1.545   5.890
 2868SOL    HW2 9504   1.094   1.652   5.950
 2869SOL     OW 9505   5.547   6.654   4.030
 2869SOL    HW1 9506   5.490   6.600   3.968
 2869SOL    HW2 9507   5.551   6.749   3.997
 2870SOL     OW 9508   1.184   1.685   0.691
 2870SOL    HW1 9509   1.137   1.657   0.608
 2870SOL    HW2 9510   1.282   1.686   0.675
 2871SOL     OW 9511   6.815   1.084   1.588
 2871SOL    HW1 9512   6.843   1.000   1.541
 2871SOL    HW2 9513   6.754   1.137   1.529
 2872SOL     OW 9514   2.759   1.715   2.455
 2872SOL    HW1 9515   2.782   1.751   2.365
 2872SOL    HW2 9516   2.840   1.674   2.497
 2873SOL     OW 9517   0.534   5.950   1.145
 2873SOL    HW1 9518   0.612   6.008   1.118
 2873SOL    HW2 9519   0.505   5.974   1.237
 2874SOL     OW 9520   3.329   0.314   2.612
 2874SOL    HW1 9521   3.323   0.304   2.711
 2874SOL    HW2 9522   3.326   0.223   2.570
 2875SOL     OW 9523   2.734   6.839   2.780
 2875SOL    HW1 9524   2.818   6.877   2.741
 2875SOL    HW2 9525   2.679   6.798   2.707
 2876SOL     OW 9526   1.607   5.813   2.320
 2876SOL    HW1 9527   1.550   5.820   2.238
 2876SOL    HW2 9528   1.589   5.890   2.381
 2877SOL     OW 9529   1.837   1.979   5.901
 2877SOL    HW1 9530   1.824   2.054   5.966
 2877SOL    HW2 9531   1.915   1.923   5.929
 2878SOL     OW 9532   3.199   2.969   4.840
 2878SOL    HW1 9533   3.143   3.048   4.865
 2878SOL    HW2 9534   3.149   2.885   4.860
 2879SOL     OW 9535   4.827   4.755   5.804
 2879SOL    HW1 9536   4.902   4.705   5.762
 2879SOL    HW2 9537   4.860   4.842   5.840
 2880SOL     OW 9538   0.569   1.972   3.921
 2880SOL    HW1 9539   0.545   1.923   3.837
 2880SOL    HW2 9540   0.668   1.983   3.927
 2881SOL     OW 9541   3.248   5.415   6.715
 2881SOL    HW1 9542   3.294   5.443   6.631
 2881SOL    HW2 9543   3.292   5.460   6.793
 2882SOL     OW 9544   5.923   6.160   0.765
 2882SOL    HW1 9545   5.833   6.202   0.757
 2882SOL    HW2 9546   5.949   6.155   0.862
 2883SOL     OW 9547   6.611   6.586   3.105
 2883SOL    HW1 9548   6.577   6.590   3.011
 2883SOL    HW2 9549   6.576   6.503   3.149
 2884SOL     OW 9550   0.259   5.306   2.751
 2884SOL    HW1 9551   0.345   5.305   2.802
 2884SOL    HW2 9552   0.201   5.230   2.781
 2885SOL     OW 9553   1.479   3.038   3.668
 2885SOL    HW1 9554   1.431   3.126   3.659
 2885SOL    HW2 9555   1.511   3.027   3.762
 2886SOL     OW 9556   2.261   4.359   0.308
 2886SOL    HW1 9557   2.275   4.444   0.358
 2886SOL    HW2 9558   2.196   4.375   0.233
 2887SOL     OW 9559   0.443   6.023   4.234
 2887SOL    HW1 9560   0.433   6.099   4.171
 2887SOL    HW2 9561   0.532   5.979   4.221
 2888SOL     OW 9562   0.093   6.111   0.293
 2888SOL    HW1 9563   0.042   6.148   0.215
 2888SOL    HW2 9564   0.091   6.011   0.289
 2889SOL     OW 9565   2.532   0.095   3.065
 2889SOL    HW1 9566   2.515   0.038   3.146
 2889SOL    HW2 9567   2.584   0.176   3.091
 2890SOL     OW 9568   2.286   6.150   0.875
 2890SOL    HW1 9569   2.254   6.055   0.866
 2890SOL    HW2 9570   2.337   6.176   0.793
 2891SOL     OW 9571   0.580   3.044   2.606
 2891SOL    HW1 9572   0.567   2.948   2.582
 2891SOL    HW2 9573   0.491   3.090   2.608
 2892SOL     OW 9574   6.388   3.690   0.945
 2892SOL    HW1 9575   6.439   3.632   1.009
 2892SOL    HW2 9576   6.435   3.691   0.857
 2893SOL     OW 9577   1.241   5.791   5.142
 2893SOL    HW1 9578   1.262   5.718   5.207
 2893SOL    HW2 9579   1.324   5.844   5.124
 2894SOL     OW 9580   1.929   4.341   1.615
 2894SOL    HW1 9581   1.888   4.371   1.701
 2894SOL    HW2 9582   1.915   4.243   1.604
 2895SOL     OW 9583   3.590   0.277   6.224
 2895SOL    HW1 9584   3.570   0.373   6.203
 2895SOL    HW2 9585   3.647   0.238   6.151
 2896SOL     OW 9586   5.853   6.869   5.955
 2896SOL    HW1 9587   5.921   6.817   6.007
 2896SOL    HW2 9588   5.762   6.831   5.973
 2897SOL     OW 9589   3.584   5.517   2.576
 2897SOL    HW1 9590   3.508   5.543   2.518
 2897SOL    HW2 9591   3.549   5.477   2.661
 2898SOL     OW 9592   6.175   3.898   3.628
 2898SOL    HW1 9593   6.121   3.965   3.578
 2898SOL    HW2 9594   6.239   3.853   3.565
 2899SOL     OW 9595   0.166   2.127   1.302
 2899SOL    HW1 9596   0.152   2.070   1.383
 2899SOL    HW2 9597   0.264   2.144   1.290
 2900SOL     OW 9598   3.405   3.954   0.214
 2900SOL    HW1 9599   3.321   3.901   0.220
 2900SOL    HW2 9600   3.387   4.049   0.242
 2901SOL     OW 9601   1.839   4.521   4.007
 2901SOL    HW1 9602   1.822   4.611   4.048
 2901SOL    HW2 9603   1.790   4.515   3.920
 2902SOL     OW 9604   0.107   5.802   3.909
 2902SOL    HW1 9605   0.135   5.759   3.995
 2902SOL    HW2 9606   0.007   5.799   3.901
 2903SOL     OW 9607   4.609   6.184   0.581
 2903SOL    HW1 9608   4.554   6.219   0.658
 2903SOL    HW2 9609   4.623   6.257   0.515
 2904SOL     OW 9610   2.758   4.802   4.778
 2904SOL    HW1 9611   2.816   4.755   4.845
 2904SOL    HW2 9612   2.812   4.824   4.697
 2905SOL     OW 9613   0.963   4.727   2.851
 2905SOL    HW1 9614   1.009   4.715   2.763
 2905SOL    HW2 9615   1.024   4.775   2.914
 2906SOL     OW 9616   5.261   6.221   3.056
 2906SOL    HW1 9617   5.163   6.213   3.070
 2906SOL    HW2 9618   5.292   6.148   2.994
 2907SOL     OW 9619   1.179   0.813   4.225
 2907SOL    HW1 9620   1.143   0.877   4.157
 2907SOL    HW2 9621   1.106   0.786   4.288
 2908SOL     OW 9622   4.979   0.457   3.688
 2908SOL    HW1 9623   5.047   0.479   3.618
 2908SOL    HW2 9624   5.020   0.467   3.778
 2909SOL     OW 9625   1.012   6.293   3.173
 2909SOL    HW1 9626   1.053   6.209   3.209
 2909SOL    HW2 9627   1.058   6.372   3.213
 2910SOL     OW 9628   6.748   0.882   4.104
 2910SOL    HW1 9629   6.769   0.866   4.008
 2910SOL    HW2 9630   6.703   0.801   4.142
 2911SOL     OW 9631   0.917   5.065   3.827
 2911SOL    HW1 9632   0.898   4.983   3.881
 2911SOL    HW2 9633   0.886   5.145   3.878
 2912SOL     OW 9634   6.806   6.558   0.768
 2912SOL    HW1 9635   6.875   6.529   0.702
 2912SOL    HW2 9636   6.802   6.492   0.843
 2913SOL     OW 9637   1.980   4.383   1.980
 2913SOL    HW1 9638   2.044   4.390   2.056
 2913SOL    HW2 9639   2.001   4.301   1.926
 2914SOL     OW 9640   5.470   5.037   0.630
 2914SOL    HW1 9641   5.502   5.018   0.537
 2914SOL    HW2 9642   5.477   5.135   0.648
 2915SOL     OW 9643   3.100   2.185   2.743
 2915SOL    HW1 9644   3.086   2.284   2.747
 2915SOL    HW2 9645   3.098   2.154   2.648
 2916SOL     OW 9646   2.743   5.311   6.860
 2916SOL    HW1 9647   2.702   5.280   6.945
 2916SOL    HW2 9648   2.840   5.330   6.875
 2917SOL     OW 9649   2.708   0.128   3.995
 2917SOL    HW1 9650   2.765   0.088   4.067
 2917SOL    HW2 9651   2.612   0.112   4.016
 2918SOL     OW 9652   6.120   3.757   0.912
 2918SOL    HW1 9653   6.121   3.839   0.969
 2918SOL    HW2 9654   6.212   3.718   0.908
 2919SOL     OW 9655   0.201   5.819   4.577
 2919SOL    HW1 9656   0.139   5.814   4.656
 2919SOL    HW2 9657   0.150   5.852   4.497
 2920SOL     OW 9658   1.905   0.527   1.888
 2920SOL    HW1 9659   1.960   0.500   1.967
 2920SOL    HW2 9660   1.837   0.595   1.916
 2921SOL     OW 9661   6.893   7.020   5.743
 2921SOL    HW1 9662   6.921   0.054   5.819
 2921SOL    HW2 9663   6.816   0.037   5.695
 2922SOL     OW 9664   4.295   0.123   2.948
 2922SOL    HW1 9665   4.296   0.126   3.048
 2922SOL    HW2 9666   4.347   0.201   2.912
 2923SOL     OW 9667   6.494   4.982   4.440
 2923SOL    HW1 9668   6.436   4.909   4.404
 2923SOL    HW2 9669   6.463   5.070   4.404
 2924SOL     OW 9670   0.018   1.520   5.181
 2924SOL    HW1 9671   0.032   1.585   5.256
 2924SOL    HW2 9672   6.983   1.446   5.212
 2925SOL     OW 9673   5.218   1.000   6.930
 2925SOL    HW1 9674   5.141   0.947   6.895
 2925SOL    HW2 9675   5.185   1.064   7.000
 2926SOL     OW 9676   0.064   2.001   5.622
 2926SOL    HW1 9677   7.023   2.076   5.630
 2926SOL    HW2 9678   0.062   1.946   5.705
 2927SOL     OW 9679   2.156   3.058   1.052
 2927SOL    HW1 9680   2.167   3.070   0.953
 2927SOL    HW2 9681   2.237   3.015   1.090
 2928SOL     OW 9682   6.848   1.771   0.333
 2928SOL    HW1 9683   6.766   1.713   0.334
 2928SOL    HW2 9684   6.828   1.858   0.377
 2929SOL     OW 9685   1.056   2.828   4.680
 2929SOL    HW1 9686   1.080   2.819   4.583
 2929SOL    HW2 9687   1.138   2.820   4.736
 2930SOL     OW 9688   6.282   5.163   5.384
 2930SOL    HW1 9689   6.261   5.078   5.337
 2930SOL    HW2 9690   6.255   5.156   5.480
 2931SOL     OW 9691   4.002   4.399   0.135
 2931SOL    HW1 9692   4.026   4.370   0.043
 2931SOL    HW2 9693   3.947   4.483   0.131
 2932SOL     OW 9694   6.861   5.877   1.705
 2932SOL    HW1 9695   6.947   5.846   1.663
 2932SOL    HW2 9696   6.790   5.809   1.690
 2933SOL     OW 9697   0.824   6.912   2.100
 2933SOL    HW1 9698   0.908   6.932   2.151
 2933SOL    HW2 9699   0.756   6.982   2.120
 2934SOL     OW 9700   4.119   3.141   1.303
 2934SOL    HW1 9701   4.216   3.116   1.297
 2934SOL    HW2 9702   4.104   3.230   1.259
 2935SOL     OW 9703   0.721   2.447   6.094
 2935SOL    HW1 9704   0.659   2.373   6.067
 2935SOL    HW2 9705   0.696   2.479   6.185
 2936SOL     OW 9706   4.548   0.212   0.554
 2936SOL    HW1 9707   4.543   0.310   0.537
 2936SOL    HW2 9708   4.535   0.194   0.652
 2937SOL     OW 9709   4.652   5.266   1.197
 2937SOL    HW1 9710   4.592   5.330   1.244
 2937SOL    HW2 9711   4.671   5.188   1.258
 2938SOL     OW 9712   6.109   5.645   0.213
 2938SOL    HW1 9713   6.139   5.601   0.128
 2938SOL    HW2 9714   6.027   5.599   0.246
 2939SOL     OW 9715   0.433   6.181   1.839
 2939SOL    HW1 9716   0.500   6.253   1.821
 2939SOL    HW2 9717   0.410   6.135   1.753
 2940SOL     OW 9718   6.018   6.050   4.597
 2940SOL    HW1 9719   6.051   6.095   4.514
 2940SOL    HW2 9720   6.035   6.110   4.676
 2941SOL     OW 9721   1.900   2.911   3.183
 2941SOL    HW1 9722   1.833   2.928   3.110
 2941SOL    HW2 9723   1.907   2.812   3.199
 2942SOL     OW 9724   2.705   1.888   6.992
 2942SOL    HW1 9725   2.637   1.908   6.921
 2942SOL    HW2 9726   2.797   1.904   6.956
 2943SOL     OW 9727   6.054   4.695   3.916
 2943SOL    HW1 9728   6.145   4.674   3.879
 2943SOL    HW2 9729   6.035   4.635   3.994
 2944SOL     OW 9730   2.690   6.155   3.802
 2944SOL    HW1 9731   2.617   6.136   3.736
 2944SOL    HW2 9732   2.651   6.195   3.885
 2945SOL     OW 9733   5.139   4.180   1.799
 2945SOL    HW1 9734   5.161   4.164   1.703
 2945SOL    HW2 9735   5.173   4.104   1.854
 2946SOL     OW 9736   2.793   4.172   5.748
 2946SOL    HW1 9737   2.860   4.241   5.776
 2946SOL    HW2 9738   2.839   4.096   5.702
 2947SOL     OW 9739   6.786   6.254   0.546
 2947SOL    HW1 9740   6.769   6.225   0.641
 2947SOL    HW2 9741   6.755   6.348   0.534
 2948SOL     OW 9742   5.959   4.687   3.412
 2948SOL    HW1 9743   5.925   4.767   3.461
 2948SOL    HW2 9744   5.902   4.608   3.435
 2949SOL     OW 9745   0.839   6.321   0.467
 2949SOL    HW1 9746   0.866   6.254   0.397
 2949SOL    HW2 9747   0.900   6.400   0.463
 2950SOL     OW 9748   5.571   4.497   2.589
 2950SOL    HW1 9749   5.515   4.447   2.523
 2950SOL    HW2 9750   5.518   4.511   2.673
 2951SOL     OW 9751   5.834   0.652   1.777
 2951SOL    HW1 9752   5.779   0.571   1.756
 2951SOL    HW2 9753   5.905   0.662   1.707
 2952SOL     OW 9754   6.075   0.771   5.168
 2952SOL    HW1 9755   5.998   0.831   5.190
 2952SOL    HW2 9756   6.146   0.824   5.120
 2953SOL     OW 9757   6.883   5.408   2.974
 2953SOL    HW1 9758   6.871   5.324   2.921
 2953SOL    HW2 9759   6.968   5.402   3.027
 2954SOL     OW 9760   0.641   4.435   6.434
 2954SOL    HW1 9761   0.597   4.357   6.389
 2954SOL    HW2 9762   0.709   4.402   6.500
 2955SOL     OW 9763   1.261   4.246   0.062
 2955SOL    HW1 9764   1.203   4.285   0.133
 2955SOL    HW2 9765   1.264   4.147   0.072
 2956SOL     OW 9766   6.954   4.882   4.192
 2956SOL    HW1 9767   6.904   4.945   4.132
 2956SOL    HW2 9768   6.895   4.856   4.269
 2957SOL     OW 9769   3.884   5.352   1.725
 2957SOL    HW1 9770   3.799   5.305   1.700
 2957SOL    HW2 9771   3.953   5.284   1.750
 2958SOL     OW 9772   1.845   5.421   3.142
 2958SOL    HW1 9773   1.769   5.483   3.163
 2958SOL    HW2 9774   1.868   5.429   3.045
 2959SOL     OW 9775   5.569   2.476   2.970
 2959SOL    HW1 9776   5.639   2.437   3.030
 2959SOL    HW2 9777   5.521   2.549   3.019
 2960SOL     OW 9778   3.726   0.752   0.242
 2960SOL    HW1 9779   3.780   0.817   0.188
 2960SOL    HW2 9780   3.769   0.662   0.239
 2961SOL     OW 9781   5.891   4.704   2.957
 2961SOL    HW1 9782   5.922   4.687   3.050
 2961SOL    HW2 9783   5.839   4.790   2.954
 2962SOL     OW 9784   5.199   6.644   3.209
 2962SOL    HW1 9785   5.150   6.601   3.134
 2962SOL    HW2 9786   5.271   6.703   3.172
 2963SOL     OW 9787   1.317   1.386   5.955
 2963SOL    HW1 9788   1.415   1.379   5.933
 2963SOL    HW2 9789   1.302   1.465   6.014
 2964SOL     OW 9790   0.373   2.928   6.825
 2964SOL    HW1 9791   0.385   2.857   6.894
 2964SOL    HW2 9792   0.368   2.886   6.734
 2965SOL     OW 9793   0.761   0.848   4.882
 2965SOL    HW1 9794   0.786   0.928   4.827
 2965SOL    HW2 9795   0.788   0.863   4.977
 2966SOL     OW 9796   4.490   5.684   3.943
 2966SOL    HW1 9797   4.402   5.728   3.924
 2966SOL    HW2 9798   4.553   5.703   3.868
 2967SOL     OW 9799   7.019   1.480   5.885
 2967SOL    HW1 9800   0.085   1.512   5.911
 2967SOL    HW2 9801   6.982   1.420   5.956
 2968SOL     OW 9802   2.389   2.886   0.837
 2968SOL    HW1 9803   2.292   2.908   0.824
 2968SOL    HW2 9804   2.406   2.869   0.935
 2969SOL     OW 9805   4.890   3.645   4.624
 2969SOL    HW1 9806   4.811   3.588   4.648
 2969SOL    HW2 9807   4.864   3.711   4.554
 2970SOL     OW 9808   2.856   2.729   5.594
 2970SOL    HW1 9809   2.822   2.788   5.667
 2970SOL    HW2 9810   2.878   2.784   5.513
 2971SOL     OW 9811   5.770   4.040   0.034
 2971SOL    HW1 9812   5.840   3.970   0.049
 2971SOL    HW2 9813   5.691   4.021   0.092
 2972SOL     OW 9814   6.182   5.056   0.001
 2972SOL    HW1 9815   6.194   4.967   6.983
 2972SOL    HW2 9816   6.164   5.125   6.955
 2973SOL     OW 9817   4.723   0.056   2.438
 2973SOL    HW1 9818   4.694   0.060   2.343
 2973SOL    HW2 9819   4.820   0.033   2.442
 2974SOL     OW 9820   6.426   4.697   3.390
 2974SOL    HW1 9821   6.419   4.796   3.382
 2974SOL    HW2 9822   6.516   4.673   3.428
 2975SOL     OW 9823   5.013   4.734   3.638
 2975SOL    HW1 9824   5.004   4.670   3.714
 2975SOL    HW2 9825   5.103   4.778   3.641
 2976SOL     OW 9826   4.265   2.006   3.375
 2976SOL    HW1 9827   4.356   2.046   3.364
 2976SOL    HW2 9828   4.272   1.920   3.425
 2977SOL     OW 9829   1.073   0.246   2.317
 2977SOL    HW1 9830   1.153   0.296   2.283
 2977SOL    HW2 9831   0.995   0.308   2.323
 2978SOL     OW 9832   4.504   3.983   6.876
 2978SOL    HW1 9833   4.473   3.918   6.946
 2978SOL    HW2 9834   4.424   4.028   6.836
 2979SOL     OW 9835   3.449   1.574   4.498
 2979SOL    HW1 9836   3.397   1.658   4.483
 2979SOL    HW2 9837   3.544   1.588   4.468
 2980SOL     OW 9838   3.644   4.567   6.480
 2980SOL    HW1 9839   3.639   4.484   6.424
 2980SOL    HW2 9840   3.552   4.592   6.512
 2981SOL     OW 9841   2.057   1.930   6.989
 2981SOL    HW1 9842   2.075   1.990   6.912
 2981SOL    HW2 9843   2.143   1.906   0.009
 2982SOL     OW 9844   1.937   6.612   2.286
 2982SOL    HW1 9845   1.862   6.594   2.349
 2982SOL    HW2 9846   1.910   6.683   2.220
 2983SOL     OW 9847   6.920   2.562   6.631
 2983SOL    HW1 9848   6.955   2.548   6.539
 2983SOL    HW2 9849   6.877   2.652   6.637
 2984SOL     OW 9850   6.258   4.810   6.922
 2984SOL    HW1 9851   6.174   4.788   6.873
 2984SOL    HW2 9852   6.293   4.727   6.966
 2985SOL     OW 9853   0.567   0.141   4.768
 2985SOL    HW1 9854   0.606   0.198   4.841
 2985SOL    HW2 9855   0.625   0.148   4.687
 2986SOL     OW 9856   3.453   4.172   2.597
 2986SOL    HW1 9857   3.507   4.175   2.681
 2986SOL    HW2 9858   3.366   4.125   2.615
 2987SOL     OW 9859   1.102   2.158   3.863
 2987SOL    HW1 9860   1.153   2.083   3.819
 2987SOL    HW2 9861   1.156   2.242   3.857
 2988SOL     OW 9862   1.134   0.456   1.461
 2988SOL    HW1 9863   1.094   0.541   1.425
 2988SOL    HW2 9864   1.157   0.396   1.385
 2989SOL     OW 9865   5.152   3.207   5.159
 2989SOL    HW1 9866   5.144   3.248   5.068
 2989SOL    HW2 9867   5.209   3.265   5.217
 2990SOL     OW 9868   5.323   2.163   4.393
 2990SOL    HW1 9869   5.345   2.214   4.476
 2990SOL    HW2 9870   5.225   2.165   4.377
 2991SOL     OW 9871   5.971   3.717   0.683
 2991SOL    HW1 9872   5.997   3.636   0.631
 2991SOL    HW2 9873   6.027   3.723   0.765
 2992SOL     OW 9874   0.965   3.888   4.325
 2992SOL    HW1 9875   0.937   3.814   4.386
 2992SOL    HW2 9876   0.947   3.976   4.368
 2993SOL     OW 9877   0.524   4.516   0.316
 2993SOL    HW1 9878   0.539   4.585   0.245
 2993SOL    HW2 9879   0.505   4.428   0.273
 2994SOL     OW 9880   4.915   6.266   6.724
 2994SOL    HW1 9881   4.997   6.252   6.779
 2994SOL    HW2 9882   4.894   6.364   6.721
 2995SOL     OW 9883   4.482   0.516   0.504
 2995SOL    HW1 9884   4.396   0.489   0.461
 2995SOL    HW2 9885   4.482   0.614   0.521
 2996SOL     OW 9886   1.355   2.032   4.742
 2996SOL    HW1 9887   1.279   2.043   4.805
 2996SOL    HW2 9888   1.354   2.107   4.674
 2997SOL     OW 9889   4.266   0.610   3.321
 2997SOL    HW1 9890   4.250   0.622   3.419
 2997SOL    HW2 9891   4.289   0.514   3.303
 2998SOL     OW 9892   2.719   0.461   4.069
 2998SOL    HW1 9893   2.676   0.371   4.078
 2998SOL    HW2 9894   2.778   0.478   4.147
 2999SOL     OW 9895   3.061   4.627   6.833
 2999SOL    HW1 9896   3.014   4.682   6.765
 2999SOL    HW2 9897   3.132   4.572   6.788
 3000SOL     OW 9898   2.750   3.403   5.991
 3000SOL    HW1 9899   2.764   3.304   5.989
 3000SOL    HW2 9900   2.811   3.446   5.925
 3001SOL     OW 9901   5.531   1.026   0.195
 3001SOL    HW1 9902   5.512   0.935   0.161
 3001SOL    HW2 9903   5.615   1.061   0.154
 3002SOL     OW 9904   2.682   1.471   0.920
 3002SOL    HW1 9905   2.614   1.488   0.992
 3002SOL    HW2 9906   2.752   1.409   0.955
 3003SOL     OW 9907   1.679   6.190   0.988
 3003SOL    HW1 9908   1.675   6.271   0.930
 3003SOL    HW2 9909   1.586   6.158   1.007
 3004SOL     OW 9910   2.133   4.318   4.265
 3004SOL    HW1 9911   2.170   4.372   4.190
 3004SOL    HW2 9912   2.150   4.221   4.249
 3005SOL     OW 9913   0.758   3.307   5.512
 3005SOL    HW1 9914   0.805   3.232   5.558
 3005SOL    HW2 9915   0.735   3.280   5.418
 3006SOL     OW 9916   5.295   1.803   5.747
 3006SOL    HW1 9917   5.257   1.710   5.740
 3006SOL    HW2 9918   5.383   1.800   5.793
 3007SOL     OW 9919   4.784   5.792   0.057
 3007SOL    HW1 9920   4.852   5.784   0.130
 3007SOL    HW2 9921   4.726   5.872   0.074
 3008SOL     OW 9922   3.983   2.257   6.139
 3008SOL    HW1 9923   3.930   2.306   6.208
 3008SOL    HW2 9924   4.051   2.318   6.099
 3009SOL     OW 9925   6.485   2.483   3.025
 3009SOL    HW1 9926   6.580   2.512   3.020
 3009SOL    HW2 9927   6.481   2.391   3.063
 3010SOL     OW 9928   4.133   5.715   5.909
 3010SOL    HW1 9929   4.065   5.660   5.861
 3010SOL    HW2 9930   4.099   5.808   5.921
 3011SOL     OW 9931   6.596   0.296   2.101
 3011SOL    HW1 9932   6.528   0.232   2.064
 3011SOL    HW2 9933   6.578   0.388   2.067
 3012SOL     OW 9934   2.772   3.262   6.578
 3012SOL    HW1 9935   2.685   3.216   6.594
 3012SOL    HW2 9936   2.756   3.346   6.526
 3013SOL     OW 9937   6.685   5.456   3.155
 3013SOL    HW1 9938   6.653   5.550   3.143
 3013SOL    HW2 9939   6.747   5.431   3.081
 3014SOL     OW 9940   5.180   0.883   6.483
 3014SOL    HW1 9941   5.279   0.898   6.483
 3014SOL    HW2 9942   5.134   0.967   6.512
 3015SOL     OW 9943   2.817   0.925   0.366
 3015SOL    HW1 9944   2.740   0.972   0.323
 3015SOL    HW2 9945   2.784   0.870   0.442
 3016SOL     OW 9946   3.367   6.759   4.300
 3016SOL    HW1 9947   3.414   6.775   4.213
 3016SOL    HW2 9948   3.354   6.846   4.347
 3017SOL     OW 9949   6.312   4.815   2.161
 3017SOL    HW1 9950   6.216   4.843   2.157
 3017SOL    HW2 9951   6.330   4.745   2.092
 3018SOL     OW 9952   3.963   7.012   0.428
 3018SOL    HW1 9953   3.943   6.930   0.375
 3018SOL    HW2 9954   3.951   0.068   0.370
 3019SOL     OW 9955   1.302   6.828   0.083
 3019SOL    HW1 9956   1.260   6.753   0.134
 3019SOL    HW2 9957   1.397   6.839   0.112
 3020SOL     OW 9958   5.041   3.485   6.897
 3020SOL    HW1 9959   5.092   3.570   6.909
 3020SOL    HW2 9960   5.075   3.436   6.817
 3021SOL     OW 9961   3.027   6.531   4.391
 3021SOL    HW1 9962   3.023   6.617   4.443
 3021SOL    HW2 9963   2.955   6.530   4.322
 3022SOL     OW 9964   3.645   6.145   3.317
 3022SOL    HW1 9965   3.633   6.087   3.397
 3022SOL    HW2 9966   3.592   6.228   3.327
 3023SOL     OW 9967   4.021   0.122   2.879
 3023SOL    HW1 9968   4.115   0.135   2.910
 3023SOL    HW2 9969   4.000   0.188   2.806
 3024SOL     OW 9970   6.441   6.383   5.062
 3024SOL    HW1 9971   6.518   6.321   5.060
 3024SOL    HW2 9972   6.398   6.387   4.972
 3025SOL     OW 9973   4.061   5.736   0.477
 3025SOL    HW1 9974   4.160   5.734   0.494
 3025SOL    HW2 9975   4.014   5.769   0.559
 3026SOL     OW 9976   6.346   1.358   0.488
 3026SOL    HW1 9977   6.298   1.445   0.477
 3026SOL    HW2 9978   6.305   1.290   0.427
 3027SOL     OW 9979   4.442   1.343   2.114
 3027SOL    HW1 9980   4.371   1.274   2.131
 3027SOL    HW2 9981   4.411   1.408   2.046
 3028SOL     OW 9982   1.695   3.993   6.228
 3028SOL    HW1 9983   1.744   3.933   6.291
 3028SOL    HW2 9984   1.627   3.940   6.177
 3029SOL     OW 9985   0.456   2.266   4.232
 3029SOL    HW1 9986   0.366   2.297   4.202
 3029SOL    HW2 9987   0.526   2.311   4.177
 3030SOL     OW 9988   1.412   3.904   0.729
 3030SOL    HW1 9989   1.400   3.989   0.677
 3030SOL    HW2 9990   1.400   3.826   0.668
 3031SOL     OW 9991   1.272   5.047   1.347
 3031SOL    HW1 9992   1.189   5.018   1.298
 3031SOL    HW2 9993   1.254   5.135   1.392
 3032SOL     OW 9994   1.831   6.882   3.665
 3032SOL    HW1 9995   1.858   6.932   3.582
 3032SOL    HW2 9996   1.829   6.945   3.742
 3033SOL     OW 9997   6.155   2.644   3.919
 3033SOL    HW1 9998   6.165   2.558   3.969
 3033SOL    HW2 9999   6.230   2.706   3.945
 3034SOL     OW10000   0.906   6.005   3.672
 3034SOL    HW110001   0.912   5.910   3.639
 3034SOL    HW210002   0.971   6.061   3.621
 3035SOL     OW10003   1.353   2.884   6.078
 3035SOL    HW110004   1.261   2.922   6.067
 3035SOL    HW210005   1.375   2.878   6.175
 3036SOL     OW10006   1.234   2.556   5.741
 3036SOL    HW110007   1.279   2.469   5.722
 3036SOL    HW210008   1.177   2.582   5.663
 3037SOL     OW10009   0.602   5.186   5.486
 3037SOL    HW110010   0.598   5.283   5.509
 3037SOL    HW210011   0.694   5.151   5.501
 3038SOL     OW10012   4.721   5.437   5.973
 3038SOL    HW110013   4.645   5.416   6.034
 3038SOL    HW210014   4.788   5.493   6.021
 3039SOL     OW10015   6.501   3.569   0.077
 3039SOL    HW110016   6.422   3.541   0.021
 3039SOL    HW210017   6.562   3.626   0.023
 3040SOL     OW10018   3.714   4.030   6.182
 3040SOL    HW110019   3.665   3.950   6.148
 3040SOL    HW210020   3.725   4.022   6.281
 3041SOL     OW10021   1.185   4.365   4.792
 3041SOL    HW110022   1.162   4.297   4.862
 3041SOL    HW210023   1.151   4.333   4.703
 3042SOL     OW10024   6.966   5.178   2.716
 3042SOL    HW110025   6.957   5.265   2.668
 3042SOL    HW210026   6.899   5.172   2.789
 3043SOL     OW10027   2.628   3.620   0.555
 3043SOL    HW110028   2.611   3.576   0.467
 3043SOL    HW210029   2.599   3.560   0.629
 3044SOL     OW10030   3.152   3.637   5.745
 3044SOL    HW110031   3.149   3.737   5.753
 3044SOL    HW210032   3.241   3.604   5.776
 3045SOL     OW10033   4.714   0.758   3.555
 3045SOL    HW110034   4.719   0.847   3.601
 3045SOL    HW210035   4.721   0.685   3.623
 3046SOL     OW10036   5.259   5.537   0.318
 3046SOL    HW110037   5.199   5.566   0.243
 3046SOL    HW210038   5.275   5.438   0.311
 3047SOL     OW10039   6.262   6.353   0.835
 3047SOL    HW110040   6.199   6.399   0.899
 3047SOL    HW210041   6.213   6.331   0.751
 3048SOL     OW10042   4.508   3.168   0.744
 3048SOL    HW110043   4.434   3.199   0.684
 3048SOL    HW210044   4.491   3.201   0.837
 3049SOL     OW10045   0.726   0.557   4.899
 3049SOL    HW110046   0.810   0.525   4.856
 3049SOL    HW210047   0.721   0.656   4.891
 3050SOL     OW10048   2.048   2.572   1.482
 3050SOL    HW110049   2.099   2.523   1.552
 3050SOL    HW210050   1.954   2.587   1.514
 3051SOL     OW10051   3.107   7.021   6.222
 3051SOL    HW110052   3.085   0.093   6.216
 3051SOL    HW210053   3.152   7.002   6.309
 3052SOL     OW10054   5.514   6.248   2.661
 3052SOL    HW110055   5.450   6.321   2.637
 3052SOL    HW210056   5.557   6.269   2.749
 3053SOL     OW10057   1.516   4.589   0.262
 3053SOL    HW110058   1.467   4.621   0.181
 3053SOL    HW210059   1.604   4.549   0.235
 3054SOL     OW10060   5.568   0.844   3.617
 3054SOL    HW110061   5.497   0.802   3.560
 3054SOL    HW210062   5.551   0.821   3.713
 3055SOL     OW10063   6.561   6.761   6.463
 3055SOL    HW110064   6.515   6.813   6.534
 3055SOL    HW210065   6.553   6.663   6.482
 3056SOL     OW10066   5.484   1.802   6.148
 3056SOL    HW110067   5.546   1.877   6.126
 3056SOL    HW210068   5.535   1.730   6.196
 3057SOL     OW10069   5.858   6.411   3.531
 3057SOL    HW110070   5.814   6.331   3.572
 3057SOL    HW210071   5.946   6.384   3.492
 3058SOL     OW10072   6.318   4.358   1.028
 3058SOL    HW110073   6.387   4.337   1.096
 3058SOL    HW210074   6.305   4.279   0.968
 3059SOL     OW10075   2.538   2.562   4.358
 3059SOL    HW110076   2.584   2.477   4.383
 3059SOL    HW210077   2.456   2.573   4.413
 3060SOL     OW10078   2.889   4.779   6.340
 3060SOL    HW110079   2.886   4.854   6.275
 3060SOL    HW210080   2.901   4.815   6.433
 3061SOL     OW10081   5.888   4.901   5.908
 3061SOL    HW110082   5.853   4.834   5.843
 3061SOL    HW210083   5.827   4.908   5.987
 3062SOL     OW10084   3.999   4.994   1.120
 3062SOL    HW110085   4.039   4.949   1.040
 3062SOL    HW210086   3.982   5.090   1.099
 3063SOL     OW10087   0.341   4.386   0.629
 3063SOL    HW110088   0.354   4.288   0.647
 3063SOL    HW210089   0.425   4.436   0.651
 3064SOL     OW10090   4.463   2.724   0.235
 3064SOL    HW110091   4.364   2.739   0.230
 3064SOL    HW210092   4.494   2.677   0.152
 3065SOL     OW10093   0.802   1.315   6.513
 3065SOL    HW110094   0.735   1.287   6.582
 3065SOL    HW210095   0.858   1.236   6.487
 3066SOL     OW10096   5.101   5.062   5.656
 3066SOL    HW110097   5.189   5.024   5.630
 3066SOL    HW210098   5.104   5.162   5.650
 3067SOL     OW10099   2.314   1.643   0.001
 3067SOL    HW110100   2.223   1.602   7.018
 3067SOL    HW210101   2.380   1.573   0.028
 3068SOL     OW10102   0.638   0.654   1.795
 3068SOL    HW110103   0.677   0.604   1.873
 3068SOL    HW210104   0.617   0.748   1.823
 3069SOL     OW10105   5.553   6.967   3.496
 3069SOL    HW110106   5.568   0.027   3.546
 3069SOL    HW210107   5.571   6.981   3.399
 3070SOL     OW10108   3.045   1.433   6.841
 3070SOL    HW110109   2.948   1.455   6.840
 3070SOL    HW210110   3.081   1.446   6.934
 3071SOL     OW10111   6.988   4.387   3.532
 3071SOL    HW110112   6.922   4.401   3.458
 3071SOL    HW210113   0.056   4.389   3.495
 3072SOL     OW10114   2.259   5.660   6.499
 3072SOL    HW110115   2.234   5.631   6.592
 3072SOL    HW210116   2.196   5.620   6.434
 3073SOL     OW10117   6.791   4.772   0.736
 3073SOL    HW110118   6.737   4.809   0.660
 3073SOL    HW210119   6.867   4.717   0.699
 3074SOL     OW10120   0.554   4.137   1.129
 3074SOL    HW110121   0.525   4.217   1.181
 3074SOL    HW210122   0.598   4.167   1.044
 3075SOL     OW10123   2.638   4.994   3.877
 3075SOL    HW110124   2.576   5.053   3.826
 3075SOL    HW210125   2.609   4.990   3.973
 3076SOL     OW10126   0.154   1.036   5.050
 3076SOL    HW110127   0.181   1.128   5.078
 3076SOL    HW210128   0.100   1.041   4.966
 3077SOL     OW10129   6.116   3.865   1.562
 3077SOL    HW110130   6.148   3.955   1.533
 3077SOL    HW210131   6.129   3.855   1.660
 3078SOL     OW10132   6.505   3.027   1.880
 3078SOL    HW110133   6.544   3.038   1.788
 3078SOL    HW210134   6.572   2.982   1.939
 3079SOL     OW10135   2.438   2.595   5.071
 3079SOL    HW110136   2.529   2.605   5.110
 3079SOL    HW210137   2.443   2.606   4.971
 3080SOL     OW10138   4.502   4.491   1.624
 3080SOL    HW110139   4.414   4.467   1.663
 3080SOL    HW210140   4.564   4.413   1.631
 3081SOL     OW10141   1.006   3.985   0.036
 3081SOL    HW110142   1.104   3.988   0.056
 3081SOL    HW210143   0.956   3.963   0.120
 3082SOL     OW10144   3.117   5.412   4.923
 3082SOL    HW110145   3.133   5.326   4.875
 3082SOL    HW210146   3.181   5.481   4.889
 3083SOL     OW10147   2.741   5.291   2.369
 3083SOL    HW110148   2.802   5.225   2.324
 3083SOL    HW210149   2.788   5.331   2.448
 3084SOL     OW10150   0.768   3.422   2.796
 3084SOL    HW110151   0.786   3.400   2.700
 3084SOL    HW210152   0.826   3.365   2.855
 3085SOL     OW10153   5.033   4.677   0.741
 3085SOL    HW110154   5.088   4.648   0.820
 3085SOL    HW210155   5.092   4.726   0.677
 3086SOL     OW10156   5.090   0.667   0.545
 3086SOL    HW110157   4.992   0.688   0.545
 3086SOL    HW210158   5.142   0.752   0.550
 3087SOL     OW10159   2.274   6.275   2.202
 3087SOL    HW110160   2.352   6.294   2.143
 3087SOL    HW210161   2.238   6.361   2.238
 3088SOL     OW10162   0.364   3.229   5.620
 3088SOL    HW110163   0.306   3.178   5.683
 3088SOL    HW210164   0.441   3.268   5.671
 3089SOL     OW10165   4.614   1.046   4.526
 3089SOL    HW110166   4.590   1.130   4.477
 3089SOL    HW210167   4.531   1.001   4.558
 3090SOL     OW10168   1.090   1.502   2.299
 3090SOL    HW110169   1.158   1.516   2.370
 3090SOL    HW210170   1.133   1.457   2.220
 3091SOL     OW10171   0.855   1.473   0.659
 3091SOL    HW110172   0.880   1.498   0.752
 3091SOL    HW210173   0.806   1.549   0.616
 3092SOL     OW10174   5.038   0.181   2.150
 3092SOL    HW110175   4.999   0.235   2.225
 3092SOL    HW210176   5.137   0.174   2.163
 3093SOL     OW10177   5.658   6.083   6.297
 3093SOL    HW110178   5.661   5.985   6.283
 3093SOL    HW210179   5.637   6.103   6.393
 3094SOL     OW10180   2.240   1.081   4.924
 3094SOL    HW110181   2.340   1.069   4.922
 3094SOL    HW210182   2.212   1.133   4.844
 3095SOL     OW10183   2.721   3.162   5.312
 3095SOL    HW110184   2.792   3.099   5.282
 3095SOL    HW210185   2.631   3.124   5.289
 3096SOL     OW10186   0.503   3.206   5.017
 3096SOL    HW110187   0.446   3.124   5.022
 3096SOL    HW210188   0.451   3.285   5.048
 3097SOL     OW10189   5.788   2.877   6.398
 3097SOL    HW110190   5.713   2.871   6.464
 3097SOL    HW210191   5.874   2.897   6.447
 3098SOL     OW10192   1.925   2.569   2.116
 3098SOL    HW110193   1.982   2.629   2.172
 3098SOL    HW210194   1.939   2.474   2.144
 3099SOL     OW10195   0.362   6.171   3.430
 3099SOL    HW110196   0.453   6.174   3.388
 3099SOL    HW210197   0.299   6.122   3.370
 3100SOL     OW10198   6.494   6.282   2.776
 3100SOL    HW110199   6.438   6.270   2.694
 3100SOL    HW210200   6.589   6.299   2.749
 3101SOL     OW10201   5.012   6.843   5.565
 3101SOL    HW110202   4.965   6.778   5.624
 3101SOL    HW210203   4.984   6.829   5.470
 3102SOL     OW10204   0.768   5.526   0.361
 3102SOL    HW110205   0.833   5.600   0.342
 3102SOL    HW210206   0.682   5.543   0.313
 3103SOL     OW10207   3.824   0.337   0.964
 3103SOL    HW110208   3.922   0.337   0.949
 3103SOL    HW210209   3.805   0.326   1.062
 3104SOL     OW10210   4.887   6.976   6.522
 3104SOL    HW110211   4.841   0.035   6.550
 3104SOL    HW210212   4.819   6.911   6.487
 3105SOL     OW10213   5.334   3.270   0.977
 3105SOL    HW110214   5.276   3.310   0.907
 3105SOL    HW210215   5.407   3.334   1.000
 3106SOL     OW10216   5.454   0.993   5.248
 3106SOL    HW110217   5.363   1.026   5.274
 3106SOL    HW210218   5.509   1.071   5.218
 3107SOL     OW10219   4.251   1.699   4.651
 3107SOL    HW110220   4.266   1.667   4.744
 3107SOL    HW210221   4.320   1.660   4.590
 3108SOL     OW10222   2.189   4.681   4.335
 3108SOL    HW110223   2.171   4.636   4.247
 3108SOL    HW210224   2.286   4.671   4.359
 3109SOL     OW10225   6.174   0.429   4.641
 3109SOL    HW110226   6.112   0.422   4.719
 3109SOL    HW210227   6.232   0.511   4.652
 3110SOL     OW10228   2.542   4.523   3.717
 3110SOL    HW110229   2.636   4.522   3.685
 3110SOL    HW210230   2.488   4.457   3.665
 3111SOL     OW10231   6.531   5.014   4.106
 3111SOL    HW110232   6.553   4.950   4.032
 3111SOL    HW210233   6.450   4.981   4.155
 3112SOL     OW10234   3.779   3.131   6.739
 3112SOL    HW110235   3.853   3.065   6.721
 3112SOL    HW210236   3.804   3.188   6.817
 3113SOL     OW10237   3.112   5.618   2.508
 3113SOL    HW110238   3.195   5.661   2.544
 3113SOL    HW210239   3.032   5.673   2.534
 3114SOL     OW10240   3.687   1.184   0.183
 3114SOL    HW110241   3.619   1.243   0.225
 3114SOL    HW210242   3.666   1.171   0.086
 3115SOL     OW10243   4.055   4.289   5.258
 3115SOL    HW110244   3.965   4.332   5.244
 3115SOL    HW210245   4.125   4.344   5.213
 3116SOL     OW10246   0.955   2.318   0.745
 3116SOL    HW110247   1.044   2.361   0.738
 3116SOL    HW210248   0.900   2.366   0.813
 3117SOL     OW10249   5.035   2.361   6.037
 3117SOL    HW110250   5.111   2.354   6.103
 3117SOL    HW210251   4.993   2.271   6.026
 3118SOL     OW10252   1.266   0.404   3.282
 3118SOL    HW110253   1.198   0.343   3.323
 3118SOL    HW210254   1.303   0.362   3.199
 3119SOL     OW10255   3.099   2.860   5.706
 3119SOL    HW110256   3.011   2.831   5.743
 3119SOL    HW210257   3.127   2.799   5.632
 3120SOL     OW10258   3.271   0.324   5.179
 3120SOL    HW110259   3.348   0.364   5.129
 3120SOL    HW210260   3.187   0.374   5.156
 3121SOL     OW10261   5.231   1.987   4.612
 3121SOL    HW110262   5.152   2.045   4.629
 3121SOL    HW210263   5.314   2.033   4.645
 3122SOL     OW10264   4.475   4.615   4.510
 3122SOL    HW110265   4.387   4.657   4.489
 3122SOL    HW210266   4.478   4.590   4.606
 3123SOL     OW10267   2.287   0.616   3.662
 3123SOL    HW110268   2.344   0.648   3.586
 3123SOL    HW210269   2.303   0.673   3.742
 3124SOL     OW10270   5.403   6.470   4.520
 3124SOL    HW110271   5.441   6.441   4.608
 3124SOL    HW210272   5.419   6.398   4.452
 3125SOL     OW10273   0.909   3.005   5.161
 3125SOL    HW110274   0.992   3.011   5.106
 3125SOL    HW210275   0.892   2.910   5.185
 3126SOL     OW10276   5.780   5.267   5.082
 3126SOL    HW110277   5.768   5.187   5.023
 3126SOL    HW210278   5.852   5.248   5.149
 3127SOL     OW10279   0.961   2.595   4.807
 3127SOL    HW110280   1.006   2.654   4.739
 3127SOL    HW210281   0.959   2.501   4.773
 3128SOL     OW10282   3.372   0.594   0.518
 3128SOL    HW110283   3.394   0.676   0.569
 3128SOL    HW210284   3.426   0.517   0.552
 3129SOL     OW10285   5.245   3.280   1.305
 3129SOL    HW110286   5.313   3.295   1.233
 3129SOL    HW210287   5.245   3.358   1.368
 3130SOL     OW10288   1.523   4.150   0.909
 3130SOL    HW110289   1.574   4.088   0.969
 3130SOL    HW210290   1.425   4.139   0.926
 3131SOL     OW10291   6.913   3.344   2.305
 3131SOL    HW110292   6.899   3.344   2.206
 3131SOL    HW210293   6.885   3.255   2.342
 3132SOL     OW10294   4.532   4.713   6.919
 3132SOL    HW110295   4.548   4.741   7.014
 3132SOL    HW210296   4.505   4.793   6.865
 3133SOL     OW10297   3.317   0.668   3.398
 3133SOL    HW110298   3.237   0.727   3.387
 3133SOL    HW210299   3.347   0.672   3.493
 3134SOL     OW10300   3.657   4.927   2.142
 3134SOL    HW110301   3.748   4.899   2.172
 3134SOL    HW210302   3.620   4.858   2.079
 3135SOL     OW10303   5.749   0.093   6.003
 3135SOL    HW110304   5.768   0.117   5.907
 3135SOL    HW210305   5.781   7.024   6.020
 3136SOL     OW10306   5.850   1.016   2.512
 3136SOL    HW110307   5.833   1.005   2.414
 3136SOL    HW210308   5.934   1.068   2.526
 3137SOL     OW10309   6.433   0.364   1.551
 3137SOL    HW110310   6.476   0.324   1.632
 3137SOL    HW210311   6.358   0.423   1.580
 3138SOL     OW10312   5.260   5.491   3.942
 3138SOL    HW110313   5.217   5.527   3.859
 3138SOL    HW210314   5.322   5.559   3.979
 3139SOL     OW10315   3.206   4.995   1.575
 3139SOL    HW110316   3.224   4.899   1.554
 3139SOL    HW210317   3.267   5.025   1.648
 3140SOL     OW10318   6.590   6.052   5.616
 3140SOL    HW110319   6.520   6.060   5.687
 3140SOL    HW210320   6.595   6.137   5.564
 3141SOL     OW10321   0.352   2.169   0.307
 3141SOL    HW110322   0.416   2.226   0.256
 3141SOL    HW210323   0.402   2.108   0.368
 3142SOL     OW10324   4.207   0.390   2.727
 3142SOL    HW110325   4.214   0.393   2.628
 3142SOL    HW210326   4.113   0.410   2.754
 3143SOL     OW10327   6.338   2.063   0.155
 3143SOL    HW110328   6.320   1.969   0.126
 3143SOL    HW210329   6.265   2.123   0.123
 3144SOL     OW10330   4.167   3.967   6.982
 3144SOL    HW110331   4.136   3.981   6.888
 3144SOL    HW210332   4.239   3.897   6.983
 3145SOL     OW10333   2.135   6.427   1.985
 3145SOL    HW110334   2.168   6.501   2.044
 3145SOL    HW210335   2.190   6.344   2.002
 3146SOL     OW10336   0.563   0.932   5.241
 3146SOL    HW110337   0.558   1.031   5.249
 3146SOL    HW210338   0.653   0.905   5.207
 3147SOL     OW10339   3.770   5.242   6.289
 3147SOL    HW110340   3.728   5.208   6.205
 3147SOL    HW210341   3.825   5.324   6.269
 3148SOL     OW10342   0.234   6.968   3.101
 3148SOL    HW110343   0.187   6.880   3.095
 3148SOL    HW210344   0.291   6.981   3.020
 3149SOL     OW10345   3.040   1.192   6.688
 3149SOL    HW110346   3.117   1.128   6.680
 3149SOL    HW210347   3.071   1.275   6.734
 3150SOL     OW10348   6.696   5.395   5.521
 3150SOL    HW110349   6.624   5.363   5.459
 3150SOL    HW210350   6.667   5.479   5.565
 3151SOL     OW10351   6.885   2.069   6.303
 3151SOL    HW110352   6.847   2.017   6.227
 3151SOL    HW210353   6.853   2.030   6.389
 3152SOL     OW10354   1.122   4.173   6.512
 3152SOL    HW110355   1.136   4.162   6.611
 3152SOL    HW210356   1.152   4.089   6.465
 3153SOL     OW10357   6.428   4.645   0.363
 3153SOL    HW110358   6.332   4.621   0.382
 3153SOL    HW210359   6.484   4.621   0.441
 3154SOL     OW10360   5.761   1.106   1.802
 3154SOL    HW110361   5.847   1.155   1.816
 3154SOL    HW210362   5.696   1.164   1.755
 3155SOL     OW10363   6.481   4.615   0.646
 3155SOL    HW110364   6.403   4.596   0.705
 3155SOL    HW210365   6.547   4.672   0.696
 3156SOL     OW10366   3.564   4.146   2.360
 3156SOL    HW110367   3.541   4.166   2.456
 3156SOL    HW210368   3.662   4.129   2.353
 3157SOL     OW10369   0.902   2.342   4.872
 3157SOL    HW110370   0.967   2.364   4.945
 3157SOL    HW210371   0.816   2.310   4.913
 3158SOL     OW10372   2.790   2.075   5.716
 3158SOL    HW110373   2.885   2.107   5.723
 3158SOL    HW210374   2.789   1.975   5.705
 3159SOL     OW10375   5.421   0.064   1.072
 3159SOL    HW110376   5.492   0.129   1.098
 3159SOL    HW210377   5.332   0.110   1.074
 3160SOL     OW10378   1.812   0.142   5.443
 3160SOL    HW110379   1.776   0.051   5.466
 3160SOL    HW210380   1.911   0.136   5.433
 3161SOL     OW10381   2.054   2.772   2.839
 3161SOL    HW110382   2.082   2.685   2.798
 3161SOL    HW210383   1.977   2.809   2.788
 3162SOL     OW10384   2.582   5.555   6.841
 3162SOL    HW110385   2.483   5.541   6.843
 3162SOL    HW210386   2.629   5.469   6.863
 3163SOL     OW10387   4.314   3.343   0.012
 3163SOL    HW110388   4.410   3.330   7.011
 3163SOL    HW210389   4.286   3.436   7.017
 3164SOL     OW10390   3.383   5.781   1.994
 3164SOL    HW110391   3.388   5.865   1.939
 3164SOL    HW210392   3.290   5.744   1.990
 3165SOL     OW10393   1.108   4.914   0.965
 3165SOL    HW110394   1.175   4.848   0.931
 3165SOL    HW210395   1.063   4.958   0.888
 3166SOL     OW10396   3.997   1.057   4.364
 3166SOL    HW110397   4.085   1.051   4.317
 3166SOL    HW210398   3.948   1.139   4.335
 3167SOL     OW10399   5.930   4.185   0.694
 3167SOL    HW110400   5.848   4.128   0.697
 3167SOL    HW210401   6.009   4.128   0.673
 3168SOL     OW10402   5.610   2.003   1.425
 3168SOL    HW110403   5.669   2.058   1.484
 3168SOL    HW210404   5.516   2.008   1.459
 3169SOL     OW10405   1.970   4.637   2.921
 3169SOL    HW110406   1.881   4.629   2.966
 3169SOL    HW210407   2.029   4.562   2.950
 3170SOL     OW10408   4.163   6.052   2.413
 3170SOL    HW110409   4.160   6.003   2.500
 3170SOL    HW210410   4.075   6.094   2.395
 3171SOL     OW10411   5.080   2.382   2.208
 3171SOL    HW110412   5.001   2.438   2.184
 3171SOL    HW210413   5.049   2.291   2.236
 3172SOL     OW10414   0.685   5.276   0.116
 3172SOL    HW110415   0.762   5.285   0.179
 3172SOL    HW210416   0.719   5.274   0.021
 3173SOL     OW10417   2.704   2.688   6.872
 3173SOL    HW110418   2.608   2.714   6.887
 3173SOL    HW210419   2.751   2.762   6.825
 3174SOL     OW10420   2.310   2.700   5.976
 3174SOL    HW110421   2.389   2.695   5.915
 3174SOL    HW210422   2.263   2.612   5.977
 3175SOL     OW10423   5.869   1.419   2.642
 3175SOL    HW110424   5.824   1.342   2.687
 3175SOL    HW210425   5.821   1.442   2.558
 3176SOL     OW10426   0.223   3.209   5.167
 3176SOL    HW110427   0.271   3.160   5.240
 3176SOL    HW210428   0.179   3.143   5.107
 3177SOL     OW10429   5.460   4.306   3.894
 3177SOL    HW110430   5.514   4.240   3.946
 3177SOL    HW210431   5.495   4.398   3.911
 3178SOL     OW10432   5.859   2.162   6.956
 3178SOL    HW110433   5.866   2.108   0.015
 3178SOL    HW210434   5.778   2.220   6.961
 3179SOL     OW10435   1.498   1.728   1.968
 3179SOL    HW110436   1.407   1.767   1.954
 3179SOL    HW210437   1.527   1.743   2.062
 3180SOL     OW10438   5.904   6.494   0.009
 3180SOL    HW110439   5.872   6.552   0.084
 3180SOL    HW210440   5.841   6.418   7.021
 3181SOL     OW10441   6.906   1.245   4.029
 3181SOL    HW110442   6.894   1.283   3.938
 3181SOL    HW210443   6.924   1.147   4.022
 3182SOL     OW10444   2.849   0.742   6.534
 3182SOL    HW110445   2.750   0.749   6.544
 3182SOL    HW210446   2.881   0.653   6.566
 3183SOL     OW10447   4.748   4.788   2.426
 3183SOL    HW110448   4.689   4.758   2.351
 3183SOL    HW210449   4.711   4.754   2.512
 3184SOL     OW10450   0.543   2.032   3.289
 3184SOL    HW110451   0.519   2.096   3.217
 3184SOL    HW210452   0.608   2.076   3.352
 3185SOL     OW10453   6.232   6.414   5.933
 3185SOL    HW110454   6.156   6.475   5.907
 3185SOL    HW210455   6.197   6.322   5.946
 3186SOL     OW10456   2.383   1.224   0.198
 3186SOL    HW110457   2.358   1.195   0.291
 3186SOL    HW210458   2.301   1.256   0.151
 3187SOL     OW10459   3.398   5.292   2.188
 3187SOL    HW110460   3.301   5.293   2.163
 3187SOL    HW210461   3.414   5.360   2.260
 3188SOL     OW10462   2.179   5.690   4.855
 3188SOL    HW110463   2.202   5.642   4.770
 3188SOL    HW210464   2.238   5.658   4.929
 3189SOL     OW10465   2.132   1.318   0.113
 3189SOL    HW110466   2.057   1.252   0.122
 3189SOL    HW210467   2.127   1.383   0.189
 3190SOL     OW10468   6.610   5.373   6.237
 3190SOL    HW110469   6.710   5.366   6.241
 3190SOL    HW210470   6.584   5.469   6.224
 3191SOL     OW10471   4.522   5.593   1.994
 3191SOL    HW110472   4.493   5.500   2.015
 3191SOL    HW210473   4.600   5.618   2.052
 3192SOL     OW10474   0.046   2.685   0.783
 3192SOL    HW110475   0.010   2.608   0.836
 3192SOL    HW210476   0.049   2.766   0.840
 3193SOL     OW10477   4.114   0.999   5.066
 3193SOL    HW110478   4.082   1.081   5.019
 3193SOL    HW210479   4.174   1.025   5.142
 3194SOL     OW10480   0.859   1.068   5.545
 3194SOL    HW110481   0.851   1.089   5.447
 3194SOL    HW210482   0.879   1.152   5.595
 3195SOL     OW10483   0.624   0.920   1.856
 3195SOL    HW110484   0.646   0.991   1.922
 3195SOL    HW210485   0.587   0.961   1.773
 3196SOL     OW10486   0.074   1.169   6.359
 3196SOL    HW110487   0.099   1.145   6.453
 3196SOL    HW210488   0.109   1.100   6.296
 3197SOL     OW10489   2.391   6.957   5.465
 3197SOL    HW110490   2.413   0.027   5.441
 3197SOL    HW210491   2.470   6.899   5.447
 3198SOL     OW10492   6.115   2.250   3.670
 3198SOL    HW110493   6.124   2.350   3.668
 3198SOL    HW210494   6.117   2.219   3.765
 3199SOL     OW10495   5.737   4.801   3.222
 3199SOL    HW110496   5.648   4.840   3.246
 3199SOL    HW210497   5.778   4.759   3.304
 3200SOL     OW10498   6.092   3.514   2.806
 3200SOL    HW110499   6.058   3.456   2.879
 3200SOL    HW210500   6.188   3.495   2.790
 3201SOL     OW10501   5.762   5.231   3.682
 3201SOL    HW110502   5.853   5.228   3.723
 3201SOL    HW210503   5.768   5.202   3.586
 3202SOL     OW10504   0.992   5.465   1.136
 3202SOL    HW110505   0.950   5.494   1.222
 3202SOL    HW210506   1.091   5.459   1.148
 3203SOL     OW10507   5.161   1.065   1.533
 3203SOL    HW110508   5.203   1.151   1.506
 3203SOL    HW210509   5.101   1.080   1.612
 3204SOL     OW10510   3.101   1.379   3.397
 3204SOL    HW110511   3.052   1.352   3.314
 3204SOL    HW210512   3.196   1.403   3.374
 3205SOL     OW10513   4.772   2.554   5.672
 3205SOL    HW110514   4.797   2.556   5.769
 3205SOL    HW210515   4.767   2.647   5.637
 3206SOL     OW10516   2.826   3.565   1.418
 3206SOL    HW110517   2.886   3.486   1.427
 3206SOL    HW210518   2.774   3.559   1.332
 3207SOL     OW10519   1.386   1.150   6.165
 3207SOL    HW110520   1.346   1.069   6.206
 3207SOL    HW210521   1.333   1.176   6.084
 3208SOL     OW10522   5.964   5.479   6.102
 3208SOL    HW110523   5.936   5.566   6.142
 3208SOL    HW210524   5.884   5.420   6.090
 3209SOL     OW10525   3.403   5.338   4.965
 3209SOL    HW110526   3.310   5.365   4.992
 3209SOL    HW210527   3.411   5.239   4.969
 3210SOL     OW10528   0.876   5.195   1.872
 3210SOL    HW110529   0.813   5.118   1.880
 3210SOL    HW210530   0.969   5.163   1.888
 3211SOL     OW10531   1.786   5.127   0.298
 3211SOL    HW110532   1.753   5.078   0.379
 3211SOL    HW210533   1.866   5.079   0.261
 3212SOL     OW10534   3.137   6.803   2.131
 3212SOL    HW110535   3.180   6.851   2.207
 3212SOL    HW210536   3.173   6.838   2.045
 3213SOL     OW10537   1.742   7.006   6.212
 3213SOL    HW110538   1.644   6.998   6.194
 3213SOL    HW210539   1.787   0.024   6.134
 3214SOL     OW10540   4.636   6.571   2.855
 3214SOL    HW110541   4.609   6.557   2.760
 3214SOL    HW210542   4.572   6.634   2.899
 3215SOL     OW10543   0.930   3.521   0.532
 3215SOL    HW110544   0.957   3.534   0.627
 3215SOL    HW210545   0.830   3.521   0.526
 3216SOL     OW10546   5.599   5.002   0.929
 3216SOL    HW110547   5.619   4.923   0.986
 3216SOL    HW210548   5.629   4.984   0.835
 3217SOL     OW10549   0.387   5.367   2.371
 3217SOL    HW110550   0.329   5.425   2.428
 3217SOL    HW210551   0.332   5.325   2.299
 3218SOL     OW10552   5.630   2.277   3.554
 3218SOL    HW110553   5.540   2.317   3.565
 3218SOL    HW210554   5.674   2.269   3.644
 3219SOL     OW10555   0.008   0.976   4.828
 3219SOL    HW110556   6.982   0.912   4.886
 3219SOL    HW210557   0.057   0.926   4.757
 3220SOL     OW10558   0.981   5.677   6.750
 3220SOL    HW110559   1.037   5.736   6.807
 3220SOL    HW210560   0.958   5.594   6.801
 3221SOL     OW10561   3.576   6.888   2.169
 3221SOL    HW110562   3.663   6.840   2.154
 3221SOL    HW210563   3.591   6.963   2.234
 3222SOL     OW10564   2.950   1.142   1.885
 3222SOL    HW110565   2.908   1.065   1.934
 3222SOL    HW210566   3.041   1.158   1.922
 3223SOL     OW10567   2.530   6.259   0.295
 3223SOL    HW110568   2.617   6.261   0.247
 3223SOL    HW210569   2.507   6.351   0.327
 3224SOL     OW10570   5.284   2.575   5.007
 3224SOL    HW110571   5.238   2.607   5.090
 3224SOL    HW210572   5.342   2.497   5.029
 3225SOL     OW10573   4.355   1.494   5.263
 3225SOL    HW110574   4.414   1.453   5.193
 3225SOL    HW210575   4.270   1.526   5.221
 3226SOL     OW10576   1.856   0.193   1.260
 3226SOL    HW110577   1.758   0.174   1.268
 3226SOL    HW210578   1.872   0.291   1.267
 3227SOL     OW10579   3.378   3.048   6.612
 3227SOL    HW110580   3.435   2.973   6.578
 3227SOL    HW210581   3.301   3.010   6.664
 3228SOL     OW10582   6.989   3.909   0.094
 3228SOL    HW110583   6.915   3.945   0.151
 3228SOL    HW210584   0.047   3.899   0.148
 3229SOL     OW10585   3.456   0.636   5.348
 3229SOL    HW110586   3.362   0.638   5.314
 3229SOL    HW210587   3.487   0.541   5.356
 3230SOL     OW10588   1.614   5.585   5.756
 3230SOL    HW110589   1.674   5.614   5.830
 3230SOL    HW210590   1.584   5.491   5.772
 3231SOL     OW10591   2.454   1.045   2.487
 3231SOL    HW110592   2.416   1.066   2.577
 3231SOL    HW210593   2.520   1.115   2.462
 3232SOL     OW10594   4.225   5.762   3.850
 3232SOL    HW110595   4.225   5.861   3.845
 3232SOL    HW210596   4.140   5.731   3.892
 3233SOL     OW10597   6.648   2.771   0.389
 3233SOL    HW110598   6.722   2.755   0.453
 3233SOL    HW210599   6.685   2.779   0.296
 3234SOL     OW10600   1.850   2.886   0.218
 3234SOL    HW110601   1.799   2.844   0.293
 3234SOL    HW210602   1.916   2.952   0.254
 3235SOL     OW10603   6.498   6.674   2.079
 3235SOL    HW110604   6.582   6.718   2.048
 3235SOL    HW210605   6.512   6.575   2.083
 3236SOL     OW10606   1.385   4.344   0.766
 3236SOL    HW110607   1.460   4.293   0.808
 3236SOL    HW210608   1.345   4.291   0.692
 3237SOL     OW10609   6.277   1.746   3.246
 3237SOL    HW110610   6.217   1.666   3.252
 3237SOL    HW210611   6.231   1.818   3.193
 3238SOL     OW10612   6.079   5.309   6.867
 3238SOL    HW110613   5.994   5.335   6.913
 3238SOL    HW210614   6.065   5.309   6.768
 3239SOL     OW10615   6.677   0.163   3.509
 3239SOL    HW110616   6.637   0.249   3.540
 3239SOL    HW210617   6.727   0.178   3.423
 3240SOL     OW10618   6.834   0.420   5.757
 3240SOL    HW110619   6.753   0.387   5.806
 3240SOL    HW210620   6.849   0.364   5.676
 3241SOL     OW10621   4.843   1.556   6.096
 3241SOL    HW110622   4.749   1.548   6.130
 3241SOL    HW210623   4.852   1.640   6.043
 3242SOL     OW10624   5.120   3.540   5.763
 3242SOL    HW110625   5.084   3.515   5.674
 3242SOL    HW210626   5.045   3.546   5.829
 3243SOL     OW10627   4.586   5.401   0.511
 3243SOL    HW110628   4.670   5.347   0.507
 3243SOL    HW210629   4.583   5.464   0.434
 3244SOL     OW10630   5.882   6.148   6.722
 3244SOL    HW110631   5.844   6.186   6.806
 3244SOL    HW210632   5.970   6.104   6.743
 3245SOL     OW10633   4.848   2.348   4.049
 3245SOL    HW110634   4.935   2.381   4.085
 3245SOL    HW210635   4.788   2.324   4.125
 3246SOL     OW10636   6.458   0.174   3.252
 3246SOL    HW110637   6.494   0.261   3.218
 3246SOL    HW210638   6.533   0.116   3.282
 3247SOL     OW10639   6.692   4.981   2.144
 3247SOL    HW110640   6.669   4.919   2.069
 3247SOL    HW210641   6.631   4.965   2.221
 3248SOL     OW10642   5.478   2.381   2.385
 3248SOL    HW110643   5.568   2.354   2.417
 3248SOL    HW210644   5.409   2.317   2.421
 3249SOL     OW10645   3.298   3.755   3.877
 3249SOL    HW110646   3.269   3.827   3.940
 3249SOL    HW210647   3.394   3.733   3.893
 3250SOL     OW10648   4.934   0.117   3.062
 3250SOL    HW110649   4.915   0.041   3.124
 3250SOL    HW210650   4.884   0.198   3.093
 3251SOL     OW10651   2.660   0.780   4.563
 3251SOL    HW110652   2.645   0.726   4.646
 3251SOL    HW210653   2.753   0.815   4.562
 3252SOL     OW10654   2.713   0.669   2.864
 3252SOL    HW110655   2.680   0.763   2.856
 3252SOL    HW210656   2.659   0.609   2.805
 3253SOL     OW10657   4.485   3.661   0.587
 3253SOL    HW110658   4.434   3.690   0.668
 3253SOL    HW210659   4.449   3.574   0.554
 3254SOL     OW10660   5.268   6.954   5.974
 3254SOL    HW110661   5.178   6.984   6.006
 3254SOL    HW210662   5.258   6.872   5.917
 3255SOL     OW10663   5.584   6.247   1.007
 3255SOL    HW110664   5.628   6.180   0.947
 3255SOL    HW210665   5.490   6.262   0.976
 3256SOL     OW10666   4.039   1.813   1.277
 3256SOL    HW110667   3.951   1.772   1.301
 3256SOL    HW210668   4.055   1.802   1.179
 3257SOL     OW10669   2.558   1.755   2.013
 3257SOL    HW110670   2.563   1.836   2.072
 3257SOL    HW210671   2.645   1.706   2.016
 3258SOL     OW10672   3.453   5.143   3.629
 3258SOL    HW110673   3.427   5.051   3.660
 3258SOL    HW210674   3.402   5.165   3.545
 3259SOL     OW10675   5.118   5.401   4.167
 3259SOL    HW110676   5.161   5.452   4.092
 3259SOL    HW210677   5.094   5.309   4.136
 3260SOL     OW10678   1.509   3.708   1.589
 3260SOL    HW110679   1.446   3.658   1.649
 3260SOL    HW210680   1.599   3.663   1.590
 3261SOL     OW10681   4.533   0.641   2.173
 3261SOL    HW110682   4.622   0.596   2.170
 3261SOL    HW210683   4.519   0.682   2.263
 3262SOL     OW10684   3.881   2.081   2.239
 3262SOL    HW110685   3.852   2.120   2.152
 3262SOL    HW210686   3.849   1.987   2.246
 3263SOL     OW10687   3.369   1.114   3.282
 3263SOL    HW110688   3.335   1.190   3.226
 3263SOL    HW210689   3.311   1.103   3.362
 3264SOL     OW10690   2.228   5.158   1.267
 3264SOL    HW110691   2.150   5.102   1.295
 3264SOL    HW210692   2.211   5.253   1.293
 3265SOL     OW10693   5.614   6.424   6.447
 3265SOL    HW110694   5.676   6.483   6.498
 3265SOL    HW210695   5.635   6.428   6.350
 3266SOL     OW10696   2.882   4.241   6.869
 3266SOL    HW110697   2.907   4.227   6.773
 3266SOL    HW210698   2.915   4.165   6.924
 3267SOL     OW10699   3.007   6.956   1.739
 3267SOL    HW110700   3.019   6.980   1.643
 3267SOL    HW210701   2.933   6.889   1.749
 3268SOL     OW10702   1.488   4.543   0.992
 3268SOL    HW110703   1.568   4.486   0.974
 3268SOL    HW210704   1.446   4.516   1.078
 3269SOL     OW10705   0.161   5.391   1.353
 3269SOL    HW110706   0.101   5.405   1.432
 3269SOL    HW210707   0.248   5.438   1.369
 3270SOL     OW10708   1.660   3.180   6.685
 3270SOL    HW110709   1.675   3.187   6.783
 3270SOL    HW210710   1.729   3.120   6.644
 3271SOL     OW10711   7.006   3.056   1.249
 3271SOL    HW110712   6.935   3.107   1.200
 3271SOL    HW210713   0.024   2.990   1.187
 3272SOL     OW10714   2.820   4.495   6.823
 3272SOL    HW110715   2.911   4.528   6.849
 3272SOL    HW210716   2.814   4.397   6.841
 3273SOL     OW10717   5.874   4.870   6.280
 3273SOL    HW110718   5.839   4.866   6.374
 3273SOL    HW210719   5.973   4.879   6.282
 3274SOL     OW10720   5.910   0.518   1.049
 3274SOL    HW110721   5.929   0.471   1.135
 3274SOL    HW210722   5.914   0.452   0.974
 3275SOL     OW10723   4.791   1.288   0.762
 3275SOL    HW110724   4.745   1.323   0.844
 3275SOL    HW210725   4.733   1.219   0.718
 3276SOL     OW10726   4.495   6.196   7.000
 3276SOL    HW110727   4.481   6.205   6.901
 3276SOL    HW210728   4.498   6.287   0.016
 3277SOL     OW10729   3.564   1.516   0.608
 3277SOL    HW110730   3.555   1.594   0.547
 3277SOL    HW210731   3.660   1.504   0.633
 3278SOL     OW10732   0.446   0.468   5.844
 3278SOL    HW110733   0.480   0.531   5.773
 3278SOL    HW210734   0.382   0.517   5.903
 3279SOL     OW10735   5.155   0.164   1.080
 3279SOL    HW110736   5.184   0.216   1.160
 3279SOL    HW210737   5.057   0.147   1.085
 3280SOL     OW10738   4.761   4.241   4.245
 3280SOL    HW110739   4.801   4.278   4.329
 3280SOL    HW210740   4.794   4.148   4.231
 3281SOL     OW10741   0.673   4.655   1.447
 3281SOL    HW110742   0.648   4.688   1.538
 3281SOL    HW210743   0.766   4.685   1.425
 3282SOL     OW10744   6.645   4.609   4.946
 3282SOL    HW110745   6.561   4.621   4.999
 3282SOL    HW210746   6.714   4.674   4.978
 3283SOL     OW10747   3.923   1.220   1.479
 3283SOL    HW110748   3.913   1.122   1.460
 3283SOL    HW210749   3.962   1.266   1.399
 3284SOL     OW10750   1.542   5.773   5.214
 3284SOL    HW110751   1.638   5.752   5.233
 3284SOL    HW210752   1.488   5.690   5.221
 3285SOL     OW10753   5.723   1.618   4.816
 3285SOL    HW110754   5.708   1.652   4.723
 3285SOL    HW210755   5.811   1.653   4.849
 3286SOL     OW10756   3.278   2.530   1.556
 3286SOL    HW110757   3.337   2.570   1.627
 3286SOL    HW210758   3.192   2.502   1.597
 3287SOL     OW10759   0.573   0.484   0.149
 3287SOL    HW110760   0.529   0.561   0.194
 3287SOL    HW210761   0.511   0.444   0.082
 3288SOL     OW10762   1.843   0.083   7.020
 3288SOL    HW110763   1.832   0.092   6.921
 3288SOL    HW210764   1.935   0.112   0.021
 3289SOL     OW10765   2.846   1.999   6.482
 3289SOL    HW110766   2.766   2.045   6.522
 3289SOL    HW210767   2.869   1.919   6.536
 3290SOL     OW10768   6.896   5.254   1.040
 3290SOL    HW110769   6.850   5.176   0.998
 3290SOL    HW210770   6.987   5.266   0.998
 3291SOL     OW10771   2.785   0.836   5.865
 3291SOL    HW110772   2.864   0.890   5.838
 3291SOL    HW210773   2.814   0.758   5.920
 3292SOL     OW10774   0.371   1.158   0.825
 3292SOL    HW110775   0.462   1.187   0.853
 3292SOL    HW210776   0.304   1.227   0.851
 3293SOL     OW10777   6.373   5.068   1.611
 3293SOL    HW110778   6.406   5.083   1.704
 3293SOL    HW210779   6.435   5.114   1.546
 3294SOL     OW10780   4.940   2.114   5.997
 3294SOL    HW110781   4.985   2.033   5.960
 3294SOL    HW210782   4.862   2.085   6.053
 3295SOL     OW10783   0.921   3.558   1.510
 3295SOL    HW110784   0.983   3.480   1.497
 3295SOL    HW210785   0.973   3.643   1.509
 3296SOL     OW10786   0.555   0.842   4.031
 3296SOL    HW110787   0.480   0.901   4.061
 3296SOL    HW210788   0.519   0.771   3.970
 3297SOL     OW10789   3.084   1.977   5.360
 3297SOL    HW110790   3.180   1.951   5.365
 3297SOL    HW210791   3.063   2.045   5.430
 3298SOL     OW10792   6.698   2.462   5.456
 3298SOL    HW110793   6.708   2.495   5.362
 3298SOL    HW210794   6.641   2.380   5.457
 3299SOL     OW10795   3.999   6.012   2.806
 3299SOL    HW110796   4.043   6.101   2.823
 3299SOL    HW210797   3.901   6.020   2.821
 3300SOL     OW10798   1.295   0.463   5.810
 3300SOL    HW110799   1.202   0.427   5.822
 3300SOL    HW210800   1.320   0.517   5.891
 3301SOL     OW10801   1.692   3.381   3.426
 3301SOL    HW110802   1.680   3.297   3.372
 3301SOL    HW210803   1.640   3.374   3.511
 3302SOL     OW10804   1.244   4.526   5.843
 3302SOL    HW110805   1.207   4.586   5.914
 3302SOL    HW210806   1.336   4.496   5.870
 3303SOL     OW10807   3.212   3.511   0.362
 3303SOL    HW110808   3.280   3.498   0.434
 3303SOL    HW210809   3.164   3.597   0.377
 3304SOL     OW10810   2.196   5.601   6.115
 3304SOL    HW110811   2.228   5.550   6.035
 3304SOL    HW210812   2.252   5.683   6.127
 3305SOL     OW10813   2.952   0.469   1.815
 3305SOL    HW110814   2.907   0.499   1.899
 3305SOL    HW210815   3.051   0.467   1.830
 3306SOL     OW10816   0.937   5.738   5.236
 3306SOL    HW110817   0.935   5.646   5.197
 3306SOL    HW210818   1.019   5.787   5.203
 3307SOL     OW10819   0.723   6.959   5.514
 3307SOL    HW110820   0.635   6.917   5.489
 3307SOL    HW210821   0.797   6.897   5.487
 3308SOL     OW10822   3.550   5.463   1.214
 3308SOL    HW110823   3.640   5.506   1.210
 3308SOL    HW210824   3.560   5.369   1.248
 3309SOL     OW10825   6.347   4.764   4.356
 3309SOL    HW110826   6.409   4.691   4.326
 3309SOL    HW210827   6.266   4.765   4.297
 3310SOL     OW10828   0.699   4.097   4.723
 3310SOL    HW110829   0.600   4.111   4.722
 3310SOL    HW210830   0.720   4.007   4.761
 3311SOL     OW10831   2.891   3.662   0.492
 3311SOL    HW110832   2.800   3.646   0.530
 3311SOL    HW210833   2.959   3.649   0.564
 3312SOL     OW10834   4.008   2.871   5.638
 3312SOL    HW110835   4.060   2.956   5.644
 3312SOL    HW210836   4.070   2.794   5.638
 3313SOL     OW10837   0.925   6.880   3.650
 3313SOL    HW110838   0.955   6.902   3.557
 3313SOL    HW210839   0.827   6.862   3.651
 3314SOL     OW10840   2.913   0.627   2.089
 3314SOL    HW110841   2.848   0.619   2.165
 3314SOL    HW210842   2.898   0.713   2.041
 3315SOL     OW10843   0.695   4.230   4.971
 3315SOL    HW110844   0.707   4.174   4.889
 3315SOL    HW210845   0.665   4.322   4.944
 3316SOL     OW10846   4.129   0.604   5.084
 3316SOL    HW110847   4.178   0.668   5.142
 3316SOL    HW210848   4.030   0.615   5.098
 3317SOL     OW10849   4.984   1.919   2.558
 3317SOL    HW110850   4.939   1.836   2.589
 3317SOL    HW210851   5.032   1.962   2.635
 3318SOL     OW10852   1.355   1.201   6.984
 3318SOL    HW110853   1.412   1.257   6.923
 3318SOL    HW210854   1.278   1.164   6.933
 3319SOL     OW10855   5.813   0.531   3.716
 3319SOL    HW110856   5.801   0.571   3.808
 3319SOL    HW210857   5.866   0.446   3.724
 3320SOL     OW10858   6.289   0.786   0.113
 3320SOL    HW110859   6.337   0.871   0.134
 3320SOL    HW210860   6.258   0.788   0.018
 3321SOL     OW10861   5.968   1.726   0.968
 3321SOL    HW110862   5.979   1.793   1.041
 3321SOL    HW210863   5.969   1.633   1.006
 3322SOL     OW10864   0.160   2.689   1.075
 3322SOL    HW110865   0.139   2.762   1.010
 3322SOL    HW210866   0.242   2.713   1.127
 3323SOL     OW10867   2.593   1.978   0.940
 3323SOL    HW110868   2.600   1.988   0.841
 3323SOL    HW210869   2.565   2.065   0.981
 3324SOL     OW10870   4.550   5.355   5.783
 3324SOL    HW110871   4.620   5.412   5.829
 3324SOL    HW210872   4.572   5.259   5.797
 3325SOL     OW10873   0.144   3.416   6.971
 3325SOL    HW110874   0.211   3.342   6.962
 3325SOL    HW210875   0.126   3.454   6.881
 3326SOL     OW10876   4.565   1.624   1.605
 3326SOL    HW110877   4.591   1.660   1.515
 3326SOL    HW210878   4.520   1.696   1.658
 3327SOL     OW10879   2.474   5.393   1.288
 3327SOL    HW110880   2.386   5.413   1.331
 3327SOL    HW210881   2.534   5.472   1.296
 3328SOL     OW10882   3.621   2.060   1.016
 3328SOL    HW110883   3.545   2.104   1.064
 3328SOL    HW210884   3.707   2.080   1.063
 3329SOL     OW10885   5.831   6.875   5.471
 3329SOL    HW110886   5.872   6.784   5.473
 3329SOL    HW210887   5.864   6.928   5.549
 3330SOL     OW10888   6.199   3.639   1.684
 3330SOL    HW110889   6.210   3.639   1.585
 3330SOL    HW210890   6.223   3.550   1.721
 3331SOL     OW10891   2.502   2.876   1.091
 3331SOL    HW110892   2.472   2.812   1.162
 3331SOL    HW210893   2.589   2.846   1.053
 3332SOL     OW10894   5.928   5.385   0.234
 3332SOL    HW110895   5.873   5.431   0.304
 3332SOL    HW210896   6.003   5.335   0.277
 3333SOL     OW10897   4.458   5.970   6.383
 3333SOL    HW110898   4.538   5.994   6.438
 3333SOL    HW210899   4.421   5.882   6.414
 3334SOL     OW10900   3.587   3.284   1.469
 3334SOL    HW110901   3.625   3.192   1.459
 3334SOL    HW210902   3.650   3.342   1.519
 3335SOL     OW10903   4.685   5.493   5.384
 3335SOL    HW110904   4.650   5.526   5.296
 3335SOL    HW210905   4.616   5.507   5.455
 3336SOL     OW10906   2.991   5.396   5.188
 3336SOL    HW110907   2.957   5.302   5.182
 3336SOL    HW210908   3.042   5.418   5.105
 3337SOL     OW10909   3.142   3.081   1.321
 3337SOL    HW110910   3.152   2.988   1.356
 3337SOL    HW210911   3.215   3.139   1.360
 3338SOL     OW10912   6.253   3.348   1.379
 3338SOL    HW110913   6.163   3.305   1.385
 3338SOL    HW210914   6.247   3.443   1.408
 3339SOL     OW10915   6.851   0.089   6.915
 3339SOL    HW110916   6.889   0.170   6.871
 3339SOL    HW210917   6.777   0.116   6.976
 3340SOL     OW10918   3.564   0.345   1.701
 3340SOL    HW110919   3.493   0.297   1.752
 3340SOL    HW210920   3.628   0.279   1.662
 3341SOL     OW10921   1.759   6.507   3.958
 3341SOL    HW110922   1.666   6.474   3.944
 3341SOL    HW210923   1.803   6.452   4.029
 3342SOL     OW10924   2.208   6.399   4.145
 3342SOL    HW110925   2.275   6.462   4.105
 3342SOL    HW210926   2.226   6.390   4.243
 3343SOL     OW10927   4.905   2.687   0.307
 3343SOL    HW110928   4.917   2.649   0.399
 3343SOL    HW210929   4.971   2.761   0.292
 3344SOL     OW10930   5.534   4.055   4.904
 3344SOL    HW110931   5.453   4.011   4.866
 3344SOL    HW210932   5.522   4.067   5.003
 3345SOL     OW10933   2.351   3.759   5.801
 3345SOL    HW110934   2.383   3.749   5.895
 3345SOL    HW210935   2.428   3.785   5.742
 3346SOL     OW10936   1.539   1.009   1.684
 3346SOL    HW110937   1.520   0.928   1.740
 3346SOL    HW210938   1.600   1.070   1.735
 3347SOL     OW10939   0.684   5.461   3.563
 3347SOL    HW110940   0.617   5.478   3.491
 3347SOL    HW210941   0.665   5.520   3.642
 3348SOL     OW10942   3.229   3.096   3.356
 3348SOL    HW110943   3.155   3.128   3.297
 3348SOL    HW210944   3.212   3.126   3.450
 3349SOL     OW10945   0.819   4.454   4.608
 3349SOL    HW110946   0.842   4.423   4.516
 3349SOL    HW210947   0.721   4.444   4.623
 3350SOL     OW10948   1.366   2.156   6.482
 3350SOL    HW110949   1.310   2.211   6.420
 3350SOL    HW210950   1.456   2.199   6.493
 3351SOL     OW10951   5.068   0.295   2.472
 3351SOL    HW110952   5.134   0.336   2.535
 3351SOL    HW210953   5.038   0.363   2.406
 3352SOL     OW10954   7.014   3.717   0.522
 3352SOL    HW110955   0.052   3.735   0.597
 3352SOL    HW210956   0.037   3.670   0.448
 3353SOL     OW10957   1.290   6.592   1.995
 3353SOL    HW110958   1.381   6.551   2.006
 3353SOL    HW210959   1.300   6.686   1.962
 3354SOL     OW10960   6.417   2.351   4.135
 3354SOL    HW110961   6.389   2.272   4.190
 3354SOL    HW210962   6.443   2.320   4.044
 3355SOL     OW10963   1.220   1.353   0.144
 3355SOL    HW110964   1.292   1.298   0.101
 3355SOL    HW210965   1.241   1.363   0.241
 3356SOL     OW10966   2.055   3.166   0.205
 3356SOL    HW110967   1.990   3.217   0.262
 3356SOL    HW210968   2.073   3.217   0.121
 3357SOL     OW10969   2.464   4.831   1.852
 3357SOL    HW110970   2.526   4.888   1.905
 3357SOL    HW210971   2.505   4.741   1.838
 3358SOL     OW10972   4.486   6.677   1.459
 3358SOL    HW110973   4.586   6.686   1.451
 3358SOL    HW210974   4.444   6.707   1.373
 3359SOL     OW10975   0.062   0.476   4.111
 3359SOL    HW110976   6.998   0.454   4.071
 3359SOL    HW210977   0.132   0.472   4.039
 3360SOL     OW10978   0.337   1.132   1.360
 3360SOL    HW110979   0.417   1.187   1.388
 3360SOL    HW210980   0.367   1.056   1.303
 3361SOL     OW10981   0.221   4.371   2.391
 3361SOL    HW110982   0.292   4.433   2.424
 3361SOL    HW210983   0.253   4.324   2.309
 3362SOL     OW10984   3.720   1.293   4.451
 3362SOL    HW110985   3.703   1.253   4.361
 3362SOL    HW210986   3.757   1.385   4.440
 3363SOL     OW10987   0.434   0.517   6.193
 3363SOL    HW110988   0.421   0.557   6.284
 3363SOL    HW210989   0.382   0.569   6.125
 3364SOL     OW10990   1.337   4.767   4.921
 3364SOL    HW110991   1.416   4.804   4.872
 3364SOL    HW210992   1.363   4.682   4.968
 3365SOL     OW10993   0.420   2.581   5.366
 3365SOL    HW110994   0.320   2.574   5.362
 3365SOL    HW210995   0.460   2.553   5.279
 3366SOL     OW10996   6.344   0.842   5.071
 3366SOL    HW110997   6.346   0.940   5.091
 3366SOL    HW210998   6.315   0.828   4.976
 3367SOL     OW10999   1.900   3.067   1.688
 3367SOL    HW111000   1.972   3.100   1.748
 3367SOL    HW211001   1.939   3.043   1.598
 3368SOL     OW11002   0.097   5.833   0.237
 3368SOL    HW111003   0.012   5.802   0.195
 3368SOL    HW211004   0.164   5.852   0.166
 3369SOL     OW11005   3.526   1.925   5.748
 3369SOL    HW111006   3.507   2.023   5.758
 3369SOL    HW211007   3.439   1.875   5.738
 3370SOL     OW11008   6.518   6.474   5.479
 3370SOL    HW111009   6.567   6.401   5.432
 3370SOL    HW211010   6.544   6.562   5.440
 3371SOL     OW11011   0.607   4.206   2.451
 3371SOL    HW111012   0.679   4.162   2.505
 3371SOL    HW211013   0.595   4.156   2.365
 3372SOL     OW11014   0.943   1.276   2.775
 3372SOL    HW111015   0.951   1.332   2.692
 3372SOL    HW211016   1.035   1.258   2.811
 3373SOL     OW11017   6.652   1.159   3.781
 3373SOL    HW111018   6.704   1.240   3.807
 3373SOL    HW211019   6.605   1.122   3.861
 3374SOL     OW11020   3.121   5.649   4.374
 3374SOL    HW111021   3.180   5.595   4.313
 3374SOL    HW211022   3.178   5.705   4.434
 3375SOL     OW11023   4.250   4.742   4.414
 3375SOL    HW111024   4.159   4.705   4.398
 3375SOL    HW211025   4.255   4.836   4.379
 3376SOL     OW11026   4.158   3.510   2.983
 3376SOL    HW111027   4.160   3.536   3.079
 3376SOL    HW211028   4.251   3.506   2.947
 3377SOL     OW11029   0.233   6.587   4.489
 3377SOL    HW111030   0.280   6.670   4.460
 3377SOL    HW211031   0.256   6.567   4.585
 3378SOL     OW11032   6.640   0.664   1.469
 3378SOL    HW111033   6.577   0.595   1.433
 3378SOL    HW211034   6.698   0.622   1.538
 3379SOL     OW11035   6.822   5.101   6.050
 3379SOL    HW111036   6.877   5.179   6.078
 3379SOL    HW211037   6.866   5.016   6.079
 3380SOL     OW11038   6.053   5.780   5.815
 3380SOL    HW111039   6.101   5.824   5.739
 3380SOL    HW211040   5.972   5.833   5.839
 3381SOL     OW11041   1.905   2.011   0.253
 3381SOL    HW111042   1.946   2.042   0.167
 3381SOL    HW211043   1.962   1.940   0.294
 3382SOL     OW11044   0.900   1.253   0.994
 3382SOL    HW111045   0.961   1.277   0.918
 3382SOL    HW211046   0.824   1.198   0.959
 3383SOL     OW11047   5.499   4.759   2.430
 3383SOL    HW111048   5.530   4.808   2.512
 3383SOL    HW211049   5.464   4.669   2.456
 3384SOL     OW11050   2.861   3.289   5.025
 3384SOL    HW111051   2.861   3.336   5.113
 3384SOL    HW211052   2.768   3.260   5.003
 3385SOL     OW11053   0.475   3.673   3.918
 3385SOL    HW111054   0.553   3.714   3.870
 3385SOL    HW211055   0.404   3.651   3.851
 3386SOL     OW11056   5.969   3.143   5.308
 3386SOL    HW111057   5.883   3.180   5.273
 3386SOL    HW211058   6.025   3.218   5.344
 3387SOL     OW11059   2.211   0.922   2.724
 3387SOL    HW111060   2.270   1.002   2.711
 3387SOL    HW211061   2.265   0.847   2.763
 3388SOL     OW11062   5.790   3.421   0.914
 3388SOL    HW111063   5.872   3.445   0.863
 3388SOL    HW211064   5.814   3.365   0.993
 3389SOL     OW11065   4.331   5.335   4.807
 3389SOL    HW111066   4.249   5.385   4.780
 3389SOL    HW211067   4.413   5.387   4.781
 3390SOL     OW11068   4.672   4.319   5.769
 3390SOL    HW111069   4.686   4.401   5.825
 3390SOL    HW211070   4.719   4.242   5.811
 3391SOL     OW11071   5.763   2.374   4.832
 3391SOL    HW111072   5.738   2.455   4.885
 3391SOL    HW211073   5.710   2.371   4.747
 3392SOL     OW11074   2.775   1.040   3.546
 3392SOL    HW111075   2.814   0.981   3.616
 3392SOL    HW211076   2.676   1.048   3.560
 3393SOL     OW11077   6.615   6.482   0.584
 3393SOL    HW111078   6.660   6.513   0.668
 3393SOL    HW211079   6.519   6.507   0.586
 3394SOL     OW11080   6.111   3.539   1.160
 3394SOL    HW111081   6.059   3.556   1.076
 3394SOL    HW211082   6.166   3.456   1.149
 3395SOL     OW11083   0.039   3.751   3.945
 3395SOL    HW111084   0.057   3.740   3.847
 3395SOL    HW211085   7.011   3.834   3.960
 3396SOL     OW11086   0.432   2.652   3.178
 3396SOL    HW111087   0.499   2.600   3.125
 3396SOL    HW211088   0.411   2.604   3.263
 3397SOL     OW11089   3.093   1.312   5.522
 3397SOL    HW111090   3.014   1.259   5.552
 3397SOL    HW211091   3.064   1.385   5.459
 3398SOL     OW11092   1.210   6.815   4.352
 3398SOL    HW111093   1.181   6.727   4.389
 3398SOL    HW211094   1.254   6.802   4.264
 3399SOL     OW11095   4.832   3.929   4.041
 3399SOL    HW111096   4.845   3.922   4.140
 3399SOL    HW211097   4.781   4.012   4.020
 3400SOL     OW11098   3.937   0.883   5.239
 3400SOL    HW111099   3.977   0.949   5.175
 3400SOL    HW211100   3.910   0.801   5.189
 3401SOL     OW11101   6.807   3.546   0.885
 3401SOL    HW111102   6.811   3.645   0.872
 3401SOL    HW211103   6.900   3.509   0.879
 3402SOL     OW11104   4.743   5.971   0.467
 3402SOL    HW111105   4.668   6.009   0.520
 3402SOL    HW211106   4.803   5.919   0.527
 3403SOL     OW11107   3.498   0.436   4.411
 3403SOL    HW111108   3.580   0.479   4.450
 3403SOL    HW211109   3.524   0.383   4.330
 3404SOL     OW11110   3.817   1.555   0.360
 3404SOL    HW111111   3.795   1.458   0.357
 3404SOL    HW211112   3.880   1.572   0.436
 3405SOL     OW11113   6.511   3.699   4.316
 3405SOL    HW111114   6.521   3.611   4.270
 3405SOL    HW211115   6.417   3.710   4.348
 3406SOL     OW11116   1.173   4.017   1.599
 3406SOL    HW111117   1.214   4.096   1.553
 3406SOL    HW211118   1.132   4.047   1.685
 3407SOL     OW11119   1.617   5.351   0.325
 3407SOL    HW111120   1.538   5.337   0.265
 3407SOL    HW211121   1.691   5.291   0.296
 3408SOL     OW11122   4.767   4.399   4.812
 3408SOL    HW111123   4.729   4.408   4.904
 3408SOL    HW211124   4.831   4.473   4.794
 3409SOL     OW11125   3.573   6.309   5.725
 3409SOL    HW111126   3.512   6.332   5.800
 3409SOL    HW211127   3.630   6.231   5.751
 3410SOL     OW11128   5.866   6.254   0.448
 3410SOL    HW111129   5.900   6.163   0.424
 3410SOL    HW211130   5.796   6.282   0.382
 3411SOL     OW11131   6.952   2.654   1.910
 3411SOL    HW111132   6.947   2.714   1.990
 3411SOL    HW211133   6.982   2.706   1.831
 3412SOL     OW11134   4.503   2.702   6.957
 3412SOL    HW111135   4.442   2.670   6.885
 3412SOL    HW211136   4.490   2.800   6.972
 3413SOL     OW11137   4.808   1.048   2.940
 3413SOL    HW111138   4.839   1.081   3.030
 3413SOL    HW211139   4.710   1.028   2.944
 3414SOL     OW11140   2.488   1.441   5.396
 3414SOL    HW111141   2.567   1.392   5.431
 3414SOL    HW211142   2.482   1.428   5.297
 3415SOL     OW11143   2.270   4.050   4.218
 3415SOL    HW111144   2.289   4.061   4.316
 3415SOL    HW211145   2.228   3.961   4.202
 3416SOL     OW11146   6.792   5.174   6.773
 3416SOL    HW111147   6.703   5.213   6.752
 3416SOL    HW211148   6.780   5.079   6.802
 3417SOL     OW11149   6.322   6.193   3.278
 3417SOL    HW111150   6.350   6.122   3.342
 3417SOL    HW211151   6.231   6.170   3.241
 3418SOL     OW11152   3.928   6.960   4.742
 3418SOL    HW111153   3.994   6.982   4.814
 3418SOL    HW211154   3.953   7.007   4.658
 3419SOL     OW11155   3.167   5.558   5.749
 3419SOL    HW111156   3.100   5.629   5.772
 3419SOL    HW211157   3.140   5.512   5.664
 3420SOL     OW11158   5.210   2.306   3.438
 3420SOL    HW111159   5.111   2.301   3.422
 3420SOL    HW211160   5.248   2.214   3.441
 3421SOL     OW11161   6.345   0.358   6.142
 3421SOL    HW111162   6.374   0.313   6.058
 3421SOL    HW211163   6.424   0.374   6.201
 3422SOL     OW11164   2.192   6.723   1.159
 3422SOL    HW111165   2.159   6.739   1.066
 3422SOL    HW211166   2.288   6.750   1.166
 3423SOL     OW11167   2.202   6.982   0.718
 3423SOL    HW111168   2.222   0.036   0.776
 3423SOL    HW211169   2.279   6.966   0.655
 3424SOL     OW11170   2.834   6.869   2.157
 3424SOL    HW111171   2.827   6.880   2.256
 3424SOL    HW211172   2.930   6.879   2.129
 3425SOL     OW11173   4.810   4.229   1.959
 3425SOL    HW111174   4.740   4.278   2.011
 3425SOL    HW211175   4.794   4.244   1.861
 3426SOL     OW11176   3.435   2.826   6.950
 3426SOL    HW111177   3.520   2.804   6.998
 3426SOL    HW211178   3.422   2.762   6.874
 3427SOL     OW11179   6.514   6.987   6.611
 3427SOL    HW111180   6.604   7.008   6.573
 3427SOL    HW211181   6.520   6.981   6.711
 3428SOL     OW11182   3.852   4.972   1.450
 3428SOL    HW111183   3.906   4.939   1.372
 3428SOL    HW211184   3.801   4.896   1.490
 3429SOL     OW11185   0.345   1.778   0.079
 3429SOL    HW111186   0.406   1.856   0.067
 3429SOL    HW211187   0.344   1.750   0.175
 3430SOL     OW11188   0.385   0.028   5.748
 3430SOL    HW111189   0.481   0.028   5.775
 3430SOL    HW211190   0.347   0.119   5.759
 3431SOL     OW11191   2.010   6.913   1.320
 3431SOL    HW111192   2.050   6.829   1.284
 3431SOL    HW211193   2.022   6.987   1.253
 3432SOL     OW11194   2.734   2.568   6.236
 3432SOL    HW111195   2.677   2.648   6.256
 3432SOL    HW211196   2.801   2.592   6.166
 3433SOL     OW11197   1.536   6.729   6.463
 3433SOL    HW111198   1.559   6.825   6.447
 3433SOL    HW211199   1.459   6.723   6.527
 3434SOL     OW11200   3.472   2.952   0.963
 3434SOL    HW111201   3.532   2.880   0.928
 3434SOL    HW211202   3.397   2.910   1.014
 3435SOL     OW11203   1.329   2.287   1.372
 3435SOL    HW111204   1.388   2.295   1.292
 3435SOL    HW211205   1.312   2.190   1.391
 3436SOL     OW11206   4.267   6.814   5.613
 3436SOL    HW111207   4.176   6.853   5.608
 3436SOL    HW211208   4.324   6.852   5.540
 3437SOL     OW11209   4.535   0.229   6.441
 3437SOL    HW111210   4.593   0.163   6.490
 3437SOL    HW211211   4.523   0.311   6.497
 3438SOL     OW11212   1.256   2.371   6.770
 3438SOL    HW111213   1.260   2.428   6.852
 3438SOL    HW211214   1.201   2.416   6.700
 3439SOL     OW11215   2.077   0.404   6.038
 3439SOL    HW111216   2.008   0.434   6.105
 3439SOL    HW211217   2.032   0.381   5.952
 3440SOL     OW11218   4.601   3.519   1.648
 3440SOL    HW111219   4.501   3.507   1.647
 3440SOL    HW211220   4.644   3.435   1.681
 3441SOL     OW11221   5.156   0.503   3.897
 3441SOL    HW111222   5.119   0.474   3.985
 3441SOL    HW211223   5.253   0.478   3.892
 3442SOL     OW11224   3.045   4.904   2.625
 3442SOL    HW111225   2.997   4.843   2.689
 3442SOL    HW211226   3.144   4.889   2.634
 3443SOL     OW11227   5.425   0.789   2.471
 3443SOL    HW111228   5.443   0.691   2.477
 3443SOL    HW211229   5.372   0.808   2.388
 3444SOL     OW11230   5.329   4.929   0.014
 3444SOL    HW111231   5.298   4.836   7.019
 3444SOL    HW211232   5.381   4.964   6.960
 3445SOL     OW11233   5.932   5.265   4.039
 3445SOL    HW111234   5.985   5.350   4.032
 3445SOL    HW211235   5.868   5.271   4.115
 3446SOL     OW11236   6.359   1.303   3.168
 3446SOL    HW111237   6.365   1.341   3.260
 3446SOL    HW211238   6.278   1.340   3.121
 3447SOL     OW11239   5.634   4.449   0.715
 3447SOL    HW111240   5.704   4.521   0.723
 3447SOL    HW211241   5.664   4.382   0.647
 3448SOL     OW11242   3.214   0.196   0.493
 3448SOL    HW111243   3.249   0.149   0.412
 3448SOL    HW211244   3.115   0.188   0.496
 3449SOL     OW11245   5.896   6.616   3.741
 3449SOL    HW111246   5.888   6.533   3.686
 3449SOL    HW211247   5.845   6.690   3.698
 3450SOL     OW11248   0.646   2.591   0.215
 3450SOL    HW111249   0.599   2.659   0.272
 3450SOL    HW211250   0.651   2.625   0.121
 3451SOL     OW11251   0.473   5.528   3.395
 3451SOL    HW111252   0.439   5.554   3.485
 3451SOL    HW211253   0.403   5.549   3.326
 3452SOL     OW11254   5.465   1.649   0.136
 3452SOL    HW111255   5.554   1.611   0.110
 3452SOL    HW211256   5.472   1.749   0.139
 3453SOL     OW11257   6.752   5.840   5.743
 3453SOL    HW111258   6.711   5.910   5.686
 3453SOL    HW211259   6.761   5.874   5.837
 3454SOL     OW11260   2.392   1.080   5.591
 3454SOL    HW111261   2.338   1.006   5.630
 3454SOL    HW211262   2.416   1.145   5.663
 3455SOL     OW11263   1.884   2.950   4.163
 3455SOL    HW111264   1.786   2.937   4.173
 3455SOL    HW211265   1.923   2.975   4.252
 3456SOL     OW11266   5.225   6.479   2.131
 3456SOL    HW111267   5.182   6.391   2.153
 3456SOL    HW211268   5.276   6.470   2.045
 3457SOL     OW11269   2.446   5.713   4.242
 3457SOL    HW111270   2.420   5.663   4.159
 3457SOL    HW211271   2.527   5.769   4.223
 3458SOL     OW11272   5.386   6.679   0.479
 3458SOL    HW111273   5.407   6.732   0.561
 3458SOL    HW211274   5.442   6.713   0.403
 3459SOL     OW11275   6.108   4.154   2.972
 3459SOL    HW111276   6.062   4.218   3.033
 3459SOL    HW211277   6.110   4.191   2.879
 3460SOL     OW11278   2.944   3.721   0.234
 3460SOL    HW111279   2.869   3.731   0.168
 3460SOL    HW211280   2.906   3.692   0.322
 3461SOL     OW11281   4.264   5.469   4.420
 3461SOL    HW111282   4.348   5.427   4.384
 3461SOL    HW211283   4.254   5.447   4.517
 3462SOL     OW11284   6.545   3.822   2.424
 3462SOL    HW111285   6.537   3.772   2.510
 3462SOL    HW211286   6.609   3.775   2.364
 3463SOL     OW11287   1.228   3.132   2.635
 3463SOL    HW111288   1.267   3.080   2.559
 3463SOL    HW211289   1.276   3.220   2.643
 3464SOL     OW11290   6.490   2.256   6.827
 3464SOL    HW111291   6.515   2.307   6.745
 3464SOL    HW211292   6.435   2.314   6.887
 3465SOL     OW11293   0.480   3.249   1.908
 3465SOL    HW111294   0.490   3.345   1.880
 3465SOL    HW211295   0.539   3.232   1.987
 3466SOL     OW11296   6.606   4.815   5.925
 3466SOL    HW111297   6.670   4.750   5.881
 3466SOL    HW211298   6.516   4.772   5.933
 3467SOL     OW11299   1.905   1.498   0.186
 3467SOL    HW111300   1.937   1.496   0.281
 3467SOL    HW211301   1.899   1.592   0.155
 3468SOL     OW11302   5.408   1.317   3.246
 3468SOL    HW111303   5.506   1.329   3.260
 3468SOL    HW211304   5.371   1.254   3.313
 3469SOL     OW11305   4.447   0.053   4.213
 3469SOL    HW111306   4.497   0.064   4.299
 3469SOL    HW211307   4.358   0.011   4.231
 3470SOL     OW11308   0.718   2.297   2.023
 3470SOL    HW111309   0.765   2.380   2.053
 3470SOL    HW211310   0.782   2.237   1.975
 3471SOL     OW11311   4.712   4.440   3.475
 3471SOL    HW111312   4.801   4.474   3.503
 3471SOL    HW211313   4.645   4.456   3.548
 3472SOL     OW11314   2.688   0.744   1.759
 3472SOL    HW111315   2.598   0.750   1.715
 3472SOL    HW211316   2.756   0.717   1.691
 3473SOL     OW11317   6.315   3.527   2.565
 3473SOL    HW111318   6.364   3.465   2.626
 3473SOL    HW211319   6.229   3.485   2.538
 3474SOL     OW11320   6.989   4.222   2.678
 3474SOL    HW111321   0.060   4.217   2.647
 3474SOL    HW211322   6.971   4.146   2.740
 3475SOL     OW11323   0.928   4.763   4.528
 3475SOL    HW111324   0.973   4.711   4.600
 3475SOL    HW211325   0.854   4.708   4.488
 3476SOL     OW11326   2.344   2.502   2.430
 3476SOL    HW111327   2.344   2.436   2.506
 3476SOL    HW211328   2.407   2.577   2.452
 3477SOL     OW11329   1.612   4.783   0.919
 3477SOL    HW111330   1.557   4.712   0.964
 3477SOL    HW211331   1.551   4.857   0.888
 3478SOL     OW11332   2.725   5.900   6.498
 3478SOL    HW111333   2.666   5.940   6.568
 3478SOL    HW211334   2.681   5.909   6.408
 3479SOL     OW11335   0.447   0.414   2.882
 3479SOL    HW111336   0.484   0.322   2.872
 3479SOL    HW211337   0.348   0.409   2.894
 3480SOL     OW11338   0.211   6.218   5.202
 3480SOL    HW111339   0.223   6.238   5.300
 3480SOL    HW211340   0.115   6.232   5.177
 3481SOL     OW11341   4.773   0.519   0.531
 3481SOL    HW111342   4.674   0.504   0.538
 3481SOL    HW211343   4.795   0.552   0.440
 3482SOL     OW11344   6.210   1.094   2.187
 3482SOL    HW111345   6.278   1.066   2.255
 3482SOL    HW211346   6.230   1.050   2.099
 3483SOL     OW11347   5.321   2.001   2.362
 3483SOL    HW111348   5.414   1.989   2.330
 3483SOL    HW211349   5.261   2.026   2.286
 3484SOL     OW11350   1.237   3.159   0.595
 3484SOL    HW111351   1.188   3.127   0.676
 3484SOL    HW211352   1.230   3.090   0.523
 3485SOL     OW11353   1.910   2.079   4.296
 3485SOL    HW111354   1.818   2.117   4.299
 3485SOL    HW211355   1.927   2.038   4.206
 3486SOL     OW11356   1.882   0.119   3.200
 3486SOL    HW111357   1.959   0.055   3.208
 3486SOL    HW211358   1.888   0.167   3.113
 3487SOL     OW11359   0.235   1.784   0.745
 3487SOL    HW111360   0.252   1.862   0.805
 3487SOL    HW211361   0.204   1.817   0.655
 3488SOL     OW11362   5.584   1.227   5.296
 3488SOL    HW111363   5.573   1.184   5.386
 3488SOL    HW211364   5.655   1.298   5.303
 3489SOL     OW11365   3.629   0.075   1.826
 3489SOL    HW111366   3.645   0.093   1.923
 3489SOL    HW211367   3.713   0.094   1.775
 3490SOL     OW11368   3.840   4.595   1.252
 3490SOL    HW111369   3.893   4.662   1.304
 3490SOL    HW211370   3.787   4.643   1.181
 3491SOL     OW11371   4.433   2.182   6.096
 3491SOL    HW111372   4.497   2.237   6.042
 3491SOL    HW211373   4.428   2.219   6.189
 3492SOL     OW11374   6.290   4.532   0.806
 3492SOL    HW111375   6.195   4.516   0.781
 3492SOL    HW211376   6.311   4.482   0.890
 3493SOL     OW11377   5.077   3.529   3.988
 3493SOL    HW111378   5.084   3.622   4.023
 3493SOL    HW211379   5.089   3.529   3.888
 3494SOL     OW11380   2.536   1.022   1.820
 3494SOL    HW111381   2.559   1.095   1.755
 3494SOL    HW211382   2.612   0.956   1.824
 3495SOL     OW11383   6.581   4.733   2.009
 3495SOL    HW111384   6.490   4.693   1.998
 3495SOL    HW211385   6.629   4.731   1.921
 3496SOL     OW11386   6.123   4.937   1.050
 3496SOL    HW111387   6.158   4.956   0.959
 3496SOL    HW211388   6.073   4.850   1.049
 3497SOL     OW11389   3.008   1.732   3.807
 3497SOL    HW111390   3.015   1.699   3.713
 3497SOL    HW211391   2.921   1.780   3.820
 3498SOL     OW11392   2.803   1.412   1.548
 3498SOL    HW111393   2.872   1.353   1.590
 3498SOL    HW211394   2.717   1.361   1.539
 3499SOL     OW11395   5.552   4.605   4.104
 3499SOL    HW111396   5.527   4.628   4.198
 3499SOL    HW211397   5.622   4.533   4.104
 3500SOL     OW11398   1.883   3.199   2.979
 3500SOL    HW111399   1.847   3.158   2.895
 3500SOL    HW211400   1.808   3.238   3.032
 3501SOL     OW11401   3.334   6.724   6.045
 3501SOL    HW111402   3.349   6.677   6.132
 3501SOL    HW211403   3.252   6.781   6.052
 3502SOL     OW11404   0.027   1.728   1.473
 3502SOL    HW111405   6.973   1.745   1.413
 3502SOL    HW211406   0.078   1.650   1.439
 3503SOL     OW11407   5.990   6.192   4.878
 3503SOL    HW111408   5.994   6.270   4.940
 3503SOL    HW211409   5.939   6.217   4.796
 3504SOL     OW11410   2.498   0.172   1.714
 3504SOL    HW111411   2.444   0.141   1.636
 3504SOL    HW211412   2.549   0.095   1.752
 3505SOL     OW11413   5.207   4.058   5.429
 3505SOL    HW111414   5.175   3.968   5.401
 3505SOL    HW211415   5.178   4.076   5.523
 3506SOL     OW11416   5.404   5.119   5.081
 3506SOL    HW111417   5.458   5.058   5.139
 3506SOL    HW211418   5.435   5.111   4.986
 3507SOL     OW11419   2.950   0.535   0.859
 3507SOL    HW111420   2.995   0.620   0.889
 3507SOL    HW211421   2.859   0.556   0.825
 3508SOL     OW11422   1.907   1.889   5.585
 3508SOL    HW111423   1.993   1.938   5.601
 3508SOL    HW211424   1.836   1.924   5.647
 3509SOL     OW11425   5.888   0.043   0.270
 3509SOL    HW111426   5.846   0.101   0.339
 3509SOL    HW211427   5.869   0.080   0.179
 3510SOL     OW11428   1.277   1.143   2.198
 3510SOL    HW111429   1.203   1.085   2.163
 3510SOL    HW211430   1.281   1.135   2.298
 3511SOL     OW11431   1.900   4.047   1.616
 3511SOL    HW111432   1.961   3.984   1.570
 3511SOL    HW211433   1.806   4.012   1.612
 3512SOL     OW11434   0.138   4.470   0.197
 3512SOL    HW111435   0.169   4.438   0.287
 3512SOL    HW211436   0.122   4.392   0.137
 3513SOL     OW11437   5.952   2.115   0.700
 3513SOL    HW111438   5.877   2.142   0.640
 3513SOL    HW211439   5.916   2.079   0.785
 3514SOL     OW11440   6.856   0.956   1.904
 3514SOL    HW111441   6.872   0.931   1.808
 3514SOL    HW211442   6.878   1.052   1.918
 3515SOL     OW11443   4.479   6.020   2.746
 3515SOL    HW111444   4.493   6.074   2.828
 3515SOL    HW211445   4.559   5.961   2.730
 3516SOL     OW11446   5.084   6.982   0.795
 3516SOL    HW111447   5.094   0.025   0.868
 3516SOL    HW211448   5.121   7.019   0.709
 3517SOL     OW11449   0.728   1.778   1.397
 3517SOL    HW111450   0.783   1.722   1.458
 3517SOL    HW211451   0.645   1.808   1.445
 3518SOL     OW11452   5.094   2.714   5.195
 3518SOL    HW111453   5.124   2.807   5.212
 3518SOL    HW211454   5.050   2.710   5.105
 3519SOL     OW11455   1.320   0.546   5.547
 3519SOL    HW111456   1.307   0.546   5.646
 3519SOL    HW211457   1.232   0.537   5.501
 3520SOL     OW11458   3.380   5.569   6.905
 3520SOL    HW111459   3.361   5.664   6.880
 3520SOL    HW211460   3.458   5.567   6.967
 3521SOL     OW11461   4.688   2.867   0.248
 3521SOL    HW111462   4.767   2.813   0.277
 3521SOL    HW211463   4.611   2.807   0.229
 3522SOL     OW11464   0.364   5.246   0.788
 3522SOL    HW111465   0.423   5.171   0.756
 3522SOL    HW211466   0.369   5.322   0.723
 3523SOL     OW11467   1.687   4.636   5.161
 3523SOL    HW111468   1.607   4.614   5.106
 3523SOL    HW211469   1.751   4.558   5.161
 3524SOL     OW11470   4.436   1.323   1.652
 3524SOL    HW111471   4.518   1.367   1.616
 3524SOL    HW211472   4.427   1.232   1.611
 3525SOL     OW11473   6.610   4.495   3.730
 3525SOL    HW111474   6.576   4.588   3.718
 3525SOL    HW211475   6.534   4.431   3.732
 3526SOL     OW11476   2.102   6.827   3.836
 3526SOL    HW111477   2.044   6.773   3.896
 3526SOL    HW211478   2.151   6.895   3.890
 3527SOL     OW11479   5.687   3.168   6.382
 3527SOL    HW111480   5.720   3.075   6.368
 3527SOL    HW211481   5.677   3.213   6.294
 3528SOL     OW11482   1.184   6.654   5.307
 3528SOL    HW111483   1.161   6.694   5.218
 3528SOL    HW211484   1.276   6.682   5.334
 3529SOL     OW11485   4.049   6.992   0.692
 3529SOL    HW111486   4.023   7.001   0.596
 3529SOL    HW211487   3.971   6.960   0.745
 3530SOL     OW11488   6.418   6.225   1.352
 3530SOL    HW111489   6.370   6.138   1.363
 3530SOL    HW211490   6.406   6.258   1.258
 3531SOL     OW11491   4.899   2.412   1.026
 3531SOL    HW111492   4.908   2.511   1.019
 3531SOL    HW211493   4.874   2.388   1.119
 3532SOL     OW11494   2.633   6.995   1.801
 3532SOL    HW111495   2.565   6.940   1.850
 3532SOL    HW211496   2.720   6.992   1.852
 3533SOL     OW11497   0.863   1.513   2.961
 3533SOL    HW111498   0.913   1.462   2.891
 3533SOL    HW211499   0.824   1.450   3.027
 3534SOL     OW11500   0.526   2.154   1.024
 3534SOL    HW111501   0.577   2.070   1.044
 3534SOL    HW211502   0.499   2.198   1.109
 3535SOL     OW11503   2.196   4.972   6.452
 3535SOL    HW111504   2.096   4.965   6.454
 3535SOL    HW211505   2.235   4.880   6.452
 3536SOL     OW11506   3.251   1.905   2.687
 3536SOL    HW111507   3.190   1.958   2.747
 3536SOL    HW211508   3.275   1.960   2.607
 3537SOL     OW11509   2.646   5.301   2.707
 3537SOL    HW111510   2.700   5.323   2.626
 3537SOL    HW211511   2.678   5.355   2.784
 3538SOL     OW11512   2.352   6.922   5.780
 3538SOL    HW111513   2.260   6.905   5.814
 3538SOL    HW211514   2.350   6.998   5.715
 3539SOL     OW11515   3.280   2.837   5.139
 3539SOL    HW111516   3.344   2.883   5.079
 3539SOL    HW211517   3.212   2.903   5.173
 3540SOL     OW11518   1.689   2.492   4.858
 3540SOL    HW111519   1.762   2.446   4.807
 3540SOL    HW211520   1.668   2.440   4.940
 3541SOL     OW11521   2.194   2.890   6.122
 3541SOL    HW111522   2.199   2.863   6.218
 3541SOL    HW211523   2.239   2.820   6.066
 3542SOL     OW11524   1.286   5.334   3.422
 3542SOL    HW111525   1.313   5.364   3.513
 3542SOL    HW211526   1.367   5.325   3.364
 3543SOL     OW11527   0.553   2.570   5.108
 3543SOL    HW111528   0.605   2.611   5.034
 3543SOL    HW211529   0.497   2.495   5.073
 3544SOL     OW11530   1.663   4.148   5.657
 3544SOL    HW111531   1.712   4.146   5.569
 3544SOL    HW211532   1.568   4.121   5.643
 3545SOL     OW11533   4.224   5.700   0.218
 3545SOL    HW111534   4.136   5.746   0.210
 3545SOL    HW211535   4.295   5.767   0.240
 3546SOL     OW11536   1.671   4.040   3.740
 3546SOL    HW111537   1.728   3.975   3.791
 3546SOL    HW211538   1.718   4.129   3.736
 3547SOL     OW11539   6.766   4.515   3.965
 3547SOL    HW111540   6.740   4.520   3.869
 3547SOL    HW211541   6.850   4.461   3.975
 3548SOL     OW11542   5.821   1.607   5.673
 3548SOL    HW111543   5.861   1.521   5.705
 3548SOL    HW211544   5.855   1.626   5.581
 3549SOL     OW11545   6.399   4.973   5.685
 3549SOL    HW111546   6.327   5.040   5.704
 3549SOL    HW211547   6.473   5.017   5.633
 3550SOL     OW11548   5.723   2.389   2.503
 3550SOL    HW111549   5.757   2.344   2.585
 3550SOL    HW211550   5.801   2.413   2.444
 3551SOL     OW11551   3.647   0.038   2.748
 3551SOL    HW111552   3.645   6.974   2.702
 3551SOL    HW211553   3.718   0.037   2.819
 3552SOL     OW11554   5.464   5.979   1.476
 3552SOL    HW111555   5.369   5.952   1.494
 3552SOL    HW211556   5.465   6.068   1.429
 3553SOL     OW11557   5.627   3.825   1.455
 3553SOL    HW111558   5.566   3.846   1.379
 3553SOL    HW211559   5.574   3.813   1.539
 3554SOL     OW11560   3.959   2.812   1.043
 3554SOL    HW111561   3.913   2.872   0.977
 3554SOL    HW211562   3.935   2.840   1.136
 3555SOL     OW11563   1.198   3.827   3.009
 3555SOL    HW111564   1.129   3.827   3.082
 3555SOL    HW211565   1.247   3.914   3.010
 3556SOL     OW11566   4.419   0.812   3.663
 3556SOL    HW111567   4.424   0.816   3.564
 3556SOL    HW211568   4.369   0.729   3.691
 3557SOL     OW11569   1.057   0.257   4.210
 3557SOL    HW111570   1.144   0.305   4.220
 3557SOL    HW211571   0.986   0.323   4.183
 3558SOL     OW11572   1.006   5.875   0.902
 3558SOL    HW111573   1.074   5.850   0.833
 3558SOL    HW211574   0.958   5.793   0.933
 3559SOL     OW11575   0.495   6.690   4.808
 3559SOL    HW111576   0.592   6.705   4.825
 3559SOL    HW211577   0.449   6.778   4.794
 3560SOL     OW11578   1.559   5.629   1.366
 3560SOL    HW111579   1.631   5.633   1.296
 3560SOL    HW211580   1.503   5.548   1.351
 3561SOL     OW11581   3.963   4.638   5.352
 3561SOL    HW111582   4.022   4.660   5.429
 3561SOL    HW211583   3.900   4.565   5.377
 3562SOL     OW11584   5.642   0.851   4.211
 3562SOL    HW111585   5.583   0.930   4.233
 3562SOL    HW211586   5.589   0.767   4.220
 3563SOL     OW11587   5.866   0.720   0.871
 3563SOL    HW111588   5.950   0.755   0.914
 3563SOL    HW211589   5.834   0.640   0.922
 3564SOL     OW11590   1.596   4.435   4.166
 3564SOL    HW111591   1.641   4.519   4.198
 3564SOL    HW211592   1.662   4.360   4.163
 3565SOL     OW11593   3.897   6.363   5.252
 3565SOL    HW111594   3.821   6.389   5.193
 3565SOL    HW211595   3.963   6.310   5.199
 3566SOL     OW11596   6.723   3.288   6.405
 3566SOL    HW111597   6.810   3.257   6.442
 3566SOL    HW211598   6.719   3.388   6.405
 3567SOL     OW11599   1.183   3.053   0.016
 3567SOL    HW111600   1.123   2.973   0.024
 3567SOL    HW211601   1.276   3.028   0.044
 3568SOL     OW11602   5.192   6.102   3.817
 3568SOL    HW111603   5.118   6.120   3.752
 3568SOL    HW211604   5.187   6.169   3.892
 3569SOL     OW11605   3.172   2.463   6.279
 3569SOL    HW111606   3.211   2.538   6.334
 3569SOL    HW211607   3.156   2.495   6.186
 3570SOL     OW11608   5.229   0.386   4.980
 3570SOL    HW111609   5.199   0.327   4.905
 3570SOL    HW211610   5.231   0.333   5.065
 3571SOL     OW11611   2.147   0.790   4.916
 3571SOL    HW111612   2.165   0.886   4.896
 3571SOL    HW211613   2.228   0.736   4.895
 3572SOL     OW11614   5.362   3.758   2.600
 3572SOL    HW111615   5.400   3.767   2.692
 3572SOL    HW211616   5.346   3.849   2.562
 3573SOL     OW11617   5.962   4.079   2.546
 3573SOL    HW111618   6.021   4.069   2.626
 3573SOL    HW211619   5.966   3.995   2.491
 3574SOL     OW11620   1.208   3.360   0.399
 3574SOL    HW111621   1.229   3.298   0.474
 3574SOL    HW211622   1.135   3.423   0.427
 3575SOL     OW11623   4.828   5.982   1.962
 3575SOL    HW111624   4.813   6.070   1.916
 3575SOL    HW211625   4.923   5.976   1.992
 3576SOL     OW11626   0.684   2.128   0.246
 3576SOL    HW111627   0.656   2.121   0.342
 3576SOL    HW211628   0.643   2.210   0.206
 3577SOL     OW11629   1.931   3.056   6.791
 3577SOL    HW111630   1.970   3.090   6.705
 3577SOL    HW211631   1.906   3.134   6.849
 3578SOL     OW11632   5.119   1.792   1.267
 3578SOL    HW111633   5.189   1.844   1.218
 3578SOL    HW211634   5.063   1.854   1.322
 3579SOL     OW11635   6.809   2.918   2.692
 3579SOL    HW111636   6.781   3.010   2.666
 3579SOL    HW211637   6.907   2.917   2.712
 3580SOL     OW11638   6.005   2.911   6.881
 3580SOL    HW111639   5.943   2.950   6.812
 3580SOL    HW211640   6.076   2.858   6.836
 3581SOL     OW11641   0.345   6.105   2.764
 3581SOL    HW111642   0.385   6.045   2.834
 3581SOL    HW211643   0.389   6.195   2.767
 3582SOL     OW11644   2.142   4.578   5.925
 3582SOL    HW111645   2.199   4.497   5.914
 3582SOL    HW211646   2.050   4.559   5.891
 3583SOL     OW11647   1.403   5.002   0.062
 3583SOL    HW111648   1.462   4.963   0.132
 3583SOL    HW211649   1.344   4.931   0.024
 3584SOL     OW11650   5.469   4.839   5.376
 3584SOL    HW111651   5.533   4.878   5.310
 3584SOL    HW211652   5.519   4.794   5.449
 3585SOL     OW11653   3.306   2.039   4.940
 3585SOL    HW111654   3.256   2.125   4.954
 3585SOL    HW211655   3.242   1.968   4.909
 3586SOL     OW11656   6.994   1.965   5.062
 3586SOL    HW111657   7.008   1.946   5.159
 3586SOL    HW211658   6.898   1.987   5.045
 3587SOL     OW11659   2.673   5.691   6.095
 3587SOL    HW111660   2.680   5.653   6.003
 3587SOL    HW211661   2.715   5.628   6.160
 3588SOL     OW11662   6.627   2.980   4.919
 3588SOL    HW111663   6.712   2.999   4.968
 3588SOL    HW211664   6.567   3.059   4.924
 3589SOL     OW11665   6.004   0.365   6.689
 3589SOL    HW111666   5.945   0.289   6.663
 3589SOL    HW211667   5.952   0.450   6.690
 3590SOL     OW11668   0.211   3.794   0.134
 3590SOL    HW111669   0.205   3.771   0.036
 3590SOL    HW211670   0.260   3.722   0.182
 3591SOL     OW11671   5.706   3.603   0.525
 3591SOL    HW111672   5.732   3.554   0.443
 3591SOL    HW211673   5.785   3.615   0.584
 3592SOL     OW11674   0.577   0.189   3.306
 3592SOL    HW111675   0.591   0.158   3.400
 3592SOL    HW211676   0.482   0.172   3.280
 3593SOL     OW11677   0.729   4.349   5.948
 3593SOL    HW111678   0.815   4.333   5.898
 3593SOL    HW211679   0.699   4.443   5.932
 3594SOL     OW11680   4.987   0.451   4.120
 3594SOL    HW111681   5.012   0.487   4.210
 3594SOL    HW211682   4.942   0.523   4.067
 3595SOL     OW11683   5.172   5.789   6.411
 3595SOL    HW111684   5.093   5.736   6.381
 3595SOL    HW211685   5.156   5.886   6.394
 3596SOL     OW11686   4.912   2.881   3.748
 3596SOL    HW111687   4.915   2.980   3.760
 3596SOL    HW211688   4.818   2.853   3.728
 3597SOL     OW11689   1.945   2.908   5.133
 3597SOL    HW111690   1.945   2.853   5.050
 3597SOL    HW211691   2.015   2.872   5.196
 3598SOL     OW11692   1.941   6.416   5.470
 3598SOL    HW111693   1.935   6.472   5.387
 3598SOL    HW211694   1.865   6.350   5.471
 3599SOL     OW11695   4.281   1.943   0.231
 3599SOL    HW111696   4.268   1.938   0.132
 3599SOL    HW211697   4.353   2.009   0.252
 3600SOL     OW11698   0.397   3.580   2.059
 3600SOL    HW111699   0.383   3.491   2.103
 3600SOL    HW211700   0.426   3.567   1.964
 3601SOL     OW11701   5.343   2.532   5.951
 3601SOL    HW111702   5.286   2.615   5.951
 3601SOL    HW211703   5.296   2.460   5.898
 3602SOL     OW11704   1.377   3.599   0.902
 3602SOL    HW111705   1.372   3.674   0.967
 3602SOL    HW211706   1.325   3.521   0.937
 3603SOL     OW11707   3.653   0.996   4.788
 3603SOL    HW111708   3.741   0.963   4.825
 3603SOL    HW211709   3.578   0.948   4.833
 3604SOL     OW11710   6.802   0.540   4.301
 3604SOL    HW111711   6.738   0.608   4.340
 3604SOL    HW211712   6.836   0.481   4.375
 3605SOL     OW11713   1.240   4.448   3.848
 3605SOL    HW111714   1.204   4.529   3.895
 3605SOL    HW211715   1.199   4.366   3.888
 3606SOL     OW11716   0.776   6.521   3.286
 3606SOL    HW111717   0.763   6.535   3.188
 3606SOL    HW211718   0.732   6.435   3.313
 3607SOL     OW11719   5.600   3.590   1.893
 3607SOL    HW111720   5.655   3.651   1.950
 3607SOL    HW211721   5.508   3.582   1.933
 3608SOL     OW11722   4.985   1.400   4.353
 3608SOL    HW111723   5.008   1.310   4.390
 3608SOL    HW211724   5.061   1.463   4.367
 3609SOL     OW11725   2.278   0.289   4.314
 3609SOL    HW111726   2.179   0.287   4.326
 3609SOL    HW211727   2.323   0.260   4.398
 3610SOL     OW11728   1.386   0.816   5.499
 3610SOL    HW111729   1.470   0.839   5.550
 3610SOL    HW211730   1.350   0.729   5.532
 3611SOL     OW11731   4.089   4.811   3.967
 3611SOL    HW111732   4.062   4.807   3.871
 3611SOL    HW211733   4.179   4.769   3.978
 3612SOL     OW11734   0.030   1.271   0.079
 3612SOL    HW111735   6.965   1.314   0.070
 3612SOL    HW211736   0.026   1.202   0.151
 3613SOL     OW11737   4.508   4.788   1.885
 3613SOL    HW111738   4.491   4.854   1.959
 3613SOL    HW211739   4.420   4.756   1.849
 3614SOL     OW11740   3.050   3.945   0.183
 3614SOL    HW111741   3.094   3.961   0.271
 3614SOL    HW211742   2.995   3.862   0.187
 3615SOL     OW11743   5.723   2.365   6.320
 3615SOL    HW111744   5.687   2.454   6.348
 3615SOL    HW211745   5.665   2.328   6.247
 3616SOL     OW11746   1.187   0.599   6.272
 3616SOL    HW111747   1.258   0.538   6.308
 3616SOL    HW211748   1.202   0.613   6.174
 3617SOL     OW11749   4.530   0.524   5.937
 3617SOL    HW111750   4.535   0.513   5.837
 3617SOL    HW211751   4.469   0.600   5.959
 3618SOL     OW11752   2.750   3.394   5.491
 3618SOL    HW111753   2.662   3.411   5.534
 3618SOL    HW211754   2.745   3.312   5.435
 3619SOL     OW11755   5.548   3.626   6.857
 3619SOL    HW111756   5.498   3.558   6.802
 3619SOL    HW211757   5.534   3.607   6.954
 3620SOL     OW11758   5.965   5.291   5.686
 3620SOL    HW111759   5.948   5.359   5.758
 3620SOL    HW211760   5.879   5.249   5.657
 3621SOL     OW11761   3.347   3.837   4.533
 3621SOL    HW111762   3.300   3.923   4.512
 3621SOL    HW211763   3.282   3.761   4.523
 3622SOL     OW11764   1.870   0.707   0.244
 3622SOL    HW111765   1.789   0.650   0.236
 3622SOL    HW211766   1.849   0.799   0.210
 3623SOL     OW11767   0.151   5.556   4.947
 3623SOL    HW111768   0.250   5.556   4.962
 3623SOL    HW211769   0.112   5.471   4.982
 3624SOL     OW11770   1.485   6.938   2.544
 3624SOL    HW111771   1.537   6.926   2.460
 3624SOL    HW211772   1.435   6.854   2.565
 3625SOL     OW11773   0.221   3.772   6.117
 3625SOL    HW111774   0.253   3.686   6.158
 3625SOL    HW211775   0.123   3.783   6.137
 3626SOL     OW11776   0.483   2.961   3.860
 3626SOL    HW111777   0.572   2.960   3.815
 3626SOL    HW211778   0.496   2.981   3.957
 3627SOL     OW11779   4.754   3.302   1.745
 3627SOL    HW111780   4.851   3.279   1.739
 3627SOL    HW211781   4.701   3.219   1.764
 3628SOL     OW11782   1.454   1.205   1.978
 3628SOL    HW111783   1.503   1.142   1.919
 3628SOL    HW211784   1.406   1.153   2.050
 3629SOL     OW11785   1.134   0.438   4.507
 3629SOL    HW111786   1.210   0.457   4.445
 3629SOL    HW211787   1.165   0.378   4.581
 3630SOL     OW11788   6.479   2.834   3.908
 3630SOL    HW111789   6.430   2.844   3.995
 3630SOL    HW211790   6.477   2.921   3.859
 3631SOL     OW11791   1.459   6.682   3.631
 3631SOL    HW111792   1.518   6.697   3.711
 3631SOL    HW211793   1.494   6.736   3.554
 3632SOL     OW11794   4.474   4.499   0.089
 3632SOL    HW111795   4.497   4.520   7.019
 3632SOL    HW211796   4.543   4.437   0.127
 3633SOL     OW11797   4.237   2.648   5.694
 3633SOL    HW111798   4.316   2.702   5.665
 3633SOL    HW211799   4.235   2.644   5.794
 3634SOL     OW11800   2.037   6.437   6.233
 3634SOL    HW111801   2.120   6.471   6.276
 3634SOL    HW211802   1.957   6.482   6.273
 3635SOL     OW11803   2.245   1.093   0.838
 3635SOL    HW111804   2.195   1.116   0.754
 3635SOL    HW211805   2.246   0.993   0.849
 3636SOL     OW11806   6.870   6.098   1.156
 3636SOL    HW111807   6.813   6.036   1.208
 3636SOL    HW211808   6.860   6.079   1.058
 3637SOL     OW11809   0.880   2.594   1.107
 3637SOL    HW111810   0.799   2.579   1.164
 3637SOL    HW211811   0.955   2.537   1.139
 3638SOL     OW11812   6.509   4.165   2.769
 3638SOL    HW111813   6.573   4.149   2.694
 3638SOL    HW211814   6.485   4.262   2.772
 3639SOL     OW11815   3.750   4.811   6.419
 3639SOL    HW111816   3.721   4.727   6.466
 3639SOL    HW211817   3.718   4.808   6.324
 3640SOL     OW11818   5.265   1.850   0.801
 3640SOL    HW111819   5.225   1.940   0.820
 3640SOL    HW211820   5.237   1.785   0.871
 3641SOL     OW11821   5.257   4.236   1.227
 3641SOL    HW111822   5.313   4.317   1.241
 3641SOL    HW211823   5.182   4.235   1.293
 3642SOL     OW11824   4.874   2.478   6.766
 3642SOL    HW111825   4.934   2.440   6.836
 3642SOL    HW211826   4.819   2.404   6.727
 3643SOL     OW11827   4.318   6.594   6.118
 3643SOL    HW111828   4.289   6.659   6.047
 3643SOL    HW211829   4.316   6.639   6.207
 3644SOL     OW11830   2.798   0.457   1.395
 3644SOL    HW111831   2.815   0.511   1.313
 3644SOL    HW211832   2.714   0.404   1.384
 3645SOL     OW11833   1.380   3.839   4.352
 3645SOL    HW111834   1.312   3.838   4.426
 3645SOL    HW211835   1.441   3.760   4.362
 3646SOL     OW11836   1.594   4.776   4.805
 3646SOL    HW111837   1.609   4.723   4.722
 3646SOL    HW211838   1.682   4.801   4.845
 3647SOL     OW11839   2.575   5.964   6.711
 3647SOL    HW111840   2.615   5.907   6.783
 3647SOL    HW211841   2.600   6.059   6.726
 3648SOL     OW11842   5.008   6.219   3.087
 3648SOL    HW111843   4.946   6.291   3.120
 3648SOL    HW211844   4.959   6.161   3.022
 3649SOL     OW11845   6.714   3.927   0.234
 3649SOL    HW111846   6.756   3.959   0.319
 3649SOL    HW211847   6.668   4.004   0.189
 3650SOL     OW11848   6.153   4.040   0.621
 3650SOL    HW111849   6.183   4.096   0.545
 3650SOL    HW211850   6.192   3.948   0.613
 3651SOL     OW11851   1.887   1.460   4.426
 3651SOL    HW111852   1.900   1.515   4.343
 3651SOL    HW211853   1.880   1.520   4.505
 3652SOL     OW11854   5.555   0.066   2.785
 3652SOL    HW111855   5.648   0.098   2.765
 3652SOL    HW211856   5.554   6.991   2.785
 3653SOL     OW11857   1.452   0.858   3.366
 3653SOL    HW111858   1.418   0.778   3.318
 3653SOL    HW211859   1.474   0.833   3.461
 3654SOL     OW11860   4.930   6.302   0.691
 3654SOL    HW111861   4.926   6.263   0.599
 3654SOL    HW211862   5.026   6.318   0.716
 3655SOL     OW11863   3.028   1.202   4.060
 3655SOL    HW111864   3.063   1.143   4.132
 3655SOL    HW211865   3.026   1.297   4.092
 3656SOL     OW11866   1.233   5.239   1.546
 3656SOL    HW111867   1.273   5.239   1.637
 3656SOL    HW211868   1.134   5.251   1.553
 3657SOL     OW11869   4.769   5.871   5.443
 3657SOL    HW111870   4.796   5.967   5.447
 3657SOL    HW211871   4.677   5.864   5.403
 3658SOL     OW11872   1.935   4.873   6.486
 3658SOL    HW111873   1.902   4.823   6.566
 3658SOL    HW211874   1.928   4.815   6.404
 3659SOL     OW11875   0.375   1.901   6.652
 3659SOL    HW111876   0.468   1.924   6.623
 3659SOL    HW211877   0.322   1.872   6.573
 3660SOL     OW11878   6.264   6.074   4.934
 3660SOL    HW111879   6.317   6.017   4.871
 3660SOL    HW211880   6.192   6.122   4.883
 3661SOL     OW11881   0.418   0.629   4.677
 3661SOL    HW111882   0.347   0.580   4.627
 3661SOL    HW211883   0.458   0.569   4.746
 3662SOL     OW11884   3.704   0.701   4.424
 3662SOL    HW111885   3.770   0.652   4.367
 3662SOL    HW211886   3.746   0.785   4.459
 3663SOL     OW11887   2.154   2.921   0.130
 3663SOL    HW111888   2.084   2.863   0.089
 3663SOL    HW211889   2.122   3.015   0.132
 3664SOL     OW11890   3.770   1.456   2.027
 3664SOL    HW111891   3.691   1.512   2.005
 3664SOL    HW211892   3.831   1.452   1.948
 3665SOL     OW11893   0.726   5.987   5.913
 3665SOL    HW111894   0.659   5.982   5.839
 3665SOL    HW211895   0.780   5.902   5.915
 3666SOL     OW11896   1.206   2.982   2.864
 3666SOL    HW111897   1.203   3.028   2.775
 3666SOL    HW211898   1.264   3.035   2.926
 3667SOL     OW11899   0.819   1.063   4.000
 3667SOL    HW111900   0.786   1.157   4.012
 3667SOL    HW211901   0.750   1.009   3.953
 3668SOL     OW11902   1.200   0.744   0.872
 3668SOL    HW111903   1.166   0.662   0.918
 3668SOL    HW211904   1.149   0.824   0.906
 3669SOL     OW11905   5.710   1.657   3.997
 3669SOL    HW111906   5.670   1.583   4.052
 3669SOL    HW211907   5.699   1.636   3.900
 3670SOL     OW11908   3.090   5.171   1.077
 3670SOL    HW111909   3.135   5.082   1.076
 3670SOL    HW211910   3.133   5.231   1.010
 3671SOL     OW11911   6.712   1.538   3.008
 3671SOL    HW111912   6.700   1.444   3.040
 3671SOL    HW211913   6.656   1.552   2.926
 3672SOL     OW11914   4.684   1.476   2.803
 3672SOL    HW111915   4.694   1.552   2.739
 3672SOL    HW211916   4.616   1.412   2.767
 3673SOL     OW11917   4.015   5.565   6.908
 3673SOL    HW111918   4.049   5.523   6.992
 3673SOL    HW211919   4.087   5.564   6.839
 3674SOL     OW11920   1.198   5.966   5.580
 3674SOL    HW111921   1.208   5.874   5.618
 3674SOL    HW211922   1.289   6.004   5.559
 3675SOL     OW11923   0.046   2.666   3.391
 3675SOL    HW111924   0.026   2.757   3.427
 3675SOL    HW211925   7.007   2.600   3.432
 3676SOL     OW11926   5.774   2.624   2.815
 3676SOL    HW111927   5.706   2.654   2.747
 3676SOL    HW211928   5.733   2.556   2.875
 3677SOL     OW11929   2.184   1.171   5.179
 3677SOL    HW111930   2.128   1.101   5.225
 3677SOL    HW211931   2.221   1.133   5.095
 3678SOL     OW11932   1.394   1.828   4.264
 3678SOL    HW111933   1.466   1.759   4.259
 3678SOL    HW211934   1.305   1.785   4.248
 3679SOL     OW11935   6.854   0.428   3.997
 3679SOL    HW111936   6.792   0.506   4.009
 3679SOL    HW211937   6.825   0.353   4.056
 3680SOL     OW11938   4.178   2.270   4.159
 3680SOL    HW111939   4.101   2.262   4.096
 3680SOL    HW211940   4.220   2.181   4.172
 3681SOL     OW11941   0.694   1.255   6.175
 3681SOL    HW111942   0.749   1.320   6.227
 3681SOL    HW211943   0.608   1.237   6.222
 3682SOL     OW11944   5.605   2.102   0.649
 3682SOL    HW111945   5.628   2.023   0.705
 3682SOL    HW211946   5.611   2.185   0.705
 3683SOL     OW11947   0.807   1.085   4.758
 3683SOL    HW111948   0.813   1.165   4.818
 3683SOL    HW211949   0.822   1.113   4.663
 3684SOL     OW11950   1.746   5.976   0.171
 3684SOL    HW111951   1.777   6.048   0.108
 3684SOL    HW211952   1.757   5.887   0.127
 3685SOL     OW11953   2.521   6.259   5.300
 3685SOL    HW111954   2.503   6.268   5.202
 3685SOL    HW211955   2.601   6.201   5.315
 3686SOL     OW11956   6.499   4.483   4.012
 3686SOL    HW111957   6.593   4.510   3.994
 3686SOL    HW211958   6.488   4.385   3.995
 3687SOL     OW11959   5.108   6.779   3.394
 3687SOL    HW111960   5.186   6.827   3.434
 3687SOL    HW211961   5.141   6.708   3.332
 3688SOL     OW11962   5.926   3.182   0.010
 3688SOL    HW111963   6.016   3.205   0.049
 3688SOL    HW211964   5.868   3.263   0.010
 3689SOL     OW11965   2.141   2.080   5.633
 3689SOL    HW111966   2.063   2.134   5.666
 3689SOL    HW211967   2.204   2.139   5.584
 3690SOL     OW11968   4.792   5.826   0.884
 3690SOL    HW111969   4.807   5.819   0.785
 3690SOL    HW211970   4.715   5.768   0.911
 3691SOL     OW11971   2.714   2.338   6.047
 3691SOL    HW111972   2.674   2.397   6.117
 3691SOL    HW211973   2.737   2.249   6.087
 3692SOL     OW11974   6.437   4.494   5.830
 3692SOL    HW111975   6.411   4.562   5.899
 3692SOL    HW211976   6.509   4.531   5.772
 3693SOL     OW11977   2.044   1.710   2.430
 3693SOL    HW111978   2.041   1.803   2.393
 3693SOL    HW211979   2.069   1.715   2.527
 3694SOL     OW11980   1.143   0.272   1.643
 3694SOL    HW111981   1.141   0.204   1.569
 3694SOL    HW211982   1.140   0.364   1.605
 3695SOL     OW11983   6.251   1.916   1.587
 3695SOL    HW111984   6.236   1.922   1.686
 3695SOL    HW211985   6.340   1.874   1.569
 3696SOL     OW11986   5.033   0.392   5.496
 3696SOL    HW111987   4.940   0.359   5.476
 3696SOL    HW211988   5.075   0.333   5.565
 3697SOL     OW11989   6.479   6.321   3.054
 3697SOL    HW111990   6.489   6.312   2.955
 3697SOL    HW211991   6.407   6.260   3.086
 3698SOL     OW11992   2.377   1.435   3.762
 3698SOL    HW111993   2.462   1.464   3.805
 3698SOL    HW211994   2.317   1.394   3.831
 3699SOL     OW11995   2.360   2.158   3.366
 3699SOL    HW111996   2.387   2.188   3.275
 3699SOL    HW211997   2.373   2.232   3.431
 3700SOL     OW11998   1.507   5.469   4.914
 3700SOL    HW111999   1.514   5.566   4.891
 3700SOL    HW212000   1.442   5.424   4.852
 3701SOL     OW12001   0.607   6.445   2.581
 3701SOL    HW112002   0.594   6.544   2.591
 3701SOL    HW212003   0.691   6.428   2.530
 3702SOL     OW12004   5.394   6.562   3.578
 3702SOL    HW112005   5.369   6.466   3.565
 3702SOL    HW212006   5.468   6.585   3.515
 3703SOL     OW12007   0.439   0.781   6.316
 3703SOL    HW112008   0.469   0.825   6.231
 3703SOL    HW212009   0.519   0.753   6.369
 3704SOL     OW12010   5.561   3.445   0.673
 3704SOL    HW112011   5.610   3.434   0.760
 3704SOL    HW212012   5.617   3.498   0.610
 3705SOL     OW12013   4.600   4.816   3.542
 3705SOL    HW112014   4.695   4.809   3.512
 3705SOL    HW212015   4.539   4.788   3.468
 3706SOL     OW12016   0.962   3.908   6.817
 3706SOL    HW112017   0.891   3.971   6.785
 3706SOL    HW212018   0.972   3.917   6.916
 3707SOL     OW12019   3.974   5.482   3.615
 3707SOL    HW112020   3.911   5.441   3.681
 3707SOL    HW212021   3.935   5.567   3.580
 3708SOL     OW12022   4.567   0.173   1.064
 3708SOL    HW112023   4.614   0.150   0.979
 3708SOL    HW212024   4.470   0.152   1.056
 3709SOL     OW12025   1.782   6.925   1.504
 3709SOL    HW112026   1.791   7.020   1.536
 3709SOL    HW212027   1.842   6.912   1.425
 3710SOL     OW12028   0.734   5.644   5.419
 3710SOL    HW112029   0.717   5.648   5.321
 3710SOL    HW212030   0.829   5.670   5.438
 3711SOL     OW12031   1.533   6.007   4.769
 3711SOL    HW112032   1.600   5.954   4.819
 3711SOL    HW212033   1.533   5.979   4.673
 3712SOL     OW12034   1.990   5.896   6.424
 3712SOL    HW112035   1.990   5.799   6.446
 3712SOL    HW212036   1.970   5.909   6.327
 3713SOL     OW12037   0.551   6.780   5.159
 3713SOL    HW112038   0.499   6.711   5.109
 3713SOL    HW212039   0.500   6.866   5.159
 3714SOL     OW12040   0.429   5.117   0.119
 3714SOL    HW112041   0.523   5.148   0.130
 3714SOL    HW212042   0.424   5.019   0.141
 3715SOL     OW12043   0.533   5.274   3.187
 3715SOL    HW112044   0.484   5.187   3.185
 3715SOL    HW212045   0.487   5.337   3.250
 3716SOL     OW12046   5.787   5.315   4.258
 3716SOL    HW112047   5.705   5.367   4.280
 3716SOL    HW212048   5.858   5.334   4.327
 3717SOL     OW12049   5.698   1.537   0.303
 3717SOL    HW112050   5.759   1.592   0.359
 3717SOL    HW212051   5.607   1.533   0.346
 3718SOL     OW12052   0.343   0.100   6.958
 3718SOL    HW112053   0.393   0.048   6.888
 3718SOL    HW212054   0.259   0.052   6.981
 3719SOL     OW12055   4.460   3.201   6.462
 3719SOL    HW112056   4.503   3.118   6.499
 3719SOL    HW212057   4.502   3.223   6.374
 3720SOL     OW12058   5.378   3.703   0.809
 3720SOL    HW112059   5.388   3.764   0.887
 3720SOL    HW212060   5.466   3.660   0.788
 3721SOL     OW12061   6.898   4.931   0.350
 3721SOL    HW112062   6.913   4.832   0.347
 3721SOL    HW212063   6.828   4.952   0.418
 3722SOL     OW12064   5.345   7.022   1.355
 3722SOL    HW112065   5.378   0.087   1.385
 3722SOL    HW212066   5.353   7.015   1.256
 3723SOL     OW12067   4.717   5.292   0.044
 3723SOL    HW112068   4.640   5.249   0.092
 3723SOL    HW212069   4.693   5.387   0.023
 3724SOL     OW12070   1.862   4.996   5.403
 3724SOL    HW112071   1.788   4.930   5.406
 3724SOL    HW212072   1.830   5.084   5.440
 3725SOL     OW12073   0.589   6.364   6.933
 3725SOL    HW112074   0.539   6.450   6.938
 3725SOL    HW212075   0.550   6.308   6.859
 3726SOL     OW12076   5.573   3.376   5.738
 3726SOL    HW112077   5.621   3.455   5.777
 3726SOL    HW212078   5.494   3.408   5.686
 3727SOL     OW12079   6.546   2.949   4.451
 3727SOL    HW112080   6.447   2.963   4.450
 3727SOL    HW212081   6.585   2.970   4.361
 3728SOL     OW12082   2.335   3.965   6.773
 3728SOL    HW112083   2.415   3.905   6.767
 3728SOL    HW212084   2.296   3.977   6.682
 3729SOL     OW12085   0.926   0.489   4.121
 3729SOL    HW112086   0.878   0.489   4.033
 3729SOL    HW212087   0.948   0.583   4.147
 3730SOL     OW12088   4.228   6.302   5.469
 3730SOL    HW112089   4.229   6.221   5.527
 3730SOL    HW212090   4.308   6.359   5.489
 3731SOL     OW12091   0.652   1.766   0.309
 3731SOL    HW112092   0.552   1.774   0.300
 3731SOL    HW212093   0.676   1.754   0.405
 3732SOL     OW12094   1.885   1.504   0.807
 3732SOL    HW112095   1.871   1.591   0.853
 3732SOL    HW212096   1.809   1.487   0.743
 3733SOL     OW12097   2.146   2.760   3.830
 3733SOL    HW112098   2.062   2.748   3.882
 3733SOL    HW212099   2.137   2.716   3.741
 3734SOL     OW12100   3.830   0.572   1.860
 3734SOL    HW112101   3.899   0.522   1.808
 3734SOL    HW212102   3.755   0.598   1.799
 3735SOL     OW12103   3.930   0.551   2.593
 3735SOL    HW112104   3.929   0.474   2.529
 3735SOL    HW212105   3.837   0.586   2.604
 3736SOL     OW12106   6.696   1.252   1.369
 3736SOL    HW112107   6.621   1.227   1.308
 3736SOL    HW212108   6.777   1.274   1.314
 3737SOL     OW12109   6.179   2.391   4.017
 3737SOL    HW112110   6.151   2.297   3.998
 3737SOL    HW212111   6.254   2.390   4.083
 3738SOL     OW12112   6.472   5.799   1.164
 3738SOL    HW112113   6.474   5.775   1.067
 3738SOL    HW212114   6.519   5.729   1.217
 3739SOL     OW12115   2.971   4.690   1.601
 3739SOL    HW112116   3.058   4.735   1.580
 3739SOL    HW212117   2.982   4.631   1.681
 3740SOL     OW12118   5.976   6.004   0.351
 3740SOL    HW112119   6.064   5.963   0.330
 3740SOL    HW212120   5.906   5.933   0.357
 3741SOL     OW12121   4.301   3.406   6.594
 3741SOL    HW112122   4.353   3.336   6.544
 3741SOL    HW212123   4.207   3.374   6.606
 3742SOL     OW12124   4.430   6.859   0.499
 3742SOL    HW112125   4.384   6.804   0.569
 3742SOL    HW212126   4.529   6.852   0.510
 3743SOL     OW12127   4.681   4.693   1.620
 3743SOL    HW112128   4.768   4.658   1.655
 3743SOL    HW212129   4.613   4.620   1.622
 3744SOL     OW12130   0.542   6.317   2.806
 3744SOL    HW112131   0.562   6.359   2.717
 3744SOL    HW212132   0.625   6.273   2.842
 3745SOL     OW12133   4.919   3.997   2.331
 3745SOL    HW112134   4.871   3.934   2.271
 3745SOL    HW212135   5.015   4.005   2.302
 3746SOL     OW12136   6.607   0.609   3.165
 3746SOL    HW112137   6.597   0.703   3.132
 3746SOL    HW212138   6.517   0.567   3.177
 3747SOL     OW12139   5.155   6.426   5.333
 3747SOL    HW112140   5.119   6.393   5.246
 3747SOL    HW212141   5.253   6.408   5.338
 3748SOL     OW12142   5.178   0.557   2.367
 3748SOL    HW112143   5.236   0.518   2.439
 3748SOL    HW212144   5.120   0.629   2.405
 3749SOL     OW12145   1.626   5.002   3.186
 3749SOL    HW112146   1.680   4.950   3.252
 3749SOL    HW212147   1.602   4.944   3.109
 3750SOL     OW12148   5.821   3.875   0.807
 3750SOL    HW112149   5.880   3.926   0.869
 3750SOL    HW212150   5.876   3.811   0.752
 3751SOL     OW12151   0.376   2.359   0.871
 3751SOL    HW112152   0.437   2.438   0.876
 3751SOL    HW212153   0.368   2.329   0.776
 3752SOL     OW12154   0.544   6.911   0.299
 3752SOL    HW112155   0.551   7.000   0.255
 3752SOL    HW212156   0.491   6.849   0.241
 3753SOL     OW12157   0.371   6.984   4.748
 3753SOL    HW112158   0.346   6.980   4.652
 3753SOL    HW212159   0.440   0.030   4.763
 3754SOL     OW12160   5.164   6.381   1.395
 3754SOL    HW112161   5.190   6.427   1.310
 3754SOL    HW212162   5.161   6.448   1.470
 3755SOL     OW12163   5.591   5.418   4.466
 3755SOL    HW112164   5.597   5.488   4.536
 3755SOL    HW212165   5.496   5.406   4.438
 3756SOL     OW12166   1.511   0.707   6.227
 3756SOL    HW112167   1.548   0.673   6.141
 3756SOL    HW212168   1.521   0.637   6.298
 3757SOL     OW12169   3.601   5.824   6.751
 3757SOL    HW112170   3.679   5.775   6.714
 3757SOL    HW212171   3.617   5.844   6.848
 3758SOL     OW12172   1.693   1.474   4.793
 3758SOL    HW112173   1.771   1.511   4.741
 3758SOL    HW212174   1.727   1.424   4.872
 3759SOL     OW12175   4.041   5.157   5.624
 3759SOL    HW112176   4.027   5.199   5.534
 3759SOL    HW212177   4.092   5.072   5.613
 3760SOL     OW12178   1.177   3.937   4.165
 3760SOL    HW112179   1.101   3.936   4.230
 3760SOL    HW212180   1.256   3.892   4.206
 3761SOL     OW12181   1.106   6.885   5.165
 3761SOL    HW112182   1.018   6.933   5.171
 3761SOL    HW212183   1.140   6.890   5.071
 3762SOL     OW12184   0.882   4.977   6.881
 3762SOL    HW112185   0.890   5.062   6.933
 3762SOL    HW212186   0.964   4.964   6.826
 3763SOL     OW12187   6.958   4.784   6.962
 3763SOL    HW112188   6.887   4.841   6.921
 3763SOL    HW212189   7.000   4.832   0.014
 3764SOL     OW12190   2.194   0.598   4.576
 3764SOL    HW112191   2.276   0.543   4.590
 3764SOL    HW212192   2.139   0.597   4.660
 3765SOL     OW12193   5.359   1.411   2.033
 3765SOL    HW112194   5.332   1.341   1.966
 3765SOL    HW212195   5.345   1.375   2.125
 3766SOL     OW12196   0.495   0.815   4.966
 3766SOL    HW112197   0.495   0.731   5.020
 3766SOL    HW212198   0.578   0.819   4.910
 3767SOL     OW12199   2.578   5.256   0.396
 3767SOL    HW112200   2.678   5.252   0.395
 3767SOL    HW212201   2.542   5.168   0.427
 3768SOL     OW12202   2.855   6.175   6.021
 3768SOL    HW112203   2.846   6.083   5.983
 3768SOL    HW212204   2.946   6.211   6.000
 3769SOL     OW12205   5.994   5.705   5.248
 3769SOL    HW112206   6.027   5.793   5.215
 3769SOL    HW212207   5.952   5.655   5.172
 3770SOL     OW12208   1.663   0.629   6.515
 3770SOL    HW112209   1.673   0.541   6.468
 3770SOL    HW212210   1.711   0.625   6.603
 3771SOL     OW12211   5.463   2.064   0.436
 3771SOL    HW112212   5.510   2.101   0.516
 3771SOL    HW212213   5.454   1.965   0.444
 3772SOL     OW12214   6.401   1.668   1.021
 3772SOL    HW112215   6.500   1.674   1.011
 3772SOL    HW212216   6.380   1.622   1.107
 3773SOL     OW12217   5.498   2.674   6.134
 3773SOL    HW112218   5.472   2.606   6.065
 3773SOL    HW212219   5.494   2.766   6.093
 3774SOL     OW12220   1.024   6.907   6.980
 3774SOL    HW112221   0.964   6.829   6.997
 3774SOL    HW212222   1.107   6.875   6.934
 3775SOL     OW12223   5.184   4.046   2.226
 3775SOL    HW112224   5.243   4.108   2.278
 3775SOL    HW212225   5.240   3.974   2.185
 3776SOL     OW12226   3.101   1.559   1.123
 3776SOL    HW112227   3.093   1.496   1.045
 3776SOL    HW212228   3.197   1.578   1.141
 3777SOL     OW12229   2.807   4.795   4.437
 3777SOL    HW112230   2.826   4.773   4.341
 3777SOL    HW212231   2.779   4.891   4.444
 3778SOL     OW12232   2.392   5.819   3.091
 3778SOL    HW112233   2.443   5.751   3.038
 3778SOL    HW212234   2.294   5.805   3.078
 3779SOL     OW12235   2.049   4.547   0.502
 3779SOL    HW112236   2.026   4.457   0.537
 3779SOL    HW212237   2.148   4.555   0.491
 3780SOL     OW12238   3.926   4.830   5.187
 3780SOL    HW112239   3.846   4.885   5.211
 3780SOL    HW212240   3.931   4.750   5.245
 3781SOL     OW12241   1.901   6.696   4.463
 3781SOL    HW112242   1.834   6.624   4.483
 3781SOL    HW212243   1.982   6.655   4.420
 3782SOL     OW12244   2.911   2.185   4.519
 3782SOL    HW112245   2.986   2.171   4.454
 3782SOL    HW212246   2.947   2.182   4.612
 3783SOL     OW12247   5.973   6.423   5.034
 3783SOL    HW112248   6.054   6.469   4.998
 3783SOL    HW212249   5.928   6.483   5.101
 3784SOL     OW12250   4.545   1.973   3.241
 3784SOL    HW112251   4.562   1.984   3.339
 3784SOL    HW212252   4.628   1.939   3.197
 3785SOL     OW12253   2.215   1.387   6.642
 3785SOL    HW112254   2.224   1.348   6.733
 3785SOL    HW212255   2.168   1.322   6.582
 3786SOL     OW12256   3.062   6.300   3.116
 3786SOL    HW112257   2.981   6.256   3.154
 3786SOL    HW212258   3.144   6.249   3.144
 3787SOL     OW12259   6.155   6.163   3.604
 3787SOL    HW112260   6.170   6.211   3.691
 3787SOL    HW212261   6.130   6.228   3.533
 3788SOL     OW12262   0.329   2.937   3.461
 3788SOL    HW112263   0.251   2.919   3.401
 3788SOL    HW212264   0.359   3.031   3.449
 3789SOL     OW12265   1.353   3.421   3.883
 3789SOL    HW112266   1.420   3.491   3.906
 3789SOL    HW212267   1.374   3.336   3.931
 3790SOL     OW12268   1.778   3.751   5.057
 3790SOL    HW112269   1.766   3.677   4.991
 3790SOL    HW212270   1.790   3.712   5.149
 3791SOL     OW12271   6.463   0.306   0.953
 3791SOL    HW112272   6.430   0.213   0.972
 3791SOL    HW212273   6.401   0.373   0.994
 3792SOL     OW12274   6.612   0.739   4.451
 3792SOL    HW112275   6.658   0.697   4.530
 3792SOL    HW212276   6.637   0.835   4.445
 3793SOL     OW12277   3.039   0.352   2.935
 3793SOL    HW112278   3.033   0.451   2.949
 3793SOL    HW212279   3.006   0.328   2.844
 3794SOL     OW12280   3.683   4.749   1.551
 3794SOL    HW112281   3.616   4.748   1.477
 3794SOL    HW212282   3.638   4.734   1.639
 3795SOL     OW12283   4.101   6.524   0.198
 3795SOL    HW112284   4.113   6.478   0.111
 3795SOL    HW212285   4.169   6.491   0.263
 3796SOL     OW12286   2.472   2.227   1.457
 3796SOL    HW112287   2.537   2.219   1.382
 3796SOL    HW212288   2.380   2.202   1.425
 3797SOL     OW12289   6.831   4.787   2.536
 3797SOL    HW112290   6.839   4.707   2.477
 3797SOL    HW212291   6.920   4.833   2.542
 3798SOL     OW12292   3.213   5.526   3.273
 3798SOL    HW112293   3.307   5.493   3.266
 3798SOL    HW212294   3.150   5.453   3.244
 3799SOL     OW12295   0.664   2.439   4.638
 3799SOL    HW112296   0.665   2.357   4.697
 3799SOL    HW212297   0.715   2.420   4.554
 3800SOL     OW12298   5.368   2.459   4.736
 3800SOL    HW112299   5.389   2.540   4.792
 3800SOL    HW212300   5.303   2.485   4.664
 3801SOL     OW12301   0.130   6.594   5.017
 3801SOL    HW112302   0.046   6.629   4.976
 3801SOL    HW212303   0.109   6.554   5.107
 3802SOL     OW12304   0.837   1.581   4.812
 3802SOL    HW112305   0.813   1.594   4.716
 3802SOL    HW212306   0.929   1.617   4.829
 3803SOL     OW12307   3.795   1.627   1.771
 3803SOL    HW112308   3.866   1.559   1.754
 3803SOL    HW212309   3.737   1.636   1.690
 3804SOL     OW12310   5.161   2.299   4.109
 3804SOL    HW112311   5.120   2.367   4.170
 3804SOL    HW212312   5.175   2.339   4.019
 3805SOL     OW12313   2.731   3.638   1.664
 3805SOL    HW112314   2.776   3.713   1.712
 3805SOL    HW212315   2.771   3.628   1.573
 3806SOL     OW12316   2.359   3.128   6.890
 3806SOL    HW112317   2.343   3.116   6.793
 3806SOL    HW212318   2.398   3.044   6.929
 3807SOL     OW12319   2.508   1.601   4.199
 3807SOL    HW112320   2.503   1.504   4.177
 3807SOL    HW212321   2.593   1.640   4.163
 3808SOL     OW12322   3.192   1.255   1.345
 3808SOL    HW112323   3.186   1.192   1.267
 3808SOL    HW212324   3.104   1.302   1.355
 3809SOL     OW12325   6.468   2.102   0.395
 3809SOL    HW112326   6.430   2.096   0.302
 3809SOL    HW212327   6.397   2.081   0.462
 3810SOL     OW12328   4.150   2.765   5.407
 3810SOL    HW112329   4.074   2.813   5.452
 3810SOL    HW212330   4.115   2.682   5.362
 3811SOL     OW12331   1.133   4.528   4.460
 3811SOL    HW112332   1.134   4.587   4.541
 3811SOL    HW212333   1.141   4.433   4.489
 3812SOL     OW12334   5.571   1.131   5.563
 3812SOL    HW112335   5.563   1.085   5.652
 3812SOL    HW212336   5.509   1.209   5.560
 3813SOL     OW12337   4.794   4.527   0.721
 3813SOL    HW112338   4.866   4.597   0.721
 3813SOL    HW212339   4.833   4.439   0.746
 3814SOL     OW12340   7.014   6.324   1.207
 3814SOL    HW112341   6.971   6.234   1.197
 3814SOL    HW212342   0.016   6.338   1.302
 3815SOL     OW12343   4.865   2.279   0.436
 3815SOL    HW112344   4.907   2.368   0.452
 3815SOL    HW212345   4.793   2.263   0.503
 3816SOL     OW12346   6.853   6.427   1.022
 3816SOL    HW112347   6.793   6.349   1.003
 3816SOL    HW212348   6.915   6.403   1.097
 3817SOL     OW12349   4.834   3.039   4.277
 3817SOL    HW112350   4.795   2.948   4.286
 3817SOL    HW212351   4.769   3.107   4.312
 3818SOL     OW12352   5.033   6.782   1.138
 3818SOL    HW112353   5.081   6.734   1.211
 3818SOL    HW212354   4.937   6.753   1.137
 3819SOL     OW12355   5.492   4.651   0.468
 3819SOL    HW112356   5.416   4.711   0.492
 3819SOL    HW212357   5.482   4.563   0.515
 3820SOL     OW12358   6.737   6.948   4.026
 3820SOL    HW112359   6.714   6.864   3.976
 3820SOL    HW212360   6.833   6.971   4.011
 3821SOL     OW12361   1.743   3.358   1.944
 3821SOL    HW112362   1.695   3.300   1.878
 3821SOL    HW212363   1.841   3.340   1.940
 3822SOL     OW12364   1.270   5.634   2.447
 3822SOL    HW112365   1.332   5.596   2.379
 3822SOL    HW212366   1.241   5.725   2.418
 3823SOL     OW12367   3.907   2.129   5.507
 3823SOL    HW112368   3.977   2.140   5.578
 3823SOL    HW212369   3.942   2.165   5.420
 3824SOL     OW12370   5.939   1.386   5.819
 3824SOL    HW112371   6.035   1.358   5.814
 3824SOL    HW212372   5.884   1.323   5.765
 3825SOL     OW12373   0.559   0.343   0.414
 3825SOL    HW112374   0.582   0.309   0.322
 3825SOL    HW212375   0.463   0.369   0.417
 3826SOL     OW12376   0.288   3.666   6.500
 3826SOL    HW112377   0.310   3.611   6.419
 3826SOL    HW212378   0.369   3.716   6.529
 3827SOL     OW12379   3.816   3.907   0.590
 3827SOL    HW112380   3.785   3.987   0.642
 3827SOL    HW212381   3.737   3.858   0.555
 3828SOL     OW12382   4.401   2.326   1.431
 3828SOL    HW112383   4.424   2.411   1.478
 3828SOL    HW212384   4.306   2.302   1.451
 3829SOL     OW12385   2.255   4.654   3.891
 3829SOL    HW112386   2.248   4.722   3.817
 3829SOL    HW212387   2.340   4.603   3.880
 3830SOL     OW12388   0.668   0.284   4.975
 3830SOL    HW112389   0.697   0.375   4.945
 3830SOL    HW212390   0.629   0.290   5.067
 3831SOL     OW12391   4.375   2.028   2.733
 3831SOL    HW112392   4.332   1.937   2.727
 3831SOL    HW212393   4.328   2.091   2.671
 3832SOL     OW12394   6.182   0.357   2.230
 3832SOL    HW112395   6.272   0.331   2.264
 3832SOL    HW212396   6.177   0.456   2.222
 3833SOL     OW12397   0.785   5.798   6.557
 3833SOL    HW112398   0.791   5.772   6.461
 3833SOL    HW212399   0.865   5.764   6.606
 3834SOL     OW12400   3.528   2.634   0.242
 3834SOL    HW112401   3.539   2.592   0.152
 3834SOL    HW212402   3.431   2.637   0.267
 3835SOL     OW12403   3.221   5.179   5.421
 3835SOL    HW112404   3.157   5.128   5.363
 3835SOL    HW212405   3.288   5.115   5.459
 3836SOL     OW12406   2.116   3.105   4.985
 3836SOL    HW112407   2.210   3.074   4.996
 3836SOL    HW212408   2.058   3.061   5.054
 3837SOL     OW12409   4.558   3.299   6.740
 3837SOL    HW112410   4.550   3.201   6.721
 3837SOL    HW212411   4.511   3.351   6.668
 3838SOL     OW12412   5.820   3.787   4.281
 3838SOL    HW112413   5.829   3.866   4.342
 3838SOL    HW212414   5.823   3.818   4.186
 3839SOL     OW12415   4.578   6.811   4.537
 3839SOL    HW112416   4.655   6.748   4.528
 3839SOL    HW212417   4.497   6.769   4.496
 3840SOL     OW12418   0.954   1.120   5.300
 3840SOL    HW112419   1.042   1.098   5.343
 3840SOL    HW212420   0.957   1.213   5.264
 3841SOL     OW12421   0.509   3.693   4.649
 3841SOL    HW112422   0.576   3.762   4.679
 3841SOL    HW212423   0.488   3.632   4.725
 3842SOL     OW12424   1.326   5.058   0.457
 3842SOL    HW112425   1.315   4.971   0.504
 3842SOL    HW212426   1.359   5.042   0.364
 3843SOL     OW12427   6.681   3.230   1.370
 3843SOL    HW112428   6.586   3.201   1.382
 3843SOL    HW212429   6.704   3.230   1.273
 3844SOL     OW12430   0.276   5.015   5.448
 3844SOL    HW112431   0.307   4.947   5.381
 3844SOL    HW212432   0.323   4.999   5.535
 3845SOL     OW12433   3.438   2.940   2.686
 3845SOL    HW112434   3.340   2.956   2.684
 3845SOL    HW212435   3.465   2.885   2.606
 3846SOL     OW12436   0.389   4.767   4.236
 3846SOL    HW112437   0.393   4.705   4.157
 3846SOL    HW212438   0.386   4.861   4.204
 3847SOL     OW12439   6.302   1.234   6.228
 3847SOL    HW112440   6.237   1.207   6.157
 3847SOL    HW212441   6.274   1.322   6.267
 3848SOL     OW12442   2.284   5.420   2.990
 3848SOL    HW112443   2.243   5.368   2.915
 3848SOL    HW212444   2.214   5.440   3.059
 3849SOL     OW12445   0.346   1.250   5.605
 3849SOL    HW112446   0.415   1.312   5.568
 3849SOL    HW212447   0.331   1.175   5.540
 3850SOL     OW12448   2.520   3.475   1.617
 3850SOL    HW112449   2.601   3.533   1.613
 3850SOL    HW212450   2.469   3.492   1.701
 3851SOL     OW12451   1.814   4.302   2.717
 3851SOL    HW112452   1.827   4.243   2.796
 3851SOL    HW212453   1.722   4.287   2.680
 3852SOL     OW12454   4.440   6.570   4.741
 3852SOL    HW112455   4.523   6.544   4.790
 3852SOL    HW212456   4.461   6.585   4.644
 3853SOL     OW12457   1.392   3.638   2.476
 3853SOL    HW112458   1.320   3.637   2.545
 3853SOL    HW212459   1.429   3.545   2.466
 3854SOL     OW12460   0.744   3.526   3.176
 3854SOL    HW112461   0.706   3.508   3.267
 3854SOL    HW212462   0.765   3.623   3.166
 3855SOL     OW12463   5.659   5.386   6.849
 3855SOL    HW112464   5.636   5.483   6.843
 3855SOL    HW212465   5.575   5.332   6.854
 3856SOL     OW12466   0.056   0.095   5.523
 3856SOL    HW112467   0.037   0.000   5.549
 3856SOL    HW212468   0.102   0.142   5.599
 3857SOL     OW12469   1.651   0.160   5.210
 3857SOL    HW112470   1.719   0.170   5.138
 3857SOL    HW212471   1.694   0.175   5.299
 3858SOL     OW12472   1.143   6.259   5.894
 3858SOL    HW112473   1.107   6.280   5.803
 3858SOL    HW212474   1.227   6.311   5.910
 3859SOL     OW12475   6.802   1.908   3.448
 3859SOL    HW112476   6.791   1.866   3.538
 3859SOL    HW212477   6.726   1.880   3.389
 3860SOL     OW12478   2.296   6.355   4.408
 3860SOL    HW112479   2.362   6.283   4.390
 3860SOL    HW212480   2.233   6.326   4.480
 3861SOL     OW12481   5.710   4.449   1.176
 3861SOL    HW112482   5.629   4.408   1.133
 3861SOL    HW212483   5.789   4.391   1.160
 3862SOL     OW12484   6.689   6.878   5.949
 3862SOL    HW112485   6.639   6.830   5.877
 3862SOL    HW212486   6.751   6.945   5.907
 3863SOL     OW12487   3.800   3.660   0.106
 3863SOL    HW112488   3.754   3.605   0.176
 3863SOL    HW212489   3.793   3.757   0.129
 3864SOL     OW12490   4.381   1.947   6.183
 3864SOL    HW112491   4.390   2.038   6.143
 3864SOL    HW212492   4.316   1.893   6.130
 3865SOL     OW12493   3.649   0.485   2.036
 3865SOL    HW112494   3.585   0.554   2.068
 3865SOL    HW212495   3.720   0.529   1.981
 3866SOL     OW12496   4.085   0.461   0.724
 3866SOL    HW112497   4.106   0.555   0.699
 3866SOL    HW212498   4.161   0.422   0.776
 3867SOL     OW12499   2.138   3.982   3.269
 3867SOL    HW112500   2.178   4.022   3.187
 3867SOL    HW212501   2.152   4.043   3.347
 3868SOL     OW12502   2.282   5.580   1.565
 3868SOL    HW112503   2.305   5.523   1.644
 3868SOL    HW212504   2.248   5.522   1.491
 3869SOL     OW12505   0.059   2.457   3.921
 3869SOL    HW112506   6.991   2.450   3.958
 3869SOL    HW212507   0.067   2.543   3.870
 3870SOL     OW12508   2.857   4.944   6.766
 3870SOL    HW112509   2.801   4.971   6.844
 3870SOL    HW212510   2.857   5.018   6.698
 3871SOL     OW12511   3.082   0.471   2.530
 3871SOL    HW112512   3.160   0.425   2.573
 3871SOL    HW212513   3.004   0.408   2.527
 3872SOL     OW12514   3.820   3.573   1.319
 3872SOL    HW112515   3.754   3.644   1.344
 3872SOL    HW212516   3.904   3.585   1.373
 3873SOL     OW12517   5.420   5.106   1.295
 3873SOL    HW112518   5.405   5.119   1.197
 3873SOL    HW212519   5.516   5.085   1.311
 3874SOL     OW12520   4.376   6.782   0.062
 3874SOL    HW112521   4.279   6.791   0.040
 3874SOL    HW212522   4.386   6.750   0.156
 3875SOL     OW12523   1.277   4.168   2.594
 3875SOL    HW112524   1.179   4.159   2.576
 3875SOL    HW212525   1.315   4.240   2.536
 3876SOL     OW12526   5.009   5.599   6.318
 3876SOL    HW112527   4.961   5.549   6.390
 3876SOL    HW212528   4.972   5.574   6.229
 3877SOL     OW12529   6.261   1.225   1.080
 3877SOL    HW112530   6.238   1.220   1.177
 3877SOL    HW212531   6.183   1.261   1.029
 3878SOL     OW12532   3.585   6.724   5.881
 3878SOL    HW112533   3.551   6.648   5.826
 3878SOL    HW212534   3.510   6.761   5.936
 3879SOL     OW12535   4.790   5.741   0.609
 3879SOL    HW112536   4.885   5.708   0.611
 3879SOL    HW212537   4.729   5.671   0.645
 3880SOL     OW12538   5.804   4.257   2.398
 3880SOL    HW112539   5.855   4.203   2.464
 3880SOL    HW212540   5.868   4.299   2.333
 3881SOL     OW12541   1.833   5.540   0.439
 3881SOL    HW112542   1.781   5.518   0.357
 3881SOL    HW212543   1.804   5.480   0.514
 3882SOL     OW12544   6.378   1.351   6.541
 3882SOL    HW112545   6.341   1.399   6.461
 3882SOL    HW212546   6.303   1.311   6.593
 3883SOL     OW12547   4.581   1.023   3.675
 3883SOL    HW112548   4.527   0.939   3.674
 3883SOL    HW212549   4.529   1.096   3.630
 3884SOL     OW12550   1.185   6.603   4.835
 3884SOL    HW112551   1.205   6.537   4.907
 3884SOL    HW212552   1.227   6.572   4.749
 3885SOL     OW12553   6.648   1.133   4.164
 3885SOL    HW112554   6.653   1.034   4.155
 3885SOL    HW212555   6.737   1.173   4.140
 3886SOL     OW12556   6.790   0.523   5.129
 3886SOL    HW112557   6.873   0.568   5.162
 3886SOL    HW212558   6.711   0.582   5.146
 3887SOL     OW12559   4.157   1.381   5.687
 3887SOL    HW112560   4.142   1.290   5.727
 3887SOL    HW212561   4.089   1.397   5.615
 3888SOL     OW12562   6.935   1.458   0.632
 3888SOL    HW112563   6.993   1.502   0.563
 3888SOL    HW212564   6.973   1.368   0.654
 3889SOL     OW12565   0.439   5.600   6.664
 3889SOL    HW112566   0.488   5.585   6.751
 3889SOL    HW212567   0.462   5.690   6.628
 3890SOL     OW12568   5.498   5.822   3.409
 3890SOL    HW112569   5.463   5.906   3.451
 3890SOL    HW212570   5.422   5.774   3.364
 3891SOL     OW12571   5.192   5.704   4.918
 3891SOL    HW112572   5.269   5.748   4.965
 3891SOL    HW212573   5.118   5.689   4.984
 3892SOL     OW12574   6.664   6.744   2.719
 3892SOL    HW112575   6.676   6.680   2.643
 3892SOL    HW212576   6.639   6.693   2.802
 3893SOL     OW12577   3.567   5.691   3.836
 3893SOL    HW112578   3.546   5.666   3.931
 3893SOL    HW212579   3.498   5.756   3.803
 3894SOL     OW12580   4.062   2.877   0.515
 3894SOL    HW112581   4.041   2.796   0.571
 3894SOL    HW212582   4.162   2.888   0.510
 3895SOL     OW12583   1.475   1.508   5.412
 3895SOL    HW112584   1.480   1.486   5.315
 3895SOL    HW212585   1.567   1.502   5.452
 3896SOL     OW12586   6.987   2.063   5.895
 3896SOL    HW112587   6.987   2.163   5.891
 3896SOL    HW212588   6.900   2.031   5.934
 3897SOL     OW12589   2.468   6.319   2.033
 3897SOL    HW112590   2.485   6.332   1.936
 3897SOL    HW212591   2.534   6.371   2.087
 3898SOL     OW12592   4.113   3.432   4.229
 3898SOL    HW112593   4.112   3.525   4.267
 3898SOL    HW212594   4.033   3.382   4.262
 3899SOL     OW12595   4.617   1.353   5.455
 3899SOL    HW112596   4.518   1.353   5.472
 3899SOL    HW212597   4.634   1.329   5.360
 3900SOL     OW12598   6.347   2.478   3.352
 3900SOL    HW112599   6.248   2.493   3.346
 3900SOL    HW212600   6.391   2.557   3.394
 3901SOL     OW12601   1.166   6.867   4.866
 3901SOL    HW112602   1.139   6.772   4.883
 3901SOL    HW212603   1.152   6.888   4.769
 3902SOL     OW12604   5.365   4.873   1.629
 3902SOL    HW112605   5.348   4.775   1.622
 3902SOL    HW212606   5.328   4.919   1.548
 3903SOL     OW12607   4.047   2.587   0.364
 3903SOL    HW112608   3.954   2.624   0.374
 3903SOL    HW212609   4.042   2.498   0.318
 3904SOL     OW12610   1.160   0.170   0.371
 3904SOL    HW112611   1.219   0.181   0.451
 3904SOL    HW212612   1.079   0.116   0.397
 3905SOL     OW12613   6.979   6.710   6.245
 3905SOL    HW112614   6.907   6.780   6.251
 3905SOL    HW212615   7.013   6.706   6.151
 3906SOL     OW12616   1.939   4.898   4.455
 3906SOL    HW112617   1.942   4.799   4.441
 3906SOL    HW212618   1.845   4.926   4.475
 3907SOL     OW12619   6.994   1.317   4.299
 3907SOL    HW112620   6.964   1.242   4.358
 3907SOL    HW212621   6.943   1.314   4.213
 3908SOL     OW12622   1.409   0.641   5.186
 3908SOL    HW112623   1.349   0.570   5.147
 3908SOL    HW212624   1.363   0.685   5.263
 3909SOL     OW12625   5.048   2.659   5.796
 3909SOL    HW112626   4.974   2.602   5.831
 3909SOL    HW212627   5.088   2.711   5.871
 3910SOL     OW12628   3.264   2.790   1.077
 3910SOL    HW112629   3.247   2.714   1.014
 3910SOL    HW212630   3.271   2.754   1.170
 3911SOL     OW12631   5.613   0.846   1.824
 3911SOL    HW112632   5.678   0.920   1.838
 3911SOL    HW212633   5.660   0.758   1.831
 3912SOL     OW12634   3.999   2.245   0.041
 3912SOL    HW112635   4.052   2.330   0.034
 3912SOL    HW212636   3.931   2.243   6.993
 3913SOL     OW12637   4.376   6.092   0.431
 3913SOL    HW112638   4.443   6.148   0.480
 3913SOL    HW212639   4.298   6.073   0.491
 3914SOL     OW12640   6.096   0.828   0.969
 3914SOL    HW112641   6.088   0.922   0.937
 3914SOL    HW212642   6.183   0.789   0.939
 3915SOL     OW12643   4.856   5.236   0.528
 3915SOL    HW112644   4.911   5.152   0.533
 3915SOL    HW212645   4.883   5.297   0.603
 3916SOL     OW12646   1.976   0.840   2.667
 3916SOL    HW112647   1.948   0.832   2.571
 3916SOL    HW212648   2.068   0.878   2.671
 3917SOL     OW12649   2.894   4.871   0.519
 3917SOL    HW112650   2.933   4.797   0.574
 3917SOL    HW212651   2.910   4.853   0.422
 3918SOL     OW12652   5.609   0.275   1.174
 3918SOL    HW112653   5.691   0.279   1.117
 3918SOL    HW212654   5.549   0.353   1.153
 3919SOL     OW12655   4.081   0.447   1.065
 3919SOL    HW112656   4.042   0.539   1.056
 3919SOL    HW212657   4.140   0.428   0.987
 3920SOL     OW12658   3.119   0.990   6.106
 3920SOL    HW112659   3.040   0.982   6.166
 3920SOL    HW212660   3.100   1.056   6.034
 3921SOL     OW12661   0.975   2.837   6.294
 3921SOL    HW112662   0.916   2.774   6.344
 3921SOL    HW212663   1.010   2.907   6.357
 3922SOL     OW12664   4.584   5.230   1.724
 3922SOL    HW112665   4.549   5.260   1.813
 3922SOL    HW212666   4.509   5.194   1.669
 3923SOL     OW12667   5.199   0.808   1.371
 3923SOL    HW112668   5.196   0.744   1.448
 3923SOL    HW212669   5.176   0.900   1.404
 3924SOL     OW12670   6.853   4.705   4.509
 3924SOL    HW112671   6.767   4.678   4.552
 3924SOL    HW212672   6.900   4.624   4.474
 3925SOL     OW12673   4.867   3.597   0.387
 3925SOL    HW112674   4.833   3.543   0.310
 3925SOL    HW212675   4.966   3.610   0.377
 3926SOL     OW12676   0.514   0.670   5.672
 3926SOL    HW112677   0.610   0.688   5.696
 3926SOL    HW212678   0.458   0.749   5.695
 3927SOL     OW12679   6.804   2.930   4.650
 3927SOL    HW112680   6.724   2.926   4.710
 3927SOL    HW212681   6.784   2.991   4.573
 3928SOL     OW12682   2.212   6.483   3.240
 3928SOL    HW112683   2.297   6.478   3.186
 3928SOL    HW212684   2.144   6.422   3.199
 3929SOL     OW12685   0.149   2.142   5.283
 3929SOL    HW112686   0.083   2.068   5.280
 3929SOL    HW212687   0.116   2.219   5.228
 3930SOL     OW12688   0.998   3.572   4.120
 3930SOL    HW112689   0.996   3.498   4.187
 3930SOL    HW212690   1.091   3.609   4.113
 3931SOL     OW12691   1.676   2.690   1.451
 3931SOL    HW112692   1.597   2.659   1.399
 3931SOL    HW212693   1.716   2.612   1.500
 3932SOL     OW12694   1.768   5.744   4.088
 3932SOL    HW112695   1.767   5.683   4.010
 3932SOL    HW212696   1.838   5.814   4.075
 3933SOL     OW12697   1.966   4.979   0.014
 3933SOL    HW112698   1.873   4.950   0.036
 3933SOL    HW212699   2.016   4.995   0.099
 3934SOL     OW12700   0.746   1.088   2.262
 3934SOL    HW112701   0.705   1.002   2.291
 3934SOL    HW212702   0.747   1.152   2.339
 3935SOL     OW12703   6.166   3.267   6.584
 3935SOL    HW112704   6.235   3.339   6.595
 3935SOL    HW212705   6.211   3.181   6.558
 3936SOL     OW12706   0.162   5.339   5.150
 3936SOL    HW112707   0.225   5.287   5.091
 3936SOL    HW212708   0.211   5.369   5.232
 3937SOL     OW12709   0.004   6.440   2.527
 3937SOL    HW112710   7.001   6.433   2.623
 3937SOL    HW212711   7.012   6.352   2.481
 3938SOL     OW12712   6.521   4.057   3.061
 3938SOL    HW112713   6.593   3.989   3.046
 3938SOL    HW212714   6.517   4.119   2.982
 3939SOL     OW12715   0.738   0.934   2.509
 3939SOL    HW112716   0.716   0.982   2.593
 3939SOL    HW212717   0.666   0.867   2.489
 3940SOL     OW12718   3.240   4.728   1.504
 3940SOL    HW112719   3.230   4.630   1.485
 3940SOL    HW212720   3.301   4.741   1.582
 3941SOL     OW12721   5.682   6.417   4.141
 3941SOL    HW112722   5.635   6.479   4.078
 3941SOL    HW212723   5.755   6.466   4.188
 3942SOL     OW12724   0.758   6.047   6.653
 3942SOL    HW112725   0.835   6.090   6.606
 3942SOL    HW212726   0.753   5.950   6.629
 3943SOL     OW12727   0.879   3.175   1.168
 3943SOL    HW112728   0.812   3.142   1.236
 3943SOL    HW212729   0.887   3.274   1.175
 3944SOL     OW12730   6.531   2.169   6.522
 3944SOL    HW112731   6.431   2.169   6.515
 3944SOL    HW212732   6.563   2.262   6.537
 3945SOL     OW12733   0.656   0.908   2.945
 3945SOL    HW112734   0.664   0.945   3.037
 3945SOL    HW212735   0.702   0.819   2.941
 3946SOL     OW12736   0.934   3.001   0.457
 3946SOL    HW112737   1.031   3.003   0.436
 3946SOL    HW212738   0.916   2.928   0.524
 3947SOL     OW12739   6.119   5.276   0.720
 3947SOL    HW112740   6.037   5.330   0.699
 3947SOL    HW212741   6.115   5.246   0.815
 3948SOL     OW12742   1.897   2.509   5.929
 3948SOL    HW112743   1.992   2.497   5.957
 3948SOL    HW212744   1.889   2.489   5.831
 3949SOL     OW12745   6.391   6.576   2.539
 3949SOL    HW112746   6.485   6.543   2.552
 3949SOL    HW212747   6.336   6.505   2.495
 3950SOL     OW12748   3.420   4.171   1.427
 3950SOL    HW112749   3.382   4.226   1.501
 3950SOL    HW212750   3.345   4.136   1.370
 3951SOL     OW12751   0.195   1.258   5.283
 3951SOL    HW112752   0.229   1.312   5.206
 3951SOL    HW212753   0.097   1.242   5.272
 3952SOL     OW12754   6.700   3.436   5.636
 3952SOL    HW112755   6.612   3.468   5.601
 3952SOL    HW212756   6.755   3.515   5.665
 3953SOL     OW12757   3.661   4.341   6.339
 3953SOL    HW112758   3.594   4.283   6.293
 3953SOL    HW212759   3.753   4.323   6.302
 3954SOL     OW12760   0.872   3.858   5.190
 3954SOL    HW112761   0.869   3.863   5.290
 3954SOL    HW212762   0.877   3.950   5.152
 3955SOL     OW12763   5.354   5.289   0.055
 3955SOL    HW112764   5.257   5.312   0.055
 3955SOL    HW212765   5.366   5.193   0.032
 3956SOL     OW12766   0.185   2.735   6.100
 3956SOL    HW112767   0.134   2.656   6.136
 3956SOL    HW212768   0.255   2.763   6.166
 3957SOL     OW12769   1.993   0.154   4.057
 3957SOL    HW112770   2.069   0.098   4.089
 3957SOL    HW212771   1.926   0.166   4.131
 3958SOL     OW12772   5.789   6.207   5.421
 3958SOL    HW112773   5.743   6.268   5.486
 3958SOL    HW212774   5.720   6.162   5.364
 3959SOL     OW12775   3.063   5.116   6.936
 3959SOL    HW112776   3.111   5.111   6.848
 3959SOL    HW212777   3.055   5.211   6.964
 3960SOL     OW12778   4.043   3.004   0.245
 3960SOL    HW112779   3.999   3.093   0.256
 3960SOL    HW212780   4.098   2.984   0.325
 3961SOL     OW12781   4.722   0.692   1.690
 3961SOL    HW112782   4.738   0.598   1.661
 3961SOL    HW212783   4.625   0.706   1.707
 3962SOL     OW12784   0.780   0.292   6.674
 3962SOL    HW112785   0.728   0.241   6.606
 3962SOL    HW212786   0.817   0.229   6.742
 3963SOL     OW12787   4.792   5.617   4.292
 3963SOL    HW112788   4.726   5.569   4.349
 3963SOL    HW212789   4.865   5.654   4.350
 3964SOL     OW12790   5.044   5.540   5.812
 3964SOL    HW112791   5.112   5.603   5.775
 3964SOL    HW212792   5.005   5.485   5.738
 3965SOL     OW12793   3.185   4.005   0.430
 3965SOL    HW112794   3.182   4.105   0.421
 3965SOL    HW212795   3.249   3.980   0.502
 3966SOL     OW12796   6.257   4.585   5.027
 3966SOL    HW112797   6.264   4.629   5.117
 3966SOL    HW212798   6.257   4.486   5.038
 3967SOL     OW12799   0.706   6.167   6.115
 3967SOL    HW112800   0.670   6.099   6.052
 3967SOL    HW212801   0.797   6.196   6.084
 3968SOL     OW12802   5.040   1.011   2.545
 3968SOL    HW112803   5.052   1.090   2.605
 3968SOL    HW212804   5.091   0.934   2.582
 3969SOL     OW12805   0.507   4.979   3.054
 3969SOL    HW112806   0.409   4.997   3.061
 3969SOL    HW212807   0.533   4.913   3.124
 3970SOL     OW12808   4.856   4.788   3.151
 3970SOL    HW112809   4.842   4.788   3.250
 3970SOL    HW212810   4.767   4.785   3.105
 3971SOL     OW12811   1.968   6.204   3.324
 3971SOL    HW112812   1.986   6.220   3.226
 3971SOL    HW212813   1.969   6.292   3.372
 3972SOL     OW12814   0.656   0.051   0.494
 3972SOL    HW112815   0.620   7.003   0.436
 3972SOL    HW212816   0.751   0.070   0.470
 3973SOL     OW12817   3.010   3.994   4.761
 3973SOL    HW112818   3.080   4.065   4.763
 3973SOL    HW212819   3.053   3.905   4.772
 3974SOL     OW12820   6.493   1.069   6.673
 3974SOL    HW112821   6.485   0.977   6.634
 3974SOL    HW212822   6.440   1.133   6.618
 3975SOL     OW12823   6.612   1.287   6.071
 3975SOL    HW112824   6.618   1.285   5.972
 3975SOL    HW212825   6.516   1.281   6.099
 3976SOL     OW12826   1.497   3.555   0.642
 3976SOL    HW112827   1.439   3.567   0.723
 3976SOL    HW212828   1.592   3.547   0.671
 3977SOL     OW12829   3.000   6.564   6.197
 3977SOL    HW112830   3.041   6.503   6.265
 3977SOL    HW212831   2.900   6.554   6.201
 3978SOL     OW12832   6.015   2.355   5.718
 3978SOL    HW112833   6.068   2.371   5.802
 3978SOL    HW212834   5.918   2.351   5.741
 3979SOL     OW12835   1.044   6.493   2.093
 3979SOL    HW112836   1.135   6.532   2.086
 3979SOL    HW212837   0.978   6.564   2.116
 3980SOL     OW12838   4.776   2.908   4.733
 3980SOL    HW112839   4.720   2.858   4.668
 3980SOL    HW212840   4.748   2.886   4.827
 3981SOL     OW12841   6.666   1.867   0.645
 3981SOL    HW112842   6.744   1.812   0.673
 3981SOL    HW212843   6.693   1.928   0.571
 3982SOL     OW12844   2.489   2.099   3.983
 3982SOL    HW112845   2.567   2.091   3.922
 3982SOL    HW212846   2.510   2.054   4.070
 3983SOL     OW12847   2.848   6.522   4.139
 3983SOL    HW112848   2.838   6.601   4.079
 3983SOL    HW212849   2.765   6.509   4.193
 3984SOL     OW12850   1.824   6.156   1.894
 3984SOL    HW112851   1.842   6.231   1.959
 3984SOL    HW212852   1.911   6.124   1.857
 3985SOL     OW12853   2.555   3.101   0.763
 3985SOL    HW112854   2.481   3.037   0.785
 3985SOL    HW212855   2.526   3.194   0.786
 3986SOL     OW12856   0.417   1.615   2.121
 3986SOL    HW112857   0.376   1.706   2.128
 3986SOL    HW212858   0.350   1.546   2.146
 3987SOL     OW12859   2.283   4.716   6.483
 3987SOL    HW112860   2.292   4.700   6.582
 3987SOL    HW212861   2.225   4.645   6.443
 3988SOL     OW12862   4.348   2.939   0.775
 3988SOL    HW112863   4.287   2.969   0.701
 3988SOL    HW212864   4.421   3.005   0.788
 3989SOL     OW12865   6.274   6.734   0.011
 3989SOL    HW112866   6.225   6.820   7.022
 3989SOL    HW212867   6.270   6.679   6.953
 3990SOL     OW12868   0.722   3.229   3.895
 3990SOL    HW112869   0.745   3.145   3.846
 3990SOL    HW212870   0.799   3.292   3.890
 3991SOL     OW12871   0.441   2.329   3.855
 3991SOL    HW112872   0.381   2.398   3.896
 3991SOL    HW212873   0.501   2.291   3.926
 3992SOL     OW12874   4.331   3.655   6.344
 3992SOL    HW112875   4.261   3.621   6.407
 3992SOL    HW212876   4.331   3.599   6.261
 3993SOL     OW12877   2.863   2.005   2.759
 3993SOL    HW112878   2.784   2.063   2.735
 3993SOL    HW212879   2.942   2.063   2.778
 3994SOL     OW12880   2.503   2.540   3.696
 3994SOL    HW112881   2.499   2.611   3.766
 3994SOL    HW212882   2.532   2.454   3.738
 3995SOL     OW12883   2.184   4.191   3.442
 3995SOL    HW112884   2.221   4.192   3.534
 3995SOL    HW212885   2.213   4.273   3.393
 3996SOL     OW12886   0.708   1.190   3.665
 3996SOL    HW112887   0.634   1.127   3.689
 3996SOL    HW212888   0.671   1.272   3.622
 3997SOL     OW12889   5.252   3.781   3.037
 3997SOL    HW112890   5.347   3.793   3.065
 3997SOL    HW212891   5.197   3.755   3.116
 3998SOL     OW12892   6.482   2.202   3.047
 3998SOL    HW112893   6.494   2.144   3.128
 3998SOL    HW212894   6.529   2.161   2.969
 3999SOL     OW12895   5.939   3.816   2.436
 3999SOL    HW112896   5.856   3.767   2.412
 3999SOL    HW212897   6.007   3.805   2.364
 4000SOL     OW12898   2.735   5.474   2.901
 4000SOL    HW112899   2.745   5.532   2.821
 4000SOL    HW212900   2.787   5.513   2.978
 4001SOL     OW12901   2.550   3.856   5.670
 4001SOL    HW112902   2.535   3.889   5.577
 4001SOL    HW212903   2.645   3.874   5.697
 4002SOL     OW12904   3.562   3.436   4.583
 4002SOL    HW112905   3.531   3.344   4.606
 4002SOL    HW212906   3.661   3.438   4.578
 4003SOL     OW12907   2.911   1.160   5.967
 4003SOL    HW112908   2.882   1.255   5.977
 4003SOL    HW212909   2.831   1.100   5.970
 4004SOL     OW12910   6.746   3.891   3.009
 4004SOL    HW112911   6.770   3.818   3.074
 4004SOL    HW212912   6.796   3.974   3.033
 4005SOL     OW12913   4.780   3.795   1.243
 4005SOL    HW112914   4.704   3.738   1.212
 4005SOL    HW212915   4.827   3.834   1.163
 4006SOL     OW12916   5.045   5.583   2.349
 4006SOL    HW112917   5.022   5.537   2.435
 4006SOL    HW212918   5.140   5.614   2.352
 4007SOL     OW12919   0.924   2.013   3.054
 4007SOL    HW112920   0.879   1.929   3.024
 4007SOL    HW212921   1.019   1.993   3.080
 4008SOL     OW12922   2.946   6.981   0.453
 4008SOL    HW112923   2.847   6.964   0.455
 4008SOL    HW212924   2.962   0.055   0.445
 4009SOL     OW12925   5.000   1.559   1.356
 4009SOL    HW112926   5.015   1.479   1.299
 4009SOL    HW212927   5.086   1.607   1.372
 4010SOL     OW12928   4.016   4.350   1.700
 4010SOL    HW112929   3.967   4.431   1.666
 4010SOL    HW212930   3.953   4.292   1.752
 4011SOL     OW12931   6.851   6.108   0.799
 4011SOL    HW112932   6.839   6.009   0.796
 4011SOL    HW212933   6.773   6.149   0.845
 4012SOL     OW12934   4.471   6.838   2.056
 4012SOL    HW112935   4.566   6.824   2.026
 4012SOL    HW212936   4.411   6.777   2.005
 4013SOL     OW12937   1.912   0.342   0.816
 4013SOL    HW112938   1.927   0.247   0.841
 4013SOL    HW212939   1.856   0.346   0.732
 4014SOL     OW12940   3.304   6.264   3.769
 4014SOL    HW112941   3.287   6.250   3.672
 4014SOL    HW212942   3.217   6.273   3.817
 4015SOL     OW12943   4.468   4.926   5.891
 4015SOL    HW112944   4.481   4.854   5.959
 4015SOL    HW212945   4.556   4.969   5.870
 4016SOL     OW12946   3.452   4.857   0.012
 4016SOL    HW112947   3.517   4.862   0.088
 4016SOL    HW212948   3.461   4.938   6.980
 4017SOL     OW12949   0.807   5.014   5.640
 4017SOL    HW112950   0.825   5.026   5.543
 4017SOL    HW212951   0.831   5.098   5.689
 4018SOL     OW12952   3.910   6.385   2.169
 4018SOL    HW112953   3.828   6.398   2.113
 4018SOL    HW212954   3.979   6.336   2.116
 4019SOL     OW12955   5.340   3.286   2.308
 4019SOL    HW112956   5.282   3.303   2.388
 4019SOL    HW212957   5.311   3.203   2.262
 4020SOL     OW12958   0.231   3.835   4.391
 4020SOL    HW112959   0.144   3.843   4.342
 4020SOL    HW212960   0.304   3.813   4.327
 4021SOL     OW12961   3.387   3.599   5.534
 4021SOL    HW112962   3.362   3.509   5.568
 4021SOL    HW212963   3.473   3.629   5.576
 4022SOL     OW12964   3.863   6.601   0.658
 4022SOL    HW112965   3.782   6.658   0.675
 4022SOL    HW212966   3.889   6.609   0.562
 4023SOL     OW12967   0.056   1.339   5.657
 4023SOL    HW112968   0.054   1.379   5.749
 4023SOL    HW212969   0.150   1.314   5.633
 4024SOL     OW12970   1.877   5.048   4.038
 4024SOL    HW112971   1.857   4.961   3.992
 4024SOL    HW212972   1.793   5.101   4.046
 4025SOL     OW12973   0.923   5.922   4.465
 4025SOL    HW112974   1.014   5.883   4.482
 4025SOL    HW212975   0.879   5.872   4.390
 4026SOL     OW12976   6.250   6.287   4.496
 4026SOL    HW112977   6.347   6.287   4.519
 4026SOL    HW212978   6.225   6.198   4.458
 4027SOL     OW12979   2.480   2.275   6.700
 4027SOL    HW112980   2.434   2.318   6.623
 4027SOL    HW212981   2.569   2.317   6.714
 4028SOL     OW12982   4.437   1.242   3.583
 4028SOL    HW112983   4.505   1.300   3.628
 4028SOL    HW212984   4.386   1.297   3.516
 4029SOL     OW12985   3.095   4.203   6.105
 4029SOL    HW112986   3.057   4.223   6.015
 4029SOL    HW212987   3.046   4.127   6.146
 4030SOL     OW12988   6.951   1.228   1.944
 4030SOL    HW112989   7.011   1.215   2.023
 4030SOL    HW212990   6.868   1.276   1.972
 4031SOL     OW12991   5.332   0.200   2.867
 4031SOL    HW112992   5.342   0.280   2.927
 4031SOL    HW212993   5.419   0.153   2.859
 4032SOL     OW12994   6.833   6.997   2.382
 4032SOL    HW112995   6.820   6.900   2.362
 4032SOL    HW212996   6.744   0.016   2.395
 4033SOL     OW12997   2.661   1.736   2.868
 4033SOL    HW112998   2.598   1.789   2.924
 4033SOL    HW212999   2.631   1.740   2.772
 4034SOL     OW13000   6.125   2.080   5.241
 4034SOL    HW113001   6.050   2.115   5.297
 4034SOL    HW213002   6.135   2.137   5.160
 4035SOL     OW13003   6.636   1.425   1.599
 4035SOL    HW113004   6.683   1.408   1.512
 4035SOL    HW213005   6.670   1.510   1.639
 4036SOL     OW13006   4.145   4.727   2.195
 4036SOL    HW113007   4.155   4.684   2.106
 4036SOL    HW213008   4.218   4.695   2.256
 4037SOL     OW13009   2.461   1.681   5.911
 4037SOL    HW113010   2.486   1.764   5.960
 4037SOL    HW213011   2.422   1.614   5.974
 4038SOL     OW13012   4.676   3.063   0.061
 4038SOL    HW113013   4.752   3.065   7.021
 4038SOL    HW213014   4.698   3.003   0.138
 4039SOL     OW13015   4.713   5.817   1.778
 4039SOL    HW113016   4.744   5.859   1.864
 4039SOL    HW213017   4.705   5.888   1.708
 4040SOL     OW13018   2.685   6.345   4.609
 4040SOL    HW113019   2.641   6.271   4.660
 4040SOL    HW213020   2.619   6.418   4.592
 4041SOL     OW13021   2.256   6.463   1.246
 4041SOL    HW113022   2.236   6.557   1.217
 4041SOL    HW213023   2.349   6.460   1.285
 4042SOL     OW13024   6.235   6.607   3.382
 4042SOL    HW113025   6.302   6.656   3.437
 4042SOL    HW213026   6.145   6.650   3.392
 4043SOL     OW13027   6.753   1.996   6.534
 4043SOL    HW113028   6.677   2.060   6.530
 4043SOL    HW213029   6.792   1.995   6.626
 4044SOL     OW13030   5.507   5.276   2.594
 4044SOL    HW113031   5.603   5.247   2.590
 4044SOL    HW213032   5.471   5.256   2.685
 4045SOL     OW13033   4.296   6.684   5.853
 4045SOL    HW113034   4.285   6.701   5.755
 4045SOL    HW213035   4.383   6.639   5.870
 4046SOL     OW13036   0.938   1.871   2.719
 4046SOL    HW113037   0.949   1.970   2.705
 4046SOL    HW213038   1.011   1.837   2.778
 4047SOL     OW13039   2.113   2.549   6.631
 4047SOL    HW113040   2.017   2.568   6.610
 4047SOL    HW213041   2.129   2.563   6.729
 4048SOL     OW13042   5.638   1.410   2.003
 4048SOL    HW113043   5.541   1.429   2.015
 4048SOL    HW213044   5.690   1.495   2.013
 4049SOL     OW13045   4.948   6.297   6.457
 4049SOL    HW113046   4.870   6.358   6.444
 4049SOL    HW213047   4.961   6.280   6.555
 4050SOL     OW13048   1.136   6.247   2.176
 4050SOL    HW113049   1.153   6.253   2.275
 4050SOL    HW213050   1.088   6.329   2.145
 4051SOL     OW13051   4.852   1.244   6.713
 4051SOL    HW113052   4.781   1.251   6.643
 4051SOL    HW213053   4.841   1.158   6.763
 4052SOL     OW13054   5.773   2.311   3.336
 4052SOL    HW113055   5.702   2.305   3.406
 4052SOL    HW213056   5.845   2.245   3.356
 4053SOL     OW13057   2.129   6.264   4.606
 4053SOL    HW113058   2.159   6.197   4.674
 4053SOL    HW213059   2.060   6.324   4.646
 4054SOL     OW13060   5.495   4.349   1.038
 4054SOL    HW113061   5.509   4.356   0.940
 4054SOL    HW213062   5.450   4.262   1.059
 4055SOL     OW13063   1.636   3.862   0.922
 4055SOL    HW113064   1.709   3.919   0.884
 4055SOL    HW213065   1.548   3.891   0.886
 4056SOL     OW13066   5.430   4.012   1.294
 4056SOL    HW113067   5.367   4.083   1.264
 4056SOL    HW213068   5.480   4.043   1.375
 4057SOL     OW13069   6.815   2.739   0.171
 4057SOL    HW113070   6.887   2.689   0.218
 4057SOL    HW213071   6.854   2.816   0.121
 4058SOL     OW13072   2.719   6.665   4.836
 4058SOL    HW113073   2.754   6.598   4.771
 4058SOL    HW213074   2.754   6.645   4.928
 4059SOL     OW13075   0.037   2.345   3.285
 4059SOL    HW113076   6.993   2.417   3.289
 4059SOL    HW213077   0.002   2.263   3.329
 4060SOL     OW13078   5.370   5.004   5.589
 4060SOL    HW113079   5.395   4.947   5.510
 4060SOL    HW213080   5.446   5.065   5.612
 4061SOL     OW13081   2.618   4.775   2.110
 4061SOL    HW113082   2.531   4.727   2.123
 4061SOL    HW213083   2.684   4.714   2.065
 4062SOL     OW13084   2.434   0.653   2.171
 4062SOL    HW113085   2.468   0.661   2.078
 4062SOL    HW213086   2.458   0.735   2.223
 4063SOL     OW13087   6.244   7.012   0.653
 4063SOL    HW113088   6.321   0.045   0.679
 4063SOL    HW213089   6.277   6.924   0.621
 4064SOL     OW13090   2.685   2.005   4.501
 4064SOL    HW113091   2.662   1.997   4.598
 4064SOL    HW213092   2.764   2.066   4.489
 4065SOL     OW13093   0.866   6.947   1.791
 4065SOL    HW113094   0.845   6.926   1.887
 4065SOL    HW213095   0.868   6.863   1.738
 4066SOL     OW13096   6.671   4.512   2.825
 4066SOL    HW113097   6.686   4.570   2.905
 4066SOL    HW213098   6.735   4.435   2.826
 4067SOL     OW13099   5.588   4.195   3.538
 4067SOL    HW113100   5.525   4.247   3.481
 4067SOL    HW213101   5.678   4.191   3.495
 4068SOL     OW13102   2.522   2.227   4.594
 4068SOL    HW113103   2.497   2.264   4.683
 4068SOL    HW213104   2.566   2.138   4.606
 4069SOL     OW13105   4.024   5.207   6.833
 4069SOL    HW113106   4.065   5.160   6.912
 4069SOL    HW213107   3.958   5.275   6.865
 4070SOL     OW13108   0.475   2.674   2.736
 4070SOL    HW113109   0.438   2.618   2.810
 4070SOL    HW213110   0.401   2.699   2.674
 4071SOL     OW13111   1.527   1.692   4.832
 4071SOL    HW113112   1.589   1.616   4.814
 4071SOL    HW213113   1.479   1.717   4.748
 4072SOL     OW13114   1.086   5.826   4.865
 4072SOL    HW113115   1.052   5.908   4.817
 4072SOL    HW213116   1.169   5.849   4.915
 4073SOL     OW13117   3.327   6.068   6.111
 4073SOL    HW113118   3.368   5.977   6.113
 4073SOL    HW213119   3.227   6.060   6.103
 4074SOL     OW13120   0.602   4.417   1.342
 4074SOL    HW113121   0.570   4.426   1.248
 4074SOL    HW213122   0.628   4.506   1.377
 4075SOL     OW13123   5.058   2.035   1.466
 4075SOL    HW113124   4.995   1.969   1.506
 4075SOL    HW213125   5.077   2.108   1.532
 4076SOL     OW13126   2.514   3.111   6.428
 4076SOL    HW113127   2.472   3.126   6.339
 4076SOL    HW213128   2.525   3.199   6.475
 4077SOL     OW13129   3.987   1.981   0.801
 4077SOL    HW113130   3.991   1.963   0.702
 4077SOL    HW213131   4.031   1.905   0.849
 4078SOL     OW13132   2.397   5.119   2.128
 4078SOL    HW113133   2.323   5.156   2.072
 4078SOL    HW213134   2.479   5.108   2.071
 4079SOL     OW13135   1.839   1.432   3.032
 4079SOL    HW113136   1.802   1.442   2.940
 4079SOL    HW213137   1.797   1.501   3.092
 4080SOL     OW13138   4.766   2.783   6.073
 4080SOL    HW113139   4.688   2.819   6.124
 4080SOL    HW213140   4.745   2.782   5.976
 4081SOL     OW13141   1.630   2.891   3.399
 4081SOL    HW113142   1.647   2.923   3.492
 4081SOL    HW213143   1.685   2.809   3.381
 4082SOL     OW13144   0.906   4.187   0.597
 4082SOL    HW113145   0.886   4.151   0.506
 4082SOL    HW213146   1.005   4.185   0.612
 4083SOL     OW13147   6.494   3.345   2.708
 4083SOL    HW113148   6.572   3.399   2.678
 4083SOL    HW213149   6.519   3.248   2.709
 4084SOL     OW13150   5.487   2.067   3.982
 4084SOL    HW113151   5.520   2.006   3.911
 4084SOL    HW213152   5.444   2.148   3.940
 4085SOL     OW13153   3.737   5.380   0.788
 4085SOL    HW113154   3.766   5.460   0.841
 4085SOL    HW213155   3.706   5.309   0.851
 4086SOL     OW13156   2.080   5.752   1.622
 4086SOL    HW113157   2.142   5.680   1.591
 4086SOL    HW213158   1.987   5.732   1.591
 4087SOL     OW13159   3.004   2.235   3.402
 4087SOL    HW113160   3.098   2.269   3.406
 4087SOL    HW213161   2.993   2.175   3.323
 4088SOL     OW13162   0.570   2.013   0.475
 4088SOL    HW113163   0.544   1.923   0.442
 4088SOL    HW213164   0.582   2.011   0.574
 4089SOL     OW13165   6.184   6.292   3.846
 4089SOL    HW113166   6.213   6.378   3.803
 4089SOL    HW213167   6.151   6.311   3.939
 4090SOL     OW13168   1.618   4.415   5.794
 4090SOL    HW113169   1.572   4.401   5.882
 4090SOL    HW213170   1.653   4.327   5.761
 4091SOL     OW13171   6.469   6.329   0.432
 4091SOL    HW113172   6.492   6.287   0.344
 4091SOL    HW213173   6.530   6.407   0.448
 4092SOL     OW13174   6.497   3.496   5.117
 4092SOL    HW113175   6.522   3.417   5.061
 4092SOL    HW213176   6.451   3.564   5.059
 4093SOL     OW13177   4.115   6.973   3.355
 4093SOL    HW113178   4.022   6.953   3.323
 4093SOL    HW213179   4.112   6.992   3.453
 4094SOL     OW13180   2.363   5.903   4.638
 4094SOL    HW113181   2.306   5.864   4.566
 4094SOL    HW213182   2.312   5.976   4.685
 4095SOL     OW13183   0.687   3.654   6.684
 4095SOL    HW113184   0.699   3.571   6.629
 4095SOL    HW213185   0.749   3.725   6.652
 4096SOL     OW13186   4.592   5.362   0.916
 4096SOL    HW113187   4.564   5.285   0.858
 4096SOL    HW213188   4.629   5.327   1.002
 4097SOL     OW13189   3.981   3.912   6.324
 4097SOL    HW113190   3.952   3.877   6.235
 4097SOL    HW213191   3.907   3.968   6.363
 4098SOL     OW13192   0.533   3.136   1.660
 4098SOL    HW113193   0.521   3.159   1.757
 4098SOL    HW213194   0.531   3.220   1.606
 4099SOL     OW13195   3.211   4.614   1.074
 4099SOL    HW113196   3.166   4.541   1.023
 4099SOL    HW213197   3.296   4.580   1.114
 4100SOL     OW13198   6.445   5.895   4.816
 4100SOL    HW113199   6.430   5.825   4.886
 4100SOL    HW213200   6.501   5.857   4.743
 4101SOL     OW13201   5.875   1.034   0.664
 4101SOL    HW113202   5.911   1.062   0.753
 4101SOL    HW213203   5.936   0.966   0.623
 4102SOL     OW13204   6.499   0.810   1.255
 4102SOL    HW113205   6.562   0.877   1.215
 4102SOL    HW213206   6.549   0.753   1.320
 4103SOL     OW13207   0.374   0.570   0.909
 4103SOL    HW113208   0.459   0.534   0.946
 4103SOL    HW213209   0.374   0.560   0.809
 4104SOL     OW13210   0.605   4.774   2.050
 4104SOL    HW113211   0.510   4.746   2.063
 4104SOL    HW213212   0.663   4.729   2.118
 4105SOL     OW13213   3.844   5.518   1.249
 4105SOL    HW113214   3.828   5.424   1.276
 4105SOL    HW213215   3.929   5.550   1.290
 4106SOL     OW13216   0.454   2.120   4.797
 4106SOL    HW113217   0.431   2.026   4.824
 4106SOL    HW213218   0.371   2.166   4.765
 4107SOL     OW13219   1.852   6.164   1.230
 4107SOL    HW113220   1.768   6.195   1.186
 4107SOL    HW213221   1.930   6.182   1.169
 4108SOL     OW13222   0.192   4.449   6.331
 4108SOL    HW113223   0.101   4.441   6.371
 4108SOL    HW213224   0.241   4.524   6.374
 4109SOL     OW13225   4.639   6.116   4.899
 4109SOL    HW113226   4.549   6.145   4.932
 4109SOL    HW213227   4.685   6.063   4.970
 4110SOL     OW13228   4.859   2.933   6.525
 4110SOL    HW113229   4.904   2.844   6.521
 4110SOL    HW213230   4.782   2.928   6.588
 4111SOL     OW13231   4.021   3.248   6.524
 4111SOL    HW113232   4.023   3.322   6.591
 4111SOL    HW213233   3.938   3.256   6.469
 4112SOL     OW13234   4.821   0.585   5.165
 4112SOL    HW113235   4.756   0.620   5.097
 4112SOL    HW213236   4.819   0.642   5.246
 4113SOL     OW13237   4.623   6.496   4.275
 4113SOL    HW113238   4.655   6.401   4.274
 4113SOL    HW213239   4.701   6.557   4.280
 4114SOL     OW13240   3.861   2.048   4.100
 4114SOL    HW113241   3.913   2.053   4.185
 4114SOL    HW213242   3.862   1.954   4.066
 4115SOL     OW13243   3.906   5.890   2.156
 4115SOL    HW113244   4.000   5.924   2.160
 4115SOL    HW213245   3.894   5.835   2.073
 4116SOL     OW13246   3.782   1.922   1.642
 4116SOL    HW113247   3.719   1.952   1.713
 4116SOL    HW213248   3.783   1.822   1.638
 4117SOL     OW13249   0.816   5.394   2.068
 4117SOL    HW113250   0.831   5.324   1.998
 4117SOL    HW213251   0.753   5.358   2.137
 4118SOL     OW13252   2.603   6.492   0.721
 4118SOL    HW113253   2.636   6.425   0.787
 4118SOL    HW213254   2.512   6.464   0.689
 4119SOL     OW13255   4.091   2.157   3.656
 4119SOL    HW113256   4.136   2.239   3.622
 4119SOL    HW213257   4.044   2.178   3.742
 4120SOL     OW13258   4.436   0.809   1.008
 4120SOL    HW113259   4.426   0.717   0.972
 4120SOL    HW213260   4.345   0.850   1.021
 4121SOL     OW13261   5.838   1.410   5.266
 4121SOL    HW113262   5.869   1.502   5.293
 4121SOL    HW213263   5.903   1.370   5.202
 4122SOL     OW13264   0.702   6.188   5.472
 4122SOL    HW113265   0.748   6.179   5.561
 4122SOL    HW213266   0.604   6.199   5.487
 4123SOL     OW13267   4.431   4.752   5.439
 4123SOL    HW113268   4.480   4.697   5.506
 4123SOL    HW213269   4.494   4.817   5.396
 4124SOL     OW13270   6.004   5.116   6.095
 4124SOL    HW113271   6.005   5.202   6.045
 4124SOL    HW213272   6.004   5.040   6.030
 4125SOL     OW13273   4.566   1.549   2.230
 4125SOL    HW113274   4.531   1.468   2.184
 4125SOL    HW213275   4.588   1.527   2.325
 4126SOL     OW13276   0.940   3.716   3.758
 4126SOL    HW113277   0.970   3.800   3.805
 4126SOL    HW213278   1.013   3.648   3.763
 4127SOL     OW13279   4.490   4.510   4.760
 4127SOL    HW113280   4.560   4.439   4.749
 4127SOL    HW213281   4.449   4.502   4.851
 4128SOL     OW13282   1.407   3.550   1.790
 4128SOL    HW113283   1.373   3.504   1.872
 4128SOL    HW213284   1.428   3.482   1.720
 4129SOL     OW13285   4.687   1.397   6.946
 4129SOL    HW113286   4.745   1.409   0.002
 4129SOL    HW213287   4.742   1.413   6.863
 4130SOL     OW13288   0.027   3.195   5.618
 4130SOL    HW113289   0.109   3.147   5.649
 4130SOL    HW213290   0.048   3.249   5.537
 4131SOL     OW13291   1.460   5.698   3.963
 4131SOL    HW113292   1.386   5.725   4.024
 4131SOL    HW213293   1.482   5.602   3.976
 4132SOL     OW13294   4.923   4.308   3.740
 4132SOL    HW113295   4.956   4.228   3.690
 4132SOL    HW213296   4.970   4.390   3.705
 4133SOL     OW13297   3.219   6.754   1.600
 4133SOL    HW113298   3.140   6.725   1.546
 4133SOL    HW213299   3.249   6.844   1.571
 4134SOL     OW13300   1.866   3.043   0.507
 4134SOL    HW113301   1.796   2.979   0.476
 4134SOL    HW213302   1.844   3.075   0.599
 4135SOL     OW13303   2.114   0.766   2.199
 4135SOL    HW113304   2.199   0.814   2.220
 4135SOL    HW213305   2.134   0.669   2.182
 4136SOL     OW13306   1.445   1.889   2.490
 4136SOL    HW113307   1.523   1.952   2.493
 4136SOL    HW213308   1.363   1.935   2.521
 4137SOL     OW13309   1.852   4.094   0.858
 4137SOL    HW113310   1.930   4.156   0.860
 4137SOL    HW213311   1.790   4.120   0.784
 4138SOL     OW13312   3.803   5.216   3.176
 4138SOL    HW113313   3.800   5.128   3.129
 4138SOL    HW213314   3.792   5.202   3.275
 4139SOL     OW13315   2.168   2.164   5.274
 4139SOL    HW113316   2.142   2.077   5.232
 4139SOL    HW213317   2.234   2.146   5.347
 4140SOL     OW13318   2.977   0.968   5.417
 4140SOL    HW113319   2.923   0.884   5.428
 4140SOL    HW213320   2.964   1.003   5.324
 4141SOL     OW13321   5.193   6.531   1.622
 4141SOL    HW113322   5.293   6.525   1.620
 4141SOL    HW213323   5.165   6.623   1.647
 4142SOL     OW13324   6.429   5.374   1.127
 4142SOL    HW113325   6.412   5.334   1.217
 4142SOL    HW213326   6.408   5.307   1.056
 4143SOL     OW13327   0.151   2.963   0.127
 4143SOL    HW113328   0.088   3.033   0.160
 4143SOL    HW213329   0.226   3.008   0.077
 4144SOL     OW13330   5.283   3.137   7.004
 4144SOL    HW113331   5.259   3.232   6.983
 4144SOL    HW213332   5.328   3.096   6.924
 4145SOL     OW13333   0.231   5.873   1.352
 4145SOL    HW113334   0.327   5.878   1.379
 4145SOL    HW213335   0.207   5.954   1.299
 4146SOL     OW13336   6.905   0.875   6.046
 4146SOL    HW113337   6.942   0.930   5.971
 4146SOL    HW213338   6.905   0.778   6.019
 4147SOL     OW13339   4.080   1.866   5.584
 4147SOL    HW113340   4.167   1.871   5.536
 4147SOL    HW213341   4.075   1.938   5.653
 4148SOL     OW13342   0.655   0.283   4.222
 4148SOL    HW113343   0.713   0.232   4.158
 4148SOL    HW213344   0.644   0.377   4.190
 4149SOL     OW13345   0.871   2.749   0.581
 4149SOL    HW113346   0.946   2.723   0.642
 4149SOL    HW213347   0.880   2.699   0.495
 4150SOL     OW13348   7.018   1.020   5.833
 4150SOL    HW113349   6.965   1.053   5.755
 4150SOL    HW213350   0.085   1.060   5.831
 4151SOL     OW13351   4.930   6.664   6.197
 4151SOL    HW113352   4.873   6.599   6.148
 4151SOL    HW213353   4.897   6.672   6.292
 4152SOL     OW13354   2.765   5.864   0.874
 4152SOL    HW113355   2.857   5.854   0.913
 4152SOL    HW213356   2.719   5.941   0.917
 4153SOL     OW13357   4.781   5.095   6.563
 4153SOL    HW113358   4.772   5.037   6.482
 4153SOL    HW213359   4.741   5.185   6.545
 4154SOL     OW13360   0.342   4.168   5.018
 4154SOL    HW113361   0.250   4.205   5.033
 4154SOL    HW213362   0.361   4.166   4.920
 4155SOL     OW13363   6.097   2.596   3.349
 4155SOL    HW113364   6.002   2.581   3.323
 4155SOL    HW213365   6.101   2.654   3.430
 4156SOL     OW13366   5.348   6.741   4.995
 4156SOL    HW113367   5.307   6.823   4.955
 4156SOL    HW213368   5.277   6.673   5.012
 4157SOL     OW13369   4.233   6.649   3.419
 4157SOL    HW113370   4.145   6.687   3.447
 4157SOL    HW213371   4.307   6.710   3.450
 4158SOL     OW13372   1.495   5.413   3.963
 4158SOL    HW113373   1.494   5.321   4.002
 4158SOL    HW213374   1.590   5.443   3.951
 4159SOL     OW13375   1.768   2.973   3.654
 4159SOL    HW113376   1.684   3.024   3.672
 4159SOL    HW213377   1.819   2.961   3.739
 4160SOL     OW13378   6.943   0.926   1.179
 4160SOL    HW113379   6.982   0.844   1.139
 4160SOL    HW213380   7.016   0.993   1.197
 4161SOL     OW13381   1.752   6.546   6.427
 4161SOL    HW113382   1.786   6.540   6.521
 4161SOL    HW213383   1.672   6.606   6.425
 4162SOL     OW13384   6.144   6.838   5.453
 4162SOL    HW113385   6.080   6.844   5.376
 4162SOL    HW213386   6.127   6.754   5.503
 4163SOL     OW13387   6.166   0.447   3.284
 4163SOL    HW113388   6.156   0.368   3.345
 4163SOL    HW213389   6.251   0.495   3.305
 4164SOL     OW13390   1.181   6.721   6.382
 4164SOL    HW113391   1.214   6.694   6.473
 4164SOL    HW213392   1.118   6.652   6.348
 4165SOL     OW13393   4.461   0.166   0.315
 4165SOL    HW113394   4.509   0.170   0.403
 4165SOL    HW213395   4.394   0.092   0.317
 4166SOL     OW13396   5.831   3.280   1.126
 4166SOL    HW113397   5.895   3.239   1.192
 4166SOL    HW213398   5.740   3.283   1.167
 4167SOL     OW13399   2.585   3.848   0.197
 4167SOL    HW113400   2.510   3.789   0.226
 4167SOL    HW213401   2.647   3.796   0.137
 4168SOL     OW13402   0.655   5.458   1.211
 4168SOL    HW113403   0.562   5.428   1.187
 4168SOL    HW213404   0.661   5.557   1.200
 4169SOL     OW13405   5.947   3.608   3.888
 4169SOL    HW113406   5.907   3.692   3.924
 4169SOL    HW213407   5.957   3.617   3.789
 4170SOL     OW13408   3.281   3.488   4.952
 4170SOL    HW113409   3.351   3.549   4.915
 4170SOL    HW213410   3.236   3.440   4.877
 4171SOL     OW13411   5.496   4.382   1.404
 4171SOL    HW113412   5.428   4.429   1.459
 4171SOL    HW213413   5.535   4.445   1.337
 4172SOL     OW13414   0.327   2.399   6.255
 4172SOL    HW113415   0.405   2.461   6.267
 4172SOL    HW213416   0.359   2.304   6.262
 4173SOL     OW13417   6.171   3.022   4.921
 4173SOL    HW113418   6.088   2.996   4.872
 4173SOL    HW213419   6.166   3.118   4.947
 4174SOL     OW13420   5.790   0.628   4.003
 4174SOL    HW113421   5.841   0.678   4.073
 4174SOL    HW213422   5.734   0.558   4.047
 4175SOL     OW13423   2.814   5.939   3.909
 4175SOL    HW113424   2.775   6.024   3.873
 4175SOL    HW213425   2.884   5.905   3.846
 4176SOL     OW13426   2.479   6.608   2.164
 4176SOL    HW113427   2.540   6.645   2.234
 4176SOL    HW213428   2.426   6.532   2.203
 4177SOL     OW13429   0.556   4.947   5.218
 4177SOL    HW113430   0.528   4.961   5.123
 4177SOL    HW213431   0.585   5.034   5.258
 4178SOL     OW13432   4.248   0.945   4.293
 4178SOL    HW113433   4.337   0.914   4.260
 4178SOL    HW213434   4.210   0.878   4.357
 4179SOL     OW13435   5.474   3.257   4.162
 4179SOL    HW113436   5.479   3.357   4.154
 4179SOL    HW213437   5.458   3.218   4.071
 4180SOL     OW13438   5.609   3.291   2.100
 4180SOL    HW113439   5.566   3.265   2.013
 4180SOL    HW213440   5.587   3.386   2.121
 4181SOL     OW13441   2.170   2.462   6.007
 4181SOL    HW113442   2.173   2.489   6.103
 4181SOL    HW213443   2.193   2.365   5.999
 4182SOL     OW13444   0.312   6.392   2.567
 4182SOL    HW113445   0.352   6.339   2.492
 4182SOL    HW213446   0.219   6.418   2.544
 4183SOL     OW13447   3.776   0.977   1.352
 4183SOL    HW113448   3.697   0.947   1.405
 4183SOL    HW213449   3.852   0.914   1.366
 4184SOL     OW13450   4.333   4.945   1.131
 4184SOL    HW113451   4.259   4.913   1.071
 4184SOL    HW213452   4.346   4.880   1.205
 4185SOL     OW13453   0.682   5.436   2.892
 4185SOL    HW113454   0.704   5.531   2.868
 4185SOL    HW213455   0.595   5.433   2.942
 4186SOL     OW13456   1.518   4.898   0.271
 4186SOL    HW113457   1.584   4.941   0.332
 4186SOL    HW213458   1.485   4.813   0.312
 4187SOL     OW13459   3.715   3.026   5.700
 4187SOL    HW113460   3.721   3.094   5.773
 4187SOL    HW213461   3.718   2.934   5.740
 4188SOL     OW13462   4.890   6.582   4.268
 4188SOL    HW113463   4.985   6.561   4.291
 4188SOL    HW213464   4.887   6.624   4.177
 4189SOL     OW13465   3.358   1.365   4.654
 4189SOL    HW113466   3.412   1.327   4.729
 4189SOL    HW213467   3.410   1.438   4.609
 4190SOL     OW13468   2.008   0.020   6.524
 4190SOL    HW113469   2.063   0.102   6.508
 4190SOL    HW213470   1.991   6.999   6.437
 4191SOL     OW13471   5.494   3.840   3.109
 4191SOL    HW113472   5.559   3.771   3.138
 4191SOL    HW213473   5.531   3.931   3.129
 4192SOL     OW13474   6.895   1.133   3.592
 4192SOL    HW113475   6.940   1.219   3.565
 4192SOL    HW213476   6.800   1.152   3.618
 4193SOL     OW13477   1.881   6.449   1.572
 4193SOL    HW113478   1.974   6.462   1.537
 4193SOL    HW213479   1.849   6.535   1.611
 4194SOL     OW13480   6.632   1.959   5.304
 4194SOL    HW113481   6.662   2.043   5.258
 4194SOL    HW213482   6.546   1.928   5.263
 4195SOL     OW13483   3.244   0.456   1.585
 4195SOL    HW113484   3.310   0.383   1.565
 4195SOL    HW213485   3.238   0.469   1.684
 4196SOL     OW13486   6.376   1.806   4.348
 4196SOL    HW113487   6.396   1.782   4.253
 4196SOL    HW213488   6.325   1.731   4.391
 4197SOL     OW13489   4.618   4.852   4.148
 4197SOL    HW113490   4.650   4.845   4.054
 4197SOL    HW213491   4.630   4.946   4.181
 4198SOL     OW13492   6.188   3.889   6.825
 4198SOL    HW113493   6.201   3.833   6.743
 4198SOL    HW213494   6.111   3.853   6.878
 4199SOL     OW13495   1.901   3.369   6.245
 4199SOL    HW113496   1.949   3.304   6.303
 4199SOL    HW213497   1.947   3.377   6.157
 4200SOL     OW13498   2.893   6.586   5.370
 4200SOL    HW113499   2.925   6.503   5.323
 4200SOL    HW213500   2.854   6.561   5.459
 4201SOL     OW13501   5.385   6.506   3.852
 4201SOL    HW113502   5.375   6.530   3.755
 4201SOL    HW213503   5.382   6.407   3.863
 4202SOL     OW13504   4.521   4.696   6.054
 4202SOL    HW113505   4.468   4.638   5.991
 4202SOL    HW213506   4.564   4.639   6.123
 4203SOL     OW13507   3.728   5.954   2.827
 4203SOL    HW113508   3.697   6.004   2.746
 4203SOL    HW213509   3.653   5.900   2.864
 4204SOL     OW13510   3.378   2.797   2.032
 4204SOL    HW113511   3.339   2.759   2.116
 4204SOL    HW213512   3.447   2.865   2.055
 4205SOL     OW13513   3.517   5.321   4.379
 4205SOL    HW113514   3.442   5.290   4.436
 4205SOL    HW213515   3.502   5.292   4.284
 4206SOL     OW13516   4.997   1.046   5.752
 4206SOL    HW113517   4.946   1.128   5.729
 4206SOL    HW213518   5.080   1.042   5.696
 4207SOL     OW13519   2.066   1.663   1.668
 4207SOL    HW113520   2.135   1.687   1.600
 4207SOL    HW213521   2.095   1.581   1.718
 4208SOL     OW13522   1.388   2.274   0.498
 4208SOL    HW113523   1.481   2.308   0.516
 4208SOL    HW213524   1.366   2.202   0.564
 4209SOL     OW13525   1.137   1.326   4.872
 4209SOL    HW113526   1.234   1.346   4.882
 4209SOL    HW213527   1.121   1.229   4.893
 4210SOL     OW13528   3.241   3.235   2.012
 4210SOL    HW113529   3.237   3.195   1.921
 4210SOL    HW213530   3.208   3.329   2.010
 4211SOL     OW13531   5.209   6.203   5.906
 4211SOL    HW113532   5.276   6.151   5.960
 4211SOL    HW213533   5.142   6.140   5.867
 4212SOL     OW13534   6.437   2.353   2.158
 4212SOL    HW113535   6.440   2.415   2.080
 4212SOL    HW213536   6.450   2.406   2.243
 4213SOL     OW13537   2.353   0.894   2.279
 4213SOL    HW113538   2.375   0.951   2.358
 4213SOL    HW213539   2.342   0.952   2.198
 4214SOL     OW13540   0.275   4.026   5.840
 4214SOL    HW113541   0.336   4.085   5.788
 4214SOL    HW213542   0.313   4.011   5.931
 4215SOL     OW13543   6.833   5.591   4.958
 4215SOL    HW113544   6.753   5.580   5.017
 4215SOL    HW213545   6.916   5.573   5.011
 4216SOL     OW13546   1.456   2.316   3.385
 4216SOL    HW113547   1.383   2.302   3.318
 4216SOL    HW213548   1.472   2.230   3.434
 4217SOL     OW13549   6.390   0.476   3.002
 4217SOL    HW113550   6.437   0.554   2.960
 4217SOL    HW213551   6.374   0.406   2.932
 4218SOL     OW13552   5.447   0.249   1.874
 4218SOL    HW113553   5.413   0.341   1.854
 4218SOL    HW213554   5.546   0.252   1.885
 4219SOL     OW13555   3.007   4.822   5.183
 4219SOL    HW113556   2.956   4.753   5.133
 4219SOL    HW213557   3.006   4.801   5.281
 4220SOL     OW13558   6.317   3.427   2.992
 4220SOL    HW113559   6.326   3.527   2.994
 4220SOL    HW213560   6.393   3.388   2.942
 4221SOL     OW13561   6.734   5.767   6.276
 4221SOL    HW113562   6.717   5.843   6.339
 4221SOL    HW213563   6.646   5.731   6.244
 4222SOL     OW13564   6.055   1.977   2.127
 4222SOL    HW113565   5.995   1.925   2.188
 4222SOL    HW213566   6.031   2.074   2.131
 4223SOL     OW13567   3.941   3.084   3.760
 4223SOL    HW113568   3.930   3.101   3.858
 4223SOL    HW213569   3.899   2.996   3.737
 4224SOL     OW13570   5.057   3.367   4.469
 4224SOL    HW113571   4.983   3.319   4.516
 4224SOL    HW213572   5.140   3.363   4.525
 4225SOL     OW13573   5.510   0.779   5.426
 4225SOL    HW113574   5.509   0.857   5.364
 4225SOL    HW213575   5.456   0.801   5.508
 4226SOL     OW13576   1.951   0.499   3.281
 4226SOL    HW113577   1.909   0.553   3.354
 4226SOL    HW213578   1.968   0.406   3.313
 4227SOL     OW13579   3.444   4.155   6.530
 4227SOL    HW113580   3.427   4.056   6.531
 4227SOL    HW213581   3.537   4.173   6.561
 4228SOL     OW13582   5.534   5.589   4.209
 4228SOL    HW113583   5.457   5.593   4.273
 4228SOL    HW213584   5.616   5.557   4.257
 4229SOL     OW13585   4.204   4.587   6.111
 4229SOL    HW113586   4.190   4.686   6.107
 4229SOL    HW213587   4.283   4.566   6.169
 4230SOL     OW13588   2.379   0.243   4.929
 4230SOL    HW113589   2.394   0.224   5.026
 4230SOL    HW213590   2.466   0.240   4.881
 4231SOL     OW13591   5.490   6.374   4.850
 4231SOL    HW113592   5.466   6.280   4.872
 4231SOL    HW213593   5.589   6.384   4.847
 4232SOL     OW13594   0.712   4.934   1.863
 4232SOL    HW113595   0.659   4.869   1.917
 4232SOL    HW213596   0.649   4.991   1.809
 4233SOL     OW13597   6.629   0.406   0.580
 4233SOL    HW113598   6.667   0.481   0.634
 4233SOL    HW213599   6.600   0.441   0.491
 4234SOL     OW13600   2.177   5.784   5.273
 4234SOL    HW113601   2.132   5.717   5.331
 4234SOL    HW213602   2.210   5.860   5.329
 4235SOL     OW13603   5.851   4.293   5.062
 4235SOL    HW113604   5.852   4.198   5.093
 4235SOL    HW213605   5.758   4.330   5.069
 4236SOL     OW13606   7.015   2.945   3.396
 4236SOL    HW113607   6.940   2.926   3.333
 4236SOL    HW213608   0.006   3.044   3.401
 4237SOL     OW13609   6.475   4.545   4.273
 4237SOL    HW113610   6.474   4.528   4.175
 4237SOL    HW213611   6.562   4.514   4.311
 4238SOL     OW13612   4.340   4.688   3.981
 4238SOL    HW113613   4.395   4.662   4.060
 4238SOL    HW213614   4.399   4.694   3.900
 4239SOL     OW13615   5.237   0.156   4.406
 4239SOL    HW113616   5.290   0.229   4.449
 4239SOL    HW213617   5.299   0.087   4.369
 4240SOL     OW13618   2.618   6.228   6.174
 4240SOL    HW113619   2.712   6.229   6.139
 4240SOL    HW213620   2.590   6.134   6.192
 4241SOL     OW13621   6.000   0.436   0.743
 4241SOL    HW113622   6.053   0.521   0.749
 4241SOL    HW213623   5.997   0.406   0.647
 4242SOL     OW13624   2.379   6.823   3.057
 4242SOL    HW113625   2.349   6.850   2.966
 4242SOL    HW213626   2.339   6.884   3.126
 4243SOL     OW13627   0.614   3.662   2.759
 4243SOL    HW113628   0.692   3.724   2.760
 4243SOL    HW213629   0.644   3.569   2.783
 4244SOL     OW13630   4.827   5.928   1.152
 4244SOL    HW113631   4.835   5.861   1.226
 4244SOL    HW213632   4.807   5.880   1.066
 4245SOL     OW13633   7.025   2.539   0.329
 4245SOL    HW113634   7.019   2.530   0.429
 4245SOL    HW213635   0.071   2.477   0.295
 4246SOL     OW13636   5.112   3.262   2.923
 4246SOL    HW113637   5.101   3.185   2.859
 4246SOL    HW213638   5.033   3.323   2.914
 4247SOL     OW13639   2.478   5.519   4.453
 4247SOL    HW113640   2.558   5.569   4.486
 4247SOL    HW213641   2.446   5.559   4.367
 4248SOL     OW13642   1.534   0.311   3.357
 4248SOL    HW113643   1.444   0.349   3.336
 4248SOL    HW213644   1.597   0.332   3.282
 4249SOL     OW13645   0.084   1.968   3.661
 4249SOL    HW113646   0.145   1.905   3.708
 4249SOL    HW213647   0.102   2.061   3.691
 4250SOL     OW13648   0.193   5.918   4.253
 4250SOL    HW113649   0.279   5.965   4.233
 4250SOL    HW213650   0.197   5.825   4.217
 4251SOL     OW13651   6.130   2.652   6.550
 4251SOL    HW113652   6.075   2.618   6.473
 4251SOL    HW213653   6.108   2.748   6.566
 4252SOL     OW13654   6.208   5.369   6.164
 4252SOL    HW113655   6.122   5.404   6.125
 4252SOL    HW213656   6.279   5.369   6.093
 4253SOL     OW13657   3.676   6.385   2.731
 4253SOL    HW113658   3.772   6.369   2.707
 4253SOL    HW213659   3.652   6.327   2.809
 4254SOL     OW13660   1.892   4.477   1.394
 4254SOL    HW113661   1.889   4.408   1.466
 4254SOL    HW213662   1.982   4.519   1.391
 4255SOL     OW13663   0.308   3.930   3.780
 4255SOL    HW113664   0.320   3.838   3.743
 4255SOL    HW213665   0.307   3.997   3.706
 4256SOL     OW13666   0.828   5.520   1.579
 4256SOL    HW113667   0.781   5.437   1.550
 4256SOL    HW213668   0.803   5.540   1.674
 4257SOL     OW13669   6.692   1.504   4.690
 4257SOL    HW113670   6.789   1.531   4.691
 4257SOL    HW213671   6.635   1.585   4.702
 4258SOL     OW13672   3.390   5.692   1.178
 4258SOL    HW113673   3.448   5.725   1.103
 4258SOL    HW213674   3.431   5.611   1.219
 4259SOL     OW13675   1.865   6.562   1.276
 4259SOL    HW113676   1.907   6.537   1.189
 4259SOL    HW213677   1.777   6.516   1.286
 4260SOL     OW13678   5.050   0.030   4.083
 4260SOL    HW113679   4.970   0.090   4.084
 4260SOL    HW213680   5.103   0.044   4.166
 4261SOL     OW13681   2.419   0.154   4.123
 4261SOL    HW113682   2.374   0.182   4.208
 4261SOL    HW213683   2.431   0.234   4.064
 4262SOL     OW13684   1.503   5.062   5.978
 4262SOL    HW113685   1.447   5.009   6.042
 4262SOL    HW213686   1.581   5.007   5.948
 4263SOL     OW13687   2.795   1.927   3.491
 4263SOL    HW113688   2.745   1.840   3.491
 4263SOL    HW213689   2.890   1.912   3.465
 4264SOL     OW13690   5.899   1.400   4.461
 4264SOL    HW113691   5.920   1.350   4.545
 4264SOL    HW213692   5.982   1.445   4.428
 4265SOL     OW13693   3.310   0.075   0.278
 4265SOL    HW113694   3.263   7.016   0.252
 4265SOL    HW213695   3.350   0.117   0.196
 4266SOL     OW13696   1.775   0.308   0.203
 4266SOL    HW113697   1.837   0.273   0.133
 4266SOL    HW213698   1.686   0.264   0.194
 4267SOL     OW13699   2.168   3.904   3.911
 4267SOL    HW113700   2.179   3.849   3.994
 4267SOL    HW213701   2.098   3.862   3.853
 4268SOL     OW13702   1.628   5.037   6.953
 4268SOL    HW113703   1.628   5.052   6.854
 4268SOL    HW213704   1.533   5.038   6.986
 4269SOL     OW13705   3.667   1.645   3.829
 4269SOL    HW113706   3.590   1.663   3.769
 4269SOL    HW213707   3.750   1.633   3.775
 4270SOL     OW13708   3.832   3.396   1.612
 4270SOL    HW113709   3.820   3.421   1.709
 4270SOL    HW213710   3.878   3.307   1.606
 4271SOL     OW13711   6.091   1.059   0.844
 4271SOL    HW113712   6.069   1.146   0.888
 4271SOL    HW213713   6.177   1.068   0.794
 4272SOL     OW13714   6.755   3.241   5.826
 4272SOL    HW113715   6.734   3.312   5.759
 4272SOL    HW213716   6.688   3.243   5.900
 4273SOL     OW13717   5.027   6.361   5.112
 4273SOL    HW113718   4.938   6.405   5.120
 4273SOL    HW213719   5.014   6.263   5.095
 4274SOL     OW13720   0.893   6.582   2.500
 4274SOL    HW113721   0.864   6.536   2.416
 4274SOL    HW213722   0.930   6.515   2.564
 4275SOL     OW13723   0.037   2.232   4.428
 4275SOL    HW113724   0.058   2.328   4.409
 4275SOL    HW213725   0.119   2.176   4.415
 4276SOL     OW13726   3.356   4.899   3.710
 4276SOL    HW113727   3.257   4.907   3.722
 4276SOL    HW213728   3.377   4.876   3.615
 4277SOL     OW13729   6.774   4.895   3.820
 4277SOL    HW113730   6.761   4.994   3.822
 4277SOL    HW213731   6.749   4.856   3.909
 4278SOL     OW13732   6.744   6.535   3.754
 4278SOL    HW113733   6.835   6.566   3.781
 4278SOL    HW213734   6.733   6.546   3.656
 4279SOL     OW13735   1.456   1.246   2.797
 4279SOL    HW113736   1.500   1.192   2.726
 4279SOL    HW213737   1.508   1.330   2.813
 4280SOL     OW13738   6.363   6.865   6.225
 4280SOL    HW113739   6.366   6.769   6.253
 4280SOL    HW213740   6.377   6.923   6.306
 4281SOL     OW13741   4.888   5.392   3.884
 4281SOL    HW113742   4.822   5.347   3.824
 4281SOL    HW213743   4.845   5.415   3.971
 4282SOL     OW13744   3.453   4.071   0.569
 4282SOL    HW113745   3.374   4.040   0.621
 4282SOL    HW213746   3.443   4.167   0.544
 4283SOL     OW13747   4.553   0.638   3.026
 4283SOL    HW113748   4.611   0.636   3.108
 4283SOL    HW213749   4.609   0.623   2.945
 4284SOL     OW13750   4.123   5.447   0.143
 4284SOL    HW113751   4.137   5.413   0.236
 4284SOL    HW213752   4.149   5.544   0.138
 4285SOL     OW13753   3.392   0.780   6.175
 4285SOL    HW113754   3.322   0.778   6.247
 4285SOL    HW213755   3.377   0.860   6.117
 4286SOL     OW13756   6.867   0.819   7.010
 4286SOL    HW113757   6.775   0.829   6.974
 4286SOL    HW213758   6.878   0.877   0.066
 4287SOL     OW13759   4.377   0.881   0.121
 4287SOL    HW113760   4.325   0.951   0.171
 4287SOL    HW213761   4.313   0.818   0.077
 4288SOL     OW13762   6.332   5.739   2.095
 4288SOL    HW113763   6.427   5.734   2.125
 4288SOL    HW213764   6.327   5.724   1.996
 4289SOL     OW13765   0.408   2.084   5.312
 4289SOL    HW113766   0.309   2.076   5.303
 4289SOL    HW213767   0.430   2.164   5.369
 4290SOL     OW13768   7.019   6.607   3.246
 4290SOL    HW113769   0.021   6.664   3.169
 4290SOL    HW213770   6.960   6.532   3.215
 4291SOL     OW13771   4.945   3.280   6.111
 4291SOL    HW113772   4.917   3.259   6.205
 4291SOL    HW213773   5.025   3.225   6.087
 4292SOL     OW13774   5.204   2.484   0.353
 4292SOL    HW113775   5.182   2.400   0.303
 4292SOL    HW213776   5.294   2.475   0.396
 4293SOL     OW13777   4.553   3.717   6.744
 4293SOL    HW113778   4.604   3.645   6.792
 4293SOL    HW213779   4.562   3.803   6.794
 4294SOL     OW13780   2.556   1.883   6.062
 4294SOL    HW113781   2.631   1.883   6.129
 4294SOL    HW213782   2.564   1.964   6.004
 4295SOL     OW13783   4.214   6.415   2.702
 4295SOL    HW113784   4.233   6.510   2.678
 4295SOL    HW213785   4.116   6.397   2.691
 4296SOL     OW13786   3.366   6.790   0.745
 4296SOL    HW113787   3.331   6.809   0.837
 4296SOL    HW213788   3.359   6.872   0.689
 4297SOL     OW13789   6.881   5.488   1.202
 4297SOL    HW113790   6.958   5.552   1.192
 4297SOL    HW213791   6.907   5.399   1.165
 4298SOL     OW13792   3.954   6.185   1.240
 4298SOL    HW113793   3.910   6.109   1.192
 4298SOL    HW213794   3.923   6.271   1.201
 4299SOL     OW13795   0.745   3.045   7.013
 4299SOL    HW113796   0.701   2.991   6.942
 4299SOL    HW213797   0.738   2.998   0.076
 4300SOL     OW13798   3.410   0.376   0.852
 4300SOL    HW113799   3.440   0.465   0.888
 4300SOL    HW213800   3.319   0.385   0.812
 4301SOL     OW13801   2.907   6.808   1.219
 4301SOL    HW113802   2.964   6.769   1.291
 4301SOL    HW213803   2.913   6.908   1.223
 4302SOL     OW13804   6.703   0.343   6.847
 4302SOL    HW113805   6.682   0.423   6.902
 4302SOL    HW213806   6.793   0.354   6.804
 4303SOL     OW13807   6.955   4.680   3.755
 4303SOL    HW113808   6.904   4.760   3.784
 4303SOL    HW213809   6.953   4.673   3.655
 4304SOL     OW13810   3.492   4.118   2.083
 4304SOL    HW113811   3.512   4.180   2.158
 4304SOL    HW213812   3.571   4.058   2.067
 4305SOL     OW13813   0.441   6.917   5.501
 4305SOL    HW113814   0.409   6.822   5.502
 4305SOL    HW213815   0.397   6.968   5.575
 4306SOL     OW13816   4.912   3.779   4.871
 4306SOL    HW113817   4.923   3.741   4.779
 4306SOL    HW213818   4.890   3.705   4.935
 4307SOL     OW13819   5.606   2.565   5.847
 4307SOL    HW113820   5.630   2.598   5.756
 4307SOL    HW213821   5.509   2.584   5.865
 4308SOL     OW13822   5.570   5.278   1.627
 4308SOL    HW113823   5.484   5.272   1.576
 4308SOL    HW213824   5.550   5.279   1.725
 4309SOL     OW13825   0.909   3.487   6.579
 4309SOL    HW113826   0.936   3.540   6.498
 4309SOL    HW213827   0.937   3.535   6.662
 4310SOL     OW13828   1.567   2.405   2.460
 4310SOL    HW113829   1.546   2.351   2.542
 4310SOL    HW213830   1.638   2.472   2.482
 4311SOL     OW13831   1.321   6.011   2.599
 4311SOL    HW113832   1.257   6.035   2.672
 4311SOL    HW213833   1.271   6.008   2.512
 4312SOL     OW13834   0.916   5.078   2.613
 4312SOL    HW113835   0.835   5.027   2.584
 4312SOL    HW213836   0.940   5.052   2.706
 4313SOL     OW13837   4.048   1.645   0.540
 4313SOL    HW113838   3.997   1.731   0.528
 4313SOL    HW213839   4.145   1.661   0.525
 4314SOL     OW13840   6.409   2.393   5.829
 4314SOL    HW113841   6.327   2.376   5.884
 4314SOL    HW213842   6.460   2.469   5.868
 4315SOL     OW13843   1.957   1.898   3.408
 4315SOL    HW113844   1.967   1.998   3.410
 4315SOL    HW213845   1.871   1.872   3.450
 4316SOL     OW13846   4.588   0.401   2.706
 4316SOL    HW113847   4.540   0.334   2.649
 4316SOL    HW213848   4.672   0.430   2.660
 4317SOL     OW13849   4.348   0.679   5.508
 4317SOL    HW113850   4.365   0.584   5.535
 4317SOL    HW213851   4.354   0.738   5.589
 4318SOL     OW13852   0.528   0.957   4.397
 4318SOL    HW113853   0.610   0.917   4.357
 4318SOL    HW213854   0.532   0.948   4.497
 4319SOL     OW13855   1.640   2.040   1.196
 4319SOL    HW113856   1.674   2.077   1.283
 4319SOL    HW213857   1.716   2.035   1.131
 4320SOL     OW13858   3.900   6.072   0.546
 4320SOL    HW113859   3.882   6.090   0.449
 4320SOL    HW213860   3.882   6.155   0.598
 4321SOL     OW13861   6.803   5.552   3.398
 4321SOL    HW113862   6.718   5.575   3.447
 4321SOL    HW213863   6.782   5.486   3.326
 4322SOL     OW13864   0.733   3.216   5.262
 4322SOL    HW113865   0.801   3.148   5.233
 4322SOL    HW213866   0.685   3.252   5.182
 4323SOL     OW13867   4.335   5.306   0.027
 4323SOL    HW113868   4.360   5.333   6.959
 4323SOL    HW213869   4.253   5.357   0.055
 4324SOL     OW13870   6.844   3.407   5.402
 4324SOL    HW113871   6.939   3.396   5.431
 4324SOL    HW213872   6.784   3.405   5.481
 4325SOL     OW13873   2.655   1.454   2.399
 4325SOL    HW113874   2.697   1.538   2.434
 4325SOL    HW213875   2.556   1.458   2.411
 4326SOL     OW13876   5.287   3.014   2.598
 4326SOL    HW113877   5.223   3.067   2.544
 4326SOL    HW213878   5.371   2.998   2.545
 4327SOL     OW13879   3.776   5.633   3.301
 4327SOL    HW113880   3.875   5.620   3.293
 4327SOL    HW213881   3.735   5.549   3.338
 4328SOL     OW13882   6.305   4.641   4.647
 4328SOL    HW113883   6.390   4.590   4.655
 4328SOL    HW213884   6.300   4.687   4.559
 4329SOL     OW13885   5.594   3.075   5.311
 4329SOL    HW113886   5.612   3.096   5.407
 4329SOL    HW213887   5.583   2.977   5.299
 4330SOL     OW13888   2.819   6.731   5.118
 4330SOL    HW113889   2.891   6.681   5.166
 4330SOL    HW213890   2.861   6.796   5.055
 4331SOL     OW13891   0.160   0.560   1.708
 4331SOL    HW113892   0.090   0.490   1.722
 4331SOL    HW213893   0.185   0.563   1.612
 4332SOL     OW13894   5.496   3.791   2.828
 4332SOL    HW113895   5.552   3.709   2.829
 4332SOL    HW213896   5.486   3.825   2.922
 4333SOL     OW13897   5.050   2.421   4.983
 4333SOL    HW113898   5.125   2.488   4.977
 4333SOL    HW213899   5.042   2.390   5.078
 4334SOL     OW13900   0.923   2.903   2.831
 4334SOL    HW113901   1.022   2.900   2.841
 4334SOL    HW213902   0.898   2.978   2.770
 4335SOL     OW13903   3.091   3.364   0.613
 4335SOL    HW113904   3.173   3.407   0.576
 4335SOL    HW213905   3.109   3.331   0.706
 4336SOL     OW13906   2.091   4.838   5.366
 4336SOL    HW113907   2.008   4.893   5.374
 4336SOL    HW213908   2.117   4.804   5.456
 4337SOL     OW13909   1.138   6.078   2.800
 4337SOL    HW113910   1.048   6.046   2.828
 4337SOL    HW213911   1.184   6.123   2.877
 4338SOL     OW13912   6.335   0.003   5.998
 4338SOL    HW113913   6.273   6.995   5.928
 4338SOL    HW213914   6.338   6.963   6.074
 4339SOL     OW13915   4.134   2.110   6.868
 4339SOL    HW113916   4.121   2.177   6.942
 4339SOL    HW213917   4.232   2.103   6.847
 4340SOL     OW13918   6.052   3.490   0.873
 4340SOL    HW113919   6.096   3.579   0.871
 4340SOL    HW213920   6.093   3.431   0.804
 4341SOL     OW13921   1.178   5.930   2.380
 4341SOL    HW113922   1.198   5.970   2.291
 4341SOL    HW213923   1.091   5.968   2.414
 4342SOL     OW13924   5.003   3.392   3.254
 4342SOL    HW113925   5.000   3.481   3.300
 4342SOL    HW213926   4.980   3.405   3.157
 4343SOL     OW13927   3.354   0.037   6.438
 4343SOL    HW113928   3.437   0.006   6.391
 4343SOL    HW213929   3.367   0.031   6.537
 4344SOL     OW13930   0.628   2.806   3.468
 4344SOL    HW113931   0.536   2.779   3.438
 4344SOL    HW213932   0.649   2.761   3.555
 4345SOL     OW13933   2.879   3.512   2.591
 4345SOL    HW113934   2.893   3.579   2.518
 4345SOL    HW213935   2.967   3.471   2.616
 4346SOL     OW13936   2.332   2.791   3.129
 4346SOL    HW113937   2.315   2.853   3.053
 4346SOL    HW213938   2.373   2.706   3.095
 4347SOL     OW13939   6.231   5.827   1.302
 4347SOL    HW113940   6.311   5.826   1.242
 4347SOL    HW213941   6.209   5.921   1.326
 4348SOL     OW13942   6.794   5.968   4.219
 4348SOL    HW113943   6.764   5.907   4.293
 4348SOL    HW213944   6.771   6.063   4.243
 4349SOL     OW13945   0.160   4.128   3.594
 4349SOL    HW113946   0.074   4.139   3.643
 4349SOL    HW213947   0.142   4.114   3.497
 4350SOL     OW13948   5.668   1.511   4.389
 4350SOL    HW113949   5.681   1.611   4.387
 4350SOL    HW213950   5.757   1.467   4.395
 4351SOL     OW13951   1.799   5.704   1.607
 4351SOL    HW113952   1.738   5.776   1.572
 4351SOL    HW213953   1.795   5.702   1.707
 4352SOL     OW13954   5.627   3.600   1.041
 4352SOL    HW113955   5.666   3.692   1.037
 4352SOL    HW213956   5.690   3.536   0.997
 4353SOL     OW13957   3.344   3.423   6.570
 4353SOL    HW113958   3.268   3.405   6.632
 4353SOL    HW213959   3.425   3.372   6.599
 4354SOL     OW13960   0.958   0.682   5.197
 4354SOL    HW113961   0.973   0.676   5.296
 4354SOL    HW213962   0.865   0.652   5.176
 4355SOL     OW13963   1.259   6.529   3.758
 4355SOL    HW113964   1.228   6.469   3.684
 4355SOL    HW213965   1.322   6.597   3.721
 4356SOL     OW13966   4.684   3.267   5.711
 4356SOL    HW113967   4.606   3.213   5.743
 4356SOL    HW213968   4.695   3.254   5.613
 4357SOL     OW13969   0.378   1.318   1.891
 4357SOL    HW113970   0.471   1.356   1.885
 4357SOL    HW213971   0.354   1.305   1.987
 4358SOL     OW13972   0.426   1.247   0.353
 4358SOL    HW113973   0.505   1.307   0.368
 4358SOL    HW213974   0.352   1.300   0.310
 4359SOL     OW13975   1.868   0.484   6.210
 4359SOL    HW113976   1.805   0.552   6.172
 4359SOL    HW213977   1.930   0.529   6.274
 4360SOL     OW13978   0.990   2.701   3.769
 4360SOL    HW113979   1.033   2.768   3.829
 4360SOL    HW213980   1.061   2.653   3.717
 4361SOL     OW13981   1.922   2.827   1.026
 4361SOL    HW113982   1.960   2.914   1.058
 4361SOL    HW213983   1.866   2.786   1.098
 4362SOL     OW13984   0.621   6.309   4.194
 4362SOL    HW113985   0.634   6.211   4.204
 4362SOL    HW213986   0.526   6.333   4.216
 4363SOL     OW13987   4.406   0.387   2.942
 4363SOL    HW113988   4.494   0.425   2.913
 4363SOL    HW213989   4.341   0.392   2.867
 4364SOL     OW13990   2.943   3.719   2.427
 4364SOL    HW113991   3.003   3.688   2.352
 4364SOL    HW213992   2.882   3.790   2.394
 4365SOL     OW13993   2.843   1.937   1.765
 4365SOL    HW113994   2.884   2.015   1.718
 4365SOL    HW213995   2.887   1.853   1.734
 4366SOL     OW13996   6.050   6.224   5.342
 4366SOL    HW113997   5.953   6.219   5.367
 4366SOL    HW213998   6.073   6.147   5.282
 4367SOL     OW13999   3.342   4.879   2.613
 4367SOL    HW114000   3.367   4.905   2.520
 4367SOL    HW214001   3.378   4.788   2.634
 4368SOL     OW14002   4.210   5.937   2.650
 4368SOL    HW114003   4.298   5.943   2.699
 4368SOL    HW214004   4.136   5.961   2.713
 4369SOL     OW14005   5.061   5.529   3.289
 4369SOL    HW114006   5.126   5.459   3.320
 4369SOL    HW214007   5.006   5.493   3.214
 4370SOL     OW14008   4.046   3.749   1.418
 4370SOL    HW114009   4.146   3.758   1.415
 4370SOL    HW214010   4.014   3.764   1.511
 4371SOL     OW14011   2.721   0.933   2.180
 4371SOL    HW114012   2.734   0.845   2.225
 4371SOL    HW214013   2.716   1.006   2.248
 4372SOL     OW14014   1.444   3.545   4.582
 4372SOL    HW114015   1.497   3.588   4.509
 4372SOL    HW214016   1.449   3.600   4.665
 4373SOL     OW14017   4.923   0.828   6.121
 4373SOL    HW114018   4.854   0.769   6.080
 4373SOL    HW214019   5.002   0.774   6.148
 4374SOL     OW14020   2.705   2.203   1.285
 4374SOL    HW114021   2.723   2.105   1.297
 4374SOL    HW214022   2.772   2.256   1.337
 4375SOL     OW14023   3.771   0.107   3.368
 4375SOL    HW114024   3.819   0.176   3.313
 4375SOL    HW214025   3.675   0.103   3.341
 4376SOL     OW14026   6.511   6.921   1.769
 4376SOL    HW114027   6.517   6.889   1.864
 4376SOL    HW214028   6.547   7.013   1.763
 4377SOL     OW14029   6.609   6.029   0.552
 4377SOL    HW114030   6.524   6.074   0.581
 4377SOL    HW214031   6.672   6.098   0.518
 4378SOL     OW14032   1.582   5.050   2.006
 4378SOL    HW114033   1.490   5.011   2.013
 4378SOL    HW214034   1.604   5.099   2.091
 4379SOL     OW14035   2.000   0.377   1.704
 4379SOL    HW114036   1.968   0.438   1.776
 4379SOL    HW214037   2.082   0.329   1.735
 4380SOL     OW14038   2.156   5.917   5.028
 4380SOL    HW114039   2.156   5.866   5.114
 4380SOL    HW214040   2.190   5.858   4.955
 4381SOL     OW14041   3.265   5.622   4.819
 4381SOL    HW114042   3.255   5.722   4.818
 4381SOL    HW214043   3.346   5.597   4.766
 4382SOL     OW14044   4.700   4.199   4.594
 4382SOL    HW114045   4.703   4.292   4.629
 4382SOL    HW214046   4.626   4.190   4.527
 4383SOL     OW14047   1.060   1.778   5.334
 4383SOL    HW114048   1.129   1.833   5.380
 4383SOL    HW214049   1.002   1.837   5.277
 4384SOL     OW14050   4.556   0.357   1.264
 4384SOL    HW114051   4.577   0.301   1.185
 4384SOL    HW214052   4.457   0.375   1.268
 4385SOL     OW14053   6.826   1.816   4.118
 4385SOL    HW114054   6.808   1.866   4.033
 4385SOL    HW214055   6.778   1.728   4.116
 4386SOL     OW14056   0.863   4.329   6.593
 4386SOL    HW114057   0.954   4.291   6.575
 4386SOL    HW214058   0.872   4.416   6.642
 4387SOL     OW14059   6.790   2.201   1.624
 4387SOL    HW114060   6.790   2.273   1.554
 4387SOL    HW214061   6.871   2.144   1.612
 4388SOL     OW14062   3.844   0.962   6.739
 4388SOL    HW114063   3.942   0.972   6.758
 4388SOL    HW214064   3.807   1.049   6.708
 4389SOL     OW14065   5.645   1.639   1.766
 4389SOL    HW114066   5.649   1.541   1.782
 4389SOL    HW214067   5.634   1.687   1.853
 4390SOL     OW14068   3.948   2.211   1.902
 4390SOL    HW114069   3.985   2.136   1.957
 4390SOL    HW214070   3.854   2.190   1.877
 4391SOL     OW14071   1.166   5.943   6.438
 4391SOL    HW114072   1.157   5.847   6.465
 4391SOL    HW214073   1.107   5.960   6.359
 4392SOL     OW14074   5.312   3.353   4.865
 4392SOL    HW114075   5.318   3.277   4.800
 4392SOL    HW214076   5.276   3.434   4.818
 4393SOL     OW14077   4.897   6.912   3.232
 4393SOL    HW114078   4.822   6.847   3.219
 4393SOL    HW214079   4.981   6.862   3.252
 4394SOL     OW14080   5.614   6.145   2.432
 4394SOL    HW114081   5.595   6.047   2.418
 4394SOL    HW214082   5.558   6.179   2.507
 4395SOL     OW14083   4.499   2.061   0.588
 4395SOL    HW114084   4.437   2.069   0.666
 4395SOL    HW214085   4.449   2.023   0.510
 4396SOL     OW14086   2.430   1.931   4.453
 4396SOL    HW114087   2.523   1.962   4.469
 4396SOL    HW214088   2.385   1.994   4.389
 4397SOL     OW14089   0.445   1.098   4.175
 4397SOL    HW114090   0.458   1.033   4.250
 4397SOL    HW214091   0.353   1.135   4.178
 4398SOL     OW14092   1.427   4.231   4.114
 4398SOL    HW114093   1.495   4.304   4.116
 4398SOL    HW214094   1.392   4.221   4.020
 4399SOL     OW14095   2.717   0.599   0.740
 4399SOL    HW114096   2.638   0.592   0.680
 4399SOL    HW214097   2.691   0.644   0.825
 4400SOL     OW14098   2.255   6.624   4.816
 4400SOL    HW114099   2.345   6.667   4.811
 4400SOL    HW214100   2.187   6.684   4.774
 4401SOL     OW14101   6.288   5.870   5.346
 4401SOL    HW114102   6.383   5.881   5.376
 4401SOL    HW214103   6.275   5.777   5.312
 4402SOL     OW14104   1.284   6.126   3.016
 4402SOL    HW114105   1.262   6.040   3.062
 4402SOL    HW214106   1.264   6.202   3.078
 4403SOL     OW14107   6.604   6.997   3.693
 4403SOL    HW114108   6.505   7.008   3.703
 4403SOL    HW214109   6.639   0.039   3.627
 4404SOL     OW14110   1.046   3.352   4.264
 4404SOL    HW114111   0.968   3.293   4.243
 4404SOL    HW214112   1.054   3.362   4.363
 4405SOL     OW14113   3.302   4.697   5.927
 4405SOL    HW114114   3.397   4.676   5.950
 4405SOL    HW214115   3.282   4.665   5.835
 4406SOL     OW14116   4.955   4.349   1.136
 4406SOL    HW114117   4.958   4.331   1.037
 4406SOL    HW214118   4.993   4.439   1.155
 4407SOL     OW14119   0.240   5.545   0.587
 4407SOL    HW114120   0.175   5.557   0.512
 4407SOL    HW214121   0.192   5.511   0.668
 4408SOL     OW14122   4.461   0.536   0.961
 4408SOL    HW114123   4.559   0.529   0.944
 4408SOL    HW214124   4.444   0.526   1.059
 4409SOL     OW14125   3.745   0.875   1.728
 4409SOL    HW114126   3.712   0.784   1.704
 4409SOL    HW214127   3.789   0.873   1.817
 4410SOL     OW14128   1.773   4.436   6.812
 4410SOL    HW114129   1.779   4.374   6.734
 4410SOL    HW214130   1.850   4.500   6.809
 4411SOL     OW14131   3.697   3.064   3.126
 4411SOL    HW114132   3.790   3.055   3.089
 4411SOL    HW214133   3.698   3.129   3.202
 4412SOL     OW14134   4.491   1.722   5.311
 4412SOL    HW114135   4.432   1.641   5.312
 4412SOL    HW214136   4.530   1.736   5.402
 4413SOL     OW14137   4.975   6.104   5.058
 4413SOL    HW114138   4.991   6.051   4.974
 4413SOL    HW214139   4.889   6.075   5.100
 4414SOL     OW14140   4.983   4.831   2.167
 4414SOL    HW114141   4.938   4.834   2.078
 4414SOL    HW214142   5.002   4.737   2.193
 4415SOL     OW14143   5.190   3.335   6.323
 4415SOL    HW114144   5.197   3.236   6.332
 4415SOL    HW214145   5.114   3.368   6.378
 4416SOL     OW14146   2.762   1.648   4.101
 4416SOL    HW114147   2.783   1.743   4.127
 4416SOL    HW214148   2.746   1.643   4.002
 4417SOL     OW14149   0.120   4.638   2.691
 4417SOL    HW114150   0.127   4.571   2.617
 4417SOL    HW214151   0.055   4.710   2.664
 4418SOL     OW14152   4.116   6.590   3.725
 4418SOL    HW114153   4.065   6.657   3.671
 4418SOL    HW214154   4.203   6.630   3.754
 4419SOL     OW14155   5.800   5.584   0.390
 4419SOL    HW114156   5.787   5.674   0.431
 4419SOL    HW214157   5.748   5.578   0.305
 4420SOL     OW14158   4.442   1.009   0.771
 4420SOL    HW114159   4.485   0.964   0.849
 4420SOL    HW214160   4.350   1.039   0.797
 4421SOL     OW14161   1.769   1.691   3.088
 4421SOL    HW114162   1.864   1.701   3.118
 4421SOL    HW214163   1.715   1.652   3.162
 4422SOL     OW14164   2.577   3.295   5.737
 4422SOL    HW114165   2.526   3.288   5.822
 4422SOL    HW214166   2.513   3.310   5.661
 4423SOL     OW14167   0.508   2.841   5.404
 4423SOL    HW114168   0.464   2.752   5.390
 4423SOL    HW214169   0.604   2.828   5.427
 4424SOL     OW14170   5.087   0.092   3.337
 4424SOL    HW114171   5.059   0.145   3.417
 4424SOL    HW214172   5.020   0.019   3.321
 4425SOL     OW14173   3.833   5.863   6.393
 4425SOL    HW114174   3.743   5.884   6.355
 4425SOL    HW214175   3.903   5.918   6.346
 4426SOL     OW14176   6.839   1.025   5.398
 4426SOL    HW114177   6.784   0.975   5.464
 4426SOL    HW214178   6.823   0.988   5.306
 4427SOL     OW14179   6.709   0.667   2.604
 4427SOL    HW114180   6.728   0.654   2.701
 4427SOL    HW214181   6.724   0.763   2.580
 4428SOL     OW14182   3.095   4.863   3.816
 4428SOL    HW114183   3.123   4.851   3.911
 4428SOL    HW214184   2.999   4.837   3.805
 4429SOL     OW14185   3.141   0.337   3.808
 4429SOL    HW114186   3.076   0.265   3.785
 4429SOL    HW214187   3.123   0.370   3.901
 4430SOL     OW14188   4.668   2.735   3.752
 4430SOL    HW114189   4.620   2.767   3.834
 4430SOL    HW214190   4.644   2.639   3.735
 4431SOL     OW14191   2.925   1.135   2.483
 4431SOL    HW114192   2.922   1.211   2.549
 4431SOL    HW214193   2.987   1.160   2.408
 4432SOL     OW14194   3.261   2.959   3.744
 4432SOL    HW114195   3.186   3.008   3.789
 4432SOL    HW214196   3.226   2.910   3.664
 4433SOL     OW14197   6.641   0.000   4.280
 4433SOL    HW114198   6.674   6.999   4.189
 4433SOL    HW214199   6.543   0.021   4.275
 4434SOL     OW14200   4.682   1.346   4.258
 4434SOL    HW114201   4.749   1.420   4.251
 4434SOL    HW214202   4.628   1.343   4.174
 4435SOL     OW14203   3.950   3.656   0.725
 4435SOL    HW114204   4.007   3.717   0.671
 4435SOL    HW214205   3.966   3.672   0.822
 4436SOL     OW14206   3.275   2.063   6.891
 4436SOL    HW114207   3.358   2.098   6.847
 4436SOL    HW214208   3.299   2.022   6.979
 4437SOL     OW14209   4.751   1.100   4.157
 4437SOL    HW114210   4.844   1.101   4.121
 4437SOL    HW214211   4.726   1.192   4.188
 4438SOL     OW14212   4.602   1.717   6.869
 4438SOL    HW114213   4.687   1.727   6.922
 4438SOL    HW214214   4.539   1.791   6.893
 4439SOL     OW14215   0.709   5.307   1.440
 4439SOL    HW114216   0.704   5.344   1.348
 4439SOL    HW214217   0.622   5.323   1.488
 4440SOL     OW14218   1.810   5.615   6.490
 4440SOL    HW114219   1.902   5.603   6.454
 4440SOL    HW214220   1.755   5.535   6.468
 4441SOL     OW14221   6.301   1.617   1.613
 4441SOL    HW114222   6.383   1.671   1.597
 4441SOL    HW214223   6.280   1.616   1.711
 4442SOL     OW14224   3.049   6.472   3.479
 4442SOL    HW114225   2.953   6.494   3.497
 4442SOL    HW214226   3.057   6.374   3.459
 4443SOL     OW14227   1.201   2.306   6.318
 4443SOL    HW114228   1.127   2.331   6.255
 4443SOL    HW214229   1.199   2.366   6.398
 4444SOL     OW14230   4.045   6.237   6.461
 4444SOL    HW114231   3.998   6.184   6.532
 4444SOL    HW214232   3.983   6.307   6.425
 4445SOL     OW14233   1.309   0.891   6.225
 4445SOL    HW114234   1.256   0.875   6.308
 4445SOL    HW214235   1.400   0.850   6.235
 4446SOL     OW14236   5.929   0.918   1.186
 4446SOL    HW114237   5.977   0.886   1.104
 4446SOL    HW214238   5.883   1.004   1.166
 4447SOL     OW14239   5.288   3.225   5.571
 4447SOL    HW114240   5.345   3.262   5.644
 4447SOL    HW214241   5.298   3.282   5.489
 4448SOL     OW14242   2.843   3.977   0.474
 4448SOL    HW114243   2.841   4.050   0.406
 4448SOL    HW214244   2.862   3.890   0.429
 4449SOL     OW14245   3.397   0.497   6.237
 4449SOL    HW114246   3.406   0.594   6.215
 4449SOL    HW214247   3.347   0.487   6.323
 4450SOL     OW14248   3.811   3.037   3.378
 4450SOL    HW114249   3.733   2.975   3.370
 4450SOL    HW214250   3.896   2.986   3.366
 4451SOL     OW14251   5.611   4.056   2.397
 4451SOL    HW114252   5.672   4.134   2.405
 4451SOL    HW214253   5.649   3.978   2.448
 4452SOL     OW14254   6.158   6.547   4.896
 4452SOL    HW114255   6.227   6.619   4.882
 4452SOL    HW214256   6.135   6.506   4.808
 4453SOL     OW14257   6.192   3.222   0.182
 4453SOL    HW114258   6.184   3.132   0.225
 4453SOL    HW214259   6.274   3.268   0.216
 4454SOL     OW14260   5.069   1.983   0.968
 4454SOL    HW114261   5.103   2.062   0.916
 4454SOL    HW214262   5.066   2.006   1.065
 4455SOL     OW14263   2.856   6.325   0.746
 4455SOL    HW114264   2.935   6.303   0.689
 4455SOL    HW214265   2.772   6.300   0.698
 4456SOL     OW14266   2.443   4.907   2.612
 4456SOL    HW114267   2.406   4.833   2.667
 4456SOL    HW214268   2.492   4.870   2.534
 4457SOL     OW14269   4.166   2.434   0.050
 4457SOL    HW114270   4.264   2.419   0.063
 4457SOL    HW214271   4.147   2.532   0.047
 4458SOL     OW14272   1.692   3.564   6.199
 4458SOL    HW114273   1.651   3.529   6.115
 4458SOL    HW214274   1.743   3.490   6.245
 4459SOL     OW14275   5.376   0.132   4.061
 4459SOL    HW114276   5.308   0.075   4.015
 4459SOL    HW214277   5.434   0.177   3.993
 4460SOL     OW14278   2.701   2.999   6.233
 4460SOL    HW114279   2.704   3.046   6.321
 4460SOL    HW214280   2.653   3.055   6.166
 4461SOL     OW14281   1.165   0.328   2.801
 4461SOL    HW114282   1.178   0.229   2.796
 4461SOL    HW214283   1.199   0.361   2.888
 4462SOL     OW14284   6.586   4.016   1.171
 4462SOL    HW114285   6.686   4.019   1.173
 4462SOL    HW214286   6.554   4.033   1.078
 4463SOL     OW14287   2.179   2.601   6.890
 4463SOL    HW114288   2.122   2.633   6.965
 4463SOL    HW214289   2.225   2.516   6.917
 4464SOL     OW14290   6.152   5.342   0.373
 4464SOL    HW114291   6.240   5.348   0.326
 4464SOL    HW214292   6.139   5.425   0.428
 4465SOL     OW14293   1.841   5.966   3.390
 4465SOL    HW114294   1.900   6.045   3.407
 4465SOL    HW214295   1.882   5.885   3.431
 4466SOL     OW14296   1.263   0.723   2.932
 4466SOL    HW114297   1.333   0.709   2.862
 4466SOL    HW214298   1.179   0.755   2.888
 4467SOL     OW14299   0.594   6.890   3.776
 4467SOL    HW114300   0.665   6.831   3.815
 4467SOL    HW214301   0.531   6.918   3.849
 4468SOL     OW14302   0.882   1.967   0.453
 4468SOL    HW114303   0.881   2.006   0.545
 4468SOL    HW214304   0.789   1.951   0.422
 4469SOL     OW14305   2.989   6.681   1.001
 4469SOL    HW114306   2.930   6.718   1.073
 4469SOL    HW214307   3.082   6.717   1.012
 4470SOL     OW14308   5.767   3.233   1.739
 4470SOL    HW114309   5.832   3.288   1.791
 4470SOL    HW214310   5.716   3.292   1.676
 4471SOL     OW14311   0.381   2.732   7.005
 4471SOL    HW114312   0.416   2.740   0.073
 4471SOL    HW214313   0.296   2.680   7.004
 4472SOL     OW14314   1.416   4.299   2.832
 4472SOL    HW114315   1.328   4.329   2.795
 4472SOL    HW214316   1.472   4.261   2.758
 4473SOL     OW14317   0.473   1.091   4.904
 4473SOL    HW114318   0.476   1.090   4.804
 4473SOL    HW214319   0.458   0.998   4.938
 4474SOL     OW14320   3.421   0.470   2.406
 4474SOL    HW114321   3.396   0.389   2.459
 4474SOL    HW214322   3.343   0.533   2.403
 4475SOL     OW14323   2.068   4.085   1.219
 4475SOL    HW114324   2.154   4.073   1.171
 4475SOL    HW214325   2.003   4.015   1.189
 4476SOL     OW14326   5.650   6.553   3.430
 4476SOL    HW114327   5.720   6.494   3.469
 4476SOL    HW214328   5.679   6.585   3.340
 4477SOL     OW14329   1.698   0.336   6.341
 4477SOL    HW114330   1.668   0.284   6.261
 4477SOL    HW214331   1.768   0.401   6.314
 4478SOL     OW14332   2.220   6.416   2.650
 4478SOL    HW114333   2.245   6.464   2.734
 4478SOL    HW214334   2.269   6.456   2.573
 4479SOL     OW14335   1.248   1.060   6.506
 4479SOL    HW114336   1.345   1.073   6.526
 4479SOL    HW214337   1.211   0.988   6.565
 4480SOL     OW14338   2.007   3.388   4.472
 4480SOL    HW114339   1.983   3.295   4.497
 4480SOL    HW214340   2.075   3.387   4.399
 4481SOL     OW14341   2.150   6.611   4.422
 4481SOL    HW114342   2.216   6.541   4.394
 4481SOL    HW214343   2.186   6.660   4.501
 4482SOL     OW14344   0.446   3.425   3.630
 4482SOL    HW114345   0.435   3.336   3.673
 4482SOL    HW214346   0.541   3.453   3.635
 4483SOL     OW14347   6.083   2.743   1.154
 4483SOL    HW114348   6.144   2.664   1.144
 4483SOL    HW214349   6.060   2.779   1.064
 4484SOL     OW14350   3.774   1.670   5.270
 4484SOL    HW114351   3.746   1.574   5.261
 4484SOL    HW214352   3.696   1.729   5.251
 4485SOL     OW14353   5.409   2.326   6.346
 4485SOL    HW114354   5.434   2.230   6.348
 4485SOL    HW214355   5.425   2.364   6.255
 4486SOL     OW14356   6.258   3.665   4.309
 4486SOL    HW114357   6.229   3.760   4.301
 4486SOL    HW214358   6.191   3.606   4.265
 4487SOL     OW14359   2.547   3.765   6.714
 4487SOL    HW114360   2.512   3.671   6.721
 4487SOL    HW214361   2.635   3.771   6.762
 4488SOL     OW14362   5.165   2.416   6.256
 4488SOL    HW114363   5.247   2.361   6.273
 4488SOL    HW214364   5.177   2.507   6.295
 4489SOL     OW14365   5.278   6.231   4.386
 4489SOL    HW114366   5.339   6.199   4.313
 4489SOL    HW214367   5.185   6.199   4.369
 4490SOL     OW14368   5.427   2.152   2.054
 4490SOL    HW114369   5.482   2.194   1.981
 4490SOL    HW214370   5.332   2.147   2.025
 4491SOL     OW14371   0.822   2.846   3.226
 4491SOL    HW114372   0.747   2.820   3.287
 4491SOL    HW214373   0.873   2.922   3.266
 4492SOL     OW14374   5.238   2.984   0.589
 4492SOL    HW114375   5.196   2.978   0.680
 4492SOL    HW214376   5.279   3.074   0.577
 4493SOL     OW14377   4.121   4.861   4.719
 4493SOL    HW114378   4.061   4.816   4.785
 4493SOL    HW214379   4.130   4.958   4.743
 4494SOL     OW14380   6.750   2.360   6.109
 4494SOL    HW114381   6.753   2.430   6.181
 4494SOL    HW214382   6.670   2.374   6.051
 4495SOL     OW14383   5.354   0.158   3.394
 4495SOL    HW114384   5.260   0.125   3.384
 4495SOL    HW214385   5.416   0.096   3.345
 4496SOL     OW14386   5.293   5.349   0.871
 4496SOL    HW114387   5.213   5.384   0.921
 4496SOL    HW214388   5.265   5.323   0.779
 4497SOL     OW14389   5.141   6.285   6.874
 4497SOL    HW114390   5.186   6.254   6.957
 4497SOL    HW214391   5.197   6.356   6.830
 4498SOL     OW14392   0.344   3.322   6.511
 4498SOL    HW114393   0.342   3.308   6.412
 4498SOL    HW214394   0.439   3.317   6.544
 4499SOL     OW14395   6.860   3.217   4.203
 4499SOL    HW114396   6.954   3.195   4.178
 4499SOL    HW214397   6.797   3.171   4.140
 4500SOL     OW14398   2.982   3.659   3.760
 4500SOL    HW114399   3.063   3.717   3.756
 4500SOL    HW214400   2.902   3.712   3.731
 4501SOL     OW14401   0.439   3.925   5.475
 4501SOL    HW114402   0.364   3.969   5.426
 4501SOL    HW214403   0.402   3.856   5.537
 4502SOL     OW14404   2.037   2.995   6.411
 4502SOL    HW114405   2.117   2.945   6.444
 4502SOL    HW214406   1.995   2.945   6.335
 4503SOL     OW14407   1.899   0.535   3.011
 4503SOL    HW114408   1.905   0.531   3.111
 4503SOL    HW214409   1.875   0.628   2.983
 4504SOL     OW14410   6.386   1.949   5.182
 4504SOL    HW114411   6.410   1.954   5.085
 4504SOL    HW214412   6.308   2.009   5.200
 4505SOL     OW14413   0.206   6.158   4.644
 4505SOL    HW114414   0.283   6.127   4.589
 4505SOL    HW214415   0.239   6.203   4.727
 4506SOL     OW14416   4.762   2.477   4.408
 4506SOL    HW114417   4.747   2.384   4.442
 4506SOL    HW214418   4.712   2.489   4.322
 4507SOL     OW14419   4.850   4.441   1.556
 4507SOL    HW114420   4.923   4.373   1.559
 4507SOL    HW214421   4.796   4.436   1.641
 4508SOL     OW14422   1.137   4.198   6.793
 4508SOL    HW114423   1.180   4.138   6.861
 4508SOL    HW214424   1.085   4.269   6.840
 4509SOL     OW14425   4.625   1.660   4.144
 4509SOL    HW114426   4.716   1.620   4.153
 4509SOL    HW214427   4.598   1.659   4.047
 4510SOL     OW14428   5.524   0.070   4.721
 4510SOL    HW114429   5.552   0.031   4.809
 4510SOL    HW214430   5.461   0.008   4.675
 4511SOL     OW14431   0.078   3.379   6.165
 4511SOL    HW114432   0.134   3.337   6.094
 4511SOL    HW214433   7.018   3.414   6.125
 4512SOL     OW14434   2.254   0.167   5.755
 4512SOL    HW114435   2.301   0.195   5.671
 4512SOL    HW214436   2.303   0.202   5.834
 4513SOL     OW14437   4.653   6.861   1.078
 4513SOL    HW114438   4.684   6.933   1.140
 4513SOL    HW214439   4.652   6.773   1.126
 4514SOL     OW14440   4.105   0.760   4.702
 4514SOL    HW114441   4.029   0.821   4.724
 4514SOL    HW214442   4.175   0.766   4.774
 4515SOL     OW14443   6.560   4.028   6.300
 4515SOL    HW114444   6.560   4.082   6.385
 4515SOL    HW214445   6.529   4.085   6.224
 4516SOL     OW14446   0.806   1.816   6.258
 4516SOL    HW114447   0.892   1.773   6.286
 4516SOL    HW214448   0.735   1.745   6.251
 4517SOL     OW14449   2.670   0.102   5.912
 4517SOL    HW114450   2.591   0.060   5.955
 4517SOL    HW214451   2.751   0.045   5.927
 4518SOL     OW14452   0.198   2.180   3.865
 4518SOL    HW114453   0.180   2.177   3.963
 4518SOL    HW214454   0.281   2.235   3.848
 4519SOL     OW14455   6.748   1.745   2.188
 4519SOL    HW114456   6.700   1.811   2.245
 4519SOL    HW214457   6.803   1.684   2.246
 4520SOL     OW14458   5.701   5.526   2.899
 4520SOL    HW114459   5.634   5.577   2.953
 4520SOL    HW214460   5.690   5.428   2.917
 4521SOL     OW14461   4.556   1.598   5.867
 4521SOL    HW114462   4.606   1.629   5.786
 4521SOL    HW214463   4.569   1.664   5.941
 4522SOL     OW14464   5.287   0.212   3.699
 4522SOL    HW114465   5.208   0.181   3.646
 4522SOL    HW214466   5.289   0.312   3.700
 4523SOL     OW14467   1.283   3.982   0.103
 4523SOL    HW114468   1.274   3.951   0.198
 4523SOL    HW214469   1.344   3.920   0.053
 4524SOL     OW14470   4.995   2.140   5.721
 4524SOL    HW114471   5.076   2.089   5.692
 4524SOL    HW214472   4.983   2.130   5.820
 4525SOL     OW14473   6.674   2.216   3.608
 4525SOL    HW114474   6.729   2.153   3.663
 4525SOL    HW214475   6.599   2.251   3.663
 4526SOL     OW14476   5.232   0.331   1.278
 4526SOL    HW114477   5.320   0.308   1.319
 4526SOL    HW214478   5.236   0.423   1.239
 4527SOL     OW14479   4.276   1.139   3.790
 4527SOL    HW114480   4.350   1.198   3.757
 4527SOL    HW214481   4.314   1.055   3.829
 4528SOL     OW14482   4.616   6.599   0.426
 4528SOL    HW114483   4.638   6.674   0.363
 4528SOL    HW214484   4.682   6.598   0.501
 4529SOL     OW14485   2.569   1.325   3.552
 4529SOL    HW114486   2.571   1.225   3.552
 4529SOL    HW214487   2.515   1.358   3.629
 4530SOL     OW14488   0.279   3.722   5.564
 4530SOL    HW114489   0.292   3.661   5.643
 4530SOL    HW214490   0.185   3.757   5.564
 4531SOL     OW14491   0.335   3.539   3.291
 4531SOL    HW114492   0.405   3.569   3.355
 4531SOL    HW214493   0.377   3.482   3.220
 4532SOL     OW14494   0.424   1.230   2.246
 4532SOL    HW114495   0.386   1.302   2.303
 4532SOL    HW214496   0.524   1.232   2.252
 4533SOL     OW14497   1.495   0.121   3.720
 4533SOL    HW114498   1.517   0.047   3.784
 4533SOL    HW214499   1.462   0.082   3.635
 4534SOL     OW14500   6.374   3.407   4.576
 4534SOL    HW114501   6.414   3.380   4.488
 4534SOL    HW214502   6.375   3.507   4.584
 4535SOL     OW14503   4.636   2.084   2.837
 4535SOL    HW114504   4.657   2.165   2.783
 4535SOL    HW214505   4.566   2.030   2.790
 4536SOL     OW14506   4.924   1.724   4.761
 4536SOL    HW114507   5.010   1.762   4.796
 4536SOL    HW214508   4.854   1.733   4.832
 4537SOL     OW14509   3.595   3.463   6.237
 4537SOL    HW114510   3.497   3.451   6.248
 4537SOL    HW214511   3.614   3.558   6.211
 4538SOL     OW14512   3.394   2.127   4.278
 4538SOL    HW114513   3.415   2.175   4.193
 4538SOL    HW214514   3.479   2.095   4.320
 4539SOL     OW14515   2.597   1.976   4.206
 4539SOL    HW114516   2.694   1.951   4.204
 4539SOL    HW214517   2.555   1.941   4.289
 4540SOL     OW14518   4.136   3.709   3.942
 4540SOL    HW114519   4.052   3.750   3.906
 4540SOL    HW214520   4.153   3.744   4.034
 4541SOL     OW14521   5.577   0.879   0.732
 4541SOL    HW114522   5.655   0.941   0.729
 4541SOL    HW214523   5.601   0.792   0.689
 4542SOL     OW14524   6.068   6.290   1.731
 4542SOL    HW114525   5.975   6.326   1.723
 4542SOL    HW214526   6.064   6.195   1.762
 4543SOL     OW14527   4.410   1.517   6.722
 4543SOL    HW114528   4.473   1.582   6.765
 4543SOL    HW214529   4.316   1.548   6.736
 4544SOL     OW14530   2.509   6.162   5.870
 4544SOL    HW114531   2.550   6.074   5.847
 4544SOL    HW214532   2.537   6.188   5.963
 4545SOL     OW14533   5.407   2.360   5.132
 4545SOL    HW114534   5.498   2.381   5.166
 4545SOL    HW214535   5.360   2.300   5.198
 4546SOL     OW14536   1.123   0.117   6.152
 4546SOL    HW114537   1.136   0.148   6.246
 4546SOL    HW214538   1.139   0.019   6.146
 4547SOL     OW14539   6.308   2.787   1.912
 4547SOL    HW114540   6.363   2.850   1.856
 4547SOL    HW214541   6.358   2.701   1.923
 4548SOL     OW14542   1.525   4.460   3.903
 4548SOL    HW114543   1.439   4.438   3.856
 4548SOL    HW214544   1.507   4.479   3.999
 4549SOL     OW14545   6.210   4.324   2.749
 4549SOL    HW114546   6.238   4.260   2.677
 4549SOL    HW214547   6.284   4.388   2.768
 4550SOL     OW14548   0.609   5.895   3.749
 4550SOL    HW114549   0.574   5.946   3.827
 4550SOL    HW214550   0.538   5.889   3.678
 4551SOL     OW14551   0.259   1.838   5.527
 4551SOL    HW114552   0.194   1.908   5.558
 4551SOL    HW214553   0.349   1.855   5.568
 4552SOL     OW14554   6.925   3.068   6.209
 4552SOL    HW114555   6.910   3.032   6.301
 4552SOL    HW214556   6.847   3.123   6.181
 4553SOL     OW14557   3.604   4.247   0.253
 4553SOL    HW114558   3.514   4.282   0.225
 4553SOL    HW214559   3.644   4.307   0.322
 4554SOL     OW14560   3.892   0.653   2.125
 4554SOL    HW114561   3.875   0.607   2.038
 4554SOL    HW214562   3.893   0.752   2.110
 4555SOL     OW14563   4.344   1.207   6.591
 4555SOL    HW114564   4.280   1.243   6.523
 4555SOL    HW214565   4.330   1.109   6.601
 4556SOL     OW14566   4.565   1.745   3.875
 4556SOL    HW114567   4.541   1.840   3.892
 4556SOL    HW214568   4.664   1.738   3.857
 4557SOL     OW14569   5.253   0.149   5.145
 4557SOL    HW114570   5.324   0.088   5.111
 4557SOL    HW214571   5.264   0.160   5.244
 4558SOL     OW14572   6.599   4.075   5.988
 4558SOL    HW114573   6.655   4.096   5.908
 4558SOL    HW214574   6.514   4.127   5.984
 4559SOL     OW14575   1.615   6.664   2.054
 4559SOL    HW114576   1.692   6.723   2.076
 4559SOL    HW214577   1.586   6.681   1.960
 4560SOL     OW14578   5.065   4.632   3.197
 4560SOL    HW114579   5.120   4.671   3.271
 4560SOL    HW214580   4.985   4.690   3.181
 4561SOL     OW14581   2.662   0.631   1.028
 4561SOL    HW114582   2.587   0.683   1.068
 4561SOL    HW214583   2.739   0.628   1.091
 4562SOL     OW14584   3.017   5.854   5.384
 4562SOL    HW114585   2.989   5.767   5.424
 4562SOL    HW214586   3.066   5.908   5.453
 4563SOL     OW14587   6.394   3.922   0.016
 4563SOL    HW114588   6.325   3.887   6.977
 4563SOL    HW214589   6.472   3.957   6.989
 4564SOL     OW14590   1.241   5.441   1.204
 4564SOL    HW114591   1.283   5.469   1.118
 4564SOL    HW214592   1.312   5.405   1.265
 4565SOL     OW14593   0.549   1.193   5.310
 4565SOL    HW114594   0.560   1.268   5.374
 4565SOL    HW214595   0.530   1.229   5.219
 4566SOL     OW14596   0.109   0.353   0.703
 4566SOL    HW114597   0.096   0.331   0.607
 4566SOL    HW214598   0.202   0.330   0.731
 4567SOL     OW14599   0.673   1.000   0.692
 4567SOL    HW114600   0.596   1.013   0.629
 4567SOL    HW214601   0.758   0.991   0.640
 4568SOL     OW14602   1.818   4.168   5.152
 4568SOL    HW114603   1.887   4.140   5.086
 4568SOL    HW214604   1.727   4.154   5.114
 4569SOL     OW14605   2.010   2.128   3.867
 4569SOL    HW114606   2.029   2.031   3.851
 4569SOL    HW214607   1.974   2.169   3.784
 4570SOL     OW14608   0.074   5.949   3.511
 4570SOL    HW114609   0.037   6.030   3.465
 4570SOL    HW214610   0.007   5.876   3.508
 4571SOL     OW14611   3.493   4.007   5.458
 4571SOL    HW114612   3.568   4.071   5.439
 4571SOL    HW214613   3.490   3.937   5.387
 4572SOL     OW14614   0.473   6.908   0.788
 4572SOL    HW114615   0.418   6.847   0.845
 4572SOL    HW214616   0.465   6.880   0.692
 4573SOL     OW14617   6.017   5.844   0.645
 4573SOL    HW114618   5.998   5.942   0.639
 4573SOL    HW214619   6.051   5.822   0.736
 4574SOL     OW14620   6.892   4.443   0.786
 4574SOL    HW114621   6.919   4.482   0.698
 4574SOL    HW214622   6.792   4.433   0.788
 4575SOL     OW14623   6.895   2.053   0.735
 4575SOL    HW114624   6.957   2.008   0.671
 4575SOL    HW214625   6.899   2.006   0.823
 4576SOL     OW14626   2.675   5.361   5.997
 4576SOL    HW114627   2.623   5.281   5.965
 4576SOL    HW214628   2.666   5.368   6.096
 4577SOL     OW14629   0.130   3.274   3.039
 4577SOL    HW114630   0.202   3.234   3.095
 4577SOL    HW214631   0.171   3.329   2.967
 4578SOL     OW14632   0.504   4.071   3.376
 4578SOL    HW114633   0.444   4.119   3.441
 4578SOL    HW214634   0.470   3.977   3.364
 4579SOL     OW14635   4.739   1.807   3.140
 4579SOL    HW114636   4.821   1.809   3.198
 4579SOL    HW214637   4.761   1.843   3.050
 4580SOL     OW14638   5.929   5.089   0.502
 4580SOL    HW114639   5.924   5.187   0.522
 4580SOL    HW214640   5.926   5.074   0.403
 4581SOL     OW14641   2.915   5.121   2.273
 4581SOL    HW114642   2.893   5.024   2.282
 4581SOL    HW214643   3.014   5.131   2.260
 4582SOL     OW14644   6.326   6.445   4.179
 4582SOL    HW114645   6.261   6.481   4.246
 4582SOL    HW214646   6.416   6.486   4.193
 4583SOL     OW14647   3.234   1.580   5.075
 4583SOL    HW114648   3.321   1.597   5.121
 4583SOL    HW214649   3.235   1.489   5.033
 4584SOL     OW14650   0.402   5.751   6.046
 4584SOL    HW114651   0.475   5.688   6.017
 4584SOL    HW214652   0.365   5.798   5.966
 4585SOL     OW14653   2.756   6.472   2.803
 4585SOL    HW114654   2.760   6.512   2.894
 4585SOL    HW214655   2.662   6.444   2.783
 4586SOL     OW14656   3.834   4.368   1.388
 4586SOL    HW114657   3.926   4.342   1.417
 4586SOL    HW214658   3.839   4.451   1.333
 4587SOL     OW14659   4.337   3.758   1.721
 4587SOL    HW114660   4.338   3.680   1.784
 4587SOL    HW214661   4.316   3.726   1.629
 4588SOL     OW14662   3.991   3.455   4.886
 4588SOL    HW114663   4.054   3.424   4.957
 4588SOL    HW214664   3.934   3.378   4.857
 4589SOL     OW14665   5.931   1.793   2.694
 4589SOL    HW114666   5.935   1.844   2.781
 4589SOL    HW214667   5.853   1.731   2.695
 4590SOL     OW14668   4.397   6.005   1.492
 4590SOL    HW114669   4.392   6.039   1.586
 4590SOL    HW214670   4.330   6.055   1.436
 4591SOL     OW14671   6.914   6.068   5.217
 4591SOL    HW114672   6.989   6.017   5.260
 4591SOL    HW214673   6.836   6.007   5.202
 4592SOL     OW14674   4.026   3.165   1.600
 4592SOL    HW114675   4.078   3.188   1.519
 4592SOL    HW214676   3.979   3.078   1.586
 4593SOL     OW14677   4.460   5.705   3.295
 4593SOL    HW114678   4.371   5.677   3.333
 4593SOL    HW214679   4.475   5.801   3.315
 4594SOL     OW14680   4.092   1.947   1.663
 4594SOL    HW114681   4.070   1.867   1.608
 4594SOL    HW214682   4.007   1.992   1.692
 4595SOL     OW14683   3.682   2.759   5.789
 4595SOL    HW114684   3.721   2.695   5.724
 4595SOL    HW214685   3.605   2.717   5.836
 4596SOL     OW14686   5.983   6.673   1.548
 4596SOL    HW114687   5.927   6.631   1.620
 4596SOL    HW214688   6.050   6.607   1.515
 4597SOL     OW14689   4.961   4.961   6.713
 4597SOL    HW114690   4.914   4.872   6.715
 4597SOL    HW214691   4.911   5.024   6.655
 4598SOL     OW14692   0.799   4.889   6.447
 4598SOL    HW114693   0.767   4.822   6.380
 4598SOL    HW214694   0.759   4.866   6.537
 4599SOL     OW14695   1.451   3.973   1.236
 4599SOL    HW114696   1.530   4.026   1.268
 4599SOL    HW214697   1.367   4.021   1.262
 4600SOL     OW14698   2.995   5.264   6.145
 4600SOL    HW114699   2.988   5.277   6.046
 4600SOL    HW214700   3.037   5.344   6.187
 4601SOL     OW14701   2.080   1.395   5.262
 4601SOL    HW114702   2.127   1.313   5.230
 4601SOL    HW214703   2.119   1.424   5.349
 4602SOL     OW14704   1.248   6.307   1.015
 4602SOL    HW114705   1.180   6.371   1.052
 4602SOL    HW214706   1.334   6.356   1.000
 4603SOL     OW14707   3.686   6.618   0.983
 4603SOL    HW114708   3.613   6.617   1.051
 4603SOL    HW214709   3.649   6.651   0.895
 4604SOL     OW14710   4.249   0.839   1.256
 4604SOL    HW114711   4.214   0.930   1.278
 4604SOL    HW214712   4.307   0.807   1.332
 4605SOL     OW14713   4.907   0.687   4.007
 4605SOL    HW114714   4.967   0.745   3.952
 4605SOL    HW214715   4.815   0.688   3.969
 4606SOL     OW14716   0.273   6.588   2.252
 4606SOL    HW114717   0.306   6.661   2.312
 4606SOL    HW214718   0.347   6.558   2.191
 4607SOL     OW14719   2.613   1.972   0.666
 4607SOL    HW114720   2.600   2.026   0.583
 4607SOL    HW214721   2.694   1.913   0.655
 4608SOL     OW14722   1.253   5.137   4.640
 4608SOL    HW114723   1.177   5.172   4.696
 4608SOL    HW214724   1.227   5.048   4.602
 4609SOL     OW14725   4.374   5.147   6.063
 4609SOL    HW114726   4.413   5.132   5.972
 4609SOL    HW214727   4.298   5.084   6.077
 4610SOL     OW14728   0.038   2.471   0.594
 4610SOL    HW114729   6.981   2.428   0.632
 4610SOL    HW214730   0.063   2.550   0.650
 4611SOL     OW14731   6.369   4.259   5.915
 4611SOL    HW114732   6.394   4.348   5.878
 4611SOL    HW214733   6.347   4.267   6.012
 4612SOL     OW14734   1.544   6.540   6.984
 4612SOL    HW114735   1.618   6.524   0.025
 4612SOL    HW214736   1.460   6.498   7.018
 4613SOL     OW14737   2.376   6.124   2.870
 4613SOL    HW114738   2.319   6.062   2.816
 4613SOL    HW214739   2.317   6.180   2.928
 4614SOL     OW14740   1.658   4.904   6.300
 4614SOL    HW114741   1.583   4.959   6.336
 4614SOL    HW214742   1.686   4.837   6.368
 4615SOL     OW14743   1.946   1.532   6.671
 4615SOL    HW114744   1.917   1.440   6.697
 4615SOL    HW214745   2.021   1.561   6.730
 4616SOL     OW14746   6.990   0.338   6.252
 4616SOL    HW114747   6.905   0.286   6.240
 4616SOL    HW214748   0.037   0.297   6.195
 4617SOL     OW14749   1.260   2.071   2.597
 4617SOL    HW114750   1.287   2.161   2.563
 4617SOL    HW214751   1.165   2.073   2.628
 4618SOL     OW14752   1.745   2.740   4.944
 4618SOL    HW114753   1.721   2.653   4.900
 4618SOL    HW214754   1.842   2.739   4.968
 4619SOL     OW14755   4.854   6.469   3.445
 4619SOL    HW114756   4.856   6.458   3.346
 4619SOL    HW214757   4.872   6.565   3.468
 4620SOL     OW14758   3.214   3.869   6.819
 4620SOL    HW114759   3.300   3.885   6.868
 4620SOL    HW214760   3.233   3.823   6.732
 4621SOL     OW14761   5.788   2.103   4.130
 4621SOL    HW114762   5.701   2.087   4.178
 4621SOL    HW214763   5.829   2.016   4.104
 4622SOL     OW14764   0.681   3.099   1.351
 4622SOL    HW114765   0.703   3.113   1.447
 4622SOL    HW214766   0.584   3.075   1.342
 4623SOL     OW14767   6.912   5.312   0.657
 4623SOL    HW114768   6.999   5.264   0.644
 4623SOL    HW214769   6.926   5.391   0.716
 4624SOL     OW14770   4.583   7.013   3.350
 4624SOL    HW114771   4.591   6.921   3.390
 4624SOL    HW214772   4.649   7.022   3.275
 4625SOL     OW14773   1.317   4.530   0.038
 4625SOL    HW114774   1.391   4.535   6.995
 4625SOL    HW214775   1.299   4.434   0.060
 4626SOL     OW14776   5.935   4.763   1.004
 4626SOL    HW114777   5.975   4.673   0.990
 4626SOL    HW214778   5.836   4.755   1.015
 4627SOL     OW14779   3.289   5.682   5.439
 4627SOL    HW114780   3.243   5.607   5.488
 4627SOL    HW214781   3.366   5.714   5.494
 4628SOL     OW14782   6.322   4.225   3.149
 4628SOL    HW114783   6.256   4.217   3.074
 4628SOL    HW214784   6.395   4.158   3.137
 4629SOL     OW14785   1.914   4.676   6.269
 4629SOL    HW114786   2.010   4.649   6.278
 4629SOL    HW214787   1.867   4.613   6.207
 4630SOL     OW14788   3.305   5.717   3.430
 4630SOL    HW114789   3.276   5.633   3.386
 4630SOL    HW214790   3.376   5.761   3.374
 4631SOL     OW14791   2.690   0.257   3.280
 4631SOL    HW114792   2.623   0.314   3.327
 4631SOL    HW214793   2.746   0.314   3.220
 4632SOL     OW14794   4.219   5.077   3.050
 4632SOL    HW114795   4.179   5.096   3.139
 4632SOL    HW214796   4.182   5.142   2.983
 4633SOL     OW14797   6.449   2.070   4.266
 4633SOL    HW114798   6.497   2.076   4.178
 4633SOL    HW214799   6.392   1.989   4.267
 4634SOL     OW14800   2.563   4.102   6.326
 4634SOL    HW114801   2.524   4.175   6.381
 4634SOL    HW214802   2.612   4.141   6.249
 4635SOL     OW14803   6.162   3.700   2.283
 4635SOL    HW114804   6.202   3.608   2.289
 4635SOL    HW214805   6.215   3.762   2.341
 4636SOL     OW14806   2.617   4.579   6.684
 4636SOL    HW114807   2.692   4.533   6.731
 4636SOL    HW214808   2.603   4.669   6.725
 4637SOL     OW14809   1.627   0.672   6.972
 4637SOL    HW114810   1.694   0.652   6.901
 4637SOL    HW214811   1.535   0.673   6.933
 4638SOL     OW14812   3.794   2.881   6.336
 4638SOL    HW114813   3.884   2.860   6.299
 4638SOL    HW214814   3.773   2.818   6.411
 4639SOL     OW14815   1.641   4.838   5.386
 4639SOL    HW114816   1.675   4.802   5.299
 4639SOL    HW214817   1.555   4.793   5.409
 4640SOL     OW14818   4.638   5.496   3.499
 4640SOL    HW114819   4.715   5.554   3.526
 4640SOL    HW214820   4.643   5.477   3.401
 4641SOL     OW14821   2.908   5.357   3.904
 4641SOL    HW114822   2.865   5.279   3.949
 4641SOL    HW214823   2.866   5.371   3.814
 4642SOL     OW14824   6.888   6.317   5.343
 4642SOL    HW114825   6.884   6.237   5.284
 4642SOL    HW214826   6.912   6.288   5.436
 4643SOL     OW14827   4.866   2.652   0.875
 4643SOL    HW114828   4.845   2.744   0.909
 4643SOL    HW214829   4.783   2.609   0.842
 4644SOL     OW14830   1.429   5.111   5.263
 4644SOL    HW114831   1.363   5.104   5.188
 4644SOL    HW214832   1.396   5.059   5.342
 4645SOL     OW14833   1.887   0.087   4.718
 4645SOL    HW114834   1.886   7.014   4.698
 4645SOL    HW214835   1.853   0.138   4.639
 4646SOL     OW14836   2.435   6.457   2.500
 4646SOL    HW114837   2.477   6.410   2.578
 4646SOL    HW214838   2.466   6.415   2.415
 4647SOL     OW14839   0.467   6.451   3.261
 4647SOL    HW114840   0.372   6.480   3.270
 4647SOL    HW214841   0.500   6.417   3.349
 4648SOL     OW14842   3.769   0.266   1.211
 4648SOL    HW114843   3.858   0.223   1.228
 4648SOL    HW214844   3.706   0.240   1.284
 4649SOL     OW14845   4.977   0.041   5.730
 4649SOL    HW114846   5.002   0.030   5.826
 4649SOL    HW214847   5.000   6.982   5.679
 4650SOL     OW14848   3.585   6.196   2.919
 4650SOL    HW114849   3.514   6.146   2.869
 4650SOL    HW214850   3.544   6.246   2.995
 4651SOL     OW14851   0.119   1.985   1.547
 4651SOL    HW114852   0.106   1.888   1.524
 4651SOL    HW214853   0.063   2.008   1.626
 4652SOL     OW14854   0.629   0.332   3.578
 4652SOL    HW114855   0.708   0.271   3.583
 4652SOL    HW214856   0.545   0.279   3.571
 4653SOL     OW14857   6.831   5.435   6.907
 4653SOL    HW114858   6.857   5.349   6.863
 4653SOL    HW214859   6.745   5.423   6.956
 4654SOL     OW14860   0.847   0.140   0.120
 4654SOL    HW114861   0.896   0.074   0.064
 4654SOL    HW214862   0.875   0.233   0.096
 4655SOL     OW14863   0.137   4.615   2.096
 4655SOL    HW114864   0.079   4.669   2.156
 4655SOL    HW214865   0.099   4.523   2.087
 4656SOL     OW14866   0.818   0.139   3.167
 4656SOL    HW114867   0.822   0.193   3.084
 4656SOL    HW214868   0.754   0.180   3.232
 4657SOL     OW14869   5.417   0.014   1.746
 4657SOL    HW114870   5.431   0.111   1.766
 4657SOL    HW214871   5.399   6.990   1.832
 4658SOL     OW14872   3.659   0.531   2.574
 4658SOL    HW114873   3.667   0.450   2.632
 4658SOL    HW214874   3.602   0.510   2.494
 4659SOL     OW14875   2.311   3.649   5.388
 4659SOL    HW114876   2.249   3.589   5.439
 4659SOL    HW214877   2.270   3.672   5.300
 4660SOL     OW14878   1.286   2.835   4.856
 4660SOL    HW114879   1.350   2.911   4.859
 4660SOL    HW214880   1.335   2.750   4.837
 4661SOL     OW14881   3.976   3.884   5.101
 4661SOL    HW114882   4.062   3.848   5.065
 4661SOL    HW214883   3.902   3.820   5.082
 4662SOL     OW14884   4.919   0.342   5.221
 4662SOL    HW114885   4.893   0.433   5.190
 4662SOL    HW214886   5.016   0.341   5.243
 4663SOL     OW14887   6.854   1.336   2.723
 4663SOL    HW114888   6.911   1.396   2.779
 4663SOL    HW214889   6.764   1.377   2.711
 4664SOL     OW14890   2.348   2.394   6.514
 4664SOL    HW114891   2.382   2.421   6.424
 4664SOL    HW214892   2.273   2.456   6.541
 4665SOL     OW14893   4.670   0.041   6.869
 4665SOL    HW114894   4.680   6.973   6.831
 4665SOL    HW214895   4.589   0.044   6.927
 4666SOL     OW14896   2.303   1.286   6.908
 4666SOL    HW114897   2.251   1.320   6.986
 4666SOL    HW214898   2.397   1.321   6.911
 4667SOL     OW14899   6.750   4.905   6.852
 4667SOL    HW114900   6.710   4.850   6.778
 4667SOL    HW214901   6.703   4.885   6.938
 4668SOL     OW14902   0.012   1.644   4.096
 4668SOL    HW114903   6.963   1.709   4.113
 4668SOL    HW214904   0.062   1.627   4.182
 4669SOL     OW14905   3.584   6.671   0.724
 4669SOL    HW114906   3.562   6.579   0.692
 4669SOL    HW214907   3.502   6.728   0.721
 4670SOL     OW14908   3.273   1.315   4.989
 4670SOL    HW114909   3.197   1.330   4.925
 4670SOL    HW214910   3.358   1.304   4.937
 4671SOL     OW14911   6.112   3.114   1.574
 4671SOL    HW114912   6.144   3.019   1.571
 4671SOL    HW214913   6.131   3.154   1.663
 4672SOL     OW14914   2.909   4.598   6.027
 4672SOL    HW114915   2.831   4.622   5.969
 4672SOL    HW214916   2.876   4.569   6.117
 4673SOL     OW14917   3.552   0.200   1.413
 4673SOL    HW114918   3.479   0.140   1.445
 4673SOL    HW214919   3.515   0.290   1.391
 4674SOL     OW14920   5.439   6.130   6.760
 4674SOL    HW114921   5.415   6.209   6.703
 4674SOL    HW214922   5.363   6.066   6.762
 4675SOL     OW14923   0.385   3.687   0.662
 4675SOL    HW114924   0.408   3.605   0.609
 4675SOL    HW214925   0.453   3.700   0.734
 4676SOL     OW14926   0.830   5.754   3.797
 4676SOL    HW114927   0.748   5.809   3.783
 4676SOL    HW214928   0.909   5.814   3.809
 4677SOL     OW14929   1.951   1.855   0.848
 4677SOL    HW114930   1.884   1.782   0.849
 4677SOL    HW214931   1.946   1.904   0.760
 4678SOL     OW14932   2.649   4.680   3.105
 4678SOL    HW114933   2.628   4.762   3.052
 4678SOL    HW214934   2.628   4.599   3.049
 4679SOL     OW14935   4.383   7.014   2.274
 4679SOL    HW114936   4.398   6.955   2.195
 4679SOL    HW214937   4.421   6.972   2.356
 4680SOL     OW14938   4.081   1.778   0.926
 4680SOL    HW114939   4.011   1.707   0.936
 4680SOL    HW214940   4.171   1.741   0.949
 4681SOL     OW14941   4.631   5.102   6.905
 4681SOL    HW114942   4.695   5.051   6.847
 4681SOL    HW214943   4.682   5.161   6.968
 4682SOL     OW14944   5.831   3.439   6.082
 4682SOL    HW114945   5.746   3.386   6.088
 4682SOL    HW214946   5.866   3.458   6.173
 4683SOL     OW14947   6.084   5.545   2.728
 4683SOL    HW114948   6.118   5.459   2.766
 4683SOL    HW214949   5.999   5.528   2.678
 4684SOL     OW14950   4.493   6.249   5.995
 4684SOL    HW114951   4.425   6.286   6.059
 4684SOL    HW214952   4.554   6.187   6.043
 4685SOL     OW14953   1.626   4.277   6.226
 4685SOL    HW114954   1.672   4.197   6.187
 4685SOL    HW214955   1.552   4.246   6.286
 4686SOL     OW14956   3.749   5.364   0.522
 4686SOL    HW114957   3.729   5.353   0.620
 4686SOL    HW214958   3.812   5.293   0.493
 4687SOL     OW14959   4.616   2.248   4.231
 4687SOL    HW114960   4.604   2.151   4.250
 4687SOL    HW214961   4.559   2.302   4.292
 4688SOL     OW14962   5.840   2.489   5.468
 4688SOL    HW114963   5.834   2.413   5.533
 4688SOL    HW214964   5.770   2.557   5.489
 4689SOL     OW14965   5.765   0.689   1.211
 4689SOL    HW114966   5.818   0.769   1.238
 4689SOL    HW214967   5.803   0.652   1.126
 4690SOL     OW14968   1.705   1.214   0.786
 4690SOL    HW114969   1.764   1.148   0.831
 4690SOL    HW214970   1.650   1.262   0.854
 4691SOL     OW14971   4.535   3.840   0.198
 4691SOL    HW114972   4.610   3.842   0.132
 4691SOL    HW214973   4.570   3.856   0.290
 4692SOL     OW14974   6.045   5.093   3.172
 4692SOL    HW114975   6.131   5.056   3.137
 4692SOL    HW214976   6.065   5.166   3.238
 4693SOL     OW14977   1.439   1.012   3.929
 4693SOL    HW114978   1.453   1.057   3.841
 4693SOL    HW214979   1.439   0.913   3.917
 4694SOL     OW14980   2.039   2.471   0.403
 4694SOL    HW114981   2.060   2.388   0.351
 4694SOL    HW214982   2.124   2.522   0.420
 4695SOL     OW14983   1.761   5.930   0.939
 4695SOL    HW114984   1.859   5.916   0.954
 4695SOL    HW214985   1.732   6.013   0.987
 4696SOL     OW14986   0.548   5.536   6.896
 4696SOL    HW114987   0.476   5.521   6.964
 4696SOL    HW214988   0.626   5.582   6.940
 4697SOL     OW14989   1.053   3.626   1.907
 4697SOL    HW114990   0.994   3.575   1.970
 4697SOL    HW214991   1.145   3.588   1.909
 4698SOL     OW14992   3.880   6.923   3.234
 4698SOL    HW114993   3.832   6.839   3.261
 4698SOL    HW214994   3.842   7.000   3.285
 4699SOL     OW14995   0.498   6.763   2.925
 4699SOL    HW114996   0.593   6.779   2.899
 4699SOL    HW214997   0.440   6.833   2.884
 4700SOL     OW14998   6.446   1.677   2.439
 4700SOL    HW114999   6.375   1.626   2.392
 4700SOL    HW215000   6.471   1.629   2.523
 4701SOL     OW15001   3.243   1.877   1.229
 4701SOL    HW115002   3.295   1.840   1.306
 4701SOL    HW215003   3.169   1.935   1.264
 4702SOL     OW15004   4.550   4.872   0.275
 4702SOL    HW115005   4.626   4.852   0.214
 4702SOL    HW215006   4.545   4.970   0.292
 4703SOL     OW15007   1.028   5.552   2.566
 4703SOL    HW115008   1.111   5.581   2.519
 4703SOL    HW215009   1.051   5.480   2.632
 4704SOL     OW15010   0.487   5.949   6.232
 4704SOL    HW115011   0.457   5.886   6.160
 4704SOL    HW215012   0.579   5.921   6.262
 4705SOL     OW15013   3.453   2.409   0.631
 4705SOL    HW115014   3.488   2.379   0.542
 4705SOL    HW215015   3.432   2.507   0.626
 4706SOL     OW15016   1.291   0.345   0.611
 4706SOL    HW115017   1.199   0.340   0.649
 4706SOL    HW215018   1.318   0.441   0.601
 4707SOL     OW15019   1.079   5.929   1.669
 4707SOL    HW115020   1.015   5.867   1.714
 4707SOL    HW215021   1.119   5.883   1.590
 4708SOL     OW15022   0.591   2.223   6.075
 4708SOL    HW115023   0.543   2.160   6.136
 4708SOL    HW215024   0.616   2.175   5.991
 4709SOL     OW15025   4.570   5.144   4.340
 4709SOL    HW115026   4.630   5.125   4.419
 4709SOL    HW215027   4.475   5.136   4.369
 4710SOL     OW15028   5.913   6.993   5.717
 4710SOL    HW115029   6.008   6.984   5.684
 4710SOL    HW215030   5.909   6.970   5.814
 4711SOL     OW15031   6.896   2.128   2.730
 4711SOL    HW115032   6.838   2.058   2.688
 4711SOL    HW215033   6.844   2.213   2.741
 4712SOL     OW15034   4.076   4.854   6.565
 4712SOL    HW115035   4.032   4.896   6.486
 4712SOL    HW215036   4.009   4.798   6.615
 4713SOL     OW15037   4.964   5.554   0.974
 4713SOL    HW115038   4.903   5.630   0.996
 4713SOL    HW215039   4.941   5.476   1.031
 4714SOL     OW15040   0.236   1.460   6.652
 4714SOL    HW115041   0.245   1.543   6.707
 4714SOL    HW215042   0.141   1.430   6.652
 4715SOL     OW15043   5.827   2.157   1.273
 4715SOL    HW115044   5.833   2.124   1.367
 4715SOL    HW215045   5.896   2.228   1.258
 4716SOL     OW15046   4.784   5.891   5.948
 4716SOL    HW115047   4.849   5.966   5.961
 4716SOL    HW215048   4.691   5.925   5.965
 4717SOL     OW15049   2.225   5.064   5.326
 4717SOL    HW115050   2.195   4.974   5.356
 4717SOL    HW215051   2.324   5.071   5.337
 4718SOL     OW15052   4.998   2.896   1.260
 4718SOL    HW115053   5.022   2.843   1.179
 4718SOL    HW215054   5.009   2.993   1.241
 4719SOL     OW15055   4.961   4.063   2.892
 4719SOL    HW115056   5.053   4.064   2.929
 4719SOL    HW215057   4.945   4.147   2.839
 4720SOL     OW15058   1.986   4.364   6.106
 4720SOL    HW115059   1.907   4.425   6.110
 4720SOL    HW215060   2.035   4.378   6.019
 4721SOL     OW15061   5.726   2.438   1.738
 4721SOL    HW115062   5.754   2.483   1.823
 4721SOL    HW215063   5.715   2.507   1.666
 4722SOL     OW15064   0.498   6.021   0.272
 4722SOL    HW115065   0.446   5.990   0.192
 4722SOL    HW215066   0.595   6.026   0.249
 4723SOL     OW15067   3.564   4.360   5.424
 4723SOL    HW115068   3.482   4.342   5.371
 4723SOL    HW215069   3.553   4.444   5.476
 4724SOL     OW15070   0.218   0.173   4.113
 4724SOL    HW115071   0.295   0.171   4.049
 4724SOL    HW215072   0.231   0.247   4.179
 4725SOL     OW15073   5.612   4.979   0.361
 4725SOL    HW115074   5.706   4.993   0.394
 4725SOL    HW215075   5.606   5.009   0.266
 4726SOL     OW15076   1.000   3.390   5.729
 4726SOL    HW115077   1.001   3.303   5.681
 4726SOL    HW215078   1.056   3.456   5.680
 4727SOL     OW15079   0.038   5.902   0.810
 4727SOL    HW115080   6.998   5.914   0.734
 4727SOL    HW215081   0.088   5.988   0.824
 4728SOL     OW15082   6.498   1.681   2.839
 4728SOL    HW115083   6.411   1.643   2.807
 4728SOL    HW215084   6.488   1.713   2.933
 4729SOL     OW15085   5.190   0.234   0.674
 4729SOL    HW115086   5.209   0.145   0.632
 4729SOL    HW215087   5.219   0.307   0.613
 4730SOL     OW15088   4.122   6.009   5.405
 4730SOL    HW115089   4.165   5.942   5.344
 4730SOL    HW215090   4.046   6.053   5.357
 4731SOL     OW15091   3.064   0.884   0.712
 4731SOL    HW115092   3.025   0.835   0.633
 4731SOL    HW215093   3.084   0.978   0.686
 4732SOL     OW15094   0.247   3.679   5.279
 4732SOL    HW115095   0.304   3.750   5.237
 4732SOL    HW215096   0.243   3.694   5.378
 4733SOL     OW15097   1.589   4.191   2.645
 4733SOL    HW115098   1.558   4.097   2.663
 4733SOL    HW215099   1.544   4.225   2.562
 4734SOL     OW15100   5.271   3.128   0.268
 4734SOL    HW115101   5.290   3.099   0.175
 4734SOL    HW215102   5.243   3.224   0.267
 4735SOL     OW15103   6.592   5.307   4.131
 4735SOL    HW115104   6.669   5.323   4.192
 4735SOL    HW215105   6.561   5.213   4.140
 4736SOL     OW15106   5.577   2.026   4.383
 4736SOL    HW115107   5.494   2.079   4.365
 4736SOL    HW215108   5.636   2.079   4.445
 4737SOL     OW15109   2.615   4.340   0.854
 4737SOL    HW115110   2.650   4.325   0.946
 4737SOL    HW215111   2.678   4.302   0.787
 4738SOL     OW15112   3.164   6.742   3.863
 4738SOL    HW115113   3.103   6.737   3.943
 4738SOL    HW215114   3.163   6.653   3.816
 4739SOL     OW15115   5.361   1.935   4.176
 4739SOL    HW115116   5.276   1.984   4.196
 4739SOL    HW215117   5.407   1.977   4.098
 4740SOL     OW15118   0.673   0.356   0.677
 4740SOL    HW115119   0.679   0.260   0.703
 4740SOL    HW215120   0.625   0.364   0.589
 4741SOL     OW15121   4.932   4.325   0.871
 4741SOL    HW115122   4.873   4.254   0.833
 4741SOL    HW215123   5.028   4.303   0.852
 4742SOL     OW15124   3.167   5.540   1.453
 4742SOL    HW115125   3.115   5.496   1.526
 4742SOL    HW215126   3.263   5.510   1.456
 4743SOL     OW15127   1.504   1.780   5.946
 4743SOL    HW115128   1.587   1.776   6.002
 4743SOL    HW215129   1.527   1.818   5.856
 4744SOL     OW15130   2.416   3.395   5.535
 4744SOL    HW115131   2.431   3.396   5.436
 4744SOL    HW215132   2.342   3.459   5.557
 4745SOL     OW15133   2.566   4.868   5.240
 4745SOL    HW115134   2.626   4.911   5.172
 4745SOL    HW215135   2.485   4.831   5.194
 4746SOL     OW15136   6.140   6.412   1.429
 4746SOL    HW115137   6.135   6.372   1.521
 4746SOL    HW215138   6.231   6.450   1.414
 4747SOL     OW15139   1.443   3.313   6.033
 4747SOL    HW115140   1.364   3.272   6.077
 4747SOL    HW215141   1.525   3.297   6.088
 4748SOL     OW15142   1.602   6.438   1.238
 4748SOL    HW115143   1.543   6.389   1.303
 4748SOL    HW215144   1.567   6.424   1.145
 4749SOL     OW15145   3.042   6.581   5.855
 4749SOL    HW115146   2.988   6.628   5.786
 4749SOL    HW215147   3.083   6.648   5.917
 4750SOL     OW15148   0.387   1.832   4.089
 4750SOL    HW115149   0.427   1.850   4.178
 4750SOL    HW215150   0.459   1.833   4.019
 4751SOL     OW15151   1.939   3.445   0.038
 4751SOL    HW115152   2.033   3.410   0.046
 4751SOL    HW215153   1.938   3.543   0.058
 4752SOL     OW15154   3.080   6.806   0.628
 4752SOL    HW115155   3.036   6.871   0.567
 4752SOL    HW215156   3.013   6.769   0.692
 4753SOL     OW15157   5.420   6.993   4.283
 4753SOL    HW115158   5.420   0.037   4.211
 4753SOL    HW215159   5.502   6.935   4.274
 4754SOL     OW15160   5.897   0.225   5.456
 4754SOL    HW115161   5.909   0.322   5.439
 4754SOL    HW215162   5.974   0.174   5.418
 4755SOL     OW15163   2.412   0.590   6.925
 4755SOL    HW115164   2.459   0.651   6.862
 4755SOL    HW215165   2.426   0.621   7.019
 4756SOL     OW15166   5.877   1.633   1.558
 4756SOL    HW115167   5.833   1.589   1.479
 4756SOL    HW215168   5.807   1.660   1.624
 4757SOL     OW15169   1.626   1.977   2.197
 4757SOL    HW115170   1.719   2.002   2.169
 4757SOL    HW215171   1.615   1.878   2.194
 4758SOL     OW15172   3.717   5.772   5.049
 4758SOL    HW115173   3.811   5.742   5.040
 4758SOL    HW215174   3.655   5.693   5.043
 4759SOL     OW15175   5.550   5.452   4.922
 4759SOL    HW115176   5.543   5.466   5.021
 4759SOL    HW215177   5.624   5.388   4.902
 4760SOL     OW15178   3.397   2.198   1.090
 4760SOL    HW115179   3.300   2.174   1.077
 4760SOL    HW215180   3.426   2.260   1.017
 4761SOL     OW15181   6.868   0.943   0.239
 4761SOL    HW115182   6.959   0.964   0.275
 4761SOL    HW215183   6.820   1.029   0.220
 4762SOL     OW15184   2.812   5.159   3.050
 4762SOL    HW115185   2.833   5.257   3.051
 4762SOL    HW215186   2.846   5.119   2.964
 4763SOL     OW15187   6.038   6.327   3.365
 4763SOL    HW115188   6.072   6.379   3.286
 4763SOL    HW215189   6.036   6.230   3.343
 4764SOL     OW15190   5.129   3.788   5.362
 4764SOL    HW115191   5.062   3.776   5.289
 4764SOL    HW215192   5.165   3.698   5.390
 4765SOL     OW15193   5.154   6.520   4.287
 4765SOL    HW115194   5.200   6.441   4.327
 4765SOL    HW215195   5.220   6.576   4.238
 4766SOL     OW15196   4.267   0.627   3.786
 4766SOL    HW115197   4.211   0.650   3.706
 4766SOL    HW215198   4.267   0.528   3.799
 4767SOL     OW15199   4.260   5.895   6.760
 4767SOL    HW115200   4.228   5.880   6.666
 4767SOL    HW215201   4.301   5.811   6.796
 4768SOL     OW15202   5.375   1.789   5.161
 4768SOL    HW115203   5.448   1.823   5.220
 4768SOL    HW215204   5.416   1.749   5.079
 4769SOL     OW15205   4.283   5.205   1.345
 4769SOL    HW115206   4.207   5.222   1.409
 4769SOL    HW215207   4.250   5.151   1.268
 4770SOL     OW15208   2.001   0.227   3.711
 4770SOL    HW115209   2.077   0.290   3.724
 4770SOL    HW215210   2.036   0.134   3.700
 4771SOL     OW15211   3.612   5.264   6.024
 4771SOL    HW115212   3.547   5.340   6.033
 4771SOL    HW215213   3.579   5.200   5.955
 4772SOL     OW15214   2.031   5.735   2.323
 4772SOL    HW115215   2.086   5.710   2.403
 4772SOL    HW215216   2.018   5.834   2.322
 4773SOL     OW15217   6.728   5.291   4.632
 4773SOL    HW115218   6.795   5.217   4.638
 4773SOL    HW215219   6.637   5.253   4.624
 4774SOL     OW15220   1.016   2.377   2.447
 4774SOL    HW115221   1.032   2.476   2.451
 4774SOL    HW215222   0.950   2.352   2.518
 4775SOL     OW15223   5.733   0.429   3.083
 4775SOL    HW115224   5.666   0.388   3.146
 4775SOL    HW215225   5.799   0.483   3.134
 4776SOL     OW15226   2.171   6.794   4.176
 4776SOL    HW115227   2.131   6.794   4.268
 4776SOL    HW215228   2.109   6.747   4.113
 4777SOL     OW15229   2.900   4.941   1.182
 4777SOL    HW115230   2.994   4.941   1.149
 4777SOL    HW215231   2.878   4.853   1.222
 4778SOL     OW15232   5.308   2.683   1.973
 4778SOL    HW115233   5.322   2.676   2.072
 4778SOL    HW215234   5.214   2.711   1.955
 4779SOL     OW15235   6.539   0.059   2.421
 4779SOL    HW115236   6.482   0.134   2.390
 4779SOL    HW215237   6.505   6.998   2.383
 4780SOL     OW15238   0.592   6.964   6.912
 4780SOL    HW115239   0.686   6.992   6.893
 4780SOL    HW215240   0.583   6.865   6.900
 4781SOL     OW15241   2.940   6.048   1.119
 4781SOL    HW115242   2.989   5.976   1.071
 4781SOL    HW215243   2.936   6.027   1.217
 4782SOL     OW15244   4.679   6.964   0.185
 4782SOL    HW115245   4.594   6.984   0.135
 4782SOL    HW215246   4.683   7.020   0.267
 4783SOL     OW15247   4.788   4.135   0.229
 4783SOL    HW115248   4.844   4.116   0.310
 4783SOL    HW215249   4.847   4.157   0.152
 4784SOL     OW15250   6.314   4.170   0.134
 4784SOL    HW115251   6.295   4.247   0.074
 4784SOL    HW215252   6.335   4.088   0.080
 4785SOL     OW15253   0.031   5.761   1.523
 4785SOL    HW115254   0.085   5.809   1.454
 4785SOL    HW215255   7.021   5.676   1.484
 4786SOL     OW15256   2.107   2.273   1.780
 4786SOL    HW115257   2.086   2.325   1.863
 4786SOL    HW215258   2.158   2.331   1.717
 4787SOL     OW15259   3.412   2.091   3.503
 4787SOL    HW115260   3.410   2.139   3.415
 4787SOL    HW215261   3.319   2.074   3.534
 4788SOL     OW15262   1.640   5.802   5.990
 4788SOL    HW115263   1.731   5.840   6.006
 4788SOL    HW215264   1.625   5.725   6.052
 4789SOL     OW15265   5.327   0.900   0.664
 4789SOL    HW115266   5.323   0.945   0.574
 4789SOL    HW215267   5.422   0.898   0.695
 4790SOL     OW15268   6.438   3.391   6.379
 4790SOL    HW115269   6.416   3.380   6.476
 4790SOL    HW215270   6.536   3.376   6.365
 4791SOL     OW15271   5.815   2.161   2.318
 4791SOL    HW115272   5.771   2.245   2.349
 4791SOL    HW215273   5.897   2.184   2.266
 4792SOL     OW15274   1.454   3.378   2.447
 4792SOL    HW115275   1.492   3.299   2.495
 4792SOL    HW215276   1.455   3.362   2.348
 4793SOL     OW15277   0.783   2.873   5.610
 4793SOL    HW115278   0.685   2.883   5.627
 4793SOL    HW215279   0.808   2.776   5.612
 4794SOL     OW15280   3.672   0.849   3.554
 4794SOL    HW115281   3.755   0.884   3.598
 4794SOL    HW215282   3.693   0.822   3.460
 4795SOL     OW15283   6.365   2.192   3.471
 4795SOL    HW115284   6.346   2.191   3.372
 4795SOL    HW215285   6.319   2.271   3.512
 4796SOL     OW15286   4.666   2.148   6.464
 4796SOL    HW115287   4.734   2.081   6.432
 4796SOL    HW215288   4.711   2.237   6.477
 4797SOL     OW15289   1.492   6.052   5.147
 4797SOL    HW115290   1.556   6.106   5.093
 4797SOL    HW215291   1.525   5.958   5.153
 4798SOL     OW15292   0.105   3.406   5.406
 4798SOL    HW115293   0.091   3.494   5.359
 4798SOL    HW215294   0.176   3.354   5.358
 4799SOL     OW15295   4.895   1.988   6.359
 4799SOL    HW115296   4.978   1.958   6.406
 4799SOL    HW215297   4.915   2.069   6.303
 4800SOL     OW15298   3.344   3.437   5.806
 4800SOL    HW115299   3.387   3.368   5.747
 4800SOL    HW215300   3.302   3.391   5.884
 4801SOL     OW15301   2.363   2.413   6.958
 4801SOL    HW115302   2.391   2.358   6.879
 4801SOL    HW215303   2.443   2.431   7.015
 4802SOL     OW15304   1.278   6.768   2.617
 4802SOL    HW115305   1.234   6.697   2.671
 4802SOL    HW215306   1.216   6.799   2.545
 4803SOL     OW15307   1.464   6.660   0.461
 4803SOL    HW115308   1.499   6.596   0.393
 4803SOL    HW215309   1.386   6.710   0.424
 4804SOL     OW15310   4.585   5.059   6.314
 4804SOL    HW115311   4.524   5.089   6.387
 4804SOL    HW215312   4.613   5.138   6.259
 4805SOL     OW15313   6.983   6.839   1.747
 4805SOL    HW115314   0.053   6.862   1.725
 4805SOL    HW215315   6.981   6.768   1.818
 4806SOL     OW15316   6.952   3.886   3.325
 4806SOL    HW115317   7.010   3.805   3.334
 4806SOL    HW215318   7.000   3.956   3.272
 4807SOL     OW15319   1.231   5.155   0.777
 4807SOL    HW115320   1.271   5.073   0.818
 4807SOL    HW215321   1.163   5.193   0.839
 4808SOL     OW15322   6.261   4.159   6.687
 4808SOL    HW115323   6.249   4.062   6.671
 4808SOL    HW215324   6.237   4.211   6.605
 4809SOL     OW15325   3.667   3.796   6.694
 4809SOL    HW115326   3.696   3.851   6.772
 4809SOL    HW215327   3.657   3.700   6.723
 4810SOL     OW15328   1.084   4.485   2.446
 4810SOL    HW115329   1.110   4.546   2.371
 4810SOL    HW215330   1.046   4.400   2.407
 4811SOL     OW15331   2.214   4.846   2.228
 4811SOL    HW115332   2.207   4.799   2.140
 4811SOL    HW215333   2.260   4.934   2.216
 4812SOL     OW15334   6.990   5.398   5.506
 4812SOL    HW115335   6.894   5.386   5.530
 4812SOL    HW215336   0.014   5.312   5.517
 4813SOL     OW15337   5.200   1.556   1.877
 4813SOL    HW115338   5.210   1.512   1.788
 4813SOL    HW215339   5.257   1.507   1.944
 4814SOL     OW15340   6.160   4.145   0.334
 4814SOL    HW115341   6.227   4.153   0.260
 4814SOL    HW215342   6.070   4.170   0.300
 4815SOL     OW15343   5.303   4.544   2.427
 4815SOL    HW115344   5.223   4.591   2.465
 4815SOL    HW215345   5.303   4.552   2.327
 4816SOL     OW15346   6.326   5.134   2.634
 4816SOL    HW115347   6.330   5.036   2.652
 4816SOL    HW215348   6.278   5.151   2.548
 4817SOL     OW15349   0.589   2.495   6.325
 4817SOL    HW115350   0.589   2.586   6.365
 4817SOL    HW215351   0.595   2.426   6.398
 4818SOL     OW15352   0.674   0.115   4.535
 4818SOL    HW115353   0.641   0.061   4.458
 4818SOL    HW215354   0.769   0.141   4.518
 4819SOL     OW15355   1.462   3.135   0.762
 4819SOL    HW115356   1.452   3.066   0.833
 4819SOL    HW215357   1.380   3.135   0.704
 4820SOL     OW15358   6.825   2.891   1.424
 4820SOL    HW115359   6.756   2.951   1.464
 4820SOL    HW215360   6.895   2.947   1.380
 4821SOL     OW15361   0.428   5.983   2.979
 4821SOL    HW115362   0.444   6.057   3.044
 4821SOL    HW215363   0.506   5.920   2.981
 4822SOL     OW15364   1.441   3.336   4.283
 4822SOL    HW115365   1.349   3.333   4.323
 4822SOL    HW215366   1.440   3.288   4.195
 4823SOL     OW15367   1.756   2.006   3.174
 4823SOL    HW115368   1.746   1.907   3.178
 4823SOL    HW215369   1.685   2.044   3.115
 4824SOL     OW15370   5.477   2.046   5.583
 4824SOL    HW115371   5.381   2.021   5.596
 4824SOL    HW215372   5.506   2.022   5.490
 4825SOL     OW15373   1.450   2.053   4.414
 4825SOL    HW115374   1.434   1.973   4.357
 4825SOL    HW215375   1.369   2.112   4.412
 4826SOL     OW15376   5.705   0.621   0.623
 4826SOL    HW115377   5.631   0.555   0.614
 4826SOL    HW215378   5.737   0.623   0.718
 4827SOL     OW15379   5.827   2.321   0.438
 4827SOL    HW115380   5.814   2.380   0.517
 4827SOL    HW215381   5.925   2.309   0.421
 4828SOL     OW15382   4.796   0.452   1.418
 4828SOL    HW115383   4.879   0.404   1.390
 4828SOL    HW215384   4.726   0.443   1.347
 4829SOL     OW15385   4.272   0.157   6.552
 4829SOL    HW115386   4.240   0.082   6.494
 4829SOL    HW215387   4.359   0.192   6.516
 4830SOL     OW15388   3.642   5.690   4.282
 4830SOL    HW115389   3.735   5.671   4.251
 4830SOL    HW215390   3.633   5.665   4.379
 4831SOL     OW15391   2.544   5.333   5.127
 4831SOL    HW115392   2.582   5.397   5.060
 4831SOL    HW215393   2.446   5.323   5.112
 4832SOL     OW15394   2.998   3.318   4.427
 4832SOL    HW115395   2.970   3.388   4.362
 4832SOL    HW215396   2.973   3.346   4.520
 4833SOL     OW15397   5.665   2.160   2.884
 4833SOL    HW115398   5.586   2.198   2.837
 4833SOL    HW215399   5.704   2.229   2.946
 4834SOL     OW15400   2.152   6.013   2.245
 4834SOL    HW115401   2.158   5.961   2.159
 4834SOL    HW215402   2.181   6.107   2.229
 4835SOL     OW15403   5.970   2.848   6.050
 4835SOL    HW115404   6.023   2.896   5.979
 4835SOL    HW215405   6.015   2.762   6.071
 4836SOL     OW15406   5.422   1.392   5.086
 4836SOL    HW115407   5.422   1.335   5.004
 4836SOL    HW215408   5.435   1.335   5.167
 4837SOL     OW15409   6.740   3.625   3.030
 4837SOL    HW115410   6.688   3.707   3.003
 4837SOL    HW215411   6.677   3.555   3.062
 4838SOL     OW15412   2.353   5.340   6.742
 4838SOL    HW115413   2.308   5.428   6.761
 4838SOL    HW215414   2.319   5.303   6.656
 4839SOL     OW15415   1.509   3.526   6.980
 4839SOL    HW115416   1.558   3.579   6.911
 4839SOL    HW215417   1.573   3.470   0.008
 4840SOL     OW15418   5.660   4.082   5.469
 4840SOL    HW115419   5.686   4.170   5.509
 4840SOL    HW215420   5.670   4.086   5.370
 4841SOL     OW15421   3.336   5.573   2.987
 4841SOL    HW115422   3.345   5.630   2.906
 4841SOL    HW215423   3.410   5.592   3.051
 4842SOL     OW15424   3.002   5.358   3.212
 4842SOL    HW115425   2.926   5.422   3.225
 4842SOL    HW215426   3.041   5.371   3.121
 4843SOL     OW15427   6.397   2.148   1.918
 4843SOL    HW115428   6.447   2.145   1.831
 4843SOL    HW215429   6.434   2.221   1.976
 4844SOL     OW15430   0.643   4.287   5.331
 4844SOL    HW115431   0.651   4.256   5.425
 4844SOL    HW215432   0.733   4.295   5.289
 4845SOL     OW15433   4.548   4.940   5.259
 4845SOL    HW115434   4.545   4.881   5.178
 4845SOL    HW215435   4.495   5.023   5.242
 4846SOL     OW15436   0.154   1.856   3.424
 4846SOL    HW115437   0.105   1.887   3.342
 4846SOL    HW215438   0.115   1.900   3.505
 4847SOL     OW15439   2.718   1.085   5.324
 4847SOL    HW115440   2.750   0.997   5.290
 4847SOL    HW215441   2.619   1.091   5.311
 4848SOL     OW15442   2.605   1.146   4.242
 4848SOL    HW115443   2.638   1.051   4.248
 4848SOL    HW215444   2.636   1.186   4.155
 4849SOL     OW15445   1.912   0.017   0.306
 4849SOL    HW115446   1.812   0.018   0.300
 4849SOL    HW215447   1.940   6.984   0.382
 4850SOL     OW15448   4.348   0.490   1.689
 4850SOL    HW115449   4.400   0.405   1.681
 4850SOL    HW215450   4.380   0.540   1.770
 4851SOL     OW15451   4.225   5.833   6.510
 4851SOL    HW115452   4.225   5.735   6.490
 4851SOL    HW215453   4.146   5.876   6.467
 4852SOL     OW15454   3.067   5.990   4.661
 4852SOL    HW115455   3.051   5.993   4.562
 4852SOL    HW215456   3.165   5.993   4.679
 4853SOL     OW15457   3.762   1.259   3.319
 4853SOL    HW115458   3.690   1.286   3.255
 4853SOL    HW215459   3.722   1.212   3.397
 4854SOL     OW15460   5.106   6.799   1.612
 4854SOL    HW115461   5.134   6.894   1.611
 4854SOL    HW215462   5.029   6.787   1.675
 4855SOL     OW15463   6.376   3.658   4.961
 4855SOL    HW115464   6.403   3.648   4.865
 4855SOL    HW215465   6.310   3.733   4.970
 4856SOL     OW15466   0.603   2.761   2.503
 4856SOL    HW115467   0.560   2.732   2.588
 4856SOL    HW215468   0.579   2.697   2.430
 4857SOL     OW15469   3.591   1.888   3.525
 4857SOL    HW115470   3.544   1.965   3.482
 4857SOL    HW215471   3.527   1.813   3.540
 4858SOL     OW15472   1.183   0.183   4.685
 4858SOL    HW115473   1.134   0.238   4.754
 4858SOL    HW215474   1.131   0.100   4.667
 4859SOL     OW15475   1.544   4.911   1.301
 4859SOL    HW115476   1.468   4.929   1.363
 4859SOL    HW215477   1.538   4.973   1.222
 4860SOL     OW15478   4.261   4.590   0.227
 4860SOL    HW115479   4.179   4.532   0.227
 4860SOL    HW215480   4.324   4.559   0.156
 4861SOL     OW15481   6.260   5.147   6.354
 4861SOL    HW115482   6.202   5.216   6.311
 4861SOL    HW215483   6.342   5.132   6.298
 4862SOL     OW15484   3.124   4.926   4.781
 4862SOL    HW115485   3.102   5.022   4.764
 4862SOL    HW215486   3.171   4.917   4.869
 4863SOL     OW15487   4.913   3.189   2.723
 4863SOL    HW115488   4.868   3.153   2.804
 4863SOL    HW215489   4.868   3.154   2.641
 4864SOL     OW15490   3.118   1.728   1.974
 4864SOL    HW115491   3.133   1.659   2.045
 4864SOL    HW215492   3.190   1.797   1.979
 4865SOL     OW15493   2.677   4.681   5.854
 4865SOL    HW115494   2.667   4.739   5.773
 4865SOL    HW215495   2.607   4.610   5.854
 4866SOL     OW15496   5.639   4.807   1.377
 4866SOL    HW115497   5.698   4.761   1.443
 4866SOL    HW215498   5.596   4.886   1.419
 4867SOL     OW15499   4.699   5.888   3.571
 4867SOL    HW115500   4.735   5.805   3.528
 4867SOL    HW215501   4.770   5.958   3.573
 4868SOL     OW15502   0.783   5.765   1.487
 4868SOL    HW115503   0.800   5.671   1.517
 4868SOL    HW215504   0.835   5.783   1.403
 4869SOL     OW15505   6.614   1.997   0.984
 4869SOL    HW115506   6.600   2.082   0.933
 4869SOL    HW215507   6.526   1.961   1.014
 4870SOL     OW15508   4.417   5.573   1.662
 4870SOL    HW115509   4.411   5.627   1.579
 4870SOL    HW215510   4.437   5.633   1.740
 4871SOL     OW15511   1.370   1.121   3.330
 4871SOL    HW115512   1.403   1.164   3.246
 4871SOL    HW215513   1.410   1.030   3.339
 4872SOL     OW15514   1.047   0.225   3.313
 4872SOL    HW115515   0.990   0.258   3.388
 4872SOL    HW215516   0.989   0.183   3.243
 4873SOL     OW15517   0.146   5.122   4.573
 4873SOL    HW115518   0.166   5.157   4.481
 4873SOL    HW215519   0.098   5.035   4.566
 4874SOL     OW15520   5.731   3.630   2.372
 4874SOL    HW115521   5.759   3.534   2.360
 4874SOL    HW215522   5.631   3.636   2.371
 4875SOL     OW15523   5.483   2.389   1.160
 4875SOL    HW115524   5.567   2.347   1.126
 4875SOL    HW215525   5.407   2.325   1.148
 4876SOL     OW15526   5.709   0.390   5.713
 4876SOL    HW115527   5.702   0.323   5.638
 4876SOL    HW215528   5.786   0.365   5.771
 4877SOL     OW15529   6.951   1.369   1.277
 4877SOL    HW115530   6.923   1.400   1.367
 4877SOL    HW215531   0.011   1.414   1.251
 4878SOL     OW15532   0.628   1.461   2.030
 4878SOL    HW115533   0.548   1.520   2.038
 4878SOL    HW215534   0.693   1.483   2.102
 4879SOL     OW15535   4.383   4.771   2.838
 4879SOL    HW115536   4.462   4.831   2.827
 4879SOL    HW215537   4.411   4.676   2.822
 4880SOL     OW15538   5.265   2.232   0.031
 4880SOL    HW115539   5.321   2.166   0.080
 4880SOL    HW215540   5.191   2.264   0.091
 4881SOL     OW15541   2.720   6.402   6.356
 4881SOL    HW115542   2.778   6.359   6.424
 4881SOL    HW215543   2.694   6.335   6.286
 4882SOL     OW15544   6.122   1.703   5.728
 4882SOL    HW115545   6.215   1.676   5.703
 4882SOL    HW215546   6.099   1.789   5.682
 4883SOL     OW15547   4.989   4.898   2.442
 4883SOL    HW115548   5.009   4.929   2.349
 4883SOL    HW215549   4.895   4.865   2.447
 4884SOL     OW15550   4.514   6.987   1.387
 4884SOL    HW115551   4.599   0.015   1.389
 4884SOL    HW215552   4.487   6.965   1.481
 4885SOL     OW15553   2.191   6.558   2.257
 4885SOL    HW115554   2.092   6.558   2.247
 4885SOL    HW215555   2.226   6.650   2.244
 4886SOL     OW15556   0.272   6.620   6.653
 4886SOL    HW115557   0.302   6.696   6.710
 4886SOL    HW215558   0.252   6.653   6.561
 4887SOL     OW15559   6.991   2.112   3.413
 4887SOL    HW115560   6.924   2.041   3.435
 4887SOL    HW215561   0.004   2.150   3.497
 4888SOL     OW15562   1.646   6.724   3.802
 4888SOL    HW115563   1.704   6.786   3.749
 4888SOL    HW215564   1.704   6.661   3.855
 4889SOL     OW15565   0.354   1.715   0.347
 4889SOL    HW115566   0.366   1.640   0.412
 4889SOL    HW215567   0.295   1.784   0.387
 4890SOL     OW15568   0.437   1.529   4.235
 4890SOL    HW115569   0.416   1.453   4.296
 4890SOL    HW215570   0.518   1.578   4.269
 4891SOL     OW15571   1.018   5.177   0.022
 4891SOL    HW115572   1.076   5.248   7.007
 4891SOL    HW215573   0.977   5.212   0.107
 4892SOL     OW15574   1.278   5.540   2.861
 4892SOL    HW115575   1.221   5.474   2.811
 4892SOL    HW215576   1.350   5.575   2.802
 4893SOL     OW15577   6.539   4.545   6.890
 4893SOL    HW115578   6.586   4.576   6.973
 4893SOL    HW215579   6.564   4.605   6.814
 4894SOL     OW15580   2.452   0.071   2.590
 4894SOL    HW115581   2.448   0.133   2.669
 4894SOL    HW215582   2.521   0.103   2.526
 4895SOL     OW15583   0.502   3.928   0.887
 4895SOL    HW115584   0.570   4.000   0.873
 4895SOL    HW215585   0.545   3.839   0.875
 4896SOL     OW15586   3.444   5.389   3.258
 4896SOL    HW115587   3.460   5.319   3.188
 4896SOL    HW215588   3.516   5.384   3.327
 4897SOL     OW15589   3.623   5.248   6.580
 4897SOL    HW115590   3.616   5.340   6.619
 4897SOL    HW215591   3.642   5.255   6.482
 4898SOL     OW15592   5.463   2.382   5.586
 4898SOL    HW115593   5.393   2.371   5.657
 4898SOL    HW215594   5.505   2.293   5.568
 4899SOL     OW15595   6.376   4.879   2.702
 4899SOL    HW115596   6.365   4.817   2.780
 4899SOL    HW215597   6.467   4.920   2.704
 4900SOL     OW15598   0.236   6.493   5.971
 4900SOL    HW115599   0.269   6.438   6.047
 4900SOL    HW215600   0.162   6.444   5.924
 4901SOL     OW15601   2.048   6.925   4.417
 4901SOL    HW115602   1.989   6.854   4.455
 4901SOL    HW215603   1.999   6.972   4.343
 4902SOL     OW15604   1.055   3.376   2.602
 4902SOL    HW115605   1.102   3.288   2.593
 4902SOL    HW215606   1.122   3.448   2.620
 4903SOL     OW15607   3.951   6.459   6.724
 4903SOL    HW115608   3.944   6.375   6.670
 4903SOL    HW215609   3.923   6.441   6.818
 4904SOL     OW15610   2.274   5.542   4.646
 4904SOL    HW115611   2.250   5.601   4.569
 4904SOL    HW215612   2.369   5.513   4.637
 4905SOL     OW15613   4.507   2.163   2.424
 4905SOL    HW115614   4.502   2.262   2.409
 4905SOL    HW215615   4.601   2.137   2.443
 4906SOL     OW15616   4.262   0.007   0.386
 4906SOL    HW115617   4.225   0.065   0.459
 4906SOL    HW215618   4.321   6.962   0.426
 4907SOL     OW15619   3.996   6.192   3.173
 4907SOL    HW115620   4.012   6.247   3.255
 4907SOL    HW215621   3.903   6.157   3.173
 4908SOL     OW15622   3.976   5.762   0.171
 4908SOL    HW115623   3.904   5.701   0.203
 4908SOL    HW215624   3.935   5.838   0.121
 4909SOL     OW15625   5.968   0.926   6.251
 4909SOL    HW115626   5.966   0.873   6.166
 4909SOL    HW215627   5.875   0.945   6.281
 4910SOL     OW15628   5.167   0.239   5.673
 4910SOL    HW115629   5.088   0.177   5.674
 4910SOL    HW215630   5.240   0.201   5.731
 4911SOL     OW15631   6.682   2.062   5.881
 4911SOL    HW115632   6.670   2.145   5.827
 4911SOL    HW215633   6.624   1.990   5.844
 4912SOL     OW15634   5.029   1.037   1.785
 4912SOL    HW115635   4.943   1.079   1.813
 4912SOL    HW215636   5.015   0.940   1.766
 4913SOL     OW15637   3.150   4.026   3.799
 4913SOL    HW115638   3.240   3.989   3.774
 4913SOL    HW215639   3.085   4.008   3.725
 4914SOL     OW15640   2.963   1.106   4.557
 4914SOL    HW115641   3.018   1.105   4.641
 4914SOL    HW215642   2.960   1.199   4.521
 4915SOL     OW15643   4.607   6.886   4.082
 4915SOL    HW115644   4.542   6.815   4.111
 4915SOL    HW215645   4.589   6.970   4.133
 4916SOL     OW15646   2.501   1.848   3.043
 4916SOL    HW115647   2.424   1.906   3.016
 4916SOL    HW215648   2.541   1.883   3.127
 4917SOL     OW15649   1.178   4.148   0.579
 4917SOL    HW115650   1.118   4.069   0.591
 4917SOL    HW215651   1.273   4.119   0.576
 4918SOL     OW15652   2.552   0.472   2.755
 4918SOL    HW115653   2.544   0.388   2.808
 4918SOL    HW215654   2.523   0.454   2.661
 4919SOL     OW15655   1.684   2.040   2.836
 4919SOL    HW115656   1.721   1.947   2.840
 4919SOL    HW215657   1.710   2.082   2.749
 4920SOL     OW15658   4.313   0.230   0.003
 4920SOL    HW115659   4.264   0.244   6.941
 4920SOL    HW215660   4.372   0.308   0.020
 4921SOL     OW15661   2.243   3.904   1.894
 4921SOL    HW115662   2.224   3.806   1.890
 4921SOL    HW215663   2.310   3.928   1.824
 4922SOL     OW15664   1.337   3.472   5.309
 4922SOL    HW115665   1.286   3.396   5.349
 4922SOL    HW215666   1.289   3.505   5.228
 4923SOL     OW15667   4.998   0.182   1.870
 4923SOL    HW115668   4.932   0.107   1.864
 4923SOL    HW215669   5.030   0.190   1.964
 4924SOL     OW15670   1.998   3.220   4.765
 4924SOL    HW115671   2.027   3.200   4.858
 4924SOL    HW215672   2.041   3.157   4.701
 4925SOL     OW15673   5.765   6.062   1.153
 4925SOL    HW115674   5.676   6.075   1.109
 4925SOL    HW215675   5.838   6.080   1.086
 4926SOL     OW15676   5.134   2.877   1.764
 4926SOL    HW115677   5.140   2.967   1.807
 4926SOL    HW215678   5.052   2.830   1.797
 4927SOL     OW15679   4.047   3.140   3.160
 4927SOL    HW115680   4.023   3.051   3.119
 4927SOL    HW215681   4.145   3.142   3.179
 4928SOL     OW15682   0.098   0.022   6.465
 4928SOL    HW115683   0.163   0.028   6.389
 4928SOL    HW215684   0.122   0.090   6.534
 4929SOL     OW15685   1.438   4.535   5.061
 4929SOL    HW115686   1.426   4.462   5.128
 4929SOL    HW215687   1.458   4.496   4.971
 4930SOL     OW15688   0.797   1.307   0.211
 4930SOL    HW115689   0.735   1.247   0.159
 4930SOL    HW215690   0.883   1.317   0.161
 4931SOL     OW15691   0.835   0.416   0.068
 4931SOL    HW115692   0.750   0.437   0.117
 4931SOL    HW215693   0.912   0.421   0.132
 4932SOL     OW15694   2.134   3.111   1.825
 4932SOL    HW115695   2.106   3.166   1.903
 4932SOL    HW215696   2.197   3.164   1.768
 4933SOL     OW15697   2.371   0.923   4.325
 4933SOL    HW115698   2.388   1.021   4.315
 4933SOL    HW215699   2.273   0.908   4.338
 4934SOL     OW15700   0.903   5.056   4.570
 4934SOL    HW115701   0.921   4.960   4.549
 4934SOL    HW215702   0.831   5.090   4.510
 4935SOL     OW15703   1.066   0.802   6.526
 4935SOL    HW115704   0.994   0.803   6.456
 4935SOL    HW215705   1.024   0.794   6.617
 4936SOL     OW15706   2.486   6.211   1.137
 4936SOL    HW115707   2.478   6.255   1.226
 4936SOL    HW215708   2.396   6.209   1.093
 4937SOL     OW15709   0.991   3.860   5.969
 4937SOL    HW115710   1.081   3.846   5.925
 4937SOL    HW215711   0.934   3.780   5.954
 4938SOL     OW15712   3.162   4.908   2.120
 4938SOL    HW115713   3.083   4.847   2.119
 4938SOL    HW215714   3.169   4.951   2.210
 4939SOL     OW15715   1.264   2.549   1.846
 4939SOL    HW115716   1.358   2.560   1.878
 4939SOL    HW215717   1.231   2.636   1.810
 4940SOL     OW15718   0.164   1.636   4.978
 4940SOL    HW115719   0.148   1.602   5.071
 4940SOL    HW215720   0.259   1.666   4.970
 4941SOL     OW15721   3.873   2.626   5.355
 4941SOL    HW115722   3.786   2.580   5.337
 4941SOL    HW215723   3.942   2.594   5.291
 4942SOL     OW15724   5.743   3.025   3.499
 4942SOL    HW115725   5.750   3.079   3.416
 4942SOL    HW215726   5.748   3.085   3.579
 4943SOL     OW15727   5.965   4.001   6.388
 4943SOL    HW115728   5.950   3.929   6.454
 4943SOL    HW215729   5.885   4.011   6.329
 4944SOL     OW15730   2.019   4.260   0.581
 4944SOL    HW115731   2.103   4.211   0.554
 4944SOL    HW215732   1.945   4.236   0.518
 4945SOL     OW15733   1.719   1.031   5.094
 4945SOL    HW115734   1.768   1.110   5.130
 4945SOL    HW215735   1.717   1.036   4.994
 4946SOL     OW15736   0.911   4.631   6.627
 4946SOL    HW115737   0.891   4.710   6.685
 4946SOL    HW215738   0.997   4.646   6.578
 4947SOL     OW15739   2.838   0.888   1.940
 4947SOL    HW115740   2.781   0.911   2.019
 4947SOL    HW215741   2.785   0.836   1.874
 4948SOL     OW15742   1.825   2.554   2.524
 4948SOL    HW115743   1.796   2.573   2.618
 4948SOL    HW215744   1.843   2.639   2.476
 4949SOL     OW15745   6.420   3.830   5.735
 4949SOL    HW115746   6.376   3.756   5.685
 4949SOL    HW215747   6.359   3.909   5.738
 4950SOL     OW15748   2.082   3.857   5.044
 4950SOL    HW115749   2.001   3.861   4.986
 4950SOL    HW215750   2.149   3.924   5.010
 4951SOL     OW15751   6.054   6.363   4.090
 4951SOL    HW115752   6.125   6.373   4.160
 4951SOL    HW215753   6.013   6.452   4.071
 4952SOL     OW15754   6.840   0.566   0.117
 4952SOL    HW115755   6.750   0.567   0.074
 4952SOL    HW215756   6.893   0.646   0.086
 4953SOL     OW15757   2.078   1.813   4.215
 4953SOL    HW115758   2.155   1.765   4.257
 4953SOL    HW215759   2.110   1.898   4.173
 4954SOL     OW15760   2.218   3.965   6.111
 4954SOL    HW115761   2.130   3.941   6.068
 4954SOL    HW215762   2.292   3.950   6.046
 4955SOL     OW15763   3.343   5.135   0.196
 4955SOL    HW115764   3.309   5.042   0.178
 4955SOL    HW215765   3.386   5.138   0.286
 4956SOL     OW15766   3.158   0.781   5.892
 4956SOL    HW115767   3.109   0.846   5.835
 4956SOL    HW215768   3.158   0.813   5.987
 4957SOL     OW15769   5.815   3.518   0.270
 4957SOL    HW115770   5.772   3.428   0.273
 4957SOL    HW215771   5.915   3.507   0.273
 4958SOL     OW15772   1.963   6.048   5.820
 4958SOL    HW115773   2.060   6.023   5.824
 4958SOL    HW215774   1.944   6.119   5.888
 4959SOL     OW15775   6.669   1.691   1.232
 4959SOL    HW115776   6.598   1.627   1.261
 4959SOL    HW215777   6.666   1.701   1.132
 4960SOL     OW15778   3.978   4.813   3.698
 4960SOL    HW115779   3.893   4.865   3.694
 4960SOL    HW215780   4.021   4.813   3.608
 4961SOL     OW15781   3.254   0.725   6.411
 4961SOL    HW115782   3.251   0.654   6.481
 4961SOL    HW215783   3.176   0.786   6.423
 4962SOL     OW15784   5.492   2.551   0.916
 4962SOL    HW115785   5.441   2.570   0.999
 4962SOL    HW215786   5.530   2.637   0.880
 4963SOL     OW15787   1.929   5.838   1.272
 4963SOL    HW115788   1.940   5.903   1.347
 4963SOL    HW215789   1.980   5.869   1.192
 4964SOL     OW15790   1.831   6.780   5.253
 4964SOL    HW115791   1.870   6.689   5.240
 4964SOL    HW215792   1.870   6.843   5.186
 4965SOL     OW15793   0.754   6.880   2.885
 4965SOL    HW115794   0.850   6.902   2.905
 4965SOL    HW215795   0.694   6.944   2.933
 4966SOL     OW15796   1.913   6.447   4.700
 4966SOL    HW115797   1.817   6.476   4.697
 4966SOL    HW215798   1.969   6.512   4.650
 4967SOL     OW15799   3.303   5.266   6.093
 4967SOL    HW115800   3.253   5.180   6.089
 4967SOL    HW215801   3.297   5.305   6.185
 4968SOL     OW15802   0.206   1.278   3.940
 4968SOL    HW115803   0.232   1.226   4.022
 4968SOL    HW215804   0.187   1.373   3.966
 4969SOL     OW15805   0.317   6.010   2.514
 4969SOL    HW115806   0.302   6.003   2.613
 4969SOL    HW215807   0.343   6.103   2.491
 4970SOL     OW15808   2.468   0.785   1.623
 4970SOL    HW115809   2.386   0.734   1.598
 4970SOL    HW215810   2.459   0.880   1.592
 4971SOL     OW15811   6.033   6.199   2.860
 4971SOL    HW115812   5.948   6.207   2.808
 4971SOL    HW215813   6.046   6.103   2.887
 4972SOL     OW15814   1.142   4.286   0.314
 4972SOL    HW115815   1.188   4.235   0.387
 4972SOL    HW215816   1.051   4.247   0.298
 4973SOL     OW15817   0.542   0.194   1.572
 4973SOL    HW115818   0.545   0.292   1.554
 4973SOL    HW215819   0.460   0.155   1.530
 4974SOL     OW15820   5.356   4.589   0.705
 4974SOL    HW115821   5.454   4.570   0.712
 4974SOL    HW215822   5.304   4.512   0.743
 4975SOL     OW15823   5.558   3.990   0.721
 4975SOL    HW115824   5.639   3.949   0.764
 4975SOL    HW215825   5.490   4.012   0.791
 4976SOL     OW15826   1.450   0.143   4.737
 4976SOL    HW115827   1.461   0.061   4.794
 4976SOL    HW215828   1.355   0.148   4.705
 4977SOL     OW15829   3.450   3.866   6.963
 4977SOL    HW115830   3.488   3.774   6.950
 4977SOL    HW215831   3.461   3.892   0.034
 4978SOL     OW15832   4.851   4.646   5.077
 4978SOL    HW115833   4.871   4.741   5.098
 4978SOL    HW215834   4.770   4.616   5.128
 4979SOL     OW15835   0.177   6.418   0.139
 4979SOL    HW115836   0.130   6.480   0.076
 4979SOL    HW215837   0.215   6.341   0.088
 4980SOL     OW15838   5.756   4.958   2.543
 4980SOL    HW115839   5.826   4.921   2.605
 4980SOL    HW215840   5.787   5.046   2.507
 4981SOL     OW15841   3.474   6.024   1.928
 4981SOL    HW115842   3.543   6.011   1.858
 4981SOL    HW215843   3.516   6.063   2.010
 4982SOL     OW15844   3.910   2.034   6.474
 4982SOL    HW115845   3.916   2.005   6.570
 4982SOL    HW215846   4.002   2.045   6.436
 4983SOL     OW15847   5.804   4.704   4.170
 4983SOL    HW115848   5.841   4.771   4.106
 4983SOL    HW215849   5.718   4.667   4.134
 4984SOL     OW15850   4.457   4.514   2.771
 4984SOL    HW115851   4.377   4.523   2.712
 4984SOL    HW215852   4.507   4.430   2.748
 4985SOL     OW15853   5.131   6.227   2.525
 4985SOL    HW115854   5.046   6.197   2.568
 4985SOL    HW215855   5.135   6.190   2.432
 4986SOL     OW15856   6.515   4.907   0.845
 4986SOL    HW115857   6.575   4.831   0.819
 4986SOL    HW215858   6.429   4.901   0.794
 4987SOL     OW15859   1.371   6.258   2.780
 4987SOL    HW115860   1.402   6.207   2.861
 4987SOL    HW215861   1.352   6.195   2.705
 4988SOL     OW15862   6.259   1.404   3.400
 4988SOL    HW115863   6.238   1.308   3.421
 4988SOL    HW215864   6.188   1.463   3.437
 4989SOL     OW15865   5.022   0.390   1.656
 4989SOL    HW115866   5.017   0.363   1.560
 4989SOL    HW215867   5.045   0.310   1.712
 4990SOL     OW15868   3.545   2.039   6.738
 4990SOL    HW115869   3.497   2.017   6.653
 4990SOL    HW215870   3.639   2.007   6.732
 4991SOL     OW15871   6.881   5.770   4.045
 4991SOL    HW115872   6.859   5.846   4.106
 4991SOL    HW215873   6.797   5.730   4.009
 4992SOL     OW15874   5.682   1.309   3.052
 4992SOL    HW115875   5.597   1.262   3.075
 4992SOL    HW215876   5.665   1.375   2.978
 4993SOL     OW15877   4.125   6.534   5.061
 4993SOL    HW115878   4.041   6.504   5.017
 4993SOL    HW215879   4.129   6.497   5.154
 4994SOL     OW15880   2.515   5.683   4.980
 4994SOL    HW115881   2.444   5.647   5.041
 4994SOL    HW215882   2.546   5.772   5.014
 4995SOL     OW15883   0.826   0.922   5.153
 4995SOL    HW115884   0.853   0.834   5.192
 4995SOL    HW215885   0.843   0.995   5.219
 4996SOL     OW15886   6.602   1.547   3.769
 4996SOL    HW115887   6.543   1.504   3.701
 4996SOL    HW215888   6.589   1.646   3.767
 4997SOL     OW15889   3.607   2.582   1.130
 4997SOL    HW115890   3.517   2.590   1.173
 4997SOL    HW215891   3.606   2.630   1.042
 4998SOL     OW15892   1.742   3.444   3.991
 4998SOL    HW115893   1.748   3.370   4.059
 4998SOL    HW215894   1.660   3.498   4.008
 4999SOL     OW15895   0.081   3.485   4.530
 4999SOL    HW115896   0.181   3.496   4.528
 4999SOL    HW215897   0.040   3.535   4.454
 5000SOL     OW15898   3.027   6.699   3.259
 5000SOL    HW115899   3.076   6.629   3.311
 5000SOL    HW215900   3.035   6.679   3.161
 5001SOL     OW15901   0.836   5.761   2.551
 5001SOL    HW115902   0.892   5.687   2.588
 5001SOL    HW215903   0.744   5.757   2.592
 5002SOL     OW15904   0.504   5.396   1.945
 5002SOL    HW115905   0.581   5.384   1.882
 5002SOL    HW215906   0.447   5.473   1.914
 5003SOL     OW15907   4.531   6.570   2.601
 5003SOL    HW115908   4.448   6.625   2.615
 5003SOL    HW215909   4.517   6.509   2.523
 5004SOL     OW15910   2.183   4.727   5.588
 5004SOL    HW115911   2.247   4.651   5.596
 5004SOL    HW215912   2.089   4.692   5.584
 5005SOL     OW15913   2.786   2.966   6.539
 5005SOL    HW115914   2.810   3.057   6.505
 5005SOL    HW215915   2.866   2.906   6.532
 5006SOL     OW15916   6.122   1.113   2.502
 5006SOL    HW115917   6.220   1.129   2.489
 5006SOL    HW215918   6.071   1.192   2.468
 5007SOL     OW15919   0.134   0.547   1.401
 5007SOL    HW115920   0.058   0.568   1.339
 5007SOL    HW215921   0.200   0.622   1.399
 5008SOL     OW15922   6.121   5.546   1.128
 5008SOL    HW115923   6.184   5.623   1.137
 5008SOL    HW215924   6.081   5.525   1.217
 5009SOL     OW15925   0.534   2.332   0.145
 5009SOL    HW115926   0.565   2.423   0.172
 5009SOL    HW215927   0.512   2.332   0.047
 5010SOL     OW15928   4.360   2.613   0.712
 5010SOL    HW115929   4.364   2.695   0.655
 5010SOL    HW215930   4.304   2.630   0.792
 5011SOL     OW15931   2.366   4.329   1.298
 5011SOL    HW115932   2.295   4.354   1.363
 5011SOL    HW215933   2.327   4.269   1.228
 5012SOL     OW15934   6.466   2.253   5.227
 5012SOL    HW115935   6.379   2.302   5.224
 5012SOL    HW215936   6.491   2.234   5.322
 5013SOL     OW15937   5.431   0.992   6.524
 5013SOL    HW115938   5.509   0.930   6.512
 5013SOL    HW215939   5.430   1.059   6.450
 5014SOL     OW15940   6.481   4.305   6.730
 5014SOL    HW115941   6.394   4.256   6.737
 5014SOL    HW215942   6.470   4.397   6.766
 5015SOL     OW15943   4.536   0.882   4.783
 5015SOL    HW115944   4.492   0.795   4.807
 5015SOL    HW215945   4.635   0.872   4.790
 5016SOL     OW15946   0.819   2.919   4.794
 5016SOL    HW115947   0.892   2.879   4.739
 5016SOL    HW215948   0.731   2.892   4.757
 5017SOL     OW15949   1.903   2.002   1.094
 5017SOL    HW115950   1.963   2.057   1.152
 5017SOL    HW215951   1.952   1.974   1.012
 5018SOL     OW15952   1.179   5.126   2.921
 5018SOL    HW115953   1.102   5.063   2.918
 5018SOL    HW215954   1.263   5.076   2.945
 5019SOL     OW15955   2.357   6.297   5.645
 5019SOL    HW115956   2.409   6.267   5.724
 5019SOL    HW215957   2.403   6.374   5.601
 5020SOL     OW15958   6.562   6.778   5.751
 5020SOL    HW115959   6.587   6.683   5.733
 5020SOL    HW215960   6.573   6.832   5.668
 5021SOL     OW15961   1.408   1.115   0.946
 5021SOL    HW115962   1.483   1.055   0.974
 5021SOL    HW215963   1.358   1.145   1.027
 5022SOL     OW15964   1.182   2.178   1.776
 5022SOL    HW115965   1.254   2.126   1.823
 5022SOL    HW215966   1.207   2.275   1.776
 5023SOL     OW15967   0.162   4.255   1.395
 5023SOL    HW115968   0.221   4.335   1.397
 5023SOL    HW215969   0.199   4.188   1.330
 5024SOL     OW15970   5.655   5.197   1.133
 5024SOL    HW115971   5.744   5.207   1.177
 5024SOL    HW215972   5.651   5.109   1.086
 5025SOL     OW15973   4.028   2.178   3.924
 5025SOL    HW115974   3.957   2.139   3.983
 5025SOL    HW215975   4.098   2.109   3.906
 5026SOL     OW15976   6.942   5.516   5.217
 5026SOL    HW115977   6.974   5.571   5.293
 5026SOL    HW215978   7.014   5.452   5.189
 5027SOL     OW15979   6.417   0.102   2.038
 5027SOL    HW115980   6.371   0.149   1.962
 5027SOL    HW215981   6.348   0.061   2.098
 5028SOL     OW15982   6.566   2.080   3.291
 5028SOL    HW115983   6.635   2.141   3.328
 5028SOL    HW215984   6.493   2.066   3.357
 5029SOL     OW15985   6.446   2.521   2.372
 5029SOL    HW115986   6.462   2.608   2.325
 5029SOL    HW215987   6.372   2.532   2.438
 5030SOL     OW15988   6.581   6.111   6.857
 5030SOL    HW115989   6.574   6.061   6.944
 5030SOL    HW215990   6.674   6.145   6.845
 5031SOL     OW15991   6.374   1.573   5.658
 5031SOL    HW115992   6.453   1.520   5.689
 5031SOL    HW215993   6.327   1.523   5.585
 5032SOL     OW15994   3.095   1.589   5.878
 5032SOL    HW115995   3.115   1.494   5.902
 5032SOL    HW215996   2.996   1.605   5.885
 5033SOL     OW15997   1.917   0.410   6.783
 5033SOL    HW115998   1.916   0.316   6.749
 5033SOL    HW215999   2.009   0.433   6.815
 5034SOL     OW16000   5.954   0.068   3.574
 5034SOL    HW116001   5.964   0.040   3.669
 5034SOL    HW216002   6.014   0.011   3.517
 5035SOL     OW16003   0.271   4.062   5.278
 5035SOL    HW116004   0.190   4.113   5.307
 5035SOL    HW216005   0.283   4.072   5.179
 5036SOL     OW16006   0.161   4.961   6.735
 5036SOL    HW116007   0.074   4.972   6.688
 5036SOL    HW216008   0.193   5.049   6.768
 5037SOL     OW16009   5.156   4.847   1.855
 5037SOL    HW116010   5.224   4.849   1.929
 5037SOL    HW216011   5.196   4.802   1.775
 5038SOL     OW16012   3.949   3.036   4.791
 5038SOL    HW116013   4.004   2.997   4.865
 5038SOL    HW216014   3.868   2.979   4.775
 5039SOL     OW16015   2.091   3.253   5.281
 5039SOL    HW116016   2.012   3.205   5.320
 5039SOL    HW216017   2.079   3.263   5.182
 5040SOL     OW16018   0.836   6.528   5.376
 5040SOL    HW116019   0.892   6.519   5.294
 5040SOL    HW216020   0.744   6.492   5.357
 5041SOL     OW16021   1.404   1.782   1.666
 5041SOL    HW116022   1.493   1.824   1.688
 5041SOL    HW216023   1.419   1.698   1.614
 5042SOL     OW16024   6.708   3.527   0.248
 5042SOL    HW116025   6.623   3.552   0.202
 5042SOL    HW216026   6.785   3.541   0.185
 5043SOL     OW16027   4.513   0.594   6.777
 5043SOL    HW116028   4.495   0.691   6.758
 5043SOL    HW216029   4.597   0.585   6.830
 5044SOL     OW16030   0.768   6.051   1.035
 5044SOL    HW116031   0.760   6.026   0.938
 5044SOL    HW216032   0.863   6.075   1.055
 5045SOL     OW16033   6.316   5.754   5.980
 5045SOL    HW116034   6.239   5.733   5.920
 5045SOL    HW216035   6.296   5.837   6.032
 5046SOL     OW16036   3.678   3.794   3.309
 5046SOL    HW116037   3.595   3.745   3.281
 5046SOL    HW216038   3.674   3.888   3.276
 5047SOL     OW16039   1.817   4.155   2.939
 5047SOL    HW116040   1.747   4.094   2.975
 5047SOL    HW216041   1.824   4.236   2.998
 5048SOL     OW16042   1.375   1.143   3.659
 5048SOL    HW116043   1.472   1.133   3.683
 5048SOL    HW216044   1.356   1.088   3.578
 5049SOL     OW16045   4.806   1.663   0.261
 5049SOL    HW116046   4.820   1.726   0.337
 5049SOL    HW216047   4.751   1.585   0.291
 5050SOL     OW16048   1.433   0.982   0.113
 5050SOL    HW116049   1.392   1.044   0.046
 5050SOL    HW216050   1.397   0.890   0.100
 5051SOL     OW16051   4.729   4.405   1.282
 5051SOL    HW116052   4.743   4.471   1.356
 5051SOL    HW216053   4.817   4.383   1.240
 5052SOL     OW16054   3.044   1.649   5.587
 5052SOL    HW116055   2.983   1.587   5.537
 5052SOL    HW216056   3.050   1.618   5.682
 5053SOL     OW16057   1.122   4.810   3.467
 5053SOL    HW116058   1.203   4.840   3.417
 5053SOL    HW216059   1.105   4.871   3.544
 5054SOL     OW16060   2.753   5.064   4.495
 5054SOL    HW116061   2.690   5.072   4.572
 5054SOL    HW216062   2.816   5.141   4.495
 5055SOL     OW16063   0.547   2.655   6.001
 5055SOL    HW116064   0.518   2.649   5.905
 5055SOL    HW216065   0.628   2.597   6.014
 5056SOL     OW16066   5.409   4.089   6.141
 5056SOL    HW116067   5.387   4.174   6.093
 5056SOL    HW216068   5.455   4.110   6.227
 5057SOL     OW16069   6.967   6.680   3.492
 5057SOL    HW116070   6.985   6.674   3.393
 5057SOL    HW216071   6.882   6.731   3.507
 5058SOL     OW16072   3.702   3.901   5.866
 5058SOL    HW116073   3.623   3.863   5.818
 5058SOL    HW216074   3.719   3.994   5.834
 5059SOL     OW16075   6.971   0.889   3.499
 5059SOL    HW116076   6.952   0.980   3.537
 5059SOL    HW216077   0.010   0.898   3.423
 5060SOL     OW16078   0.390   2.782   6.274
 5060SOL    HW116079   0.439   2.814   6.355
 5060SOL    HW216080   0.454   2.737   6.212
 5061SOL     OW16081   5.123   2.602   0.782
 5061SOL    HW116082   5.155   2.693   0.757
 5061SOL    HW216083   5.032   2.608   0.822
 5062SOL     OW16084   6.082   6.948   2.684
 5062SOL    HW116085   6.113   7.014   2.752
 5062SOL    HW216086   6.127   6.965   2.597
 5063SOL     OW16087   0.442   0.082   2.614
 5063SOL    HW116088   0.539   0.068   2.594
 5063SOL    HW216089   0.395   0.109   2.529
 5064SOL     OW16090   5.177   3.451   0.817
 5064SOL    HW116091   5.083   3.486   0.809
 5064SOL    HW216092   5.242   3.526   0.805
 5065SOL     OW16093   2.866   0.482   5.704
 5065SOL    HW116094   2.810   0.460   5.783
 5065SOL    HW216095   2.942   0.417   5.697
 5066SOL     OW16096   5.049   4.577   2.252
 5066SOL    HW116097   5.055   4.490   2.203
 5066SOL    HW216098   5.068   4.562   2.349
 5067SOL     OW16099   5.039   1.324   1.199
 5067SOL    HW116100   5.111   1.262   1.229
 5067SOL    HW216101   5.037   1.327   1.099
 5068SOL     OW16102   3.035   4.460   0.932
 5068SOL    HW116103   2.951   4.509   0.954
 5068SOL    HW216104   3.068   4.489   0.843
 5069SOL     OW16105   1.345   4.171   3.568
 5069SOL    HW116106   1.302   4.219   3.491
 5069SOL    HW216107   1.414   4.108   3.533
 5070SOL     OW16108   5.268   3.357   3.854
 5070SOL    HW116109   5.363   3.352   3.885
 5070SOL    HW216110   5.210   3.388   3.929
 5071SOL     OW16111   4.997   2.105   4.699
 5071SOL    HW116112   5.041   2.159   4.770
 5071SOL    HW216113   4.899   2.100   4.717
 5072SOL     OW16114   0.959   6.550   0.488
 5072SOL    HW116115   0.908   6.627   0.450
 5072SOL    HW216116   1.027   6.583   0.553
 5073SOL     OW16117   6.610   6.826   3.239
 5073SOL    HW116118   6.593   6.737   3.195
 5073SOL    HW216119   6.668   6.882   3.179
 5074SOL     OW16120   3.542   3.256   6.649
 5074SOL    HW116121   3.611   3.200   6.694
 5074SOL    HW216122   3.460   3.201   6.634
 5075SOL     OW16123   0.423   2.081   6.234
 5075SOL    HW116124   0.351   2.120   6.291
 5075SOL    HW216125   0.391   1.994   6.196
 5076SOL     OW16126   3.338   0.796   0.767
 5076SOL    HW116127   3.384   0.872   0.723
 5076SOL    HW216128   3.239   0.804   0.752
 5077SOL     OW16129   0.141   2.772   4.395
 5077SOL    HW116130   0.047   2.779   4.362
 5077SOL    HW216131   0.193   2.851   4.365
 5078SOL     OW16132   0.867   1.746   3.727
 5078SOL    HW116133   0.953   1.699   3.707
 5078SOL    HW216134   0.810   1.749   3.644
 5079SOL     OW16135   2.530   4.767   6.397
 5079SOL    HW116136   2.575   4.831   6.460
 5079SOL    HW216137   2.438   4.747   6.430
 5080SOL     OW16138   5.655   6.405   5.593
 5080SOL    HW116139   5.664   6.366   5.684
 5080SOL    HW216140   5.573   6.370   5.548
 5081SOL     OW16141   4.043   3.324   3.395
 5081SOL    HW116142   4.060   3.288   3.487
 5081SOL    HW216143   4.002   3.253   3.338
 5082SOL     OW16144   5.786   5.055   5.679
 5082SOL    HW116145   5.805   5.035   5.775
 5082SOL    HW216146   5.859   5.019   5.622
 5083SOL     OW16147   1.832   6.447   2.843
 5083SOL    HW116148   1.736   6.475   2.838
 5083SOL    HW216149   1.867   6.433   2.750
 5084SOL     OW16150   1.236   4.875   4.524
 5084SOL    HW116151   1.212   4.839   4.434
 5084SOL    HW216152   1.209   4.810   4.594
 5085SOL     OW16153   5.408   2.557   6.553
 5085SOL    HW116154   5.412   2.510   6.642
 5085SOL    HW216155   5.406   2.489   6.480
 5086SOL     OW16156   6.644   5.434   3.764
 5086SOL    HW116157   6.653   5.447   3.665
 5086SOL    HW216158   6.731   5.454   3.809
 5087SOL     OW16159   6.457   5.774   3.713
 5087SOL    HW116160   6.475   5.859   3.664
 5087SOL    HW216161   6.396   5.792   3.789
 5088SOL     OW16162   5.497   1.745   4.642
 5088SOL    HW116163   5.493   1.839   4.677
 5088SOL    HW216164   5.443   1.739   4.558
 5089SOL     OW16165   6.071   3.354   3.052
 5089SOL    HW116166   6.080   3.267   3.102
 5089SOL    HW216167   6.156   3.405   3.058
 5090SOL     OW16168   1.849   3.994   2.092
 5090SOL    HW116169   1.866   4.003   1.994
 5090SOL    HW216170   1.935   3.976   2.140
 5091SOL     OW16171   1.196   6.117   3.307
 5091SOL    HW116172   1.176   6.025   3.274
 5091SOL    HW216173   1.294   6.126   3.325
 5092SOL     OW16174   3.152   2.444   1.249
 5092SOL    HW116175   3.118   2.369   1.192
 5092SOL    HW216176   3.225   2.411   1.309
 5093SOL     OW16177   2.398   1.549   1.686
 5093SOL    HW116178   2.364   1.594   1.604
 5093SOL    HW216179   2.489   1.583   1.708
 5094SOL     OW16180   0.861   6.860   4.603
 5094SOL    HW116181   0.785   6.842   4.540
 5094SOL    HW216182   0.825   6.899   4.688
 5095SOL     OW16183   0.728   1.388   4.239
 5095SOL    HW116184   0.684   1.352   4.157
 5095SOL    HW216185   0.658   1.404   4.309
 5096SOL     OW16186   4.301   4.044   0.592
 5096SOL    HW116187   4.270   3.949   0.601
 5096SOL    HW216188   4.385   4.047   0.539
 5097SOL     OW16189   2.087   0.281   6.539
 5097SOL    HW116190   2.104   0.376   6.566
 5097SOL    HW216191   2.069   0.278   6.440
 5098SOL     OW16192   0.797   0.164   1.692
 5098SOL    HW116193   0.827   0.073   1.720
 5098SOL    HW216194   0.706   0.158   1.651
 5099SOL     OW16195   0.919   0.642   6.344
 5099SOL    HW116196   1.017   0.647   6.328
 5099SOL    HW216197   0.876   0.590   6.270
 5100SOL     OW16198   4.442   6.429   5.780
 5100SOL    HW116199   4.456   6.368   5.858
 5100SOL    HW216200   4.517   6.496   5.776
 5101SOL     OW16201   5.040   6.567   0.092
 5101SOL    HW116202   5.046   6.475   0.132
 5101SOL    HW216203   4.972   6.620   0.143
 5102SOL     OW16204   6.141   0.444   5.733
 5102SOL    HW116205   6.231   0.482   5.710
 5102SOL    HW216206   6.079   0.519   5.757
 5103SOL     OW16207   0.175   1.154   4.190
 5103SOL    HW116208   0.120   1.076   4.161
 5103SOL    HW216209   0.120   1.215   4.247
 5104SOL     OW16210   1.817   6.369   2.095
 5104SOL    HW116211   1.846   6.463   2.076
 5104SOL    HW216212   1.825   6.350   2.193
 5105SOL     OW16213   4.072   3.516   0.394
 5105SOL    HW116214   4.120   3.602   0.410
 5105SOL    HW216215   4.080   3.491   0.297
 5106SOL     OW16216   3.611   0.339   2.267
 5106SOL    HW116217   3.624   0.360   2.170
 5106SOL    HW216218   3.534   0.392   2.303
 5107SOL     OW16219   3.493   1.237   0.486
 5107SOL    HW116220   3.561   1.247   0.559
 5107SOL    HW216221   3.492   1.142   0.455
 5108SOL     OW16222   3.002   3.211   3.484
 5108SOL    HW116223   2.980   3.194   3.580
 5108SOL    HW216224   2.928   3.263   3.441
 5109SOL     OW16225   0.827   1.376   1.215
 5109SOL    HW116226   0.863   1.311   1.148
 5109SOL    HW216227   0.780   1.451   1.168
 5110SOL     OW16228   0.849   0.046   6.836
 5110SOL    HW116229   0.909   7.016   6.894
 5110SOL    HW216230   0.826   7.021   6.753
 5111SOL     OW16231   0.439   1.452   6.017
 5111SOL    HW116232   0.533   1.456   5.983
 5111SOL    HW216233   0.392   1.374   5.977
 5112SOL     OW16234   0.306   0.134   3.296
 5112SOL    HW116235   0.306   0.064   3.224
 5112SOL    HW216236   0.261   0.217   3.262
 5113SOL     OW16237   1.420   6.736   1.338
 5113SOL    HW116238   1.463   6.826   1.331
 5113SOL    HW216239   1.490   6.665   1.337
 5114SOL     OW16240   3.460   3.281   0.430
 5114SOL    HW116241   3.366   3.248   0.442
 5114SOL    HW216242   3.472   3.311   0.336
 5115SOL     OW16243   1.887   4.450   5.393
 5115SOL    HW116244   1.879   4.450   5.293
 5115SOL    HW216245   1.982   4.433   5.419
 5116SOL     OW16246   5.656   6.347   6.202
 5116SOL    HW116247   5.752   6.357   6.178
 5116SOL    HW216248   5.639   6.254   6.235
 5117SOL     OW16249   2.102   4.532   4.097
 5117SOL    HW116250   2.166   4.562   4.026
 5117SOL    HW216251   2.011   4.520   4.057
 5118SOL     OW16252   4.882   6.234   0.411
 5118SOL    HW116253   4.808   6.287   0.370
 5118SOL    HW216254   4.846   6.145   0.441
 5119SOL     OW16255   5.161   0.635   1.567
 5119SOL    HW116256   5.103   0.557   1.590
 5119SOL    HW216257   5.257   0.605   1.564
 5120SOL     OW16258   5.702   1.709   3.659
 5120SOL    HW116259   5.771   1.690   3.588
 5120SOL    HW216260   5.616   1.665   3.634
 5121SOL     OW16261   1.505   2.590   6.697
 5121SOL    HW116262   1.473   2.505   6.655
 5121SOL    HW216263   1.545   2.569   6.787
 5122SOL     OW16264   2.889   0.490   4.287
 5122SOL    HW116265   2.922   0.581   4.266
 5122SOL    HW216266   2.918   0.465   4.380
 5123SOL     OW16267   5.761   3.500   4.571
 5123SOL    HW116268   5.793   3.500   4.477
 5123SOL    HW216269   5.716   3.413   4.592
 5124SOL     OW16270   2.640   5.005   6.546
 5124SOL    HW116271   2.703   5.049   6.482
 5124SOL    HW216272   2.609   5.072   6.614
 5125SOL     OW16273   6.717   3.587   4.493
 5125SOL    HW116274   6.717   3.489   4.512
 5125SOL    HW216275   6.623   3.618   4.479
 5126SOL     OW16276   6.217   4.919   5.268
 5126SOL    HW116277   6.131   4.921   5.320
 5126SOL    HW216278   6.269   4.838   5.293
 5127SOL     OW16279   5.879   3.756   0.171
 5127SOL    HW116280   5.922   3.814   0.240
 5127SOL    HW216281   5.828   3.683   0.216
 5128SOL     OW16282   1.042   0.435   0.273
 5128SOL    HW116283   0.998   0.460   0.359
 5128SOL    HW216284   1.115   0.369   0.292
 5129SOL     OW16285   4.816   1.253   2.567
 5129SOL    HW116286   4.752   1.299   2.629
 5129SOL    HW216287   4.884   1.203   2.620
 5130SOL     OW16288   1.484   5.871   4.519
 5130SOL    HW116289   1.534   5.906   4.440
 5130SOL    HW216290   1.511   5.776   4.536
 5131SOL     OW16291   3.030   4.846   3.369
 5131SOL    HW116292   3.113   4.856   3.424
 5131SOL    HW216293   2.950   4.862   3.427
 5132SOL     OW16294   3.811   1.146   5.965
 5132SOL    HW116295   3.801   1.055   5.924
 5132SOL    HW216296   3.732   1.202   5.940
 5133SOL     OW16297   2.832   5.571   5.894
 5133SOL    HW116298   2.793   5.488   5.934
 5133SOL    HW216299   2.850   5.556   5.797
 5134SOL     OW16300   6.441   0.283   2.349
 5134SOL    HW116301   6.489   0.321   2.428
 5134SOL    HW216302   6.496   0.294   2.267
 5135SOL     OW16303   6.325   3.710   2.994
 5135SOL    HW116304   6.271   3.742   3.072
 5135SOL    HW216305   6.339   3.785   2.930
 5136SOL     OW16306   6.500   1.883   5.785
 5136SOL    HW116307   6.513   1.822   5.707
 5136SOL    HW216308   6.414   1.933   5.773
 5137SOL     OW16309   5.069   2.836   5.559
 5137SOL    HW116310   5.069   2.758   5.621
 5137SOL    HW216311   5.087   2.806   5.466
 5138SOL     OW16312   3.380   3.875   3.622
 5138SOL    HW116313   3.333   3.802   3.672
 5138SOL    HW216314   3.470   3.844   3.594
 5139SOL     OW16315   1.060   0.290   4.965
 5139SOL    HW116316   1.046   0.389   4.961
 5139SOL    HW216317   1.028   0.255   5.052
 5140SOL     OW16318   3.846   1.414   6.049
 5140SOL    HW116319   3.840   1.323   6.089
 5140SOL    HW216320   3.763   1.465   6.068
 5141SOL     OW16321   6.205   2.581   0.954
 5141SOL    HW116322   6.238   2.673   0.936
 5141SOL    HW216323   6.214   2.526   0.871
 5142SOL     OW16324   5.997   6.814   4.703
 5142SOL    HW116325   6.040   6.883   4.761
 5142SOL    HW216326   6.064   6.777   4.638
 5143SOL     OW16327   1.487   4.354   4.837
 5143SOL    HW116328   1.548   4.346   4.758
 5143SOL    HW216329   1.394   4.329   4.809
 5144SOL     OW16330   1.893   3.940   6.603
 5144SOL    HW116331   1.807   3.985   6.581
 5144SOL    HW216332   1.970   3.998   6.574
 5145SOL     OW16333   3.325   6.097   6.573
 5145SOL    HW116334   3.319   6.000   6.550
 5145SOL    HW216335   3.294   6.112   6.667
 5146SOL     OW16336   3.781   4.127   5.515
 5146SOL    HW116337   3.863   4.083   5.477
 5146SOL    HW216338   3.778   4.223   5.488
 5147SOL     OW16339   5.712   4.509   3.496
 5147SOL    HW116340   5.709   4.595   3.547
 5147SOL    HW216341   5.642   4.510   3.425
 5148SOL     OW16342   0.576   0.245   2.360
 5148SOL    HW116343   0.480   0.234   2.386
 5148SOL    HW216344   0.596   0.342   2.348
 5149SOL     OW16345   5.506   4.706   4.381
 5149SOL    HW116346   5.553   4.657   4.455
 5149SOL    HW216347   5.414   4.730   4.410
 5150SOL     OW16348   1.627   4.682   3.751
 5150SOL    HW116349   1.584   4.607   3.801
 5150SOL    HW216350   1.566   4.714   3.679
 5151SOL     OW16351   5.677   4.329   1.740
 5151SOL    HW116352   5.589   4.282   1.743
 5151SOL    HW216353   5.736   4.294   1.813
 5152SOL     OW16354   1.260   5.871   6.816
 5152SOL    HW116355   1.301   5.911   6.734
 5152SOL    HW216356   1.181   5.925   6.844
 5153SOL     OW16357   1.550   1.381   0.951
 5153SOL    HW116358   1.537   1.459   0.889
 5153SOL    HW216359   1.463   1.334   0.964
 5154SOL     OW16360   1.488   2.833   6.618
 5154SOL    HW116361   1.470   2.752   6.674
 5154SOL    HW216362   1.586   2.853   6.619
 5155SOL     OW16363   2.860   1.825   0.624
 5155SOL    HW116364   2.852   1.778   0.711
 5155SOL    HW216365   2.917   1.907   0.634
 5156SOL     OW16366   5.195   4.866   4.731
 5156SOL    HW116367   5.188   4.784   4.788
 5156SOL    HW216368   5.130   4.935   4.764
 5157SOL     OW16369   3.136   1.513   2.140
 5157SOL    HW116370   3.050   1.491   2.186
 5157SOL    HW216371   3.213   1.488   2.199
 5158SOL     OW16372   3.073   2.202   1.105
 5158SOL    HW116373   3.042   2.154   1.187
 5158SOL    HW216374   3.008   2.189   1.031
 5159SOL     OW16375   6.063   4.125   6.126
 5159SOL    HW116376   6.031   4.093   6.215
 5159SOL    HW216377   6.003   4.089   6.054
 5160SOL     OW16378   6.435   6.422   3.357
 5160SOL    HW116379   6.358   6.484   3.372
 5160SOL    HW216380   6.402   6.338   3.314
 5161SOL     OW16381   1.285   3.289   0.135
 5161SOL    HW116382   1.213   3.219   0.141
 5161SOL    HW216383   1.270   3.358   0.206
 5162SOL     OW16384   0.659   5.310   2.260
 5162SOL    HW116385   0.741   5.343   2.306
 5162SOL    HW216386   0.579   5.332   2.316
 5163SOL     OW16387   3.458   6.538   1.149
 5163SOL    HW116388   3.466   6.465   1.081
 5163SOL    HW216389   3.469   6.501   1.241
 5164SOL     OW16390   2.623   3.143   0.249
 5164SOL    HW116391   2.651   3.052   0.219
 5164SOL    HW216392   2.701   3.190   0.291
 5165SOL     OW16393   0.747   4.096   6.736
 5165SOL    HW116394   0.780   4.188   6.715
 5165SOL    HW216395   0.757   4.038   6.655
 5166SOL     OW16396   1.671   5.597   2.119
 5166SOL    HW116397   1.598   5.530   2.112
 5166SOL    HW216398   1.644   5.670   2.182
 5167SOL     OW16399   6.113   4.313   4.994
 5167SOL    HW116400   6.015   4.301   5.008
 5167SOL    HW216401   6.161   4.231   5.026
 5168SOL     OW16402   4.277   2.207   2.554
 5168SOL    HW116403   4.198   2.209   2.492
 5168SOL    HW216404   4.361   2.195   2.501
 5169SOL     OW16405   4.836   1.741   3.842
 5169SOL    HW116406   4.917   1.704   3.797
 5169SOL    HW216407   4.858   1.766   3.936
 5170SOL     OW16408   1.230   3.792   5.848
 5170SOL    HW116409   1.200   3.724   5.781
 5170SOL    HW216410   1.264   3.874   5.801
 5171SOL     OW16411   1.259   4.973   5.498
 5171SOL    HW116412   1.322   4.967   5.575
 5171SOL    HW216413   1.219   4.883   5.480
 5172SOL     OW16414   1.299   5.125   3.761
 5172SOL    HW116415   1.369   5.148   3.693
 5172SOL    HW216416   1.294   5.197   3.830
 5173SOL     OW16417   4.464   3.902   6.033
 5173SOL    HW116418   4.445   3.980   6.093
 5173SOL    HW216419   4.562   3.882   6.033
 5174SOL     OW16420   1.945   6.709   4.007
 5174SOL    HW116421   1.901   6.762   4.079
 5174SOL    HW216422   1.887   6.631   3.983
 5175SOL     OW16423   2.859   4.235   6.330
 5175SOL    HW116424   2.854   4.308   6.261
 5175SOL    HW216425   2.878   4.148   6.285
 5176SOL     OW16426   5.387   5.489   6.304
 5176SOL    HW116427   5.382   5.567   6.367
 5176SOL    HW216428   5.335   5.509   6.221
 5177SOL     OW16429   5.420   6.526   1.301
 5177SOL    HW116430   5.506   6.567   1.272
 5177SOL    HW216431   5.359   6.518   1.222
 5178SOL     OW16432   0.388   4.650   1.647
 5178SOL    HW116433   0.364   4.741   1.682
 5178SOL    HW216434   0.407   4.589   1.724
 5179SOL     OW16435   4.864   4.245   3.301
 5179SOL    HW116436   4.818   4.323   3.343
 5179SOL    HW216437   4.817   4.220   3.217
 5180SOL     OW16438   3.188   6.961   1.200
 5180SOL    HW116439   3.207   0.009   1.134
 5180SOL    HW216440   3.166   7.001   1.289
 5181SOL     OW16441   0.162   0.590   0.214
 5181SOL    HW116442   0.164   0.663   0.146
 5181SOL    HW216443   0.075   0.591   0.262
 5182SOL     OW16444   4.444   4.513   2.104
 5182SOL    HW116445   4.483   4.431   2.062
 5182SOL    HW216446   4.375   4.552   2.043
 5183SOL     OW16447   3.909   1.656   2.754
 5183SOL    HW116448   3.830   1.631   2.699
 5183SOL    HW216449   3.911   1.755   2.768
 5184SOL     OW16450   2.053   2.327   3.033
 5184SOL    HW116451   2.128   2.342   2.970
 5184SOL    HW216452   2.002   2.245   3.005
 5185SOL     OW16453   4.719   0.273   2.885
 5185SOL    HW116454   4.798   0.260   2.825
 5185SOL    HW216455   4.647   0.321   2.836
 5186SOL     OW16456   5.700   2.827   5.878
 5186SOL    HW116457   5.719   2.889   5.955
 5186SOL    HW216458   5.674   2.737   5.913
 5187SOL     OW16459   2.619   5.200   4.753
 5187SOL    HW116460   2.550   5.209   4.681
 5187SOL    HW216461   2.639   5.291   4.790
 5188SOL     OW16462   7.021   6.093   1.699
 5188SOL    HW116463   6.970   6.016   1.736
 5188SOL    HW216464   6.968   6.137   1.627
 5189SOL     OW16465   5.744   6.013   0.087
 5189SOL    HW116466   5.709   5.952   0.159
 5189SOL    HW216467   5.777   5.958   0.010
 5190SOL     OW16468   1.834   3.112   2.328
 5190SOL    HW116469   1.890   3.189   2.299
 5190SOL    HW216470   1.775   3.140   2.403
 5191SOL     OW16471   3.061   5.857   2.734
 5191SOL    HW116472   3.145   5.867   2.681
 5191SOL    HW216473   3.070   5.908   2.820
 5192SOL     OW16474   2.039   6.038   1.455
 5192SOL    HW116475   2.096   6.120   1.452
 5192SOL    HW216476   1.979   6.042   1.534
 5193SOL     OW16477   5.131   0.207   6.817
 5193SOL    HW116478   5.098   0.115   6.800
 5193SOL    HW216479   5.217   0.221   6.769
 5194SOL     OW16480   2.684   1.762   6.623
 5194SOL    HW116481   2.775   1.742   6.661
 5194SOL    HW216482   2.624   1.683   6.638
 5195SOL     OW16483   0.770   0.441   3.887
 5195SOL    HW116484   0.806   0.499   3.814
 5195SOL    HW216485   0.802   0.348   3.874
 5196SOL     OW16486   4.505   6.734   2.311
 5196SOL    HW116487   4.451   6.650   2.312
 5196SOL    HW216488   4.512   6.768   2.218
 5197SOL     OW16489   1.394   3.647   6.365
 5197SOL    HW116490   1.336   3.567   6.384
 5197SOL    HW216491   1.408   3.654   6.266
 5198SOL     OW16492   4.321   5.513   3.012
 5198SOL    HW116493   4.352   5.608   3.016
 5198SOL    HW216494   4.230   5.509   2.973
 5199SOL     OW16495   0.381   5.411   1.140
 5199SOL    HW116496   0.368   5.312   1.139
 5199SOL    HW216497   0.324   5.453   1.070
 5200SOL     OW16498   6.900   3.755   5.035
 5200SOL    HW116499   6.992   3.793   5.024
 5200SOL    HW216500   6.905   3.656   5.044
 5201SOL     OW16501   0.473   6.666   3.645
 5201SOL    HW116502   0.544   6.599   3.624
 5201SOL    HW216503   0.512   6.758   3.640
 5202SOL     OW16504   6.530   2.575   5.973
 5202SOL    HW116505   6.600   2.639   5.943
 5202SOL    HW216506   6.506   2.594   6.068
 5203SOL     OW16507   1.868   2.276   6.844
 5203SOL    HW116508   1.883   2.362   6.794
 5203SOL    HW216509   1.862   2.200   6.779
 5204SOL     OW16510   4.109   4.944   0.539
 5204SOL    HW116511   4.098   5.013   0.467
 5204SOL    HW216512   4.157   4.984   0.616
 5205SOL     OW16513   1.725   6.911   1.011
 5205SOL    HW116514   1.659   6.841   0.984
 5205SOL    HW216515   1.725   6.919   1.111
 5206SOL     OW16516   0.648   4.251   6.200
 5206SOL    HW116517   0.561   4.300   6.196
 5206SOL    HW216518   0.712   4.292   6.134
 5207SOL     OW16519   0.958   5.297   4.144
 5207SOL    HW116520   1.001   5.340   4.065
 5207SOL    HW216521   1.026   5.247   4.197
 5208SOL     OW16522   3.703   1.166   0.661
 5208SOL    HW116523   3.799   1.167   0.631
 5208SOL    HW216524   3.670   1.072   0.662
 5209SOL     OW16525   5.845   5.694   4.352
 5209SOL    HW116526   5.808   5.761   4.417
 5209SOL    HW216527   5.878   5.614   4.402
 5210SOL     OW16528   5.742   3.586   5.812
 5210SOL    HW116529   5.772   3.619   5.723
 5210SOL    HW216530   5.821   3.560   5.868
 5211SOL     OW16531   3.429   2.884   4.330
 5211SOL    HW116532   3.473   2.952   4.271
 5211SOL    HW216533   3.343   2.854   4.289
 5212SOL     OW16534   6.615   2.265   1.194
 5212SOL    HW116535   6.683   2.325   1.236
 5212SOL    HW216536   6.593   2.190   1.257
 5213SOL     OW16537   5.114   1.908   0.165
 5213SOL    HW116538   5.033   1.947   0.210
 5213SOL    HW216539   5.113   1.809   0.177
 5214SOL     OW16540   5.079   1.437   6.791
 5214SOL    HW116541   5.019   1.513   6.816
 5214SOL    HW216542   5.034   1.350   6.810
 5215SOL     OW16543   5.386   5.456   3.239
 5215SOL    HW116544   5.351   5.544   3.209
 5215SOL    HW216545   5.358   5.439   3.334
 5216SOL     OW16546   4.722   6.185   1.173
 5216SOL    HW116547   4.774   6.100   1.174
 5216SOL    HW216548   4.753   6.242   1.097
 5217SOL     OW16549   3.067   5.168   4.331
 5217SOL    HW116550   3.074   5.068   4.329
 5217SOL    HW216551   3.139   5.205   4.389
 5218SOL     OW16552   1.410   0.043   3.463
 5218SOL    HW116553   1.470   0.092   3.400
 5218SOL    HW216554   1.409   6.971   3.441
 5219SOL     OW16555   3.748   0.370   6.684
 5219SOL    HW116556   3.795   0.406   6.765
 5219SOL    HW216557   3.796   0.289   6.651
 5220SOL     OW16558   1.598   5.390   2.785
 5220SOL    HW116559   1.542   5.452   2.729
 5220SOL    HW216560   1.553   5.377   2.873
 5221SOL     OW16561   5.608   2.407   4.616
 5221SOL    HW116562   5.624   2.489   4.561
 5221SOL    HW216563   5.534   2.425   4.681
 5222SOL     OW16564   2.872   0.094   4.409
 5222SOL    HW116565   2.885   0.005   4.366
 5222SOL    HW216566   2.777   0.123   4.398
 5223SOL     OW16567   4.586   0.769   1.367
 5223SOL    HW116568   4.560   0.862   1.340
 5223SOL    HW216569   4.672   0.745   1.323
 5224SOL     OW16570   0.115   1.542   3.457
 5224SOL    HW116571   0.062   1.524   3.374
 5224SOL    HW216572   0.150   1.636   3.455
 5225SOL     OW16573   6.594   0.869   3.081
 5225SOL    HW116574   6.517   0.930   3.097
 5225SOL    HW216575   6.673   0.922   3.052
 5226SOL     OW16576   0.439   6.168   5.467
 5226SOL    HW116577   0.480   6.109   5.397
 5226SOL    HW216578   0.419   6.258   5.428
 5227SOL     OW16579   1.510   4.869   4.067
 5227SOL    HW116580   1.494   4.811   4.147
 5227SOL    HW216581   1.608   4.883   4.054
 5228SOL     OW16582   6.524   2.837   0.644
 5228SOL    HW116583   6.566   2.827   0.554
 5228SOL    HW216584   6.524   2.749   0.691
 5229SOL     OW16585   1.391   4.356   6.736
 5229SOL    HW116586   1.295   4.385   6.735
 5229SOL    HW216587   1.444   4.421   6.790
 5230SOL     OW16588   0.377   0.086   0.513
 5230SOL    HW116589   0.474   0.065   0.502
 5230SOL    HW216590   0.348   0.148   0.440
 5231SOL     OW16591   3.210   3.367   4.718
 5231SOL    HW116592   3.284   3.319   4.671
 5231SOL    HW216593   3.165   3.430   4.655
 5232SOL     OW16594   3.276   2.107   6.558
 5232SOL    HW116595   3.215   2.108   6.478
 5232SOL    HW216596   3.282   2.199   6.596
 5233SOL     OW16597   7.010   0.239   1.228
 5233SOL    HW116598   0.026   0.241   1.319
 5233SOL    HW216599   6.912   0.257   1.234
 5234SOL     OW16600   3.299   0.156   6.730
 5234SOL    HW116601   3.201   0.140   6.716
 5234SOL    HW216602   3.346   0.068   6.741
 5235SOL     OW16603   1.612   3.114   1.248
 5235SOL    HW116604   1.617   3.201   1.297
 5235SOL    HW216605   1.685   3.054   1.279
 5236SOL     OW16606   5.759   2.716   1.588
 5236SOL    HW116607   5.781   2.809   1.617
 5236SOL    HW216608   5.684   2.719   1.521
 5237SOL     OW16609   2.560   1.956   5.553
 5237SOL    HW116610   2.597   2.009   5.478
 5237SOL    HW216611   2.632   1.899   5.594
 5238SOL     OW16612   2.282   5.119   0.456
 5238SOL    HW116613   2.227   5.094   0.536
 5238SOL    HW216614   2.325   5.208   0.472
 5239SOL     OW16615   3.609   3.762   3.599
 5239SOL    HW116616   3.641   3.807   3.682
 5239SOL    HW216617   3.665   3.791   3.521
 5240SOL     OW16618   2.957   2.333   5.901
 5240SOL    HW116619   2.868   2.320   5.945
 5240SOL    HW216620   2.979   2.253   5.845
 5241SOL     OW16621   1.344   6.105   6.603
 5241SOL    HW116622   1.293   6.063   6.528
 5241SOL    HW216623   1.410   6.170   6.565
 5242SOL     OW16624   6.359   6.958   5.110
 5242SOL    HW116625   6.455   6.966   5.137
 5242SOL    HW216626   6.324   6.869   5.137
 5243SOL     OW16627   1.759   6.225   1.482
 5243SOL    HW116628   1.782   6.188   1.392
 5243SOL    HW216629   1.823   6.299   1.505
 5244SOL     OW16630   4.205   3.872   6.003
 5244SOL    HW116631   4.168   3.957   6.040
 5244SOL    HW216632   4.296   3.856   6.041
 5245SOL     OW16633   4.267   4.377   6.676
 5245SOL    HW116634   4.303   4.339   6.591
 5245SOL    HW216635   4.168   4.369   6.677
 5246SOL     OW16636   5.951   4.386   2.759
 5246SOL    HW116637   6.049   4.393   2.778
 5246SOL    HW216638   5.923   4.459   2.697
 5247SOL     OW16639   1.694   5.979   0.639
 5247SOL    HW116640   1.738   5.999   0.727
 5247SOL    HW216641   1.705   5.882   0.618
 5248SOL     OW16642   5.832   0.784   6.011
 5248SOL    HW116643   5.739   0.755   6.031
 5248SOL    HW216644   5.893   0.705   6.013
 5249SOL     OW16645   0.530   5.741   5.135
 5249SOL    HW116646   0.581   5.697   5.060
 5249SOL    HW216647   0.435   5.755   5.106
 5250SOL     OW16648   6.766   1.542   5.804
 5250SOL    HW116649   6.842   1.493   5.845
 5250SOL    HW216650   6.798   1.629   5.767
 5251SOL     OW16651   0.250   2.824   1.299
 5251SOL    HW116652   0.202   2.752   1.349
 5251SOL    HW216653   0.224   2.913   1.337
 5252SOL     OW16654   2.036   5.631   0.844
 5252SOL    HW116655   1.984   5.547   0.835
 5252SOL    HW216656   2.102   5.639   0.768
 5253SOL     OW16657   5.178   3.513   5.430
 5253SOL    HW116658   5.204   3.447   5.360
 5253SOL    HW216659   5.104   3.475   5.486
 5254SOL     OW16660   5.407   1.800   3.530
 5254SOL    HW116661   5.372   1.773   3.440
 5254SOL    HW216662   5.365   1.743   3.601
 5255SOL     OW16663   4.270   0.064   4.626
 5255SOL    HW116664   4.224   0.061   4.715
 5255SOL    HW216665   4.246   7.006   4.574
 5256SOL     OW16666   5.127   1.216   3.272
 5256SOL    HW116667   5.031   1.198   3.254
 5256SOL    HW216668   5.147   1.313   3.259
 5257SOL     OW16669   4.258   0.370   2.039
 5257SOL    HW116670   4.240   0.468   2.047
 5257SOL    HW216671   4.181   0.325   1.995
 5258SOL     OW16672   4.904   4.155   1.599
 5258SOL    HW116673   4.819   4.196   1.631
 5258SOL    HW216674   4.900   4.056   1.613
 5259SOL     OW16675   4.288   6.346   1.146
 5259SOL    HW116676   4.362   6.412   1.144
 5259SOL    HW216677   4.209   6.385   1.192
 5260SOL     OW16678   5.399   3.013   1.032
 5260SOL    HW116679   5.310   2.967   1.032
 5260SOL    HW216680   5.386   3.112   1.019
 5261SOL     OW16681   0.921   2.834   5.860
 5261SOL    HW116682   0.856   2.845   5.936
 5261SOL    HW216683   0.880   2.873   5.777
 5262SOL     OW16684   2.741   0.131   2.813
 5262SOL    HW116685   2.776   0.051   2.861
 5262SOL    HW216686   2.642   0.138   2.827
 5263SOL     OW16687   0.808   0.164   6.274
 5263SOL    HW116688   0.826   0.075   6.233
 5263SOL    HW216689   0.887   0.223   6.260
 5264SOL     OW16690   6.207   0.768   1.843
 5264SOL    HW116691   6.110   0.789   1.854
 5264SOL    HW216692   6.235   0.785   1.749
 5265SOL     OW16693   4.966   4.285   2.520
 5265SOL    HW116694   4.907   4.365   2.520
 5265SOL    HW216695   4.913   4.204   2.496
 5266SOL     OW16696   2.483   6.506   1.632
 5266SOL    HW116697   2.484   6.602   1.604
 5266SOL    HW216698   2.391   6.483   1.665
 5267SOL     OW16699   4.587   4.383   6.090
 5267SOL    HW116700   4.525   4.422   6.159
 5267SOL    HW216701   4.582   4.284   6.092
 5268SOL     OW16702   0.061   5.630   5.421
 5268SOL    HW116703   0.029   5.538   5.445
 5268SOL    HW216704   0.134   5.657   5.484
 5269SOL     OW16705   2.378   5.998   3.971
 5269SOL    HW116706   2.456   6.044   4.014
 5269SOL    HW216707   2.295   6.014   4.026
 5270SOL     OW16708   4.300   2.083   1.798
 5270SOL    HW116709   4.225   2.034   1.754
 5270SOL    HW216710   4.271   2.113   1.889
 5271SOL     OW16711   4.572   5.446   4.361
 5271SOL    HW116712   4.524   5.490   4.285
 5271SOL    HW216713   4.608   5.358   4.331
 5272SOL     OW16714   1.208   5.783   3.728
 5272SOL    HW116715   1.287   5.723   3.721
 5272SOL    HW216716   1.180   5.812   3.636
 5273SOL     OW16717   0.992   3.024   3.362
 5273SOL    HW116718   1.063   3.092   3.344
 5273SOL    HW216719   0.925   3.062   3.426
 5274SOL     OW16720   6.276   4.934   3.030
 5274SOL    HW116721   6.317   4.847   3.003
 5274SOL    HW216722   6.320   5.008   2.979
 5275SOL     OW16723   2.985   1.405   6.149
 5275SOL    HW116724   3.007   1.482   6.208
 5275SOL    HW216725   3.052   1.398   6.076
 5276SOL     OW16726   0.066   6.275   0.766
 5276SOL    HW116727   7.003   6.228   0.777
 5276SOL    HW216728   0.055   6.354   0.706
 5277SOL     OW16729   1.773   2.632   2.781
 5277SOL    HW116730   1.800   2.721   2.745
 5277SOL    HW216731   1.840   2.603   2.851
 5278SOL     OW16732   5.245   6.902   5.336
 5278SOL    HW116733   5.327   6.954   5.312
 5278SOL    HW216734   5.173   6.965   5.366
 5279SOL     OW16735   1.799   6.187   7.019
 5279SOL    HW116736   1.757   6.277   0.008
 5279SOL    HW216737   1.752   6.139   6.945
 5280SOL     OW16738   3.500   5.758   5.573
 5280SOL    HW116739   3.581   5.714   5.611
 5280SOL    HW216740   3.527   5.842   5.526
 5281SOL     OW16741   1.746   1.561   3.915
 5281SOL    HW116742   1.653   1.525   3.929
 5281SOL    HW216743   1.765   1.565   3.817
 5282SOL     OW16744   1.691   0.053   1.910
 5282SOL    HW116745   1.639   0.077   1.828
 5282SOL    HW216746   1.766   7.016   1.885
 5283SOL     OW16747   1.673   0.435   3.161
 5283SOL    HW116748   1.653   0.527   3.193
 5283SOL    HW216749   1.771   0.426   3.144
 5284SOL     OW16750   4.684   2.763   3.468
 5284SOL    HW116751   4.674   2.752   3.567
 5284SOL    HW216752   4.720   2.854   3.448
 5285SOL     OW16753   0.650   3.329   4.299
 5285SOL    HW116754   0.629   3.392   4.224
 5285SOL    HW216755   0.644   3.379   4.386
 5286SOL     OW16756   6.752   3.201   1.120
 5286SOL    HW116757   6.808   3.231   1.043
 5286SOL    HW216758   6.656   3.194   1.091
 5287SOL     OW16759   2.976   5.755   1.283
 5287SOL    HW116760   2.896   5.766   1.343
 5287SOL    HW216761   3.043   5.696   1.327
 5288SOL     OW16762   3.602   0.302   2.706
 5288SOL    HW116763   3.617   0.204   2.714
 5288SOL    HW216764   3.508   0.320   2.676
 5289SOL     OW16765   2.275   5.423   5.873
 5289SOL    HW116766   2.261   5.364   5.953
 5289SOL    HW216767   2.283   5.366   5.792
 5290SOL     OW16768   1.812   3.673   5.311
 5290SOL    HW116769   1.858   3.743   5.366
 5290SOL    HW216770   1.870   3.592   5.305
 5291SOL     OW16771   3.266   4.663   6.292
 5291SOL    HW116772   3.258   4.576   6.340
 5291SOL    HW216773   3.266   4.646   6.193
 5292SOL     OW16774   5.948   4.515   5.528
 5292SOL    HW116775   5.920   4.452   5.456
 5292SOL    HW216776   6.043   4.496   5.554
 5293SOL     OW16777   2.477   6.845   4.780
 5293SOL    HW116778   2.448   6.933   4.818
 5293SOL    HW216779   2.544   6.804   4.841
 5294SOL     OW16780   4.878   1.975   5.529
 5294SOL    HW116781   4.900   1.885   5.565
 5294SOL    HW216782   4.924   2.045   5.584
 5295SOL     OW16783   3.663   1.065   2.792
 5295SOL    HW116784   3.612   1.149   2.812
 5295SOL    HW216785   3.604   1.002   2.741
 5296SOL     OW16786   3.227   4.328   7.002
 5296SOL    HW116787   3.197   4.233   6.992
 5296SOL    HW216788   3.263   4.360   6.914
 5297SOL     OW16789   1.435   3.771   0.474
 5297SOL    HW116790   1.516   3.812   0.431
 5297SOL    HW216791   1.463   3.696   0.533
 5298SOL     OW16792   1.471   6.008   0.232
 5298SOL    HW116793   1.568   5.989   0.220
 5298SOL    HW216794   1.442   6.077   0.166
 5299SOL     OW16795   2.710   2.516   0.642
 5299SOL    HW116796   2.659   2.602   0.634
 5299SOL    HW216797   2.663   2.456   0.707
 5300SOL     OW16798   0.380   5.859   0.907
 5300SOL    HW116799   0.431   5.883   0.990
 5300SOL    HW216800   0.335   5.940   0.871
 5301SOL     OW16801   4.064   1.620   6.126
 5301SOL    HW116802   4.082   1.686   6.053
 5301SOL    HW216803   4.028   1.535   6.087
 5302SOL     OW16804   6.172   5.850   3.424
 5302SOL    HW116805   6.247   5.917   3.432
 5302SOL    HW216806   6.128   5.840   3.513
 5303SOL     OW16807   0.316   5.268   4.755
 5303SOL    HW116808   0.240   5.253   4.692
 5303SOL    HW216809   0.297   5.223   4.842
 5304SOL     OW16810   5.802   0.209   0.997
 5304SOL    HW116811   5.778   0.169   0.908
 5304SOL    HW216812   5.901   0.216   1.005
 5305SOL     OW16813   0.860   4.812   3.408
 5305SOL    HW116814   0.944   4.811   3.462
 5305SOL    HW216815   0.819   4.721   3.407
 5306SOL     OW16816   1.035   4.555   5.280
 5306SOL    HW116817   0.944   4.596   5.289
 5306SOL    HW216818   1.089   4.609   5.215
 5307SOL     OW16819   4.057   1.617   0.162
 5307SOL    HW116820   4.060   1.655   0.070
 5307SOL    HW216821   3.963   1.615   0.195
 5308SOL     OW16822   1.159   4.695   2.627
 5308SOL    HW116823   1.230   4.758   2.596
 5308SOL    HW216824   1.134   4.634   2.551
 5309SOL     OW16825   4.054   4.806   1.847
 5309SOL    HW116826   4.110   4.888   1.837
 5309SOL    HW216827   3.965   4.831   1.886
 5310SOL     OW16828   6.146   3.235   1.807
 5310SOL    HW116829   6.157   3.178   1.888
 5310SOL    HW216830   6.078   3.306   1.825
 5311SOL     OW16831   6.428   0.285   0.042
 5311SOL    HW116832   6.439   0.268   6.969
 5311SOL    HW216833   6.331   0.280   0.065
 5312SOL     OW16834   1.102   5.531   1.484
 5312SOL    HW116835   1.134   5.465   1.417
 5312SOL    HW216836   1.014   5.501   1.521
 5313SOL     OW16837   1.091   2.954   6.056
 5313SOL    HW116838   1.046   2.901   6.128
 5313SOL    HW216839   1.067   2.916   5.967
 5314SOL     OW16840   3.922   6.627   0.386
 5314SOL    HW116841   3.990   6.606   0.315
 5314SOL    HW216842   3.850   6.684   0.347
 5315SOL     OW16843   4.885   3.645   2.016
 5315SOL    HW116844   4.910   3.614   1.924
 5315SOL    HW216845   4.880   3.745   2.017
 5316SOL     OW16846   1.159   3.536   5.101
 5316SOL    HW116847   1.133   3.628   5.071
 5316SOL    HW216848   1.077   3.483   5.122
 5317SOL     OW16849   5.744   1.417   4.984
 5317SOL    HW116850   5.693   1.432   5.068
 5317SOL    HW216851   5.714   1.483   4.915
 5318SOL     OW16852   0.884   2.586   0.356
 5318SOL    HW116853   0.885   2.496   0.400
 5318SOL    HW216854   0.796   2.600   0.310
 5319SOL     OW16855   4.267   6.140   0.170
 5319SOL    HW116856   4.275   6.094   0.258
 5319SOL    HW216857   4.357   6.152   0.130
 5320SOL     OW16858   4.530   4.644   0.454
 5320SOL    HW116859   4.446   4.592   0.464
 5320SOL    HW216860   4.511   4.729   0.405
 5321SOL     OW16861   2.200   5.046   4.519
 5321SOL    HW116862   2.254   4.964   4.537
 5321SOL    HW216863   2.119   5.022   4.465
 5322SOL     OW16864   5.615   5.751   6.666
 5322SOL    HW116865   5.636   5.828   6.605
 5322SOL    HW216866   5.516   5.744   6.677
 5323SOL     OW16867   4.229   1.367   6.406
 5323SOL    HW116868   4.292   1.344   6.331
 5323SOL    HW216869   4.198   1.461   6.395
 5324SOL     OW16870   3.209   2.202   0.583
 5324SOL    HW116871   3.272   2.145   0.636
 5324SOL    HW216872   3.211   2.295   0.619
 5325SOL     OW16873   4.516   0.339   4.354
 5325SOL    HW116874   4.530   0.247   4.389
 5325SOL    HW216875   4.536   0.405   4.426
 5326SOL     OW16876   6.712   5.149   2.827
 5326SOL    HW116877   6.715   5.105   2.737
 5326SOL    HW216878   6.616   5.160   2.855
 5327SOL     OW16879   5.632   2.644   5.564
 5327SOL    HW116880   5.552   2.584   5.567
 5327SOL    HW216881   5.621   2.710   5.490
 5328SOL     OW16882   3.772   3.220   5.123
 5328SOL    HW116883   3.693   3.274   5.093
 5328SOL    HW216884   3.843   3.282   5.157
 5329SOL     OW16885   0.075   4.241   6.628
 5329SOL    HW116886   0.027   4.162   6.590
 5329SOL    HW216887   0.009   4.314   6.647
 5330SOL     OW16888   4.015   4.047   6.712
 5330SOL    HW116889   3.997   3.951   6.688
 5330SOL    HW216890   3.937   4.084   6.762
 5331SOL     OW16891   5.390   1.253   0.100
 5331SOL    HW116892   5.441   1.281   0.181
 5331SOL    HW216893   5.418   1.161   0.073
 5332SOL     OW16894   0.537   2.760   1.275
 5332SOL    HW116895   0.444   2.795   1.290
 5332SOL    HW216896   0.537   2.660   1.283
 5333SOL     OW16897   0.484   0.412   3.144
 5333SOL    HW116898   0.504   0.411   3.046
 5333SOL    HW216899   0.548   0.352   3.192
 5334SOL     OW16900   2.967   0.144   4.121
 5334SOL    HW116901   2.944   0.184   4.210
 5334SOL    HW216902   3.063   0.165   4.100
 5335SOL     OW16903   6.595   6.230   1.566
 5335SOL    HW116904   6.551   6.193   1.485
 5335SOL    HW216905   6.621   6.155   1.627
 5336SOL     OW16906   1.814   3.140   3.307
 5336SOL    HW116907   1.847   3.059   3.258
 5336SOL    HW216908   1.887   3.209   3.308
 5337SOL     OW16909   5.160   4.038   1.048
 5337SOL    HW116910   5.089   3.978   1.086
 5337SOL    HW216911   5.181   4.110   1.114
 5338SOL     OW16912   5.985   1.738   0.029
 5338SOL    HW116913   5.886   1.726   0.033
 5338SOL    HW216914   6.016   1.786   0.111
 5339SOL     OW16915   6.584   2.159   3.984
 5339SOL    HW116916   6.578   2.244   3.931
 5339SOL    HW216917   6.606   2.083   3.924
 5340SOL     OW16918   4.772   4.175   0.731
 5340SOL    HW116919   4.815   4.085   0.738
 5340SOL    HW216920   4.686   4.174   0.781
 5341SOL     OW16921   3.244   2.727   6.356
 5341SOL    HW116922   3.157   2.764   6.389
 5341SOL    HW216923   3.266   2.769   6.268
 5342SOL     OW16924   3.081   6.786   4.138
 5342SOL    HW116925   3.117   6.874   4.107
 5342SOL    HW216926   2.996   6.800   4.189
 5343SOL     OW16927   3.755   4.120   4.250
 5343SOL    HW116928   3.739   4.213   4.281
 5343SOL    HW216929   3.802   4.068   4.322
 5344SOL     OW16930   2.246   3.019   2.629
 5344SOL    HW116931   2.272   2.974   2.714
 5344SOL    HW216932   2.225   3.115   2.647
 5345SOL     OW16933   3.802   6.290   1.451
 5345SOL    HW116934   3.851   6.249   1.374
 5345SOL    HW216935   3.806   6.390   1.444
 5346SOL     OW16936   3.261   6.247   4.213
 5346SOL    HW116937   3.245   6.340   4.180
 5346SOL    HW216938   3.283   6.188   4.135
 5347SOL     OW16939   0.868   2.521   2.163
 5347SOL    HW116940   0.910   2.468   2.237
 5347SOL    HW216941   0.925   2.515   2.081
 5348SOL     OW16942   0.147   2.425   1.033
 5348SOL    HW116943   0.229   2.398   0.983
 5348SOL    HW216944   0.154   2.521   1.059
 5349SOL     OW16945   1.714   2.844   0.452
 5349SOL    HW116946   1.621   2.862   0.485
 5349SOL    HW216947   1.742   2.752   0.480
 5350SOL     OW16948   2.178   0.283   5.387
 5350SOL    HW116949   2.131   0.207   5.342
 5350SOL    HW216950   2.271   0.254   5.411
 5351SOL     OW16951   5.994   6.003   1.834
 5351SOL    HW116952   5.908   5.952   1.826
 5351SOL    HW216953   6.035   5.987   1.923
 5352SOL     OW16954   2.300   5.119   3.275
 5352SOL    HW116955   2.220   5.136   3.219
 5352SOL    HW216956   2.334   5.205   3.312
 5353SOL     OW16957   3.990   5.258   3.430
 5353SOL    HW116958   4.010   5.348   3.470
 5353SOL    HW216959   3.993   5.189   3.502
 5354SOL     OW16960   2.819   5.296   1.906
 5354SOL    HW116961   2.769   5.325   1.987
 5354SOL    HW216962   2.811   5.197   1.895
 5355SOL     OW16963   5.737   3.125   3.261
 5355SOL    HW116964   5.684   3.167   3.188
 5355SOL    HW216965   5.802   3.060   3.222
 5356SOL     OW16966   5.424   4.529   1.632
 5356SOL    HW116967   5.506   4.580   1.658
 5356SOL    HW216968   5.398   4.467   1.706
 5357SOL     OW16969   4.631   6.339   0.329
 5357SOL    HW116970   4.689   6.347   0.249
 5357SOL    HW216971   4.597   6.429   0.356
 5358SOL     OW16972   4.495   1.584   0.104
 5358SOL    HW116973   4.578   1.604   0.053
 5358SOL    HW216974   4.415   1.607   0.049
 5359SOL     OW16975   1.424   1.879   6.538
 5359SOL    HW116976   1.409   1.839   6.628
 5359SOL    HW216977   1.398   1.975   6.538
 5360SOL     OW16978   4.484   6.888   5.466
 5360SOL    HW116979   4.491   6.828   5.387
 5360SOL    HW216980   4.555   6.958   5.461
 5361SOL     OW16981   2.460   0.837   5.277
 5361SOL    HW116982   2.372   0.804   5.243
 5361SOL    HW216983   2.463   0.937   5.271
 5362SOL     OW16984   5.813   5.134   3.431
 5362SOL    HW116985   5.754   5.172   3.359
 5362SOL    HW216986   5.906   5.168   3.419
 5363SOL     OW16987   0.167   0.141   6.698
 5363SOL    HW116988   0.175   0.176   6.791
 5363SOL    HW216989   0.258   0.137   6.656
 5364SOL     OW16990   6.301   6.423   1.817
 5364SOL    HW116991   6.278   6.520   1.813
 5364SOL    HW216992   6.236   6.371   1.762
 5365SOL     OW16993   3.464   3.593   6.909
 5365SOL    HW116994   3.404   3.517   6.933
 5365SOL    HW216995   3.523   3.566   6.833
 5366SOL     OW16996   5.320   5.871   1.768
 5366SOL    HW116997   5.264   5.875   1.685
 5366SOL    HW216998   5.396   5.807   1.753
 5367SOL     OW16999   0.628   6.331   0.643
 5367SOL    HW117000   0.575   6.246   0.647
 5367SOL    HW217001   0.713   6.315   0.594
 5368SOL     OW17002   5.411   0.429   3.004
 5368SOL    HW117003   5.396   0.528   3.009
 5368SOL    HW217004   5.495   0.405   3.053
 5369SOL     OW17005   2.799   6.810   1.898
 5369SOL    HW117006   2.744   6.726   1.894
 5369SOL    HW217007   2.825   6.827   1.993
 5370SOL     OW17008   4.374   2.859   1.575
 5370SOL    HW117009   4.337   2.861   1.482
 5370SOL    HW217010   4.368   2.766   1.611
 5371SOL     OW17011   1.376   3.977   4.854
 5371SOL    HW117012   1.466   3.936   4.868
 5371SOL    HW217013   1.308   3.904   4.842
 5372SOL     OW17014   2.667   5.694   3.379
 5372SOL    HW117015   2.590   5.737   3.333
 5372SOL    HW217016   2.661   5.710   3.477
 5373SOL     OW17017   3.755   6.344   4.011
 5373SOL    HW117018   3.662   6.351   3.975
 5373SOL    HW217019   3.752   6.337   4.111
 5374SOL     OW17020   1.196   3.811   6.674
 5374SOL    HW117021   1.180   3.806   6.576
 5374SOL    HW217022   1.108   3.824   6.721
 5375SOL     OW17023   2.098   5.105   4.778
 5375SOL    HW117024   2.114   5.105   4.679
 5375SOL    HW217025   2.142   5.025   4.819
 5376SOL     OW17026   1.256   3.369   0.927
 5376SOL    HW117027   1.303   3.289   0.890
 5376SOL    HW217028   1.170   3.383   0.876
 5377SOL     OW17029   0.368   6.833   2.128
 5377SOL    HW117030   0.397   6.925   2.101
 5377SOL    HW217031   0.323   6.838   2.217
 5378SOL     OW17032   6.973   0.569   2.149
 5378SOL    HW117033   6.940   0.567   2.244
 5378SOL    HW217034   0.028   0.511   2.140
 5379SOL     OW17035   2.065   5.287   4.992
 5379SOL    HW117036   2.027   5.216   5.052
 5379SOL    HW217037   2.089   5.246   4.904
 5380SOL     OW17038   1.977   2.070   3.001
 5380SOL    HW117039   1.975   2.033   2.909
 5380SOL    HW217040   1.895   2.042   3.051
 5381SOL     OW17041   6.534   3.681   1.214
 5381SOL    HW117042   6.437   3.682   1.239
 5381SOL    HW217043   6.572   3.773   1.228
 5382SOL     OW17044   3.248   0.257   2.079
 5382SOL    HW117045   3.337   0.212   2.088
 5382SOL    HW217046   3.176   0.188   2.072
 5383SOL     OW17047   2.326   2.690   5.567
 5383SOL    HW117048   2.387   2.677   5.645
 5383SOL    HW217049   2.372   2.746   5.498
 5384SOL     OW17050   5.857   6.831   4.945
 5384SOL    HW117051   5.928   6.796   4.884
 5384SOL    HW217052   5.791   6.758   4.964
 5385SOL     OW17053   2.964   3.214   4.107
 5385SOL    HW117054   2.921   3.250   4.190
 5385SOL    HW217055   3.052   3.259   4.093
 5386SOL     OW17056   4.582   0.058   4.443
 5386SOL    HW117057   4.672   0.097   4.423
 5386SOL    HW217058   4.593   6.987   4.471
 5387SOL     OW17059   2.712   6.491   3.810
 5387SOL    HW117060   2.639   6.525   3.750
 5387SOL    HW217061   2.681   6.408   3.856
 5388SOL     OW17062   6.758   0.134   4.514
 5388SOL    HW117063   6.721   0.074   4.443
 5388SOL    HW217064   6.837   0.090   4.556
 5389SOL     OW17065   4.546   1.152   1.909
 5389SOL    HW117066   4.609   1.199   1.847
 5389SOL    HW217067   4.497   1.220   1.964
 5390SOL     OW17068   4.783   4.179   3.067
 5390SOL    HW117069   4.843   4.103   3.041
 5390SOL    HW217070   4.776   4.243   2.990
 5391SOL     OW17071   1.997   2.177   1.271
 5391SOL    HW117072   2.066   2.125   1.321
 5391SOL    HW217073   2.039   2.257   1.229
 5392SOL     OW17074   5.604   3.377   1.596
 5392SOL    HW117075   5.652   3.462   1.615
 5392SOL    HW217076   5.511   3.382   1.632
 5393SOL     OW17077   5.391   6.956   6.774
 5393SOL    HW117078   5.378   6.901   6.856
 5393SOL    HW217079   5.324   6.927   6.704
 5394SOL     OW17080   6.673   4.975   6.522
 5394SOL    HW117081   6.590   4.925   6.548
 5394SOL    HW217082   6.648   5.067   6.491
 5395SOL     OW17083   4.501   0.667   1.860
 5395SOL    HW117084   4.424   0.731   1.861
 5395SOL    HW217085   4.525   0.642   1.954
 5396SOL     OW17086   4.915   4.857   2.719
 5396SOL    HW117087   4.958   4.901   2.640
 5396SOL    HW217088   4.872   4.771   2.691
 5397SOL     OW17089   6.715   2.495   1.673
 5397SOL    HW117090   6.705   2.481   1.771
 5397SOL    HW217091   6.805   2.463   1.643
 5398SOL     OW17092   3.266   2.160   2.963
 5398SOL    HW117093   3.194   2.171   2.894
 5398SOL    HW217094   3.355   2.157   2.918
 5399SOL     OW17095   2.304   5.502   0.753
 5399SOL    HW117096   2.344   5.561   0.823
 5399SOL    HW217097   2.229   5.450   0.794
 5400SOL     OW17098   2.746   4.202   0.624
 5400SOL    HW117099   2.720   4.233   0.533
 5400SOL    HW217100   2.781   4.108   0.619
 5401SOL     OW17101   5.782   3.597   1.691
 5401SOL    HW117102   5.806   3.689   1.662
 5401SOL    HW217103   5.719   3.601   1.769
 5402SOL     OW17104   2.238   4.962   1.725
 5402SOL    HW117105   2.329   4.923   1.743
 5402SOL    HW217106   2.182   4.894   1.678
 5403SOL     OW17107   6.010   2.226   6.077
 5403SOL    HW117108   6.067   2.146   6.063
 5403SOL    HW217109   5.930   2.201   6.133
 5404SOL     OW17110   1.003   0.647   2.568
 5404SOL    HW117111   1.094   0.647   2.525
 5404SOL    HW217112   0.946   0.716   2.524
 5405SOL     OW17113   6.067   6.044   0.045
 5405SOL    HW117114   6.141   5.979   0.031
 5405SOL    HW217115   6.009   6.013   0.121
 5406SOL     OW17116   2.871   0.357   6.827
 5406SOL    HW117117   2.848   0.261   6.844
 5406SOL    HW217118   2.946   0.385   6.886
 5407SOL     OW17119   4.401   3.093   1.240
 5407SOL    HW117120   4.462   3.159   1.282
 5407SOL    HW217121   4.423   3.001   1.273
 5408SOL     OW17122   3.293   1.083   6.341
 5408SOL    HW117123   3.253   1.005   6.293
 5408SOL    HW217124   3.253   1.168   6.306
 5409SOL     OW17125   6.006   1.236   4.015
 5409SOL    HW117126   6.051   1.310   4.065
 5409SOL    HW217127   6.003   1.259   3.918
 5410SOL     OW17128   1.774   3.186   1.026
 5410SOL    HW117129   1.750   3.277   0.993
 5410SOL    HW217130   1.699   3.150   1.083
 5411SOL     OW17131   6.725   5.020   5.824
 5411SOL    HW117132   6.664   4.944   5.847
 5411SOL    HW217133   6.769   5.053   5.908
 5412SOL     OW17134   4.163   0.743   7.009
 5412SOL    HW117135   4.233   0.690   6.961
 5412SOL    HW217136   4.101   0.783   6.942
 5413SOL     OW17137   1.904   1.087   1.364
 5413SOL    HW117138   1.910   1.173   1.414
 5413SOL    HW217139   1.916   1.011   1.429
 5414SOL     OW17140   5.954   3.017   4.754
 5414SOL    HW117141   5.930   3.015   4.657
 5414SOL    HW217142   5.919   2.936   4.799
 5415SOL     OW17143   1.502   5.978   1.517
 5415SOL    HW117144   1.424   6.038   1.533
 5415SOL    HW217145   1.581   6.012   1.568
 5416SOL     OW17146   4.299   4.664   6.587
 5416SOL    HW117147   4.283   4.601   6.511
 5416SOL    HW217148   4.232   4.738   6.584
 5417SOL     OW17149   4.414   6.514   5.506
 5417SOL    HW117150   4.452   6.584   5.444
 5417SOL    HW217151   4.335   6.552   5.553
 5418SOL     OW17152   4.144   6.633   4.079
 5418SOL    HW117153   4.072   6.640   4.148
 5418SOL    HW217154   4.194   6.547   4.093
 5419SOL     OW17155   3.258   4.876   0.186
 5419SOL    HW117156   3.174   4.865   0.132
 5419SOL    HW217157   3.337   4.873   0.125
 5420SOL     OW17158   1.640   2.144   1.850
 5420SOL    HW117159   1.657   2.232   1.894
 5420SOL    HW217160   1.551   2.110   1.878
 5421SOL     OW17161   2.074   3.745   2.525
 5421SOL    HW117162   2.104   3.840   2.520
 5421SOL    HW217163   2.138   3.693   2.582
 5422SOL     OW17164   0.507   5.777   0.120
 5422SOL    HW117165   0.453   5.694   0.108
 5422SOL    HW217166   0.605   5.755   0.110
 5423SOL     OW17167   5.362   2.791   6.798
 5423SOL    HW117168   5.405   2.705   6.770
 5423SOL    HW217169   5.334   2.783   6.894
 5424SOL     OW17170   4.879   3.087   4.577
 5424SOL    HW117171   4.852   3.033   4.657
 5424SOL    HW217172   4.879   3.029   4.496
 5425SOL     OW17173   4.443   1.323   3.925
 5425SOL    HW117174   4.399   1.258   3.987
 5425SOL    HW217175   4.385   1.404   3.916
 5426SOL     OW17176   6.422   5.122   3.761
 5426SOL    HW117177   6.521   5.128   3.778
 5426SOL    HW217178   6.381   5.061   3.829
 5427SOL     OW17179   5.279   4.838   0.632
 5427SOL    HW117180   5.297   4.741   0.649
 5427SOL    HW217181   5.365   4.888   0.623
 5428SOL     OW17182   7.009   0.374   1.784
 5428SOL    HW117183   7.021   0.278   1.808
 5428SOL    HW217184   6.956   0.420   1.856
 5429SOL     OW17185   0.917   1.831   5.754
 5429SOL    HW117186   0.905   1.897   5.827
 5429SOL    HW217187   0.975   1.756   5.786
 5430SOL     OW17188   0.949   3.506   5.427
 5430SOL    HW117189   0.886   3.460   5.489
 5430SOL    HW217190   0.954   3.454   5.341
 5431SOL     OW17191   3.664   5.797   0.050
 5431SOL    HW117192   3.568   5.793   0.079
 5431SOL    HW217193   3.693   5.707   0.019
 5432SOL     OW17194   4.512   6.562   6.399
 5432SOL    HW117195   4.510   6.659   6.377
 5432SOL    HW217196   4.418   6.529   6.410
 5433SOL     OW17197   0.290   1.567   3.969
 5433SOL    HW117198   0.203   1.615   3.963
 5433SOL    HW217199   0.337   1.593   4.054
 5434SOL     OW17200   3.844   0.895   4.555
 5434SOL    HW117201   3.893   0.955   4.492
 5434SOL    HW217202   3.861   0.923   4.649
 5435SOL     OW17203   5.300   1.185   1.870
 5435SOL    HW117204   5.214   1.151   1.833
 5435SOL    HW217205   5.375   1.157   1.811
 5436SOL     OW17206   5.174   3.737   4.118
 5436SOL    HW117207   5.184   3.686   4.203
 5436SOL    HW217208   5.176   3.835   4.137
 5437SOL     OW17209   2.934   5.057   6.498
 5437SOL    HW117210   2.941   5.013   6.408
 5437SOL    HW217211   2.957   5.154   6.490
 5438SOL     OW17212   5.478   4.161   2.869
 5438SOL    HW117213   5.512   4.153   2.963
 5438SOL    HW217214   5.556   4.167   2.806
 5439SOL     OW17215   1.066   2.469   1.220
 5439SOL    HW117216   1.144   2.529   1.199
 5439SOL    HW217217   1.076   2.432   1.312
 5440SOL     OW17218   0.887   0.213   1.965
 5440SOL    HW117219   0.858   0.196   1.872
 5440SOL    HW217220   0.808   0.218   2.025
 5441SOL     OW17221   4.950   2.556   3.258
 5441SOL    HW117222   4.935   2.472   3.309
 5441SOL    HW217223   4.897   2.554   3.173
 5442SOL     OW17224   3.560   6.403   3.349
 5442SOL    HW117225   3.584   6.380   3.443
 5442SOL    HW217226   3.475   6.455   3.347
 5443SOL     OW17227   2.773   0.747   3.515
 5443SOL    HW117228   2.798   0.794   3.600
 5443SOL    HW217229   2.739   0.814   3.449
 5444SOL     OW17230   1.786   0.459   3.970
 5444SOL    HW117231   1.885   0.448   3.971
 5444SOL    HW217232   1.754   0.473   3.877
 5445SOL     OW17233   5.540   4.096   4.451
 5445SOL    HW117234   5.451   4.081   4.494
 5445SOL    HW217235   5.557   4.024   4.383
 5446SOL     OW17236   6.603   4.943   4.916
 5446SOL    HW117237   6.512   4.903   4.932
 5446SOL    HW217238   6.648   4.957   5.004
 5447SOL     OW17239   2.226   1.660   6.707
 5447SOL    HW117240   2.228   1.565   6.675
 5447SOL    HW217241   2.203   1.661   6.805
 5448SOL     OW17242   5.400   3.078   4.693
 5448SOL    HW117243   5.318   3.096   4.639
 5448SOL    HW217244   5.374   3.039   4.781
 5449SOL     OW17245   1.584   2.326   6.517
 5449SOL    HW117246   1.581   2.386   6.437
 5449SOL    HW217247   1.671   2.277   6.519
 5450SOL     OW17248   1.721   0.687   2.003
 5450SOL    HW117249   1.767   0.733   2.079
 5450SOL    HW217250   1.627   0.719   1.997
 5451SOL     OW17251   1.528   5.895   3.779
 5451SOL    HW117252   1.583   5.979   3.785
 5451SOL    HW217253   1.524   5.852   3.869
 5452SOL     OW17254   2.014   4.431   6.531
 5452SOL    HW117255   2.053   4.340   6.542
 5452SOL    HW217256   1.928   4.437   6.582
 5453SOL     OW17257   5.332   4.367   1.842
 5453SOL    HW117258   5.247   4.318   1.823
 5453SOL    HW217259   5.394   4.308   1.893
 5454SOL     OW17260   0.476   3.856   6.181
 5454SOL    HW117261   0.390   3.805   6.175
 5454SOL    HW217262   0.460   3.951   6.153
 5455SOL     OW17263   6.285   3.062   1.002
 5455SOL    HW117264   6.215   3.127   1.032
 5455SOL    HW217265   6.371   3.110   0.986
 5456SOL     OW17266   2.768   0.403   6.572
 5456SOL    HW117267   2.797   0.323   6.519
 5456SOL    HW217268   2.797   0.393   6.667
 5457SOL     OW17269   6.312   2.699   0.035
 5457SOL    HW117270   6.371   2.621   0.058
 5457SOL    HW217271   6.216   2.668   0.033
 5458SOL     OW17272   0.702   4.085   0.757
 5458SOL    HW117273   0.745   4.089   0.667
 5458SOL    HW217274   0.770   4.107   0.827
 5459SOL     OW17275   1.699   4.032   0.168
 5459SOL    HW117276   1.720   3.948   0.119
 5459SOL    HW217277   1.677   4.104   0.103
 5460SOL     OW17278   3.723   0.809   3.281
 5460SOL    HW117279   3.793   0.871   3.244
 5460SOL    HW217280   3.633   0.837   3.248
 5461SOL     OW17281   5.959   0.235   5.788
 5461SOL    HW117282   6.026   0.301   5.756
 5461SOL    HW217283   5.959   0.154   5.728
 5462SOL     OW17284   0.091   6.979   7.000
 5462SOL    HW117285   7.021   7.007   6.982
 5462SOL    HW217286   0.101   6.958   0.072
 5463SOL     OW17287   0.298   1.983   0.959
 5463SOL    HW117288   0.376   2.042   0.980
 5463SOL    HW217289   0.213   2.029   0.987
 5464SOL     OW17290   1.162   1.354   4.319
 5464SOL    HW117291   1.182   1.268   4.272
 5464SOL    HW217292   1.091   1.404   4.270
 5465SOL     OW17293   3.487   6.881   3.766
 5465SOL    HW117294   3.393   6.864   3.796
 5465SOL    HW217295   3.542   6.798   3.778
 5466SOL     OW17296   5.210   2.943   5.265
 5466SOL    HW117297   5.207   3.024   5.207
 5466SOL    HW217298   5.284   2.953   5.332
 5467SOL     OW17299   5.141   3.009   3.121
 5467SOL    HW117300   5.201   3.082   3.088
 5467SOL    HW217301   5.176   2.974   3.208
 5468SOL     OW17302   5.898   2.510   4.437
 5468SOL    HW117303   5.841   2.582   4.478
 5468SOL    HW217304   5.844   2.460   4.369
 5469SOL     OW17305   3.765   6.055   6.102
 5469SOL    HW117306   3.796   6.135   6.050
 5469SOL    HW217307   3.679   6.078   6.149
 5470SOL     OW17308   3.112   5.992   2.994
 5470SOL    HW117309   3.050   6.048   3.050
 5470SOL    HW217310   3.162   5.929   3.053
 5471SOL     OW17311   4.996   0.016   2.427
 5471SOL    HW117312   5.078   7.005   2.384
 5471SOL    HW217313   5.019   0.098   2.479
 5472SOL     OW17314   4.745   3.829   5.984
 5472SOL    HW117315   4.837   3.828   5.946
 5472SOL    HW217316   4.750   3.841   6.083
 5473SOL     OW17317   0.196   2.732   2.260
 5473SOL    HW117318   0.272   2.708   2.199
 5473SOL    HW217319   0.116   2.756   2.205
 5474SOL     OW17320   1.251   4.847   4.221
 5474SOL    HW117321   1.250   4.864   4.122
 5474SOL    HW217322   1.286   4.755   4.238
 5475SOL     OW17323   2.330   3.037   1.470
 5475SOL    HW117324   2.341   3.084   1.558
 5475SOL    HW217325   2.326   2.938   1.486
 5476SOL     OW17326   1.654   4.331   5.389
 5476SOL    HW117327   1.744   4.375   5.395
 5476SOL    HW217328   1.655   4.266   5.313
 5477SOL     OW17329   2.512   4.865   3.410
 5477SOL    HW117330   2.431   4.879   3.468
 5477SOL    HW217331   2.486   4.873   3.314
 5478SOL     OW17332   3.670   5.313   4.937
 5478SOL    HW117333   3.574   5.328   4.958
 5478SOL    HW217334   3.687   5.214   4.930
 5479SOL     OW17335   4.778   1.575   6.674
 5479SOL    HW117336   4.717   1.539   6.604
 5479SOL    HW217337   4.727   1.631   6.739
 5480SOL     OW17338   6.365   4.515   3.140
 5480SOL    HW117339   6.382   4.533   3.237
 5480SOL    HW217340   6.340   4.419   3.128
 5481SOL     OW17341   4.027   1.513   4.364
 5481SOL    HW117342   4.121   1.526   4.331
 5481SOL    HW217343   4.015   1.564   4.449
 5482SOL     OW17344   3.654   4.434   1.607
 5482SOL    HW117345   3.655   4.511   1.670
 5482SOL    HW217346   3.726   4.445   1.538
 5483SOL     OW17347   0.500   1.889   5.650
 5483SOL    HW117348   0.539   1.797   5.648
 5483SOL    HW217349   0.535   1.942   5.573
 5484SOL     OW17350   3.661   1.208   4.189
 5484SOL    HW117351   3.751   1.252   4.200
 5484SOL    HW217352   3.598   1.272   4.146
 5485SOL     OW17353   4.665   0.445   5.654
 5485SOL    HW117354   4.683   0.509   5.579
 5485SOL    HW217355   4.702   0.355   5.631
 5486SOL     OW17356   2.369   6.029   5.207
 5486SOL    HW117357   2.435   6.060   5.139
 5486SOL    HW217358   2.289   5.991   5.160
 5487SOL     OW17359   4.086   2.988   6.600
 5487SOL    HW117360   4.154   2.946   6.540
 5487SOL    HW217361   4.062   3.078   6.564
 5488SOL     OW17362   6.351   0.023   0.967
 5488SOL    HW117363   6.339   0.066   1.056
 5488SOL    HW217364   6.285   6.973   0.957
 5489SOL     OW17365   0.214   3.880   1.524
 5489SOL    HW117366   0.285   3.946   1.551
 5489SOL    HW217367   0.249   3.821   1.451
 5490SOL     OW17368   2.761   0.409   2.483
 5490SOL    HW117369   2.784   0.348   2.408
 5490SOL    HW217370   2.662   0.419   2.490
 5491SOL     OW17371   1.018   2.816   0.022
 5491SOL    HW117372   1.034   2.719   0.042
 5491SOL    HW217373   0.923   2.839   0.044
 5492SOL     OW17374   0.975   3.620   6.789
 5492SOL    HW117375   0.976   3.719   6.808
 5492SOL    HW217376   1.044   3.575   6.846
 5493SOL     OW17377   3.473   3.010   4.082
 5493SOL    HW117378   3.460   3.044   3.989
 5493SOL    HW217379   3.570   2.992   4.098
 5494SOL     OW17380   6.880   3.695   5.442
 5494SOL    HW117381   6.855   3.616   5.386
 5494SOL    HW217382   6.797   3.736   5.481
 5495SOL     OW17383   6.040   0.902   1.441
 5495SOL    HW117384   5.984   0.906   1.358
 5495SOL    HW217385   6.012   0.975   1.504
 5496SOL     OW17386   4.034   0.705   3.146
 5496SOL    HW117387   4.120   0.732   3.188
 5496SOL    HW217388   3.960   0.764   3.180
 5497SOL     OW17389   0.871   1.422   5.177
 5497SOL    HW117390   0.958   1.472   5.176
 5497SOL    HW217391   0.837   1.413   5.084
 5498SOL     OW17392   0.255   5.244   2.165
 5498SOL    HW117393   0.301   5.277   2.083
 5498SOL    HW217394   0.236   5.146   2.156
 5499SOL     OW17395   0.779   0.596   4.408
 5499SOL    HW117396   0.682   0.590   4.384
 5499SOL    HW217397   0.828   0.517   4.371
 5500SOL     OW17398   0.712   0.741   6.778
 5500SOL    HW117399   0.654   0.669   6.816
 5500SOL    HW217400   0.655   0.809   6.731
 5501SOL     OW17401   3.829   2.208   0.733
 5501SOL    HW117402   3.859   2.114   0.748
 5501SOL    HW217403   3.752   2.229   0.793
 5502SOL     OW17404   5.409   3.495   6.251
 5502SOL    HW117405   5.312   3.471   6.253
 5502SOL    HW217406   5.419   3.594   6.239
 5503SOL     OW17407   6.981   4.637   0.338
 5503SOL    HW117408   0.013   4.576   0.281
 5503SOL    HW217409   6.890   4.598   0.347
 5504SOL     OW17410   4.625   1.256   5.215
 5504SOL    HW117411   4.577   1.169   5.204
 5504SOL    HW217412   4.705   1.258   5.155
 5505SOL     OW17413   2.097   4.412   3.057
 5505SOL    HW117414   2.156   4.365   2.992
 5505SOL    HW217415   2.153   4.464   3.121
 5506SOL     OW17416   0.226   3.057   0.454
 5506SOL    HW117417   0.263   3.002   0.529
 5506SOL    HW217418   0.126   3.063   0.463
 5507SOL     OW17419   3.613   0.680   4.966
 5507SOL    HW117420   3.531   0.736   4.973
 5507SOL    HW217421   3.628   0.654   4.871
 5508SOL     OW17422   0.966   1.378   0.432
 5508SOL    HW117423   0.912   1.399   0.514
 5508SOL    HW217424   0.923   1.303   0.382
 5509SOL     OW17425   0.844   5.817   0.313
 5509SOL    HW117426   0.834   5.898   0.254
 5509SOL    HW217427   0.768   5.814   0.378
 5510SOL     OW17428   4.305   5.465   6.837
 5510SOL    HW117429   4.331   5.554   6.874
 5510SOL    HW217430   4.268   5.476   6.745
 5511SOL     OW17431   1.794   1.302   5.212
 5511SOL    HW117432   1.806   1.301   5.113
 5511SOL    HW217433   1.873   1.347   5.254
 5512SOL     OW17434   3.953   1.574   0.987
 5512SOL    HW117435   3.894   1.546   1.063
 5512SOL    HW217436   4.019   1.501   0.969
 5513SOL     OW17437   3.806   5.441   6.007
 5513SOL    HW117438   3.871   5.453   6.082
 5513SOL    HW217439   3.744   5.366   6.028
 5514SOL     OW17440   3.301   0.569   4.531
 5514SOL    HW117441   3.342   0.659   4.542
 5514SOL    HW217442   3.367   0.507   4.489
 5515SOL     OW17443   1.279   5.550   1.708
 5515SOL    HW117444   1.341   5.621   1.673
 5515SOL    HW217445   1.213   5.526   1.638
 5516SOL     OW17446   2.217   2.411   4.794
 5516SOL    HW117447   2.157   2.398   4.716
 5516SOL    HW217448   2.197   2.342   4.864
 5517SOL     OW17449   2.130   3.653   1.768
 5517SOL    HW117450   2.041   3.660   1.814
 5517SOL    HW217451   2.193   3.601   1.824
 5518SOL     OW17452   6.295   5.058   6.050
 5518SOL    HW117453   6.301   5.012   5.961
 5518SOL    HW217454   6.211   5.111   6.055
 5519SOL     OW17455   6.139   3.097   3.154
 5519SOL    HW117456   6.231   3.059   3.164
 5519SOL    HW217457   6.071   3.024   3.168
 5520SOL     OW17458   5.349   6.896   2.011
 5520SOL    HW117459   5.426   6.843   2.044
 5520SOL    HW217460   5.284   6.912   2.085
 5521SOL     OW17461   5.679   6.357   1.743
 5521SOL    HW117462   5.641   6.272   1.708
 5521SOL    HW217463   5.722   6.408   1.668
 5522SOL     OW17464   6.331   5.255   1.347
 5522SOL    HW117465   6.318   5.158   1.323
 5522SOL    HW217466   6.243   5.295   1.372
 5523SOL     OW17467   4.183   0.903   2.058
 5523SOL    HW117468   4.253   0.906   1.988
 5523SOL    HW217469   4.208   0.963   2.134
 5524SOL     OW17470   3.361   6.902   4.811
 5524SOL    HW117471   3.395   6.996   4.809
 5524SOL    HW217472   3.263   6.902   4.831
 5525SOL     OW17473   1.535   2.501   6.982
 5525SOL    HW117474   1.499   2.569   0.021
 5525SOL    HW217475   1.484   2.416   6.992
 5526SOL     OW17476   5.218   4.955   3.188
 5526SOL    HW117477   5.234   5.044   3.145
 5526SOL    HW217478   5.189   4.889   3.118
 5527SOL     OW17479   4.931   3.633   3.419
 5527SOL    HW117480   4.927   3.594   3.511
 5527SOL    HW217481   4.852   3.692   3.404
 5528SOL     OW17482   1.908   0.603   0.974
 5528SOL    HW117483   1.868   0.514   0.992
 5528SOL    HW217484   1.988   0.593   0.914
 5529SOL     OW17485   3.317   0.006   4.306
 5529SOL    HW117486   3.375   0.063   4.365
 5529SOL    HW217487   3.281   0.062   4.231
 5530SOL     OW17488   6.070   1.798   1.435
 5530SOL    HW117489   6.123   1.852   1.499
 5530SOL    HW217490   6.010   1.736   1.486
 5531SOL     OW17491   3.848   3.683   1.657
 5531SOL    HW117492   3.828   3.587   1.637
 5531SOL    HW217493   3.896   3.690   1.744
 5532SOL     OW17494   0.888   2.981   0.968
 5532SOL    HW117495   0.803   3.000   0.919
 5532SOL    HW217496   0.897   3.043   1.045
 5533SOL     OW17497   5.096   1.177   3.722
 5533SOL    HW117498   5.035   1.238   3.672
 5533SOL    HW217499   5.087   1.193   3.820
 5534SOL     OW17500   0.978   1.274   6.762
 5534SOL    HW117501   1.016   1.186   6.788
 5534SOL    HW217502   0.879   1.275   6.779
 5535SOL     OW17503   1.000   1.114   3.091
 5535SOL    HW117504   0.994   1.092   2.993
 5535SOL    HW217505   1.038   1.036   3.140
 5536SOL     OW17506   4.268   0.502   4.343
 5536SOL    HW117507   4.229   0.418   4.381
 5536SOL    HW217508   4.362   0.485   4.314
 5537SOL     OW17509   3.181   0.940   2.553
 5537SOL    HW117510   3.142   1.016   2.603
 5537SOL    HW217511   3.244   0.975   2.483
 5538SOL     OW17512   4.010   6.241   5.014
 5538SOL    HW117513   3.993   6.150   4.976
 5538SOL    HW217514   3.962   6.309   4.959
 5539SOL     OW17515   1.681   4.114   1.317
 5539SOL    HW117516   1.662   4.209   1.293
 5539SOL    HW217517   1.670   4.101   1.415
 5540SOL     OW17518   4.993   4.602   3.866
 5540SOL    HW117519   4.902   4.641   3.880
 5540SOL    HW217520   5.062   4.665   3.901
 5541SOL     OW17521   5.124   0.442   6.646
 5541SOL    HW117522   5.129   0.480   6.738
 5541SOL    HW217523   5.211   0.398   6.623
 5542SOL     OW17524   4.154   3.230   6.072
 5542SOL    HW117525   4.151   3.322   6.035
 5542SOL    HW217526   4.068   3.183   6.052
 5543SOL     OW17527   5.457   3.771   6.271
 5543SOL    HW117528   5.410   3.851   6.309
 5543SOL    HW217529   5.554   3.774   6.296
 5544SOL     OW17530   5.226   6.889   6.549
 5544SOL    HW117531   5.152   6.932   6.602
 5544SOL    HW217532   5.218   6.916   6.453
 5545SOL     OW17533   4.079   1.452   2.529
 5545SOL    HW117534   4.173   1.484   2.519
 5545SOL    HW217535   4.020   1.530   2.550
 5546SOL     OW17536   1.230   5.349   5.264
 5546SOL    HW117537   1.163   5.309   5.326
 5546SOL    HW217538   1.253   5.282   5.192
 5547SOL     OW17539   2.635   6.265   5.050
 5547SOL    HW117540   2.730   6.297   5.052
 5547SOL    HW217541   2.578   6.330   5.000
 5548SOL     OW17542   6.259   3.679   5.553
 5548SOL    HW117543   6.318   3.679   5.472
 5548SOL    HW217544   6.202   3.597   5.552
 5549SOL     OW17545   3.722   4.540   0.317
 5549SOL    HW117546   3.630   4.579   0.320
 5549SOL    HW217547   3.760   4.553   0.225
 5550SOL     OW17548   2.867   5.739   2.081
 5550SOL    HW117549   2.893   5.835   2.089
 5550SOL    HW217550   2.948   5.681   2.089
 5551SOL     OW17551   1.679   0.515   2.786
 5551SOL    HW117552   1.749   0.488   2.720
 5551SOL    HW217553   1.716   0.585   2.847
 5552SOL     OW17554   0.163   1.895   0.494
 5552SOL    HW117555   0.155   1.985   0.451
 5552SOL    HW217556   0.116   1.827   0.437
 5553SOL     OW17557   4.166   6.575   6.783
 5553SOL    HW117558   4.166   6.666   6.741
 5553SOL    HW217559   4.083   6.526   6.758
 5554SOL     OW17560   3.006   2.583   5.802
 5554SOL    HW117561   2.966   2.610   5.714
 5554SOL    HW217562   2.979   2.489   5.823
 5555SOL     OW17563   0.432   5.872   3.528
 5555SOL    HW117564   0.371   5.865   3.449
 5555SOL    HW217565   0.386   5.834   3.608
 5556SOL     OW17566   0.677   2.610   4.866
 5556SOL    HW117567   0.661   2.541   4.795
 5556SOL    HW217568   0.772   2.641   4.862
 5557SOL     OW17569   2.638   5.823   4.088
 5557SOL    HW117570   2.708   5.868   4.033
 5557SOL    HW217571   2.656   5.725   4.091
 5558SOL     OW17572   4.947   3.013   5.128
 5558SOL    HW117573   4.992   3.095   5.164
 5558SOL    HW217574   4.879   2.981   5.193
 5559SOL     OW17575   2.507   7.010   1.014
 5559SOL    HW117576   2.465   6.998   1.104
 5559SOL    HW217577   2.458   0.055   0.963
 5560SOL     OW17578   6.742   0.172   3.233
 5560SOL    HW117579   6.763   0.104   3.163
 5560SOL    HW217580   6.782   0.259   3.208
 5561SOL     OW17581   1.375   2.904   4.071
 5561SOL    HW117582   1.290   2.870   4.111
 5561SOL    HW217583   1.386   2.867   3.979
 5562SOL     OW17584   1.931   2.835   6.196
 5562SOL    HW117585   1.857   2.898   6.174
 5562SOL    HW217586   1.990   2.824   6.115
 5563SOL     OW17587   4.449   6.056   2.066
 5563SOL    HW117588   4.521   6.003   2.111
 5563SOL    HW217589   4.444   6.147   2.107
 5564SOL     OW17590   5.381   3.758   1.767
 5564SOL    HW117591   5.293   3.802   1.785
 5564SOL    HW217592   5.453   3.827   1.768
 5565SOL     OW17593   4.126   2.451   5.524
 5565SOL    HW117594   4.031   2.473   5.546
 5565SOL    HW217595   4.185   2.525   5.556
 5566SOL     OW17596   1.416   5.488   0.982
 5566SOL    HW117597   1.467   5.407   0.956
 5566SOL    HW217598   1.471   5.570   0.963
 5567SOL     OW17599   1.691   5.375   1.115
 5567SOL    HW117600   1.652   5.463   1.141
 5567SOL    HW217601   1.746   5.339   1.191
 5568SOL     OW17602   4.656   2.053   0.966
 5568SOL    HW117603   4.590   2.124   0.992
 5568SOL    HW217604   4.746   2.095   0.950
 5569SOL     OW17605   3.990   1.469   1.667
 5569SOL    HW117606   4.008   1.374   1.693
 5569SOL    HW217607   4.050   1.495   1.592
 5570SOL     OW17608   5.757   4.831   4.963
 5570SOL    HW117609   5.850   4.864   4.945
 5570SOL    HW217610   5.747   4.738   4.927
 5571SOL     OW17611   0.454   5.710   0.685
 5571SOL    HW117612   0.375   5.652   0.667
 5571SOL    HW217613   0.444   5.755   0.774
 5572SOL     OW17614   4.127   2.532   6.455
 5572SOL    HW117615   4.051   2.470   6.436
 5572SOL    HW217616   4.105   2.588   6.534
 5573SOL     OW17617   1.186   3.851   0.359
 5573SOL    HW117618   1.105   3.795   0.346
 5573SOL    HW217619   1.266   3.792   0.375
 5574SOL     OW17620   0.314   0.024   4.487
 5574SOL    HW117621   0.385   0.083   4.449
 5574SOL    HW217622   0.230   0.076   4.498
 5575SOL     OW17623   1.618   0.951   1.029
 5575SOL    HW117624   1.620   0.922   1.124
 5575SOL    HW217625   1.572   0.882   0.973
 5576SOL     OW17626   6.046   5.089   1.295
 5576SOL    HW117627   6.044   5.051   1.387
 5576SOL    HW217628   6.034   5.016   1.228
 5577SOL     OW17629   1.895   3.234   5.570
 5577SOL    HW117630   1.900   3.328   5.536
 5577SOL    HW217631   1.834   3.180   5.512
 5578SOL     OW17632   3.826   2.489   6.926
 5578SOL    HW117633   3.741   2.540   6.915
 5578SOL    HW217634   3.896   2.551   6.962
 5579SOL     OW17635   5.256   3.717   6.680
 5579SOL    HW117636   5.308   3.633   6.665
 5579SOL    HW217637   5.205   3.740   6.597
 5580SOL     OW17638   4.768   1.873   0.744
 5580SOL    HW117639   4.848   1.928   0.769
 5580SOL    HW217640   4.695   1.889   0.809
 5581SOL     OW17641   2.041   0.636   6.394
 5581SOL    HW117642   2.101   0.595   6.463
 5581SOL    HW217643   1.993   0.714   6.434
 5582SOL     OW17644   3.269   3.650   4.142
 5582SOL    HW117645   3.229   3.706   4.214
 5582SOL    HW217646   3.367   3.671   4.134
 5583SOL     OW17647   3.486   6.632   2.088
 5583SOL    HW117648   3.405   6.633   2.029
 5583SOL    HW217649   3.495   6.720   2.134
 5584SOL     OW17650   5.897   4.295   3.501
 5584SOL    HW117651   5.854   4.383   3.519
 5584SOL    HW217652   5.933   4.258   3.587
 5585SOL     OW17653   6.277   0.622   3.661
 5585SOL    HW117654   6.238   0.530   3.655
 5585SOL    HW217655   6.207   0.690   3.636
 5586SOL     OW17656   2.127   1.943   6.377
 5586SOL    HW117657   2.192   1.940   6.301
 5586SOL    HW217658   2.146   2.023   6.434
 5587SOL     OW17659   3.799   0.527   3.306
 5587SOL    HW117660   3.821   0.440   3.261
 5587SOL    HW217661   3.758   0.589   3.239
 5588SOL     OW17662   2.174   6.854   5.334
 5588SOL    HW117663   2.235   6.895   5.402
 5588SOL    HW217664   2.190   6.756   5.331
 5589SOL     OW17665   4.996   2.787   6.237
 5589SOL    HW117666   5.028   2.880   6.224
 5589SOL    HW217667   4.911   2.773   6.187
 5590SOL     OW17668   6.578   6.113   4.700
 5590SOL    HW117669   6.517   6.048   4.744
 5590SOL    HW217670   6.671   6.101   4.734
 5591SOL     OW17671   6.025   0.854   0.229
 5591SOL    HW117672   5.953   0.807   0.179
 5591SOL    HW217673   6.113   0.809   0.213
 5592SOL     OW17674   1.065   4.332   2.680
 5592SOL    HW117675   1.132   4.374   2.741
 5592SOL    HW217676   1.073   4.374   2.589
 5593SOL     OW17677   0.734   2.885   6.042
 5593SOL    HW117678   0.651   2.830   6.054
 5593SOL    HW217679   0.743   2.949   6.118
 5594SOL     OW17680   2.326   0.181   0.052
 5594SOL    HW117681   2.344   0.192   0.150
 5594SOL    HW217682   2.318   0.084   0.030
 5595SOL     OW17683   6.357   0.974   5.789
 5595SOL    HW117684   6.415   1.033   5.846
 5595SOL    HW217685   6.307   0.910   5.848
 5596SOL     OW17686   5.180   0.679   2.828
 5596SOL    HW117687   5.103   0.615   2.820
 5596SOL    HW217688   5.192   0.705   2.924
 5597SOL     OW17689   5.828   1.417   6.709
 5597SOL    HW117690   5.892   1.445   6.780
 5597SOL    HW217691   5.865   1.338   6.659
 5598SOL     OW17692   5.331   1.544   3.938
 5598SOL    HW117693   5.272   1.464   3.944
 5598SOL    HW217694   5.332   1.591   4.026
 5599SOL     OW17695   5.183   3.861   1.494
 5599SOL    HW117696   5.252   3.793   1.517
 5599SOL    HW217697   5.113   3.819   1.436
 5600SOL     OW17698   1.796   0.771   2.894
 5600SOL    HW117699   1.766   0.849   2.948
 5600SOL    HW217700   1.837   0.803   2.809
 5601SOL     OW17701   5.229   2.770   5.973
 5601SOL    HW117702   5.308   2.809   5.924
 5601SOL    HW217703   5.170   2.844   6.006
 5602SOL     OW17704   0.768   2.175   3.361
 5602SOL    HW117705   0.771   2.275   3.365
 5602SOL    HW217706   0.844   2.142   3.305
 5603SOL     OW17707   4.657   2.644   5.236
 5603SOL    HW117708   4.655   2.715   5.165
 5603SOL    HW217709   4.576   2.652   5.294
 5604SOL     OW17710   0.994   0.029   4.333
 5604SOL    HW117711   0.979   0.047   4.430
 5604SOL    HW217712   1.026   0.112   4.289
 5605SOL     OW17713   1.778   6.858   4.190
 5605SOL    HW117714   1.710   6.931   4.202
 5605SOL    HW217715   1.771   6.794   4.266
 5606SOL     OW17716   5.032   1.554   0.847
 5606SOL    HW117717   5.049   1.459   0.873
 5606SOL    HW217718   4.992   1.604   0.925
 5607SOL     OW17719   6.242   2.598   2.518
 5607SOL    HW117720   6.151   2.624   2.485
 5607SOL    HW217721   6.255   2.632   2.611
 5608SOL     OW17722   5.618   0.827   3.890
 5608SOL    HW117723   5.657   0.761   3.954
 5608SOL    HW217724   5.690   0.888   3.857
 5609SOL     OW17725   5.695   6.649   0.966
 5609SOL    HW117726   5.681   6.746   0.947
 5609SOL    HW217727   5.741   6.606   0.888
 5610SOL     OW17728   5.398   4.253   0.163
 5610SOL    HW117729   5.442   4.291   0.244
 5610SOL    HW217730   5.455   4.181   0.124
 5611SOL     OW17731   0.524   5.123   1.676
 5611SOL    HW117732   0.527   5.221   1.660
 5611SOL    HW217733   0.434   5.097   1.710
 5612SOL     OW17734   3.008   1.364   0.505
 5612SOL    HW117735   3.108   1.367   0.497
 5612SOL    HW217736   2.981   1.286   0.562
 5613SOL     OW17737   6.814   5.540   4.678
 5613SOL    HW117738   6.793   5.442   4.677
 5613SOL    HW217739   6.825   5.571   4.773
 5614SOL     OW17740   5.837   1.927   4.596
 5614SOL    HW117741   5.797   2.010   4.556
 5614SOL    HW217742   5.786   1.847   4.566
 5615SOL     OW17743   0.022   2.459   2.403
 5615SOL    HW117744   6.959   2.412   2.411
 5615SOL    HW217745   0.007   2.558   2.400
 5616SOL     OW17746   1.630   3.185   3.849
 5616SOL    HW117747   1.719   3.158   3.886
 5616SOL    HW217748   1.643   3.251   3.775
 5617SOL     OW17749   1.870   5.084   5.786
 5617SOL    HW117750   1.866   5.154   5.715
 5617SOL    HW217751   1.960   5.085   5.829
 5618SOL     OW17752   7.013   5.130   4.302
 5618SOL    HW117753   7.012   5.055   4.235
 5618SOL    HW217754   6.923   5.171   4.308
 5619SOL     OW17755   3.727   3.487   4.315
 5619SOL    HW117756   3.767   3.569   4.274
 5619SOL    HW217757   3.640   3.467   4.270
 5620SOL     OW17758   4.232   4.326   5.692
 5620SOL    HW117759   4.275   4.265   5.759
 5620SOL    HW217760   4.137   4.341   5.717
 5621SOL     OW17761   1.543   2.848   5.083
 5621SOL    HW117762   1.532   2.947   5.079
 5621SOL    HW217763   1.601   2.818   5.008
 5622SOL     OW17764   4.646   5.317   5.147
 5622SOL    HW117765   4.687   5.237   5.192
 5622SOL    HW217766   4.703   5.343   5.069
 5623SOL     OW17767   4.666   5.916   4.254
 5623SOL    HW117768   4.626   5.979   4.320
 5623SOL    HW217769   4.719   5.846   4.302
 5624SOL     OW17770   6.949   5.510   4.137
 5624SOL    HW117771   6.948   5.609   4.123
 5624SOL    HW217772   6.927   5.490   4.233
 5625SOL     OW17773   1.495   5.610   4.558
 5625SOL    HW117774   1.539   5.584   4.472
 5625SOL    HW217775   1.449   5.530   4.597
 5626SOL     OW17776   2.142   3.789   4.180
 5626SOL    HW117777   2.075   3.721   4.150
 5626SOL    HW217778   2.163   3.775   4.277
 5627SOL     OW17779   1.463   5.686   0.527
 5627SOL    HW117780   1.427   5.747   0.598
 5627SOL    HW217781   1.558   5.710   0.508
 5628SOL     OW17782   2.881   2.992   0.419
 5628SOL    HW117783   2.859   3.047   0.500
 5628SOL    HW217784   2.806   2.929   0.400
 5629SOL     OW17785   4.582   3.683   1.045
 5629SOL    HW117786   4.487   3.663   1.023
 5629SOL    HW217787   4.636   3.599   1.036
 5630SOL     OW17788   1.460   4.262   6.439
 5630SOL    HW117789   1.384   4.228   6.385
 5630SOL    HW217790   1.430   4.277   6.533
 5631SOL     OW17791   4.241   0.644   2.100
 5631SOL    HW117792   4.334   0.639   2.138
 5631SOL    HW217793   4.215   0.740   2.089
 5632SOL     OW17794   6.058   0.611   5.952
 5632SOL    HW117795   6.039   0.525   5.999
 5632SOL    HW217796   6.157   0.625   5.945
 5633SOL     OW17797   0.447   4.678   5.555
 5633SOL    HW117798   0.391   4.634   5.625
 5633SOL    HW217799   0.398   4.679   5.468
 5634SOL     OW17800   2.803   5.894   5.929
 5634SOL    HW117801   2.865   5.836   5.876
 5634SOL    HW217802   2.759   5.839   6.000
 5635SOL     OW17803   2.678   7.001   6.577
 5635SOL    HW117804   2.694   7.014   6.479
 5635SOL    HW217805   2.657   6.905   6.596
 5636SOL     OW17806   6.266   0.871   5.550
 5636SOL    HW117807   6.297   0.927   5.627
 5636SOL    HW217808   6.245   0.931   5.472
 5637SOL     OW17809   5.440   6.093   4.884
 5637SOL    HW117810   5.391   6.083   4.971
 5637SOL    HW217811   5.497   6.012   4.868
 5638SOL     OW17812   5.121   5.923   1.025
 5638SOL    HW117813   5.128   5.973   1.112
 5638SOL    HW217814   5.025   5.919   0.997
 5639SOL     OW17815   1.541   6.961   1.378
 5639SOL    HW117816   1.625   6.940   1.429
 5639SOL    HW217817   1.536   0.035   1.364
 5640SOL     OW17818   2.517   6.193   3.101
 5640SOL    HW117819   2.501   6.138   3.019
 5640SOL    HW217820   2.486   6.287   3.085
 5641SOL     OW17821   1.433   5.338   4.653
 5641SOL    HW117822   1.394   5.246   4.655
 5641SOL    HW217823   1.525   5.336   4.691
 5642SOL     OW17824   0.627   4.598   5.956
 5642SOL    HW117825   0.697   4.651   5.908
 5642SOL    HW217826   0.638   4.609   6.054
 5643SOL     OW17827   4.050   2.143   4.711
 5643SOL    HW117828   4.053   2.160   4.809
 5643SOL    HW217829   4.142   2.143   4.673
 5644SOL     OW17830   5.087   1.479   4.769
 5644SOL    HW117831   5.055   1.571   4.746
 5644SOL    HW217832   5.179   1.466   4.731
 5645SOL     OW17833   5.159   5.217   2.039
 5645SOL    HW117834   5.239   5.218   2.099
 5645SOL    HW217835   5.168   5.290   1.971
 5646SOL     OW17836   0.177   6.030   3.753
 5646SOL    HW117837   0.161   5.991   3.662
 5646SOL    HW217838   0.161   5.960   3.823
 5647SOL     OW17839   6.532   5.762   7.004
 5647SOL    HW117840   6.563   5.672   0.008
 5647SOL    HW217841   6.589   5.832   0.023
 5648SOL     OW17842   2.026   1.734   3.202
 5648SOL    HW117843   2.096   1.670   3.233
 5648SOL    HW217844   2.001   1.796   3.276
 5649SOL     OW17845   1.941   0.619   4.929
 5649SOL    HW117846   1.923   0.599   4.833
 5649SOL    HW217847   1.998   0.701   4.936
 5650SOL     OW17848   6.993   4.917   0.911
 5650SOL    HW117849   6.913   4.976   0.900
 5650SOL    HW217850   7.021   4.917   1.007
 5651SOL     OW17851   0.569   1.885   1.574
 5651SOL    HW117852   0.531   1.846   1.658
 5651SOL    HW217853   0.495   1.918   1.516
 5652SOL     OW17854   5.582   5.727   1.674
 5652SOL    HW117855   5.615   5.782   1.597
 5652SOL    HW217856   5.534   5.646   1.639
 5653SOL     OW17857   6.769   5.900   6.000
 5653SOL    HW117858   6.717   5.982   6.021
 5653SOL    HW217859   6.783   5.847   6.083
 5654SOL     OW17860   0.158   0.250   6.072
 5654SOL    HW117861   0.227   0.178   6.066
 5654SOL    HW217862   0.166   0.310   5.993
 5655SOL     OW17863   1.433   3.172   4.051
 5655SOL    HW117864   1.413   3.087   4.099
 5655SOL    HW217865   1.513   3.159   3.992
 5656SOL     OW17866   3.229   4.249   0.702
 5656SOL    HW117867   3.246   4.210   0.792
 5656SOL    HW217868   3.308   4.303   0.673
 5657SOL     OW17869   5.165   6.682   1.343
 5657SOL    HW117870   5.134   6.732   1.424
 5657SOL    HW217871   5.259   6.651   1.356
 5658SOL     OW17872   3.321   6.888   5.384
 5658SOL    HW117873   3.361   6.841   5.463
 5658SOL    HW217874   3.378   6.872   5.304
 5659SOL     OW17875   2.948   3.220   3.173
 5659SOL    HW117876   2.898   3.150   3.223
 5659SOL    HW217877   2.920   3.310   3.204
 5660SOL     OW17878   5.747   0.098   0.720
 5660SOL    HW117879   5.727   0.150   0.637
 5660SOL    HW217880   5.813   0.025   0.698
 5661SOL     OW17881   6.735   6.362   5.062
 5661SOL    HW117882   6.684   6.284   5.097
 5661SOL    HW217883   6.778   6.410   5.138
 5662SOL     OW17884   2.671   4.646   3.919
 5662SOL    HW117885   2.724   4.697   3.851
 5662SOL    HW217886   2.606   4.586   3.872
 5663SOL     OW17887   0.839   3.870   0.277
 5663SOL    HW117888   0.868   3.775   0.277
 5663SOL    HW217889   0.740   3.875   0.284
 5664SOL     OW17890   0.291   4.933   3.321
 5664SOL    HW117891   0.257   4.841   3.302
 5664SOL    HW217892   0.382   4.928   3.363
 5665SOL     OW17893   1.539   2.520   6.325
 5665SOL    HW117894   1.583   2.574   6.253
 5665SOL    HW217895   1.444   2.550   6.335
 5666SOL     OW17896   4.613   5.635   1.008
 5666SOL    HW117897   4.622   5.544   0.967
 5666SOL    HW217898   4.634   5.630   1.105
 5667SOL     OW17899   0.555   4.880   3.351
 5667SOL    HW117900   0.592   4.800   3.303
 5667SOL    HW217901   0.626   4.951   3.356
 5668SOL     OW17902   4.596   1.475   6.503
 5668SOL    HW117903   4.524   1.500   6.569
 5668SOL    HW217904   4.594   1.377   6.488
 5669SOL     OW17905   0.027   5.109   5.489
 5669SOL    HW117906   0.122   5.093   5.462
 5669SOL    HW217907   7.022   5.034   5.549
 5670SOL     OW17908   0.137   3.211   3.643
 5670SOL    HW117909   0.088   3.124   3.631
 5670SOL    HW217910   0.224   3.194   3.688
 5671SOL     OW17911   2.136   6.217   6.399
 5671SOL    HW117912   2.102   6.244   6.489
 5671SOL    HW217913   2.086   6.268   6.329
 5672SOL     OW17914   4.956   3.835   5.800
 5672SOL    HW117915   4.921   3.890   5.724
 5672SOL    HW217916   4.953   3.738   5.775
 5673SOL     OW17917   0.294   0.138   2.373
 5673SOL    HW117918   0.240   0.222   2.367
 5673SOL    HW217919   0.235   0.060   2.353
 5674SOL     OW17920   0.034   4.006   1.745
 5674SOL    HW117921   0.037   3.929   1.681
 5674SOL    HW217922   6.988   3.989   1.814
 5675SOL     OW17923   4.372   2.609   5.363
 5675SOL    HW117924   4.408   2.596   5.455
 5675SOL    HW217925   4.315   2.691   5.361
 5676SOL     OW17926   1.870   0.802   0.773
 5676SOL    HW117927   1.796   0.781   0.709
 5676SOL    HW217928   1.876   0.731   0.842
 5677SOL     OW17929   6.829   1.864   2.979
 5677SOL    HW117930   6.762   1.902   2.915
 5677SOL    HW217931   6.884   1.795   2.932
 5678SOL     OW17932   3.237   6.372   2.818
 5678SOL    HW117933   3.285   6.284   2.811
 5678SOL    HW217934   3.260   6.415   2.905
 5679SOL     OW17935   1.448   6.897   4.855
 5679SOL    HW117936   1.487   6.881   4.946
 5679SOL    HW217937   1.349   6.881   4.858
 5680SOL     OW17938   1.944   5.461   6.857
 5680SOL    HW117939   1.899   5.396   6.920
 5680SOL    HW217940   1.879   5.532   6.831
 5681SOL     OW17941   0.718   3.007   6.392
 5681SOL    HW117942   0.743   3.060   6.311
 5681SOL    HW217943   0.736   3.062   6.474
 5682SOL     OW17944   1.412   2.898   5.432
 5682SOL    HW117945   1.391   2.865   5.524
 5682SOL    HW217946   1.460   2.827   5.381
 5683SOL     OW17947   3.718   2.630   6.211
 5683SOL    HW117948   3.768   2.708   6.249
 5683SOL    HW217949   3.748   2.613   6.117
 5684SOL     OW17950   3.920   3.264   4.323
 5684SOL    HW117951   3.888   3.176   4.357
 5684SOL    HW217952   3.853   3.335   4.345
 5685SOL     OW17953   0.331   4.816   2.124
 5685SOL    HW117954   0.285   4.896   2.085
 5685SOL    HW217955   0.286   4.733   2.092
 5686SOL     OW17956   3.586   0.384   0.295
 5686SOL    HW117957   3.545   0.451   0.234
 5686SOL    HW217958   3.524   0.364   0.370
 5687SOL     OW17959   6.423   4.226   4.562
 5687SOL    HW117960   6.423   4.130   4.592
 5687SOL    HW217961   6.389   4.284   4.635
 5688SOL     OW17962   6.229   1.744   0.821
 5688SOL    HW117963   6.294   1.719   0.893
 5688SOL    HW217964   6.206   1.662   0.769
 5689SOL     OW17965   4.322   1.659   0.962
 5689SOL    HW117966   4.413   1.700   0.954
 5689SOL    HW217967   4.323   1.591   1.036
 5690SOL     OW17968   3.578   6.040   0.581
 5690SOL    HW117969   3.561   6.136   0.560
 5690SOL    HW217970   3.616   5.994   0.501
 5691SOL     OW17971   2.807   6.270   2.105
 5691SOL    HW117972   2.891   6.322   2.122
 5691SOL    HW217973   2.830   6.173   2.094
 5692SOL     OW17974   6.489   1.963   6.318
 5692SOL    HW117975   6.567   1.907   6.291
 5692SOL    HW217976   6.519   2.034   6.382
 5693SOL     OW17977   4.894   2.680   2.405
 5693SOL    HW117978   4.967   2.722   2.458
 5693SOL    HW217979   4.860   2.746   2.337
 5694SOL     OW17980   0.724   1.397   3.451
 5694SOL    HW117981   0.740   1.496   3.453
 5694SOL    HW217982   0.807   1.351   3.416
 5695SOL     OW17983   1.174   2.305   2.786
 5695SOL    HW117984   1.194   2.297   2.884
 5695SOL    HW217985   1.259   2.303   2.734
 5696SOL     OW17986   3.214   0.974   4.767
 5696SOL    HW117987   3.186   1.065   4.798
 5696SOL    HW217988   3.254   0.981   4.676
 5697SOL     OW17989   6.798   2.426   1.310
 5697SOL    HW117990   6.895   2.404   1.319
 5697SOL    HW217991   6.787   2.511   1.258
 5698SOL     OW17992   0.287   1.880   2.149
 5698SOL    HW117993   0.235   1.965   2.143
 5698SOL    HW217994   0.369   1.887   2.092
 5699SOL     OW17995   5.859   1.999   3.783
 5699SOL    HW117996   5.760   2.003   3.765
 5699SOL    HW217997   5.875   1.948   3.867
 5700SOL     OW17998   0.221   6.514   4.765
 5700SOL    HW117999   0.312   6.473   4.753
 5700SOL    HW218000   0.206   6.535   4.861
 5701SOL     OW18001   0.261   5.563   3.222
 5701SOL    HW118002   0.272   5.633   3.151
 5701SOL    HW218003   0.186   5.502   3.197
 5702SOL     OW18004   2.072   0.230   6.278
 5702SOL    HW118005   2.063   0.131   6.286
 5702SOL    HW218006   2.089   0.254   6.182
 5703SOL     OW18007   5.077   5.272   0.046
 5703SOL    HW118008   4.996   5.269   0.105
 5703SOL    HW218009   5.073   5.197   7.006
 5704SOL     OW18010   4.385   5.779   2.943
 5704SOL    HW118011   4.467   5.774   2.999
 5704SOL    HW218012   4.336   5.863   2.963
 5705SOL     OW18013   6.411   1.074   0.908
 5705SOL    HW118014   6.346   1.134   0.955
 5705SOL    HW218015   6.471   1.129   0.850
 5706SOL     OW18016   1.626   1.417   0.150
 5706SOL    HW118017   1.724   1.419   0.134
 5706SOL    HW218018   1.581   1.365   0.077
 5707SOL     OW18019   1.168   0.306   6.382
 5707SOL    HW118020   1.111   0.342   6.456
 5707SOL    HW218021   1.204   0.217   6.410
 5708SOL     OW18022   5.301   0.268   2.107
 5708SOL    HW118023   5.256   0.357   2.097
 5708SOL    HW218024   5.352   0.247   2.023
 5709SOL     OW18025   0.507   6.187   3.168
 5709SOL    HW118026   0.576   6.151   3.230
 5709SOL    HW218027   0.523   6.285   3.152
 5710SOL     OW18028   2.728   3.621   5.677
 5710SOL    HW118029   2.788   3.560   5.626
 5710SOL    HW218030   2.673   3.675   5.614
 5711SOL     OW18031   4.712   0.557   3.713
 5711SOL    HW118032   4.635   0.497   3.692
 5711SOL    HW218033   4.797   0.516   3.678
 5712SOL     OW18034   0.921   6.784   5.415
 5712SOL    HW118035   1.017   6.772   5.440
 5712SOL    HW218036   0.876   6.695   5.410
 5713SOL     OW18037   1.104   2.375   1.472
 5713SOL    HW118038   1.036   2.302   1.471
 5713SOL    HW218039   1.193   2.339   1.446
 5714SOL     OW18040   1.276   6.682   6.634
 5714SOL    HW118041   1.249   6.729   6.717
 5714SOL    HW218042   1.345   6.613   6.656
 5715SOL     OW18043   1.372   6.038   3.618
 5715SOL    HW118044   1.305   5.981   3.570
 5715SOL    HW218045   1.439   5.980   3.663
 5716SOL     OW18046   0.879   4.212   5.180
 5716SOL    HW118047   0.832   4.234   5.094
 5716SOL    HW218048   0.973   4.248   5.177
 5717SOL     OW18049   2.042   4.921   0.701
 5717SOL    HW118050   1.963   4.940   0.760
 5717SOL    HW218051   2.110   4.993   0.713
 5718SOL     OW18052   1.520   4.551   6.891
 5718SOL    HW118053   1.549   4.643   6.919
 5718SOL    HW218054   1.599   4.490   6.887
 5719SOL     OW18055   3.057   1.017   5.747
 5719SOL    HW118056   3.058   1.097   5.807
 5719SOL    HW218057   3.038   1.046   5.653
 5720SOL     OW18058   0.575   5.242   5.006
 5720SOL    HW118059   0.560   5.321   4.946
 5720SOL    HW218060   0.654   5.260   5.065
 5721SOL     OW18061   0.958   3.470   0.091
 5721SOL    HW118062   1.031   3.513   0.039
 5721SOL    HW218063   0.941   3.378   0.057
 5722SOL     OW18064   5.193   0.906   4.954
 5722SOL    HW118065   5.268   0.921   4.889
 5722SOL    HW218066   5.204   0.816   4.997
 5723SOL     OW18067   4.574   4.826   0.755
 5723SOL    HW118068   4.498   4.844   0.692
 5723SOL    HW218069   4.560   4.737   0.798
 5724SOL     OW18070   3.891   2.553   5.646
 5724SOL    HW118071   3.818   2.485   5.645
 5724SOL    HW218072   3.886   2.609   5.563
 5725SOL     OW18073   4.863   5.705   3.413
 5725SOL    HW118074   4.928   5.631   3.397
 5725SOL    HW218075   4.834   5.743   3.326
 5726SOL     OW18076   6.727   3.445   4.014
 5726SOL    HW118077   6.660   3.479   4.079
 5726SOL    HW218078   6.814   3.428   4.061
 5727SOL     OW18079   5.745   3.641   2.885
 5727SOL    HW118080   5.677   3.582   2.841
 5727SOL    HW218081   5.805   3.681   2.815
 5728SOL     OW18082   5.330   1.508   6.726
 5728SOL    HW118083   5.347   1.426   6.673
 5728SOL    HW218084   5.243   1.501   6.774
 5729SOL     OW18085   0.680   1.758   0.830
 5729SOL    HW118086   0.644   1.809   0.909
 5729SOL    HW218087   0.687   1.661   0.854
 5730SOL     OW18088   3.762   5.722   5.640
 5730SOL    HW118089   3.812   5.671   5.710
 5730SOL    HW218090   3.815   5.802   5.613
 5731SOL     OW18091   1.152   6.233   4.056
 5731SOL    HW118092   1.205   6.212   3.974
 5731SOL    HW218093   1.055   6.235   4.033
 5732SOL     OW18094   6.006   4.898   4.524
 5732SOL    HW118095   5.985   4.995   4.535
 5732SOL    HW218096   6.064   4.868   4.600
 5733SOL     OW18097   3.666   1.042   6.189
 5733SOL    HW118098   3.716   0.980   6.248
 5733SOL    HW218099   3.723   1.068   6.111
 5734SOL     OW18100   1.052   0.301   5.329
 5734SOL    HW118101   1.018   0.350   5.410
 5734SOL    HW218102   0.974   0.268   5.276
 5735SOL     OW18103   3.691   0.937   2.379
 5735SOL    HW118104   3.620   0.867   2.368
 5735SOL    HW218105   3.647   1.025   2.398
 5736SOL     OW18106   5.251   4.613   6.430
 5736SOL    HW118107   5.218   4.707   6.417
 5736SOL    HW218108   5.287   4.578   6.344
 5737SOL     OW18109   5.044   6.260   1.069
 5737SOL    HW118110   5.116   6.200   1.034
 5737SOL    HW218111   5.022   6.233   1.163
 5738SOL     OW18112   3.589   1.380   6.614
 5738SOL    HW118113   3.497   1.372   6.577
 5738SOL    HW218114   3.647   1.429   6.549
 5739SOL     OW18115   1.749   6.878   5.503
 5739SOL    HW118116   1.790   6.822   5.575
 5739SOL    HW218117   1.753   6.828   5.416
 5740SOL     OW18118   4.846   3.920   0.721
 5740SOL    HW118119   4.747   3.909   0.713
 5740SOL    HW218120   4.891   3.886   0.638
 5741SOL     OW18121   0.291   3.628   3.730
 5741SOL    HW118122   0.195   3.600   3.735
 5741SOL    HW218123   0.345   3.554   3.688
 5742SOL     OW18124   3.891   0.012   3.600
 5742SOL    HW118125   3.838   0.020   3.516
 5742SOL    HW218126   3.957   0.088   3.606
 5743SOL     OW18127   3.876   4.565   6.084
 5743SOL    HW118128   3.853   4.484   6.138
 5743SOL    HW218129   3.954   4.611   6.126
 5744SOL     OW18130   6.374   1.032   3.109
 5744SOL    HW118131   6.371   1.129   3.131
 5744SOL    HW218132   6.316   0.982   3.175
 5745SOL     OW18133   2.524   1.781   3.902
 5745SOL    HW118134   2.451   1.742   3.958
 5745SOL    HW218135   2.484   1.831   3.826
 5746SOL     OW18136   4.126   0.165   3.620
 5746SOL    HW118137   4.209   0.112   3.638
 5746SOL    HW218138   4.111   0.230   3.694
 5747SOL     OW18139   0.806   6.345   2.294
 5747SOL    HW118140   0.756   6.259   2.285
 5747SOL    HW218141   0.882   6.347   2.230
 5748SOL     OW18142   0.987   6.951   0.588
 5748SOL    HW118143   0.913   6.895   0.625
 5748SOL    HW218144   0.950   7.013   0.519
 5749SOL     OW18145   2.016   6.566   5.229
 5749SOL    HW118146   2.115   6.554   5.237
 5749SOL    HW218147   1.984   6.519   5.146
 5750SOL     OW18148   5.999   4.929   5.524
 5750SOL    HW118149   5.928   4.874   5.481
 5750SOL    HW218150   6.062   4.870   5.573
 5751SOL     OW18151   1.251   3.734   4.836
 5751SOL    HW118152   1.312   3.666   4.877
 5751SOL    HW218153   1.163   3.732   4.882
 5752SOL     OW18154   5.938   0.093   1.321
 5752SOL    HW118155   5.958   0.018   1.385
 5752SOL    HW218156   5.860   0.068   1.264
 5753SOL     OW18157   3.115   3.739   4.775
 5753SOL    HW118158   3.054   3.681   4.828
 5753SOL    HW218159   3.133   3.697   4.686
 5754SOL     OW18160   1.193   5.987   2.103
 5754SOL    HW118161   1.260   5.959   2.033
 5754SOL    HW218162   1.198   6.086   2.115
 5755SOL     OW18163   1.488   2.171   5.847
 5755SOL    HW118164   1.446   2.189   5.936
 5755SOL    HW218165   1.576   2.217   5.841
 5756SOL     OW18166   6.756   0.599   2.859
 5756SOL    HW118167   6.684   0.598   2.928
 5756SOL    HW218168   6.771   0.506   2.825
 5757SOL     OW18169   0.586   5.603   3.818
 5757SOL    HW118170   0.494   5.641   3.816
 5757SOL    HW218171   0.651   5.674   3.844
 5758SOL     OW18172   2.276   0.348   3.697
 5758SOL    HW118173   2.300   0.282   3.625
 5758SOL    HW218174   2.272   0.440   3.658
 5759SOL     OW18175   4.538   0.344   1.554
 5759SOL    HW118176   4.631   0.354   1.589
 5759SOL    HW218177   4.541   0.323   1.456
 5760SOL     OW18178   6.654   2.817   1.998
 5760SOL    HW118179   6.595   2.758   2.053
 5760SOL    HW218180   6.631   2.805   1.901
 5761SOL     OW18181   5.372   5.776   5.149
 5761SOL    HW118182   5.439   5.739   5.214
 5761SOL    HW218183   5.310   5.838   5.197
 5762SOL     OW18184   4.612   4.373   0.306
 5762SOL    HW118185   4.650   4.298   0.252
 5762SOL    HW218186   4.524   4.345   0.345
 5763SOL     OW18187   5.678   6.244   0.659
 5763SOL    HW118188   5.753   6.269   0.598
 5763SOL    HW218189   5.593   6.239   0.607
 5764SOL     OW18190   4.218   5.453   3.786
 5764SOL    HW118191   4.232   5.548   3.813
 5764SOL    HW218192   4.125   5.441   3.751
 5765SOL     OW18193   6.715   3.430   0.636
 5765SOL    HW118194   6.760   3.492   0.573
 5765SOL    HW218195   6.744   3.452   0.730
 5766SOL     OW18196   2.213   2.064   4.858
 5766SOL    HW118197   2.154   2.042   4.781
 5766SOL    HW218198   2.172   2.140   4.910
 5767SOL     OW18199   2.618   0.021   6.829
 5767SOL    HW118200   2.539   6.987   6.846
 5767SOL    HW218201   2.641   0.020   6.732
 5768SOL     OW18202   0.316   6.763   3.457
 5768SOL    HW118203   0.391   6.735   3.517
 5768SOL    HW218204   0.258   6.684   3.438
 5769SOL     OW18205   3.010   5.693   5.146
 5769SOL    HW118206   3.013   5.750   5.228
 5769SOL    HW218207   3.004   5.597   5.173
 5770SOL     OW18208   0.269   6.221   6.956
 5770SOL    HW118209   0.205   6.213   6.879
 5770SOL    HW218210   0.271   6.135   7.007
 5771SOL     OW18211   1.811   0.213   4.266
 5771SOL    HW118212   1.867   0.272   4.324
 5771SOL    HW218213   1.750   0.158   4.323
 5772SOL     OW18214   4.769   1.182   1.459
 5772SOL    HW118215   4.725   1.152   1.374
 5772SOL    HW218216   4.792   1.102   1.514
 5773SOL     OW18217   4.021   0.803   2.674
 5773SOL    HW118218   4.054   0.742   2.746
 5773SOL    HW218219   3.977   0.750   2.602
 5774SOL     OW18220   1.846   0.584   4.643
 5774SOL    HW118221   1.888   0.633   4.566
 5774SOL    HW218222   1.747   0.580   4.629
 5775SOL     OW18223   1.023   6.629   3.078
 5775SOL    HW118224   1.001   6.727   3.075
 5775SOL    HW218225   1.120   6.618   3.098
 5776SOL     OW18226   1.210   0.408   3.735
 5776SOL    HW118227   1.259   0.438   3.653
 5776SOL    HW218228   1.275   0.368   3.800
 5777SOL     OW18229   0.902   0.218   3.824
 5777SOL    HW118230   0.950   0.198   3.739
 5777SOL    HW218231   0.965   0.206   3.901
 5778SOL     OW18232   1.671   0.920   0.047
 5778SOL    HW118233   1.583   0.965   0.066
 5778SOL    HW218234   1.654   0.828   0.011
 5779SOL     OW18235   4.674   2.352   0.266
 5779SOL    HW118236   4.717   2.384   0.182
 5779SOL    HW218237   4.744   2.318   0.329
 5780SOL     OW18238   4.980   6.146   4.549
 5780SOL    HW118239   5.026   6.185   4.629
 5780SOL    HW218240   5.023   6.058   4.526
 5781SOL     OW18241   6.227   4.969   4.098
 5781SOL    HW118242   6.161   4.919   4.153
 5781SOL    HW218243   6.216   5.068   4.113
 5782SOL     OW18244   1.385   1.736   0.458
 5782SOL    HW118245   1.384   1.678   0.376
 5782SOL    HW218246   1.328   1.816   0.442
 5783SOL     OW18247   1.030   0.635   2.289
 5783SOL    HW118248   1.130   0.641   2.281
 5783SOL    HW218249   0.989   0.710   2.238
 5784SOL     OW18250   0.554   6.582   5.336
 5784SOL    HW118251   0.537   6.666   5.285
 5784SOL    HW218252   0.492   6.510   5.303
 5785SOL     OW18253   1.885   1.736   0.067
 5785SOL    HW118254   1.807   1.790   0.099
 5785SOL    HW218255   1.956   1.797   0.033
 5786SOL     OW18256   6.619   4.317   0.832
 5786SOL    HW118257   6.580   4.328   0.741
 5786SOL    HW218258   6.610   4.221   0.860
 5787SOL     OW18259   2.106   2.592   5.449
 5787SOL    HW118260   2.145   2.541   5.373
 5787SOL    HW218261   2.179   2.626   5.508
 5788SOL     OW18262   3.115   1.208   2.295
 5788SOL    HW118263   3.198   1.252   2.329
 5788SOL    HW218264   3.139   1.123   2.248
 5789SOL     OW18265   3.403   4.625   6.613
 5789SOL    HW118266   3.352   4.706   6.585
 5789SOL    HW218267   3.478   4.651   6.674
 5790SOL     OW18268   1.940   4.089   3.998
 5790SOL    HW118269   2.039   4.085   3.987
 5790SOL    HW218270   1.901   3.999   3.981
 5791SOL     OW18271   4.003   0.226   2.258
 5791SOL    HW118272   4.095   0.262   2.275
 5791SOL    HW218273   3.935   0.291   2.292
 5792SOL     OW18274   6.834   2.537   2.959
 5792SOL    HW118275   6.786   2.625   2.956
 5792SOL    HW218276   6.933   2.552   2.956
 5793SOL     OW18277   5.620   0.420   4.079
 5793SOL    HW118278   5.527   0.449   4.099
 5793SOL    HW218279   5.620   0.360   3.999
 5794SOL     OW18280   3.907   2.445   1.058
 5794SOL    HW118281   3.902   2.345   1.049
 5794SOL    HW218282   3.876   2.471   1.149
 5795SOL     OW18283   6.384   5.850   6.471
 5795SOL    HW118284   6.414   5.857   6.567
 5795SOL    HW218285   6.331   5.766   6.459
 5796SOL     OW18286   3.798   0.885   7.016
 5796SOL    HW118287   3.768   0.868   6.922
 5796SOL    HW218288   3.855   0.967   7.018
 5797SOL     OW18289   4.515   1.740   5.587
 5797SOL    HW118290   4.554   1.805   5.653
 5797SOL    HW218291   4.431   1.700   5.625
 5798SOL     OW18292   0.837   4.787   4.976
 5798SOL    HW118293   0.897   4.719   4.934
 5798SOL    HW218294   0.752   4.744   5.004
 5799SOL     OW18295   5.522   1.208   3.649
 5799SOL    HW118296   5.455   1.211   3.575
 5799SOL    HW218297   5.485   1.155   3.725
 5800SOL     OW18298   6.015   6.027   1.013
 5800SOL    HW118299   6.066   6.009   0.929
 5800SOL    HW218300   6.073   6.075   1.078
 5801SOL     OW18301   1.636   2.195   4.257
 5801SOL    HW118302   1.584   2.143   4.324
 5801SOL    HW218303   1.620   2.293   4.271
 5802SOL     OW18304   1.119   4.556   1.003
 5802SOL    HW118305   1.193   4.589   0.945
 5802SOL    HW218306   1.032   4.593   0.970
 5803SOL     OW18307   1.201   4.518   1.997
 5803SOL    HW118308   1.181   4.542   1.903
 5803SOL    HW218309   1.300   4.515   2.011
 5804SOL     OW18310   0.278   5.361   4.078
 5804SOL    HW118311   0.334   5.290   4.036
 5804SOL    HW218312   0.262   5.339   4.174
 5805SOL     OW18313   2.445   3.432   6.011
 5805SOL    HW118314   2.528   3.447   5.957
 5805SOL    HW218315   2.373   3.395   5.952
 5806SOL     OW18316   7.002   6.072   5.913
 5806SOL    HW118317   6.921   6.016   5.932
 5806SOL    HW218318   0.039   6.068   5.992
 5807SOL     OW18319   0.685   3.607   1.634
 5807SOL    HW118320   0.713   3.607   1.730
 5807SOL    HW218321   0.766   3.595   1.576
 5808SOL     OW18322   6.082   4.529   4.185
 5808SOL    HW118323   6.148   4.480   4.242
 5808SOL    HW218324   6.061   4.617   4.226
 5809SOL     OW18325   6.856   2.111   4.566
 5809SOL    HW118326   6.919   2.179   4.528
 5809SOL    HW218327   6.857   2.029   4.510
 5810SOL     OW18328   3.936   1.463   3.959
 5810SOL    HW118329   3.850   1.451   3.910
 5810SOL    HW218330   3.991   1.379   3.954
 5811SOL     OW18331   3.153   0.357   6.008
 5811SOL    HW118332   3.216   0.331   6.081
 5811SOL    HW218333   3.202   0.409   5.938
 5812SOL     OW18334   6.156   1.471   4.084
 5812SOL    HW118335   6.243   1.508   4.051
 5812SOL    HW218336   6.162   1.450   4.181
 5813SOL     OW18337   1.672   1.738   0.822
 5813SOL    HW118338   1.642   1.798   0.748
 5813SOL    HW218339   1.603   1.735   0.893
 5814SOL     OW18340   6.227   4.866   1.480
 5814SOL    HW118341   6.266   4.924   1.552
 5814SOL    HW218342   6.297   4.804   1.445
 5815SOL     OW18343   4.436   2.388   4.055
 5815SOL    HW118344   4.337   2.384   4.071
 5815SOL    HW218345   4.481   2.323   4.116
 5816SOL     OW18346   4.627   6.019   0.126
 5816SOL    HW118347   4.575   6.073   0.060
 5816SOL    HW218348   4.688   6.078   0.178
 5817SOL     OW18349   5.560   3.660   6.032
 5817SOL    HW118350   5.531   3.594   6.103
 5817SOL    HW218351   5.620   3.614   5.967
 5818SOL     OW18352   6.632   5.756   4.646
 5818SOL    HW118353   6.711   5.696   4.637
 5818SOL    HW218354   6.581   5.757   4.560
 5819SOL     OW18355   4.193   6.648   6.422
 5819SOL    HW118356   4.106   6.636   6.374
 5819SOL    HW218357   4.207   6.572   6.485
 5820SOL     OW18358   4.069   5.946   4.166
 5820SOL    HW118359   4.057   5.902   4.077
 5820SOL    HW218360   4.167   5.953   4.187
 5821SOL     OW18361   0.101   6.960   2.387
 5821SOL    HW118362   0.112   6.884   2.450
 5821SOL    HW218363   0.012   7.004   2.402
 5822SOL     OW18364   0.544   2.302   2.229
 5822SOL    HW118365   0.484   2.222   2.236
 5822SOL    HW218366   0.603   2.292   2.149
 5823SOL     OW18367   0.920   1.385   5.885
 5823SOL    HW118368   0.918   1.301   5.940
 5823SOL    HW218369   0.926   1.361   5.788
 5824SOL     OW18370   6.522   4.878   2.340
 5824SOL    HW118371   6.568   4.797   2.378
 5824SOL    HW218372   6.449   4.849   2.279
 5825SOL     OW18373   2.617   2.397   5.248
 5825SOL    HW118374   2.613   2.493   5.274
 5825SOL    HW218375   2.524   2.361   5.240
 5826SOL     OW18376   6.699   5.341   5.209
 5826SOL    HW118377   6.769   5.271   5.219
 5826SOL    HW218378   6.741   5.431   5.221
 5827SOL     OW18379   2.284   4.867   4.857
 5827SOL    HW118380   2.364   4.922   4.882
 5827SOL    HW218381   2.294   4.834   4.763
 5828SOL     OW18382   6.625   2.661   1.466
 5828SOL    HW118383   6.703   2.720   1.445
 5828SOL    HW218384   6.652   2.591   1.532
 5829SOL     OW18385   2.430   1.606   3.183
 5829SOL    HW118386   2.414   1.532   3.117
 5829SOL    HW218387   2.459   1.688   3.133
 5830SOL     OW18388   4.648   0.269   5.241
 5830SOL    HW118389   4.618   0.208   5.167
 5830SOL    HW218390   4.747   0.284   5.233
 5831SOL     OW18391   0.153   0.712   4.253
 5831SOL    HW118392   0.134   0.632   4.196
 5831SOL    HW218393   0.201   0.781   4.199
 5832SOL     OW18394   4.080   4.364   6.037
 5832SOL    HW118395   4.118   4.450   6.071
 5832SOL    HW218396   4.012   4.383   5.967
 5833SOL     OW18397   4.133   3.359   5.089
 5833SOL    HW118398   4.188   3.427   5.137
 5833SOL    HW218399   4.130   3.275   5.143
 5834SOL     OW18400   6.514   3.126   0.336
 5834SOL    HW118401   6.521   3.044   0.280
 5834SOL    HW218402   6.471   3.104   0.423
 5835SOL     OW18403   4.927   3.539   3.682
 5835SOL    HW118404   5.024   3.522   3.701
 5835SOL    HW218405   4.892   3.611   3.742
 5836SOL     OW18406   2.607   6.725   2.553
 5836SOL    HW118407   2.509   6.736   2.541
 5836SOL    HW218408   2.642   6.660   2.485
 5837SOL     OW18409   4.281   4.993   5.695
 5837SOL    HW118410   4.329   4.968   5.779
 5837SOL    HW218411   4.324   5.073   5.654
 5838SOL     OW18412   2.841   1.649   5.885
 5838SOL    HW118413   2.784   1.576   5.923
 5838SOL    HW218414   2.849   1.724   5.951
 5839SOL     OW18415   0.329   1.947   2.810
 5839SOL    HW118416   0.308   1.930   2.714
 5839SOL    HW218417   0.428   1.942   2.825
 5840SOL     OW18418   1.334   5.308   6.504
 5840SOL    HW118419   1.308   5.254   6.423
 5840SOL    HW218420   1.349   5.247   6.581
 5841SOL     OW18421   5.189   1.485   2.516
 5841SOL    HW118422   5.198   1.585   2.517
 5841SOL    HW218423   5.092   1.461   2.506
 5842SOL     OW18424   5.002   3.157   1.203
 5842SOL    HW118425   5.068   3.228   1.227
 5842SOL    HW218426   4.930   3.153   1.272
 5843SOL     OW18427   2.149   3.998   2.503
 5843SOL    HW118428   2.060   4.032   2.474
 5843SOL    HW218429   2.221   4.054   2.463
 5844SOL     OW18430   0.961   6.993   5.772
 5844SOL    HW118431   0.920   6.919   5.825
 5844SOL    HW218432   1.011   6.954   5.695
 5845SOL     OW18433   0.838   0.263   2.919
 5845SOL    HW118434   0.751   0.264   2.871
 5845SOL    HW218435   0.912   0.278   2.854
 5846SOL     OW18436   6.606   2.808   3.409
 5846SOL    HW118437   6.669   2.788   3.335
 5846SOL    HW218438   6.597   2.908   3.419
 5847SOL     OW18439   1.852   2.202   1.696
 5847SOL    HW118440   1.806   2.143   1.761
 5847SOL    HW218441   1.947   2.216   1.723
 5848SOL     OW18442   2.593   4.972   3.065
 5848SOL    HW118443   2.552   4.985   2.975
 5848SOL    HW218444   2.672   5.033   3.075
 5849SOL     OW18445   0.146   6.751   6.884
 5849SOL    HW118446   0.068   6.689   6.879
 5849SOL    HW218447   0.114   6.841   6.914
 5850SOL     OW18448   0.438   3.833   2.576
 5850SOL    HW118449   0.512   3.809   2.513
 5850SOL    HW218450   0.353   3.791   2.544
 5851SOL     OW18451   5.315   3.418   2.851
 5851SOL    HW118452   5.279   3.340   2.901
 5851SOL    HW218453   5.244   3.488   2.842
 5852SOL     OW18454   5.218   6.485   2.977
 5852SOL    HW118455   5.184   6.495   2.883
 5852SOL    HW218456   5.252   6.391   2.989
 5853SOL     OW18457   3.290   5.491   4.230
 5853SOL    HW118458   3.344   5.499   4.314
 5853SOL    HW218459   3.328   5.418   4.173
 5854SOL     OW18460   5.610   4.547   5.383
 5854SOL    HW118461   5.661   4.567   5.299
 5854SOL    HW218462   5.572   4.455   5.378
 5855SOL     OW18463   0.263   0.537   5.524
 5855SOL    HW118464   0.313   0.492   5.598
 5855SOL    HW218465   0.327   0.586   5.465
 5856SOL     OW18466   1.761   6.133   4.080
 5856SOL    HW118467   1.817   6.211   4.106
 5856SOL    HW218468   1.783   6.055   4.138
 5857SOL     OW18469   6.094   2.874   5.794
 5857SOL    HW118470   6.093   2.789   5.741
 5857SOL    HW218471   6.181   2.921   5.779
 5858SOL     OW18472   2.640   2.378   2.152
 5858SOL    HW118473   2.647   2.428   2.238
 5858SOL    HW218474   2.730   2.346   2.124
 5859SOL     OW18475   5.462   6.509   1.582
 5859SOL    HW118476   5.526   6.574   1.622
 5859SOL    HW218477   5.471   6.510   1.483
 5860SOL     OW18478   1.644   3.601   1.969
 5860SOL    HW118479   1.573   3.599   1.899
 5860SOL    HW218480   1.686   3.510   1.977
 5861SOL     OW18481   4.691   1.754   4.936
 5861SOL    HW118482   4.680   1.813   5.016
 5861SOL    HW218483   4.601   1.722   4.906
 5862SOL     OW18484   4.831   5.143   3.230
 5862SOL    HW118485   4.762   5.109   3.293
 5862SOL    HW218486   4.919   5.148   3.276
 5863SOL     OW18487   2.940   0.824   4.551
 5863SOL    HW118488   2.917   0.921   4.546
 5863SOL    HW218489   3.009   0.802   4.481
 5864SOL     OW18490   4.193   3.557   1.885
 5864SOL    HW118491   4.239   3.497   1.820
 5864SOL    HW218492   4.136   3.501   1.946
 5865SOL     OW18493   6.148   0.171   5.384
 5865SOL    HW118494   6.218   0.241   5.399
 5865SOL    HW218495   6.190   0.080   5.392
 5866SOL     OW18496   4.548   5.571   0.304
 5866SOL    HW118497   4.473   5.637   0.294
 5866SOL    HW218498   4.593   5.556   0.216
 5867SOL     OW18499   0.086   4.006   0.896
 5867SOL    HW118500   0.010   3.949   0.927
 5867SOL    HW218501   0.147   4.026   0.973
 5868SOL     OW18502   0.155   0.922   5.608
 5868SOL    HW118503   0.086   0.864   5.566
 5868SOL    HW218504   0.219   0.954   5.538
 5869SOL     OW18505   3.126   5.801   3.187
 5869SOL    HW118506   3.118   5.706   3.154
 5869SOL    HW218507   3.040   5.827   3.231
 5870SOL     OW18508   5.197   5.916   4.557
 5870SOL    HW118509   5.215   5.873   4.645
 5870SOL    HW218510   5.272   5.896   4.494
 5871SOL     OW18511   3.667   3.132   0.117
 5871SOL    HW118512   3.623   3.067   0.179
 5871SOL    HW218513   3.756   3.158   0.155
 5872SOL     OW18514   3.818   5.650   0.376
 5872SOL    HW118515   3.769   5.597   0.445
 5872SOL    HW218516   3.907   5.678   0.412
 5873SOL     OW18517   2.186   2.732   1.088
 5873SOL    HW118518   2.086   2.741   1.089
 5873SOL    HW218519   2.219   2.726   1.183
 5874SOL     OW18520   2.894   3.243   0.944
 5874SOL    HW118521   2.989   3.211   0.939
 5874SOL    HW218522   2.833   3.171   0.913
 5875SOL     OW18523   3.551   0.854   1.074
 5875SOL    HW118524   3.479   0.918   1.100
 5875SOL    HW218525   3.606   0.893   1.001
 5876SOL     OW18526   2.594   3.268   0.001
 5876SOL    HW118527   2.524   3.217   6.976
 5876SOL    HW218528   2.600   3.235   0.095
 5877SOL     OW18529   0.547   6.496   0.996
 5877SOL    HW118530   0.559   6.514   0.899
 5877SOL    HW218531   0.459   6.450   1.010
 5878SOL     OW18532   5.209   5.192   3.106
 5878SOL    HW118533   5.228   5.234   3.195
 5878SOL    HW218534   5.118   5.220   3.075
 5879SOL     OW18535   2.739   3.915   6.393
 5879SOL    HW118536   2.660   3.973   6.377
 5879SOL    HW218537   2.822   3.971   6.395
 5880SOL     OW18538   4.763   4.296   6.789
 5880SOL    HW118539   4.672   4.337   6.784
 5880SOL    HW218540   4.833   4.367   6.789
 5881SOL     OW18541   1.358   6.959   2.267
 5881SOL    HW118542   1.443   6.982   2.220
 5881SOL    HW218543   1.358   6.861   2.290
 5882SOL     OW18544   1.537   6.630   6.157
 5882SOL    HW118545   1.608   6.622   6.088
 5882SOL    HW218546   1.569   6.688   6.232
 5883SOL     OW18547   0.632   1.262   0.812
 5883SOL    HW118548   0.670   1.321   0.740
 5883SOL    HW218549   0.655   1.166   0.792
 5884SOL     OW18550   5.610   1.063   4.817
 5884SOL    HW118551   5.574   0.977   4.853
 5884SOL    HW218552   5.546   1.137   4.836
 5885SOL     OW18553   0.927   5.828   1.253
 5885SOL    HW118554   0.969   5.882   1.326
 5885SOL    HW218555   0.952   5.868   1.164
 5886SOL     OW18556   0.828   3.131   3.551
 5886SOL    HW118557   0.753   3.123   3.486
 5886SOL    HW218558   0.845   3.228   3.570
 5887SOL     OW18559   2.671   2.093   1.992
 5887SOL    HW118560   2.694   2.055   1.902
 5887SOL    HW218561   2.646   2.189   1.982
 5888SOL     OW18562   2.481   6.742   1.475
 5888SOL    HW118563   2.408   6.804   1.446
 5888SOL    HW218564   2.508   6.684   1.398
 5889SOL     OW18565   6.766   1.241   0.548
 5889SOL    HW118566   6.806   1.150   0.539
 5889SOL    HW218567   6.838   1.309   0.552
 5890SOL     OW18568   1.468   6.737   2.814
 5890SOL    HW118569   1.405   6.747   2.737
 5890SOL    HW218570   1.480   6.826   2.859
 5891SOL     OW18571   1.953   4.150   0.131
 5891SOL    HW118572   2.010   4.106   0.061
 5891SOL    HW218573   1.864   4.106   0.133
 5892SOL     OW18574   0.227   5.342   1.735
 5892SOL    HW118575   0.266   5.435   1.736
 5892SOL    HW218576   0.133   5.346   1.768
 5893SOL     OW18577   2.185   4.774   1.960
 5893SOL    HW118578   2.100   4.797   1.913
 5893SOL    HW218579   2.259   4.832   1.926
 5894SOL     OW18580   0.581   5.447   5.534
 5894SOL    HW118581   0.611   5.510   5.462
 5894SOL    HW218582   0.491   5.473   5.566
 5895SOL     OW18583   6.046   4.032   3.445
 5895SOL    HW118584   6.119   4.081   3.398
 5895SOL    HW218585   5.970   4.095   3.464
 5896SOL     OW18586   5.324   1.247   1.268
 5896SOL    HW118587   5.306   1.274   1.362
 5896SOL    HW218588   5.362   1.155   1.266
 5897SOL     OW18589   3.519   1.077   1.714
 5897SOL    HW118590   3.590   1.017   1.750
 5897SOL    HW218591   3.497   1.049   1.620
 5898SOL     OW18592   2.618   1.605   5.657
 5898SOL    HW118593   2.548   1.609   5.729
 5898SOL    HW218594   2.685   1.677   5.672
 5899SOL     OW18595   0.147   5.519   6.442
 5899SOL    HW118596   0.216   5.567   6.389
 5899SOL    HW218597   0.062   5.571   6.441
 5900SOL     OW18598   6.946   5.437   2.606
 5900SOL    HW118599   6.994   5.511   2.560
 5900SOL    HW218600   6.849   5.440   2.581
 5901SOL     OW18601   2.645   1.069   0.212
 5901SOL    HW118602   2.546   1.081   0.207
 5901SOL    HW218603   2.688   1.159   0.222
 5902SOL     OW18604   5.745   3.207   5.138
 5902SOL    HW118605   5.681   3.154   5.193
 5902SOL    HW218606   5.722   3.197   5.041
 5903SOL     OW18607   4.875   2.998   6.908
 5903SOL    HW118608   4.857   2.909   6.865
 5903SOL    HW218609   4.955   2.990   6.967
 5904SOL     OW18610   1.261   4.149   0.958
 5904SOL    HW118611   1.235   4.221   0.893
 5904SOL    HW218612   1.194   4.145   1.032
 5905SOL     OW18613   5.874   0.973   3.743
 5905SOL    HW118614   5.899   1.026   3.824
 5905SOL    HW218615   5.938   0.898   3.731
 5906SOL     OW18616   4.924   1.706   5.638
 5906SOL    HW118617   4.898   1.664   5.551
 5906SOL    HW218618   4.985   1.644   5.687
 5907SOL     OW18619   1.332   0.444   0.152
 5907SOL    HW118620   1.398   0.372   0.129
 5907SOL    HW218621   1.361   0.488   0.237
 5908SOL     OW18622   5.563   4.230   6.959
 5908SOL    HW118623   5.651   4.203   6.998
 5908SOL    HW218624   5.543   4.175   6.879
 5909SOL     OW18625   0.362   5.367   6.415
 5909SOL    HW118626   0.273   5.412   6.423
 5909SOL    HW218627   0.407   5.365   6.504
 5910SOL     OW18628   0.882   4.944   0.235
 5910SOL    HW118629   0.917   4.921   0.144
 5910SOL    HW218630   0.946   5.007   0.280
 5911SOL     OW18631   0.446   5.395   5.876
 5911SOL    HW118632   0.370   5.407   5.940
 5911SOL    HW218633   0.533   5.397   5.926
 5912SOL     OW18634   5.926   3.410   6.531
 5912SOL    HW118635   5.847   3.380   6.585
 5912SOL    HW218636   6.005   3.353   6.553
 5913SOL     OW18637   2.135   2.918   5.637
 5913SOL    HW118638   2.040   2.888   5.647
 5913SOL    HW218639   2.187   2.850   5.586
 5914SOL     OW18640   2.981   5.344   6.489
 5914SOL    HW118641   2.946   5.382   6.403
 5914SOL    HW218642   2.939   5.393   6.566
 5915SOL     OW18643   5.954   3.426   1.858
 5915SOL    HW118644   5.994   3.488   1.925
 5915SOL    HW218645   5.924   3.478   1.778
 5916SOL     OW18646   4.391   0.415   5.589
 5916SOL    HW118647   4.489   0.427   5.605
 5916SOL    HW218648   4.342   0.428   5.675
 5917SOL     OW18649   4.040   3.842   3.680
 5917SOL    HW118650   4.014   3.762   3.626
 5917SOL    HW218651   4.136   3.834   3.707
 5918SOL     OW18652   2.151   4.080   4.744
 5918SOL    HW118653   2.086   4.006   4.728
 5918SOL    HW218654   2.220   4.050   4.810
 5919SOL     OW18655   3.165   2.330   6.903
 5919SOL    HW118656   3.164   2.230   6.904
 5919SOL    HW218657   3.259   2.362   6.906
 5920SOL     OW18658   3.694   6.665   7.006
 5920SOL    HW118659   3.672   6.760   0.003
 5920SOL    HW218660   3.610   6.612   6.999
 5921SOL     OW18661   3.536   5.199   5.692
 5921SOL    HW118662   3.633   5.179   5.702
 5921SOL    HW218663   3.522   5.269   5.623
 5922SOL     OW18664   6.040   5.211   3.796
 5922SOL    HW118665   6.014   5.225   3.891
 5922SOL    HW218666   6.081   5.294   3.759
 5923SOL     OW18667   6.192   1.186   2.855
 5923SOL    HW118668   6.188   1.087   2.874
 5923SOL    HW218669   6.167   1.236   2.938
 5924SOL     OW18670   5.854   2.793   4.865
 5924SOL    HW118671   5.934   2.737   4.845
 5924SOL    HW218672   5.844   2.801   4.964
 5925SOL     OW18673   4.419   6.383   2.895
 5925SOL    HW118674   4.489   6.450   2.868
 5925SOL    HW218675   4.353   6.372   2.821
 5926SOL     OW18676   3.649   5.197   2.103
 5926SOL    HW118677   3.658   5.098   2.111
 5926SOL    HW218678   3.554   5.224   2.114
 5927SOL     OW18679   2.319   4.213   2.383
 5927SOL    HW118680   2.386   4.244   2.452
 5927SOL    HW218681   2.327   4.270   2.301
 5928SOL     OW18682   3.391   7.023   2.019
 5928SOL    HW118683   3.475   6.974   2.039
 5928SOL    HW218684   3.327   6.962   1.971
 5929SOL     OW18685   0.668   6.653   5.612
 5929SOL    HW118686   0.749   6.625   5.664
 5929SOL    HW218687   0.664   6.602   5.526
 5930SOL     OW18688   6.382   1.773   4.078
 5930SOL    HW118689   6.429   1.687   4.057
 5930SOL    HW218690   6.330   1.803   3.998
 5931SOL     OW18691   5.923   4.806   2.720
 5931SOL    HW118692   5.947   4.758   2.805
 5931SOL    HW218693   6.006   4.822   2.666
 5932SOL     OW18694   2.669   6.165   0.587
 5932SOL    HW118695   2.634   6.074   0.609
 5932SOL    HW218696   2.709   6.164   0.496
 5933SOL     OW18697   6.971   4.617   2.920
 5933SOL    HW118698   0.012   4.610   2.845
 5933SOL    HW218699   6.904   4.688   2.899
 5934SOL     OW18700   3.440   4.109   3.779
 5934SOL    HW118701   3.424   4.034   3.715
 5934SOL    HW218702   3.456   4.193   3.728
 5935SOL     OW18703   4.071   3.671   4.364
 5935SOL    HW118704   3.980   3.704   4.390
 5935SOL    HW218705   4.111   3.620   4.440
 5936SOL     OW18706   4.751   3.481   6.339
 5936SOL    HW118707   4.673   3.542   6.352
 5936SOL    HW218708   4.830   3.533   6.307
 5937SOL     OW18709   0.613   4.306   1.781
 5937SOL    HW118710   0.610   4.279   1.685
 5937SOL    HW218711   0.521   4.329   1.812
 5938SOL     OW18712   1.219   5.293   3.971
 5938SOL    HW118713   1.243   5.386   3.998
 5938SOL    HW218714   1.190   5.241   4.052
 5939SOL     OW18715   3.262   0.451   3.225
 5939SOL    HW118716   3.265   0.509   3.307
 5939SOL    HW218717   3.349   0.403   3.215
 5940SOL     OW18718   4.337   6.526   2.319
 5940SOL    HW118719   4.359   6.429   2.308
 5940SOL    HW218720   4.242   6.542   2.293
 5941SOL     OW18721   6.336   4.034   2.015
 5941SOL    HW118722   6.268   3.968   2.047
 5941SOL    HW218723   6.393   3.990   1.945
 5942SOL     OW18724   4.904   2.466   0.114
 5942SOL    HW118725   4.890   2.537   0.184
 5942SOL    HW218726   4.841   2.480   0.039
 5943SOL     OW18727   3.600   5.197   0.085
 5943SOL    HW118728   3.504   5.196   0.111
 5943SOL    HW218729   3.650   5.262   0.144
 5944SOL     OW18730   5.277   1.815   1.935
 5944SOL    HW118731   5.229   1.738   1.892
 5944SOL    HW218732   5.274   1.803   2.034
 5945SOL     OW18733   0.333   5.346   5.370
 5945SOL    HW118734   0.322   5.393   5.457
 5945SOL    HW218735   0.340   5.248   5.385
 5946SOL     OW18736   3.408   3.316   5.577
 5946SOL    HW118737   3.366   3.233   5.540
 5946SOL    HW218738   3.506   3.317   5.555
 5947SOL     OW18739   3.773   3.493   1.877
 5947SOL    HW118740   3.706   3.561   1.906
 5947SOL    HW218741   3.838   3.476   1.952
 5948SOL     OW18742   4.198   5.463   3.479
 5948SOL    HW118743   4.266   5.409   3.529
 5948SOL    HW218744   4.116   5.474   3.536
 5949SOL     OW18745   4.028   4.147   1.112
 5949SOL    HW118746   3.999   4.237   1.077
 5949SOL    HW218747   4.044   4.154   1.210
 5950SOL     OW18748   5.344   2.957   5.513
 5950SOL    HW118749   5.329   3.055   5.526
 5950SOL    HW218750   5.283   2.906   5.574
 5951SOL     OW18751   0.796   5.959   5.098
 5951SOL    HW118752   0.791   5.917   5.007
 5951SOL    HW218753   0.828   5.891   5.164
 5952SOL     OW18754   5.923   6.052   4.022
 5952SOL    HW118755   5.937   6.150   4.012
 5952SOL    HW218756   5.977   6.003   3.954
 5953SOL     OW18757   6.775   2.965   5.718
 5953SOL    HW118758   6.763   3.060   5.749
 5953SOL    HW218759   6.846   2.962   5.647
 5954SOL     OW18760   6.820   4.878   5.467
 5954SOL    HW118761   6.770   4.953   5.510
 5954SOL    HW218762   6.913   4.874   5.504
 5955SOL     OW18763   5.870   6.247   2.415
 5955SOL    HW118764   5.776   6.213   2.405
 5955SOL    HW218765   5.931   6.191   2.358
 5956SOL     OW18766   3.268   1.936   0.782
 5956SOL    HW118767   3.242   1.891   0.696
 5956SOL    HW218768   3.229   1.886   0.859
 5957SOL     OW18769   4.830   0.406   5.881
 5957SOL    HW118770   4.796   0.433   5.790
 5957SOL    HW218771   4.797   0.314   5.903
 5958SOL     OW18772   5.809   6.696   2.680
 5958SOL    HW118773   5.814   6.703   2.580
 5958SOL    HW218774   5.889   6.741   2.720
 5959SOL     OW18775   3.469   1.562   5.668
 5959SOL    HW118776   3.564   1.582   5.641
 5959SOL    HW218777   3.407   1.617   5.612
 5960SOL     OW18778   3.548   6.706   4.855
 5960SOL    HW118779   3.509   6.645   4.786
 5960SOL    HW218780   3.500   6.794   4.853
 5961SOL     OW18781   4.536   1.046   3.959
 5961SOL    HW118782   4.591   1.053   4.042
 5961SOL    HW218783   4.583   1.093   3.884
 5962SOL     OW18784   5.085   5.952   2.063
 5962SOL    HW118785   5.149   5.880   2.036
 5962SOL    HW218786   5.036   5.924   2.146
 5963SOL     OW18787   3.473   2.956   4.938
 5963SOL    HW118788   3.385   2.989   4.903
 5963SOL    HW218789   3.524   2.912   4.864
 5964SOL     OW18790   0.512   4.960   5.919
 5964SOL    HW118791   0.413   4.970   5.928
 5964SOL    HW218792   0.543   5.007   5.836
 5965SOL     OW18793   1.607   1.925   5.744
 5965SOL    HW118794   1.531   1.990   5.748
 5965SOL    HW218795   1.684   1.962   5.795
 5966SOL     OW18796   3.037   5.309   5.852
 5966SOL    HW118797   3.104   5.377   5.823
 5966SOL    HW218798   3.060   5.220   5.813
 5967SOL     OW18799   4.396   6.064   1.772
 5967SOL    HW118800   4.373   5.969   1.794
 5967SOL    HW218801   4.428   6.110   1.855
 5968SOL     OW18802   5.699   1.325   3.317
 5968SOL    HW118803   5.742   1.256   3.376
 5968SOL    HW218804   5.750   1.332   3.232
 5969SOL     OW18805   6.775   1.731   5.261
 5969SOL    HW118806   6.747   1.636   5.271
 5969SOL    HW218807   6.700   1.792   5.285
 5970SOL     OW18808   0.457   4.724   2.358
 5970SOL    HW118809   0.410   4.759   2.277
 5970SOL    HW218810   0.549   4.694   2.333
 5971SOL     OW18811   2.048   0.718   3.151
 5971SOL    HW118812   2.131   0.692   3.103
 5971SOL    HW218813   2.024   0.647   3.217
 5972SOL     OW18814   4.330   6.398   0.339
 5972SOL    HW118815   4.410   6.339   0.326
 5972SOL    HW218816   4.280   6.368   0.420
 5973SOL     OW18817   1.750   5.136   2.894
 5973SOL    HW118818   1.757   5.036   2.902
 5973SOL    HW218819   1.726   5.175   2.982
 5974SOL     OW18820   5.578   4.250   6.294
 5974SOL    HW118821   5.556   4.308   6.372
 5974SOL    HW218822   5.607   4.307   6.217
 5975SOL     OW18823   3.522   2.336   0.876
 5975SOL    HW118824   3.580   2.395   0.933
 5975SOL    HW218825   3.502   2.382   0.790
 5976SOL     OW18826   2.822   3.539   5.212
 5976SOL    HW118827   2.789   3.509   5.302
 5976SOL    HW218828   2.792   3.633   5.195
 5977SOL     OW18829   1.778   4.827   1.392
 5977SOL    HW118830   1.751   4.731   1.404
 5977SOL    HW218831   1.699   4.881   1.366
 5978SOL     OW18832   5.476   4.887   3.294
 5978SOL    HW118833   5.390   4.904   3.245
 5978SOL    HW218834   5.490   4.958   3.363
 5979SOL     OW18835   6.356   0.881   2.692
 5979SOL    HW118836   6.303   0.898   2.609
 5979SOL    HW218837   6.295   0.877   2.771
 5980SOL     OW18838   4.003   3.650   6.402
 5980SOL    HW118839   4.056   3.566   6.396
 5980SOL    HW218840   4.032   3.713   6.330
 5981SOL     OW18841   6.257   1.484   2.384
 5981SOL    HW118842   6.180   1.475   2.448
 5981SOL    HW218843   6.234   1.439   2.298
 5982SOL     OW18844   6.223   2.343   6.942
 5982SOL    HW118845   6.146   2.285   6.917
 5982SOL    HW218846   6.261   2.386   6.860
 5983SOL     OW18847   2.640   1.299   4.473
 5983SOL    HW118848   2.626   1.398   4.476
 5983SOL    HW218849   2.640   1.269   4.377
 5984SOL     OW18850   6.809   0.061   5.114
 5984SOL    HW118851   6.883   7.019   5.124
 5984SOL    HW218852   6.802   0.089   5.019
 5985SOL     OW18853   5.650   3.180   4.600
 5985SOL    HW118854   5.655   3.149   4.505
 5985SOL    HW218855   5.558   3.162   4.636
 5986SOL     OW18856   2.886   3.492   4.270
 5986SOL    HW118857   2.918   3.503   4.176
 5986SOL    HW218858   2.809   3.554   4.286
 5987SOL     OW18859   4.424   1.646   4.917
 5987SOL    HW118860   4.355   1.682   4.979
 5987SOL    HW218861   4.456   1.557   4.950
 5988SOL     OW18862   4.617   5.785   4.853
 5988SOL    HW118863   4.671   5.865   4.879
 5988SOL    HW218864   4.602   5.786   4.754
 5989SOL     OW18865   2.982   5.977   6.462
 5989SOL    HW118866   2.886   5.950   6.465
 5989SOL    HW218867   2.989   6.076   6.475
 5990SOL     OW18868   4.209   4.302   0.635
 5990SOL    HW118869   4.252   4.218   0.603
 5990SOL    HW218870   4.123   4.317   0.586
 5991SOL     OW18871   4.232   4.771   5.194
 5991SOL    HW118872   4.270   4.822   5.118
 5991SOL    HW218873   4.138   4.800   5.210
 5992SOL     OW18874   3.740   0.792   3.999
 5992SOL    HW118875   3.764   0.730   3.924
 5992SOL    HW218876   3.812   0.790   4.068
 5993SOL     OW18877   3.859   6.759   5.816
 5993SOL    HW118878   3.892   6.675   5.773
 5993SOL    HW218879   3.773   6.741   5.864
 5994SOL     OW18880   6.261   2.087   2.559
 5994SOL    HW118881   6.288   2.103   2.464
 5994SOL    HW218882   6.195   2.157   2.587
 5995SOL     OW18883   6.370   4.539   2.061
 5995SOL    HW118884   6.329   4.566   1.974
 5995SOL    HW218885   6.316   4.466   2.102
 5996SOL     OW18886   0.902   5.283   0.272
 5996SOL    HW118887   0.936   5.214   0.336
 5996SOL    HW218888   0.869   5.362   0.324
 5997SOL     OW18889   1.015   6.403   2.668
 5997SOL    HW118890   1.096   6.433   2.718
 5997SOL    HW218891   0.937   6.396   2.731
 5998SOL     OW18892   5.522   3.213   1.842
 5998SOL    HW118893   5.478   3.126   1.820
 5998SOL    HW218894   5.616   3.213   1.807
 5999SOL     OW18895   0.971   2.074   2.359
 5999SOL    HW118896   1.005   1.983   2.335
 5999SOL    HW218897   1.037   2.120   2.418
 6000SOL     OW18898   4.079   6.126   1.630
 6000SOL    HW118899   4.174   6.140   1.603
 6000SOL    HW218900   4.074   6.065   1.709
 6001SOL     OW18901   0.660   4.073   5.977
 6001SOL    HW118902   0.690   4.160   5.938
 6001SOL    HW218903   0.725   4.042   6.046
 6002SOL     OW18904   0.459   6.603   1.551
 6002SOL    HW118905   0.503   6.645   1.471
 6002SOL    HW218906   0.361   6.594   1.534
 6003SOL     OW18907   6.329   2.321   4.579
 6003SOL    HW118908   6.381   2.262   4.518
 6003SOL    HW218909   6.387   2.396   4.612
 6004SOL     OW18910   0.370   4.642   3.017
 6004SOL    HW118911   0.447   4.668   3.075
 6004SOL    HW218912   0.358   4.710   2.945
 6005SOL     OW18913   3.984   5.160   4.555
 6005SOL    HW118914   4.034   5.236   4.596
 6005SOL    HW218915   3.930   5.194   4.477
 6006SOL     OW18916   4.118   6.733   7.002
 6006SOL    HW118917   4.086   6.685   0.059
 6006SOL    HW218918   4.130   6.668   6.927
 6007SOL     OW18919   4.903   3.170   4.002
 6007SOL    HW118920   4.873   3.079   4.031
 6007SOL    HW218921   4.952   3.214   4.076
 6008SOL     OW18922   2.467   5.455   6.414
 6008SOL    HW118923   2.553   5.497   6.444
 6008SOL    HW218924   2.390   5.509   6.447
 6009SOL     OW18925   3.118   1.260   4.743
 6009SOL    HW118926   3.055   1.318   4.795
 6009SOL    HW218927   3.181   1.317   4.692
 6010SOL     OW18928   1.966   4.093   1.874
 6010SOL    HW118929   1.926   4.075   1.784
 6010SOL    HW218930   2.060   4.059   1.876
 6011SOL     OW18931   4.872   2.532   2.146
 6011SOL    HW118932   4.783   2.489   2.135
 6011SOL    HW218933   4.869   2.596   2.223
 6012SOL     OW18934   6.521   1.716   0.474
 6012SOL    HW118935   6.439   1.703   0.530
 6012SOL    HW218936   6.598   1.742   0.532
 6013SOL     OW18937   5.147   1.867   3.075
 6013SOL    HW118938   5.197   1.855   2.989
 6013SOL    HW218939   5.076   1.797   3.082
 6014SOL     OW18940   4.606   1.754   1.001
 6014SOL    HW118941   4.599   1.853   0.989
 6014SOL    HW218942   4.701   1.725   0.986
 6015SOL     OW18943   5.534   2.087   5.893
 6015SOL    HW118944   5.622   2.077   5.939
 6015SOL    HW218945   5.548   2.085   5.794
 6016SOL     OW18946   0.409   1.405   0.086
 6016SOL    HW118947   0.320   1.439   0.115
 6016SOL    HW218948   0.398   1.342   0.009
 6017SOL     OW18949   6.558   5.124   2.408
 6017SOL    HW118950   6.473   5.177   2.408
 6017SOL    HW218951   6.547   5.044   2.349
 6018SOL     OW18952   3.482   2.471   0.049
 6018SOL    HW118953   3.515   2.399   7.012
 6018SOL    HW218954   3.438   2.428   0.128
 6019SOL     OW18955   4.859   1.551   4.172
 6019SOL    HW118956   4.908   1.633   4.144
 6019SOL    HW218957   4.895   1.519   4.260
 6020SOL     OW18958   1.582   6.015   2.506
 6020SOL    HW118959   1.629   6.016   2.594
 6020SOL    HW218960   1.483   6.025   2.521
 6021SOL     OW18961   3.990   6.697   2.524
 6021SOL    HW118962   3.978   6.787   2.566
 6021SOL    HW218963   3.981   6.626   2.594
 6022SOL     OW18964   4.239   0.727   4.460
 6022SOL    HW118965   4.243   0.633   4.426
 6022SOL    HW218966   4.161   0.736   4.522
 6023SOL     OW18967   6.037   1.588   3.263
 6023SOL    HW118968   5.955   1.635   3.229
 6023SOL    HW218969   6.057   1.509   3.204
 6024SOL     OW18970   0.779   4.385   2.759
 6024SOL    HW118971   0.743   4.292   2.766
 6024SOL    HW218972   0.879   4.381   2.759
 6025SOL     OW18973   3.883   7.023   2.322
 6025SOL    HW118974   3.901   7.003   2.418
 6025SOL    HW218975   3.929   0.083   2.295
 6026SOL     OW18976   0.241   4.407   4.264
 6026SOL    HW118977   0.315   4.438   4.204
 6026SOL    HW218978   0.254   4.310   4.285
 6027SOL     OW18979   2.154   4.035   5.564
 6027SOL    HW118980   2.142   4.033   5.464
 6027SOL    HW218981   2.127   3.947   5.602
 6028SOL     OW18982   0.991   3.638   0.307
 6028SOL    HW118983   0.973   3.582   0.226
 6028SOL    HW218984   0.953   3.593   0.388
 6029SOL     OW18985   2.183   6.517   6.460
 6029SOL    HW118986   2.150   6.444   6.519
 6029SOL    HW218987   2.283   6.512   6.453
 6030SOL     OW18988   2.149   0.341   2.912
 6030SOL    HW118989   2.050   0.329   2.925
 6030SOL    HW218990   2.171   0.331   2.815
 6031SOL     OW18991   3.794   5.225   4.273
 6031SOL    HW118992   3.843   5.189   4.193
 6031SOL    HW218993   3.758   5.148   4.326
 6032SOL     OW18994   1.825   3.452   2.752
 6032SOL    HW118995   1.739   3.453   2.803
 6032SOL    HW218996   1.813   3.401   2.667
 6033SOL     OW18997   2.248   2.488   2.889
 6033SOL    HW118998   2.196   2.546   2.952
 6033SOL    HW218999   2.210   2.496   2.797
 6034SOL     OW19000   1.668   5.831   4.920
 6034SOL    HW119001   1.733   5.905   4.935
 6034SOL    HW219002   1.622   5.809   5.006
 6035SOL     OW19003   6.068   1.824   3.573
 6035SOL    HW119004   6.096   1.899   3.632
 6035SOL    HW219005   5.994   1.854   3.512
 6036SOL     OW19006   0.363   6.797   4.390
 6036SOL    HW119007   0.351   6.892   4.420
 6036SOL    HW219008   0.461   6.779   4.378
 6037SOL     OW19009   4.509   5.373   6.147
 6037SOL    HW119010   4.438   5.440   6.168
 6037SOL    HW219011   4.467   5.293   6.103
 6038SOL     OW19012   0.976   3.322   6.254
 6038SOL    HW119013   0.903   3.255   6.242
 6038SOL    HW219014   0.955   3.404   6.201
 6039SOL     OW19015   3.403   2.913   3.444
 6039SOL    HW119016   3.340   2.970   3.392
 6039SOL    HW219017   3.454   2.854   3.381
 6040SOL     OW19018   0.250   2.115   6.444
 6040SOL    HW119019   0.271   2.156   6.532
 6040SOL    HW219020   0.268   2.016   6.447
 6041SOL     OW19021   1.850   1.534   6.019
 6041SOL    HW119022   1.922   1.506   6.083
 6041SOL    HW219023   1.808   1.618   6.052
 6042SOL     OW19024   5.538   5.236   1.893
 6042SOL    HW119025   5.479   5.254   1.972
 6042SOL    HW219026   5.627   5.202   1.925
 6043SOL     OW19027   1.103   5.217   4.853
 6043SOL    HW119028   1.027   5.155   4.867
 6043SOL    HW219029   1.076   5.290   4.791
 6044SOL     OW19030   1.466   2.285   1.137
 6044SOL    HW119031   1.403   2.269   1.061
 6044SOL    HW219032   1.530   2.209   1.144
 6045SOL     OW19033   6.056   5.774   0.900
 6045SOL    HW119034   6.032   5.837   0.974
 6045SOL    HW219035   6.055   5.680   0.934
 6046SOL     OW19036   2.316   2.356   0.599
 6046SOL    HW119037   2.398   2.378   0.652
 6046SOL    HW219038   2.318   2.406   0.513
 6047SOL     OW19039   6.520   1.789   3.096
 6047SOL    HW119040   6.458   1.794   3.174
 6047SOL    HW219041   6.613   1.808   3.125
 6048SOL     OW19042   4.850   6.426   3.166
 6048SOL    HW119043   4.892   6.507   3.126
 6048SOL    HW219044   4.753   6.424   3.144
 6049SOL     OW19045   5.138   3.951   6.201
 6049SOL    HW119046   5.228   3.992   6.215
 6049SOL    HW219047   5.148   3.862   6.158
 6050SOL     OW19048   4.010   3.806   5.818
 6050SOL    HW119049   3.943   3.877   5.797
 6050SOL    HW219050   4.065   3.834   5.896
 6051SOL     OW19051   2.962   2.163   3.759
 6051SOL    HW119052   2.884   2.155   3.696
 6051SOL    HW219053   3.043   2.124   3.716
 6052SOL     OW19054   6.561   6.681   6.917
 6052SOL    HW119055   6.589   6.698   7.011
 6052SOL    HW219056   6.464   6.657   6.915
 6053SOL     OW19057   3.857   0.716   6.569
 6053SOL    HW119058   3.885   0.696   6.663
 6053SOL    HW219059   3.867   0.814   6.551
 6054SOL     OW19060   2.251   4.147   0.543
 6054SOL    HW119061   2.251   4.055   0.505
 6054SOL    HW219062   2.268   4.213   0.470
 6055SOL     OW19063   6.162   1.070   6.401
 6055SOL    HW119064   6.208   1.131   6.338
 6055SOL    HW219065   6.106   1.005   6.350
 6056SOL     OW19066   5.534   2.697   4.814
 6056SOL    HW119067   5.572   2.783   4.779
 6056SOL    HW219068   5.598   2.656   4.879
 6057SOL     OW19069   5.154   2.576   4.502
 6057SOL    HW119070   5.080   2.635   4.470
 6057SOL    HW219071   5.234   2.632   4.525
 6058SOL     OW19072   5.210   2.251   2.755
 6058SOL    HW119073   5.173   2.302   2.833
 6058SOL    HW219074   5.307   2.274   2.744
 6059SOL     OW19075   4.437   5.195   5.586
 6059SOL    HW119076   4.512   5.157   5.532
 6059SOL    HW219077   4.473   5.260   5.653
 6060SOL     OW19078   3.428   3.858   5.758
 6060SOL    HW119079   3.474   3.830   5.674
 6060SOL    HW219080   3.332   3.876   5.739
 6061SOL     OW19081   3.698   2.591   0.445
 6061SOL    HW119082   3.634   2.603   0.369
 6061SOL    HW219083   3.728   2.681   0.477
 6062SOL     OW19084   2.428   0.939   4.628
 6062SOL    HW119085   2.424   0.989   4.541
 6062SOL    HW219086   2.491   0.862   4.620
 6063SOL     OW19087   3.997   1.610   6.633
 6063SOL    HW119088   4.054   1.624   6.552
 6063SOL    HW219089   4.021   1.523   6.676
 6064SOL     OW19090   2.711   5.658   2.707
 6064SOL    HW119091   2.772   5.709   2.646
 6064SOL    HW219092   2.621   5.701   2.708
 6065SOL     OW19093   5.371   6.756   1.784
 6065SOL    HW119094   5.369   6.810   1.867
 6065SOL    HW219095   5.306   6.793   1.718
 6066SOL     OW19096   3.822   1.573   0.703
 6066SOL    HW119097   3.845   1.573   0.800
 6066SOL    HW219098   3.906   1.567   0.649
 6067SOL     OW19099   5.507   2.090   6.851
 6067SOL    HW119100   5.539   1.998   6.876
 6067SOL    HW219101   5.550   2.157   6.911
 6068SOL     OW19102   6.516   3.274   4.365
 6068SOL    HW119103   6.600   3.238   4.407
 6068SOL    HW219104   6.445   3.204   4.366
 6069SOL     OW19105   0.653   3.879   5.629
 6069SOL    HW119106   0.632   3.905   5.723
 6069SOL    HW219107   0.574   3.899   5.571
 6070SOL     OW19108   2.808   1.811   5.630
 6070SOL    HW119109   2.863   1.778   5.553
 6070SOL    HW219110   2.847   1.779   5.716
 6071SOL     OW19111   4.714   5.975   5.115
 6071SOL    HW119112   4.652   5.901   5.140
 6071SOL    HW219113   4.721   6.040   5.190
 6072SOL     OW19114   0.955   0.820   1.939
 6072SOL    HW119115   0.902   0.743   1.903
 6072SOL    HW219116   0.926   0.905   1.896
 6073SOL     OW19117   6.758   3.672   0.484
 6073SOL    HW119118   6.749   3.628   0.395
 6073SOL    HW219119   6.846   3.718   0.491
 6074SOL     OW19120   1.117   6.933   4.595
 6074SOL    HW119121   1.174   6.912   4.516
 6074SOL    HW219122   1.030   6.886   4.587
 6075SOL     OW19123   6.914   2.363   6.378
 6075SOL    HW119124   6.945   2.427   6.308
 6075SOL    HW219125   6.891   2.275   6.336
 6076SOL     OW19126   2.282   6.587   5.308
 6076SOL    HW119127   2.376   6.621   5.312
 6076SOL    HW219128   2.282   6.487   5.317
 6077SOL     OW19129   4.973   5.444   2.118
 6077SOL    HW119130   5.048   5.453   2.052
 6077SOL    HW219131   5.007   5.466   2.210
 6078SOL     OW19132   3.894   4.853   2.222
 6078SOL    HW119133   3.892   4.898   2.311
 6078SOL    HW219134   3.966   4.782   2.223
 6079SOL     OW19135   3.131   3.382   6.722
 6079SOL    HW119136   3.084   3.298   6.748
 6079SOL    HW219137   3.063   3.454   6.706
 6080SOL     OW19138   0.681   1.156   2.005
 6080SOL    HW119139   0.638   1.245   2.018
 6080SOL    HW219140   0.698   1.114   2.094
 6081SOL     OW19141   6.341   3.971   4.671
 6081SOL    HW119142   6.425   3.948   4.623
 6081SOL    HW219143   6.281   3.891   4.673
 6082SOL     OW19144   3.722   1.298   3.754
 6082SOL    HW119145   3.727   1.248   3.667
 6082SOL    HW219146   3.759   1.390   3.742
 6083SOL     OW19147   1.023   5.923   6.153
 6083SOL    HW119148   1.011   6.022   6.149
 6083SOL    HW219149   1.119   5.902   6.166
 6084SOL     OW19150   0.032   5.338   3.961
 6084SOL    HW119151   0.123   5.341   4.003
 6084SOL    HW219152   6.993   5.393   4.014
 6085SOL     OW19153   6.885   4.296   0.154
 6085SOL    HW119154   6.974   4.279   0.112
 6085SOL    HW219155   6.898   4.329   0.248
 6086SOL     OW19156   3.340   1.467   5.389
 6086SOL    HW119157   3.419   1.441   5.333
 6086SOL    HW219158   3.273   1.393   5.388
 6087SOL     OW19159   5.615   6.846   0.506
 6087SOL    HW119160   5.601   6.862   0.603
 6087SOL    HW219161   5.706   6.807   0.491
 6088SOL     OW19162   6.930   6.351   4.446
 6088SOL    HW119163   6.997   6.377   4.377
 6088SOL    HW219164   6.935   6.413   4.523
 6089SOL     OW19165   0.024   3.956   1.333
 6089SOL    HW119166   0.110   3.961   1.384
 6089SOL    HW219167   6.972   3.956   1.398
 6090SOL     OW19168   1.383   6.438   6.311
 6090SOL    HW119169   1.288   6.470   6.319
 6090SOL    HW219170   1.440   6.513   6.275
 6091SOL     OW19171   0.947   1.411   2.510
 6091SOL    HW119172   0.933   1.504   2.543
 6091SOL    HW219173   0.994   1.413   2.421
 6092SOL     OW19174   2.552   0.520   3.260
 6092SOL    HW119175   2.636   0.512   3.207
 6092SOL    HW219176   2.478   0.472   3.213
 6093SOL     OW19177   1.483   2.640   2.762
 6093SOL    HW119178   1.577   2.673   2.750
 6093SOL    HW219179   1.436   2.697   2.831
 6094SOL     OW19180   2.829   1.277   1.047
 6094SOL    HW119181   2.923   1.262   1.016
 6094SOL    HW219182   2.830   1.332   1.130
 6095SOL     OW19183   4.691   2.494   6.985
 6095SOL    HW119184   4.627   2.567   6.959
 6095SOL    HW219185   4.726   2.449   6.903
 6096SOL     OW19186   5.887   0.765   4.288
 6096SOL    HW119187   5.792   0.786   4.264
 6096SOL    HW219188   5.900   0.666   4.285
 6097SOL     OW19189   1.743   0.167   2.254
 6097SOL    HW119190   1.673   0.227   2.293
 6097SOL    HW219191   1.769   0.201   2.164
 6098SOL     OW19192   1.293   2.320   5.631
 6098SOL    HW119193   1.263   2.243   5.688
 6098SOL    HW219194   1.388   2.305   5.602
 6099SOL     OW19195   5.645   5.942   5.926
 6099SOL    HW119196   5.587   6.023   5.935
 6099SOL    HW219197   5.735   5.969   5.891
 6100SOL     OW19198   5.739   2.909   6.141
 6100SOL    HW119199   5.726   2.871   6.233
 6100SOL    HW219200   5.827   2.878   6.105
 6101SOL     OW19201   6.186   2.025   5.789
 6101SOL    HW119202   6.135   1.959   5.733
 6101SOL    HW219203   6.153   2.117   5.770
 6102SOL     OW19204   3.936   0.806   4.193
 6102SOL    HW119205   3.971   0.888   4.146
 6102SOL    HW219206   3.974   0.802   4.285
 6103SOL     OW19207   0.074   1.089   3.779
 6103SOL    HW119208   0.007   1.120   3.712
 6103SOL    HW219209   0.108   1.167   3.831
 6104SOL     OW19210   6.458   1.627   6.442
 6104SOL    HW119211   6.380   1.613   6.380
 6104SOL    HW219212   6.424   1.650   6.533
 6105SOL     OW19213   2.930   6.749   5.644
 6105SOL    HW119214   2.945   6.764   5.546
 6105SOL    HW219215   2.948   6.834   5.693
 6106SOL     OW19216   1.706   4.884   5.856
 6106SOL    HW119217   1.720   4.816   5.785
 6106SOL    HW219218   1.766   4.962   5.840
 6107SOL     OW19219   2.875   5.547   4.343
 6107SOL    HW119220   2.973   5.567   4.343
 6107SOL    HW219221   2.828   5.609   4.405
 6108SOL     OW19222   0.824   1.919   3.478
 6108SOL    HW119223   0.916   1.931   3.516
 6108SOL    HW219224   0.782   2.009   3.465
 6109SOL     OW19225   5.042   2.974   0.115
 6109SOL    HW119226   5.058   2.949   0.211
 6109SOL    HW219227   5.113   2.933   0.058
 6110SOL     OW19228   3.393   3.113   6.991
 6110SOL    HW119229   3.480   3.163   6.997
 6110SOL    HW219230   3.412   3.015   6.987
 6111SOL     OW19231   1.932   5.070   2.645
 6111SOL    HW119232   1.875   5.000   2.687
 6111SOL    HW219233   1.980   5.032   2.566
 6112SOL     OW19234   2.718   1.648   3.440
 6112SOL    HW119235   2.734   1.596   3.524
 6112SOL    HW219236   2.696   1.585   3.366
 6113SOL     OW19237   0.178   0.900   6.220
 6113SOL    HW119238   0.078   0.905   6.225
 6113SOL    HW219239   0.208   0.808   6.242
 6114SOL     OW19240   4.926   4.656   1.155
 6114SOL    HW119241   4.846   4.715   1.169
 6114SOL    HW219242   5.007   4.701   1.193
 6115SOL     OW19243   5.183   5.866   2.765
 6115SOL    HW119244   5.107   5.806   2.789
 6115SOL    HW219245   5.192   5.938   2.833
 6116SOL     OW19246   2.558   1.309   1.592
 6116SOL    HW119247   2.509   1.358   1.521
 6116SOL    HW219248   2.528   1.341   1.682
 6117SOL     OW19249   0.158   0.109   5.247
 6117SOL    HW119250   0.157   0.190   5.190
 6117SOL    HW219251   0.083   0.114   5.314
 6118SOL     OW19252   0.348   2.103   1.660
 6118SOL    HW119253   0.344   2.098   1.760
 6118SOL    HW219254   0.261   2.073   1.622
 6119SOL     OW19255   0.031   4.195   3.945
 6119SOL    HW119256   0.124   4.169   3.969
 6119SOL    HW219257   0.031   4.287   3.905
 6120SOL     OW19258   3.136   6.968   3.453
 6120SOL    HW119259   3.080   6.905   3.400
 6120SOL    HW219260   3.077   0.012   3.496
 6121SOL     OW19261   6.756   2.429   4.491
 6121SOL    HW119262   6.684   2.497   4.479
 6121SOL    HW219263   6.740   2.351   4.430
 6122SOL     OW19264   3.264   6.226   2.052
 6122SOL    HW119265   3.181   6.281   2.065
 6122SOL    HW219266   3.284   6.220   1.954
 6123SOL     OW19267   6.735   0.513   1.153
 6123SOL    HW119268   6.751   0.437   1.089
 6123SOL    HW219269   6.675   0.482   1.227
 6124SOL     OW19270   3.297   0.078   5.543
 6124SOL    HW119271   3.300   0.049   5.639
 6124SOL    HW219272   3.286   7.023   5.484
 6125SOL     OW19273   2.625   5.682   1.000
 6125SOL    HW119274   2.538   5.728   1.017
 6125SOL    HW219275   2.682   5.741   0.942
 6126SOL     OW19276   5.675   6.171   3.653
 6126SOL    HW119277   5.725   6.093   3.690
 6126SOL    HW219278   5.619   6.212   3.724
 6127SOL     OW19279   2.157   6.961   1.790
 6127SOL    HW119280   2.176   6.900   1.713
 6127SOL    HW219281   2.222   6.942   1.864
 6128SOL     OW19282   6.583   2.935   0.136
 6128SOL    HW119283   6.574   3.003   0.064
 6128SOL    HW219284   6.605   2.846   0.096
 6129SOL     OW19285   6.322   4.344   3.399
 6129SOL    HW119286   6.284   4.436   3.402
 6129SOL    HW219287   6.302   4.303   3.309
 6130SOL     OW19288   6.453   2.537   4.623
 6130SOL    HW119289   6.430   2.590   4.705
 6130SOL    HW219290   6.510   2.593   4.563
 6131SOL     OW19291   6.919   1.538   5.462
 6131SOL    HW119292   6.837   1.506   5.414
 6131SOL    HW219293   6.949   1.467   5.526
 6132SOL     OW19294   3.777   0.560   1.321
 6132SOL    HW119295   3.745   0.485   1.263
 6132SOL    HW219296   3.840   0.525   1.390
 6133SOL     OW19297   0.589   2.425   2.529
 6133SOL    HW119298   0.620   2.367   2.454
 6133SOL    HW219299   0.502   2.468   2.503
 6134SOL     OW19300   4.290   3.671   6.628
 6134SOL    HW119301   4.381   3.710   6.646
 6134SOL    HW219302   4.297   3.571   6.622
 6135SOL     OW19303   6.156   6.972   2.423
 6135SOL    HW119304   6.122   0.007   2.350
 6135SOL    HW219305   6.235   6.921   2.389
 6136SOL     OW19306   0.565   1.735   2.532
 6136SOL    HW119307   0.532   1.827   2.512
 6136SOL    HW219308   0.487   1.673   2.544
 6137SOL     OW19309   4.001   0.520   5.771
 6137SOL    HW119310   4.088   0.486   5.807
 6137SOL    HW219311   3.933   0.522   5.844
 6138SOL     OW19312   3.700   6.809   2.644
 6138SOL    HW119313   3.682   6.751   2.723
 6138SOL    HW219314   3.687   6.757   2.560
 6139SOL     OW19315   2.280   2.876   4.439
 6139SOL    HW119316   2.303   2.908   4.347
 6139SOL    HW219317   2.261   2.778   4.437
 6140SOL     OW19318   0.914   6.245   1.269
 6140SOL    HW119319   0.973   6.179   1.223
 6140SOL    HW219320   0.842   6.275   1.207
 6141SOL     OW19321   5.813   5.941   5.031
 6141SOL    HW119322   5.893   5.987   4.992
 6141SOL    HW219323   5.838   5.848   5.057
 6142SOL     OW19324   0.103   5.168   0.667
 6142SOL    HW119325   0.184   5.217   0.699
 6142SOL    HW219326   0.128   5.074   0.644
 6143SOL     OW19327   5.942   5.032   6.841
 6143SOL    HW119328   6.023   5.026   6.784
 6143SOL    HW219329   5.938   5.121   6.886
 6144SOL     OW19330   6.860   4.609   2.326
 6144SOL    HW119331   6.916   4.542   2.374
 6144SOL    HW219332   6.770   4.569   2.306
 6145SOL     OW19333   4.947   6.157   3.649
 6145SOL    HW119334   5.016   6.216   3.608
 6145SOL    HW219335   4.857   6.199   3.641
 6146SOL     OW19336   4.158   0.671   3.549
 6146SOL    HW119337   4.137   0.768   3.536
 6146SOL    HW219338   4.072   0.619   3.551
 6147SOL     OW19339   1.716   4.326   3.359
 6147SOL    HW119340   1.800   4.339   3.412
 6147SOL    HW219341   1.648   4.393   3.389
 6148SOL     OW19342   6.835   0.380   4.891
 6148SOL    HW119343   6.781   0.417   4.966
 6148SOL    HW219344   6.791   0.296   4.857
 6149SOL     OW19345   3.580   4.957   3.298
 6149SOL    HW119346   3.661   4.922   3.249
 6149SOL    HW219347   3.609   5.017   3.372
 6150SOL     OW19348   4.384   5.198   6.495
 6150SOL    HW119349   4.300   5.174   6.545
 6150SOL    HW219350   4.438   5.261   6.549
 6151SOL     OW19351   6.781   4.068   4.500
 6151SOL    HW119352   6.729   4.132   4.443
 6151SOL    HW219353   6.877   4.095   4.501
 6152SOL     OW19354   5.070   4.557   5.400
 6152SOL    HW119355   5.023   4.475   5.369
 6152SOL    HW219356   5.137   4.585   5.332
 6153SOL     OW19357   4.766   3.909   1.768
 6153SOL    HW119358   4.770   3.823   1.718
 6153SOL    HW219359   4.684   3.960   1.740
 6154SOL     OW19360   4.893   1.343   1.990
 6154SOL    HW119361   4.849   1.268   2.038
 6154SOL    HW219362   4.832   1.378   1.919
 6155SOL     OW19363   1.622   2.664   3.696
 6155SOL    HW119364   1.691   2.653   3.624
 6155SOL    HW219365   1.667   2.693   3.781
 6156SOL     OW19366   4.788   5.192   2.438
 6156SOL    HW119367   4.819   5.140   2.358
 6156SOL    HW219368   4.690   5.177   2.452
 6157SOL     OW19369   1.158   1.788   4.007
 6157SOL    HW119370   1.205   1.872   3.980
 6157SOL    HW219371   1.192   1.712   3.952
 6158SOL     OW19372   4.716   0.680   6.517
 6158SOL    HW119373   4.766   0.647   6.437
 6158SOL    HW219374   4.754   0.640   6.600
 6159SOL     OW19375   4.545   1.664   0.422
 6159SOL    HW119376   4.456   1.659   0.376
 6159SOL    HW219377   4.571   1.572   0.453
 6160SOL     OW19378   5.780   5.831   0.541
 6160SOL    HW119379   5.869   5.814   0.584
 6160SOL    HW219380   5.710   5.839   0.613
 6161SOL     OW19381   5.846   2.063   6.372
 6161SOL    HW119382   5.808   2.113   6.450
 6161SOL    HW219383   5.943   2.044   6.389
 6162SOL     OW19384   0.978   5.362   4.576
 6162SOL    HW119385   0.952   5.271   4.543
 6162SOL    HW219386   1.047   5.401   4.514
 6163SOL     OW19387   5.361   5.442   1.259
 6163SOL    HW119388   5.328   5.503   1.187
 6163SOL    HW219389   5.446   5.477   1.297
 6164SOL     OW19390   1.651   3.191   1.752
 6164SOL    HW119391   1.733   3.137   1.732
 6164SOL    HW219392   1.576   3.161   1.692
 6165SOL     OW19393   3.431   6.229   0.116
 6165SOL    HW119394   3.479   6.144   0.092
 6165SOL    HW219395   3.339   6.208   0.147
 6166SOL     OW19396   3.669   1.036   5.089
 6166SOL    HW119397   3.706   0.977   5.161
 6166SOL    HW219398   3.610   1.105   5.131
 6167SOL     OW19399   0.139   5.002   2.072
 6167SOL    HW119400   0.081   4.947   2.131
 6167SOL    HW219401   0.090   5.026   1.989
 6168SOL     OW19402   0.155   3.829   0.698
 6168SOL    HW119403   0.140   3.893   0.774
 6168SOL    HW219404   0.253   3.809   0.690
 6169SOL     OW19405   0.920   3.476   2.084
 6169SOL    HW119406   0.831   3.444   2.118
 6169SOL    HW219407   0.975   3.397   2.057
 6170SOL     OW19408   0.231   2.872   5.225
 6170SOL    HW119409   0.305   2.935   5.247
 6170SOL    HW219410   0.261   2.808   5.155
 6171SOL     OW19411   0.500   1.746   0.627
 6171SOL    HW119412   0.411   1.767   0.667
 6171SOL    HW219413   0.570   1.745   0.698
 6172SOL     OW19414   1.081   2.644   2.504
 6172SOL    HW119415   1.020   2.653   2.583
 6172SOL    HW219416   1.093   2.733   2.460
 6173SOL     OW19417   6.667   5.564   2.617
 6173SOL    HW119418   6.687   5.598   2.709
 6173SOL    HW219419   6.581   5.513   2.619
 6174SOL     OW19420   4.449   4.902   3.101
 6174SOL    HW119421   4.533   4.946   3.071
 6174SOL    HW219422   4.378   4.971   3.113
 6175SOL     OW19423   3.445   0.810   4.520
 6175SOL    HW119424   3.528   0.776   4.563
 6175SOL    HW219425   3.462   0.901   4.480
 6176SOL     OW19426   4.533   3.456   5.399
 6176SOL    HW119427   4.570   3.483   5.310
 6176SOL    HW219428   4.582   3.375   5.432
 6177SOL     OW19429   4.697   1.959   2.043
 6177SOL    HW119430   4.793   1.933   2.043
 6177SOL    HW219431   4.682   2.031   1.974
 6178SOL     OW19432   4.884   3.926   2.015
 6178SOL    HW119433   4.846   3.938   1.924
 6178SOL    HW219434   4.912   4.014   2.051
 6179SOL     OW19435   6.689   4.532   1.602
 6179SOL    HW119436   6.625   4.553   1.528
 6179SOL    HW219437   6.713   4.616   1.650
 6180SOL     OW19438   3.334   4.540   0.531
 6180SOL    HW119439   3.347   4.620   0.588
 6180SOL    HW219440   3.259   4.556   0.467
 6181SOL     OW19441   4.853   6.144   6.109
 6181SOL    HW119442   4.802   6.090   6.176
 6181SOL    HW219443   4.926   6.195   6.156
 6182SOL     OW19444   4.421   2.362   6.968
 6182SOL    HW119445   4.508   2.402   6.997
 6182SOL    HW219446   4.430   2.262   6.965
 6183SOL     OW19447   1.755   2.203   1.416
 6183SOL    HW119448   1.839   2.174   1.371
 6183SOL    HW219449   1.766   2.195   1.515
 6184SOL     OW19450   2.902   0.302   6.187
 6184SOL    HW119451   2.966   0.289   6.111
 6184SOL    HW219452   2.855   0.389   6.177
 6185SOL     OW19453   2.546   4.248   5.807
 6185SOL    HW119454   2.633   4.201   5.798
 6185SOL    HW219455   2.488   4.226   5.728
 6186SOL     OW19456   0.040   1.547   1.955
 6186SOL    HW119457   6.972   1.537   1.991
 6186SOL    HW219458   0.103   1.491   2.010
 6187SOL     OW19459   4.682   2.841   5.027
 6187SOL    HW119460   4.616   2.783   4.980
 6187SOL    HW219461   4.772   2.798   5.025
 6188SOL     OW19462   1.473   1.634   5.670
 6188SOL    HW119463   1.434   1.577   5.597
 6188SOL    HW219464   1.399   1.674   5.723
 6189SOL     OW19465   4.070   5.523   2.890
 6189SOL    HW119466   4.051   5.542   2.793
 6189SOL    HW219467   4.065   5.608   2.942
 6190SOL     OW19468   6.325   3.272   5.612
 6190SOL    HW119469   6.406   3.261   5.555
 6190SOL    HW219470   6.353   3.290   5.706
 6191SOL     OW19471   2.338   3.128   5.624
 6191SOL    HW119472   2.325   3.214   5.575
 6191SOL    HW219473   2.262   3.066   5.604
 6192SOL     OW19474   2.340   2.203   6.064
 6192SOL    HW119475   2.406   2.181   5.992
 6192SOL    HW219476   2.378   2.274   6.124
 6193SOL     OW19477   5.057   5.662   0.654
 6193SOL    HW119478   5.131   5.656   0.721
 6193SOL    HW219479   5.032   5.570   0.624
 6194SOL     OW19480   6.776   0.942   6.516
 6194SOL    HW119481   6.730   1.025   6.548
 6194SOL    HW219482   6.811   0.956   6.424
 6195SOL     OW19483   5.606   6.642   4.997
 6195SOL    HW119484   5.518   6.689   4.983
 6195SOL    HW219485   5.636   6.657   5.091
 6196SOL     OW19486   5.260   4.482   3.061
 6196SOL    HW119487   5.249   4.400   3.119
 6196SOL    HW219488   5.209   4.558   3.102
 6197SOL     OW19489   2.479   5.091   2.836
 6197SOL    HW119490   2.444   5.036   2.760
 6197SOL    HW219491   2.540   5.162   2.800
 6198SOL     OW19492   5.749   6.242   6.976
 6198SOL    HW119493   5.657   6.281   6.970
 6198SOL    HW219494   5.743   6.150   7.015
 6199SOL     OW19495   0.646   0.730   0.506
 6199SOL    HW119496   0.645   0.809   0.445
 6199SOL    HW219497   0.656   0.646   0.453
 6200SOL     OW19498   1.017   0.959   2.453
 6200SOL    HW119499   0.925   0.951   2.490
 6200SOL    HW219500   1.020   0.921   2.361
 6201SOL     OW19501   0.861   4.329   4.355
 6201SOL    HW119502   0.804   4.405   4.324
 6201SOL    HW219503   0.938   4.317   4.291
 6202SOL     OW19504   5.775   1.700   3.181
 6202SOL    HW119505   5.781   1.693   3.081
 6202SOL    HW219506   5.705   1.767   3.205
 6203SOL     OW19507   6.067   5.668   1.897
 6203SOL    HW119508   5.993   5.701   1.956
 6203SOL    HW219509   6.139   5.737   1.892
 6204SOL     OW19510   1.318   6.023   4.949
 6204SOL    HW119511   1.379   6.027   4.870
 6204SOL    HW219512   1.366   6.057   5.030
 6205SOL     OW19513   4.783   4.842   1.984
 6205SOL    HW119514   4.726   4.764   1.958
 6205SOL    HW219515   4.760   4.871   2.077
 6206SOL     OW19516   4.720   2.230   3.532
 6206SOL    HW119517   4.737   2.265   3.624
 6206SOL    HW219518   4.689   2.135   3.538
 6207SOL     OW19519   1.831   6.319   4.390
 6207SOL    HW119520   1.781   6.382   4.450
 6207SOL    HW219521   1.770   6.246   4.361
 6208SOL     OW19522   3.362   2.338   5.892
 6208SOL    HW119523   3.300   2.399   5.941
 6208SOL    HW219524   3.385   2.377   5.803
 6209SOL     OW19525   3.428   4.541   1.205
 6209SOL    HW119526   3.385   4.528   1.295
 6209SOL    HW219527   3.485   4.461   1.184
 6210SOL     OW19528   5.160   3.632   2.814
 6210SOL    HW119529   5.218   3.678   2.881
 6210SOL    HW219530   5.198   3.646   2.722
 6211SOL     OW19531   4.383   5.586   5.906
 6211SOL    HW119532   4.417   5.518   5.841
 6211SOL    HW219533   4.300   5.629   5.868
 6212SOL     OW19534   2.471   4.654   4.367
 6212SOL    HW119535   2.518   4.665   4.280
 6212SOL    HW219536   2.538   4.634   4.439
 6213SOL     OW19537   4.902   6.535   0.510
 6213SOL    HW119538   4.945   6.562   0.424
 6213SOL    HW219539   4.931   6.442   0.534
 6214SOL     OW19540   5.246   5.524   6.043
 6214SOL    HW119541   5.170   5.511   5.981
 6214SOL    HW219542   5.277   5.619   6.038
 6215SOL     OW19543   5.127   3.041   6.618
 6215SOL    HW119544   5.033   3.009   6.609
 6215SOL    HW219545   5.189   2.977   6.573
 6216SOL     OW19546   6.362   2.939   3.275
 6216SOL    HW119547   6.318   2.937   3.364
 6216SOL    HW219548   6.375   2.845   3.242
 6217SOL     OW19549   0.367   4.505   1.914
 6217SOL    HW119550   0.291   4.517   1.978
 6217SOL    HW219551   0.356   4.418   1.866
 6218SOL     OW19552   4.798   6.701   0.165
 6218SOL    HW119553   4.777   6.798   0.173
 6218SOL    HW219554   4.775   6.669   0.073
 6219SOL     OW19555   1.874   0.792   5.148
 6219SOL    HW119556   1.823   0.871   5.113
 6219SOL    HW219557   1.892   0.729   5.073
 6220SOL     OW19558   3.350   0.785   0.324
 6220SOL    HW119559   3.298   0.758   0.243
 6220SOL    HW219560   3.350   0.710   0.390
 6221SOL     OW19561   6.203   6.187   6.728
 6221SOL    HW119562   6.152   6.222   6.807
 6221SOL    HW219563   6.286   6.241   6.716
 6222SOL     OW19564   5.629   1.069   2.294
 6222SOL    HW119565   5.692   1.129   2.245
 6222SOL    HW219566   5.588   1.004   2.230
 6223SOL     OW19567   0.624   5.324   3.909
 6223SOL    HW119568   0.612   5.416   3.871
 6223SOL    HW219569   0.536   5.289   3.940
 6224SOL     OW19570   4.325   0.704   6.053
 6224SOL    HW119571   4.289   0.647   6.127
 6224SOL    HW219572   4.375   0.782   6.091
 6225SOL     OW19573   3.758   1.307   6.323
 6225SOL    HW119574   3.781   1.390   6.374
 6225SOL    HW219575   3.825   1.236   6.344
 6226SOL     OW19576   1.430   1.673   3.899
 6226SOL    HW119577   1.475   1.752   3.941
 6226SOL    HW219578   1.447   1.592   3.955
 6227SOL     OW19579   3.205   4.605   5.324
 6227SOL    HW119580   3.117   4.590   5.280
 6227SOL    HW219581   3.250   4.684   5.283
 6228SOL     OW19582   1.170   2.537   3.636
 6228SOL    HW119583   1.122   2.470   3.579
 6228SOL    HW219584   1.262   2.552   3.599
 6229SOL     OW19585   6.950   3.035   4.936
 6229SOL    HW119586   0.022   3.017   4.915
 6229SOL    HW219587   6.928   3.129   4.910
 6230SOL     OW19588   0.746   1.347   3.128
 6230SOL    HW119589   0.665   1.363   3.184
 6230SOL    HW219590   0.823   1.322   3.186
 6231SOL     OW19591   5.797   4.731   0.477
 6231SOL    HW119592   5.697   4.739   0.486
 6231SOL    HW219593   5.820   4.715   0.381
 6232SOL     OW19594   6.363   0.802   0.841
 6232SOL    HW119595   6.415   0.792   0.755
 6232SOL    HW219596   6.386   0.890   0.883
 6233SOL     OW19597   0.204   3.245   2.082
 6233SOL    HW119598   0.232   3.268   1.989
 6233SOL    HW219599   0.256   3.300   2.147
 6234SOL     OW19600   0.231   0.502   4.884
 6234SOL    HW119601   0.134   0.524   4.884
 6234SOL    HW219602   0.248   0.424   4.823
 6235SOL     OW19603   6.870   0.820   2.143
 6235SOL    HW119604   6.907   0.729   2.125
 6235SOL    HW219605   6.869   0.873   2.058
 6236SOL     OW19606   0.430   4.037   0.466
 6236SOL    HW119607   0.368   4.035   0.544
 6236SOL    HW219608   0.501   4.106   0.482
 6237SOL     OW19609   3.446   6.794   0.423
 6237SOL    HW119610   3.386   6.714   0.437
 6237SOL    HW219611   3.423   6.865   0.490
 6238SOL     OW19612   3.300   6.521   3.401
 6238SOL    HW119613   3.316   6.615   3.369
 6238SOL    HW219614   3.213   6.517   3.449
 6239SOL     OW19615   3.532   6.791   1.842
 6239SOL    HW119616   3.566   6.884   1.830
 6239SOL    HW219617   3.609   6.729   1.857
 6240SOL     OW19618   2.898   3.800   5.031
 6240SOL    HW119619   2.830   3.799   5.105
 6240SOL    HW219620   2.902   3.892   4.991
 6241SOL     OW19621   3.962   0.087   3.967
 6241SOL    HW119622   3.883   0.052   3.917
 6241SOL    HW219623   4.025   0.012   3.987
 6242SOL     OW19624   2.328   2.074   2.991
 6242SOL    HW119625   2.232   2.089   3.014
 6242SOL    HW219626   2.372   2.162   2.972
 6243SOL     OW19627   6.630   0.715   5.858
 6243SOL    HW119628   6.598   0.680   5.945
 6243SOL    HW219629   6.629   0.815   5.859
 6244SOL     OW19630   4.748   4.071   2.526
 6244SOL    HW119631   4.759   4.003   2.599
 6244SOL    HW219632   4.800   4.041   2.445
 6245SOL     OW19633   0.901   4.868   2.269
 6245SOL    HW119634   0.947   4.923   2.338
 6245SOL    HW219635   0.826   4.920   2.229
 6246SOL     OW19636   1.486   6.864   4.591
 6246SOL    HW119637   1.408   6.822   4.544
 6246SOL    HW219638   1.479   6.846   4.689
 6247SOL     OW19639   0.556   5.230   3.568
 6247SOL    HW119640   0.611   5.147   3.576
 6247SOL    HW219641   0.615   5.310   3.569
 6248SOL     OW19642   4.040   3.410   6.770
 6248SOL    HW119643   4.013   3.363   6.854
 6248SOL    HW219644   3.965   3.467   6.738
 6249SOL     OW19645   0.083   2.631   1.407
 6249SOL    HW119646   7.015   2.641   1.444
 6249SOL    HW219647   0.095   2.538   1.371
 6250SOL     OW19648   0.441   6.747   0.536
 6250SOL    HW119649   0.474   6.810   0.465
 6250SOL    HW219650   0.359   6.700   0.504
 6251SOL     OW19651   3.415   6.501   4.700
 6251SOL    HW119652   3.372   6.533   4.616
 6251SOL    HW219653   3.355   6.436   4.746
 6252SOL     OW19654   2.568   4.861   6.997
 6252SOL    HW119655   2.553   4.959   7.014
 6252SOL    HW219656   2.551   4.842   6.900
 6253SOL     OW19657   2.580   4.971   4.873
 6253SOL    HW119658   2.587   5.061   4.830
 6253SOL    HW219659   2.648   4.910   4.833
 6254SOL     OW19660   0.708   5.963   0.792
 6254SOL    HW119661   0.711   5.869   0.757
 6254SOL    HW219662   0.641   6.016   0.740
 6255SOL     OW19663   1.995   2.417   0.925
 6255SOL    HW119664   1.993   2.437   1.023
 6255SOL    HW219665   1.904   2.390   0.895
 6256SOL     OW19666   4.738   5.938   2.706
 6256SOL    HW119667   4.737   5.846   2.744
 6256SOL    HW219668   4.738   5.933   2.606
 6257SOL     OW19669   4.245   3.550   0.720
 6257SOL    HW119670   4.148   3.546   0.742
 6257SOL    HW219671   4.272   3.465   0.674
 6258SOL     OW19672   3.640   0.048   5.773
 6258SOL    HW119673   3.559   0.036   5.830
 6258SOL    HW219674   3.688   6.985   5.765
 6259SOL     OW19675   1.183   1.013   5.775
 6259SOL    HW119676   1.226   0.940   5.828
 6259SOL    HW219677   1.208   1.102   5.814
 6260SOL     OW19678   1.709   0.829   0.519
 6260SOL    HW119679   1.762   0.807   0.437
 6260SOL    HW219680   1.653   0.910   0.501
 6261SOL     OW19681   5.450   0.234   1.431
 6261SOL    HW119682   5.535   0.247   1.381
 6261SOL    HW219683   5.461   0.265   1.525
 6262SOL     OW19684   6.732   6.298   2.643
 6262SOL    HW119685   6.809   6.315   2.705
 6262SOL    HW219686   6.753   6.222   2.583
 6263SOL     OW19687   7.004   6.586   4.624
 6263SOL    HW119688   6.964   6.575   4.715
 6263SOL    HW219689   0.079   6.581   4.630
 6264SOL     OW19690   1.041   6.926   1.334
 6264SOL    HW119691   1.091   6.873   1.266
 6264SOL    HW219692   0.943   6.905   1.328
 6265SOL     OW19693   3.833   2.968   0.869
 6265SOL    HW119694   3.823   3.036   0.941
 6265SOL    HW219695   3.836   3.013   0.780
 6266SOL     OW19696   3.436   6.365   3.098
 6266SOL    HW119697   3.397   6.453   3.073
 6266SOL    HW219698   3.525   6.379   3.141
 6267SOL     OW19699   1.519   6.438   5.275
 6267SOL    HW119700   1.549   6.505   5.342
 6267SOL    HW219701   1.430   6.401   5.302
 6268SOL     OW19702   3.796   0.138   2.059
 6268SOL    HW119703   3.882   0.173   2.097
 6268SOL    HW219704   3.763   0.062   2.115
 6269SOL     OW19705   5.661   5.848   1.296
 6269SOL    HW119706   5.617   5.890   1.375
 6269SOL    HW219707   5.715   5.917   1.248
 6270SOL     OW19708   0.808   6.412   0.097
 6270SOL    HW119709   0.755   6.416   0.013
 6270SOL    HW219710   0.747   6.397   0.175
 6271SOL     OW19711   5.570   2.840   6.554
 6271SOL    HW119712   5.542   2.747   6.530
 6271SOL    HW219713   5.493   2.902   6.539
 6272SOL     OW19714   6.545   0.464   6.311
 6272SOL    HW119715   6.609   0.540   6.325
 6272SOL    HW219716   6.559   0.395   6.382
 6273SOL     OW19717   0.116   6.140   2.891
 6273SOL    HW119718   0.167   6.191   2.961
 6273SOL    HW219719   0.179   6.112   2.818
 6274SOL     OW19720   3.141   6.475   5.019
 6274SOL    HW119721   3.045   6.449   5.032
 6274SOL    HW219722   3.182   6.418   4.949
 6275SOL     OW19723   2.356   5.809   0.516
 6275SOL    HW119724   2.414   5.729   0.500
 6275SOL    HW219725   2.413   5.891   0.524
 6276SOL     OW19726   3.562   5.681   3.122
 6276SOL    HW119727   3.619   5.661   3.041
 6276SOL    HW219728   3.619   5.676   3.204
 6277SOL     OW19729   4.898   1.882   1.642
 6277SOL    HW119730   4.888   1.967   1.694
 6277SOL    HW219731   4.937   1.811   1.701
 6278SOL     OW19732   3.284   6.920   5.741
 6278SOL    HW119733   3.187   6.898   5.751
 6278SOL    HW219734   3.326   6.855   5.678
 6279SOL     OW19735   3.215   5.559   0.684
 6279SOL    HW119736   3.162   5.506   0.618
 6279SOL    HW219737   3.296   5.507   0.711
 6280SOL     OW19738   6.308   1.828   0.039
 6280SOL    HW119739   6.399   1.789   0.047
 6280SOL    HW219740   6.296   1.866   6.972
 6281SOL     OW19741   5.842   4.352   4.369
 6281SOL    HW119742   5.891   4.266   4.374
 6281SOL    HW219743   5.883   4.418   4.433
 6282SOL     OW19744   6.644   3.805   5.550
 6282SOL    HW119745   6.572   3.830   5.614
 6282SOL    HW219746   6.603   3.761   5.469
 6283SOL     OW19747   0.983   5.473   5.143
 6283SOL    HW119748   1.065   5.417   5.158
 6283SOL    HW219749   0.963   5.477   5.045
 6284SOL     OW19750   1.159   4.496   6.757
 6284SOL    HW119751   1.061   4.517   6.758
 6284SOL    HW219752   1.211   4.581   6.757
 6285SOL     OW19753   1.829   3.610   3.483
 6285SOL    HW119754   1.811   3.516   3.452
 6285SOL    HW219755   1.902   3.650   3.427
 6286SOL     OW19756   0.016   3.545   4.811
 6286SOL    HW119757   0.040   3.524   4.716
 6286SOL    HW219758   0.046   3.638   4.833
 6287SOL     OW19759   4.230   4.463   5.467
 6287SOL    HW119760   4.193   4.397   5.402
 6287SOL    HW219761   4.241   4.419   5.556
 6288SOL     OW19762   4.373   3.781   7.001
 6288SOL    HW119763   4.420   3.758   0.061
 6288SOL    HW219764   4.329   3.699   6.964
 6289SOL     OW19765   2.617   4.330   6.508
 6289SOL    HW119766   2.714   4.330   6.488
 6289SOL    HW219767   2.588   4.423   6.531
 6290SOL     OW19768   6.055   5.321   6.610
 6290SOL    HW119769   6.108   5.397   6.572
 6290SOL    HW219770   6.013   5.269   6.536
 6291SOL     OW19771   3.271   2.913   3.000
 6291SOL    HW119772   3.286   2.947   3.093
 6291SOL    HW219773   3.357   2.918   2.949
 6292SOL     OW19774   1.833   2.250   4.723
 6292SOL    HW119775   1.746   2.218   4.686
 6292SOL    HW219776   1.876   2.177   4.777
 6293SOL     OW19777   4.666   1.423   0.516
 6293SOL    HW119778   4.733   1.487   0.553
 6293SOL    HW219779   4.621   1.374   0.591
 6294SOL     OW19780   3.318   0.953   3.778
 6294SOL    HW119781   3.249   0.950   3.851
 6294SOL    HW219782   3.377   1.032   3.791
 6295SOL     OW19783   5.109   5.179   4.842
 6295SOL    HW119784   5.014   5.187   4.872
 6295SOL    HW219785   5.166   5.243   4.893
 6296SOL     OW19786   0.443   3.426   5.873
 6296SOL    HW119787   0.528   3.461   5.835
 6296SOL    HW219788   0.366   3.481   5.839
 6297SOL     OW19789   5.986   0.503   4.825
 6297SOL    HW119790   5.911   0.461   4.775
 6297SOL    HW219791   5.972   0.490   4.924
 6298SOL     OW19792   5.693   4.411   6.669
 6298SOL    HW119793   5.730   4.396   6.761
 6298SOL    HW219794   5.737   4.349   6.605
 6299SOL     OW19795   5.250   2.518   2.592
 6299SOL    HW119796   5.245   2.534   2.690
 6299SOL    HW219797   5.319   2.449   2.573
 6300SOL     OW19798   4.364   0.924   6.478
 6300SOL    HW119799   4.267   0.922   6.453
 6300SOL    HW219800   4.415   0.863   6.418
 6301SOL     OW19801   3.125   6.648   6.797
 6301SOL    HW119802   3.159   6.638   6.891
 6301SOL    HW219803   3.037   6.697   6.799
 6302SOL     OW19804   2.107   1.750   5.994
 6302SOL    HW119805   2.100   1.669   6.052
 6302SOL    HW219806   2.179   1.810   6.028
 6303SOL     OW19807   1.093   6.472   5.482
 6303SOL    HW119808   1.144   6.541   5.431
 6303SOL    HW219809   0.996   6.478   5.459
 6304SOL     OW19810   4.017   1.173   3.346
 6304SOL    HW119811   3.922   1.203   3.358
 6304SOL    HW219812   4.019   1.089   3.293
 6305SOL     OW19813   6.304   5.402   5.912
 6305SOL    HW119814   6.400   5.373   5.924
 6305SOL    HW219815   6.301   5.500   5.893
 6306SOL     OW19816   0.680   3.842   3.828
 6306SOL    HW119817   0.729   3.885   3.753
 6306SOL    HW219818   0.735   3.847   3.912
 6307SOL     OW19819   3.815   3.937   3.741
 6307SOL    HW119820   3.808   3.941   3.841
 6307SOL    HW219821   3.902   3.895   3.715
 6308SOL     OW19822   0.277   2.314   5.730
 6308SOL    HW119823   0.367   2.327   5.690
 6308SOL    HW219824   0.208   2.309   5.657
 6309SOL     OW19825   0.665   6.809   4.395
 6309SOL    HW119826   0.721   6.841   4.319
 6309SOL    HW219827   0.679   6.710   4.407
 6310SOL     OW19828   1.511   6.809   3.395
 6310SOL    HW119829   1.530   6.882   3.330
 6310SOL    HW219830   1.508   6.721   3.346
 6311SOL     OW19831   5.001   0.886   6.824
 6311SOL    HW119832   4.983   0.825   6.747
 6311SOL    HW219833   4.919   0.940   6.843
 6312SOL     OW19834   2.755   6.694   6.427
 6312SOL    HW119835   2.737   6.595   6.429
 6312SOL    HW219836   2.746   6.727   6.333
 6313SOL     OW19837   5.537   6.140   3.149
 6313SOL    HW119838   5.590   6.142   3.233
 6313SOL    HW219839   5.448   6.185   3.163
 6314SOL     OW19840   3.090   0.080   1.434
 6314SOL    HW119841   3.062   0.175   1.415
 6314SOL    HW219842   3.187   0.079   1.459
 6315SOL     OW19843   1.855   2.446   4.419
 6315SOL    HW119844   1.898   2.521   4.468
 6315SOL    HW219845   1.921   2.372   4.404
 6316SOL     OW19846   4.591   1.916   5.799
 6316SOL    HW119847   4.660   1.886   5.864
 6316SOL    HW219848   4.565   2.011   5.819
 6317SOL     OW19849   5.280   4.288   2.531
 6317SOL    HW119850   5.194   4.268   2.577
 6317SOL    HW219851   5.283   4.384   2.504
 6318SOL     OW19852   6.480   0.252   6.706
 6318SOL    HW119853   6.567   0.254   6.756
 6318SOL    HW219854   6.470   0.163   6.661
 6319SOL     OW19855   5.997   2.291   4.794
 6319SOL    HW119856   5.902   2.319   4.810
 6319SOL    HW219857   6.039   2.353   4.728
 6320SOL     OW19858   0.468   0.547   3.571
 6320SOL    HW119859   0.522   0.617   3.524
 6320SOL    HW219860   0.520   0.462   3.577
 6321SOL     OW19861   5.051   2.900   0.801
 6321SOL    HW119862   5.005   2.935   0.883
 6321SOL    HW219863   4.994   2.917   0.721
 6322SOL     OW19864   2.365   1.808   0.650
 6322SOL    HW119865   2.290   1.843   0.705
 6322SOL    HW219866   2.440   1.875   0.651
 6323SOL     OW19867   2.840   2.969   1.229
 6323SOL    HW119868   2.807   3.062   1.245
 6323SOL    HW219869   2.933   2.961   1.265
 6324SOL     OW19870   4.663   1.407   1.001
 6324SOL    HW119871   4.585   1.396   0.939
 6324SOL    HW219872   4.639   1.471   1.074
 6325SOL     OW19873   1.887   2.792   2.388
 6325SOL    HW119874   1.974   2.761   2.348
 6325SOL    HW219875   1.870   2.887   2.360
 6326SOL     OW19876   4.596   4.671   5.634
 6326SOL    HW119877   4.672   4.724   5.672
 6326SOL    HW219878   4.631   4.585   5.596
 6327SOL     OW19879   0.285   1.808   3.765
 6327SOL    HW119880   0.371   1.852   3.738
 6327SOL    HW219881   0.284   1.795   3.864
 6328SOL     OW19882   5.132   4.312   6.258
 6328SOL    HW119883   5.163   4.405   6.238
 6328SOL    HW219884   5.189   4.273   6.330
 6329SOL     OW19885   1.157   3.006   5.036
 6329SOL    HW119886   1.187   2.920   4.996
 6329SOL    HW219887   1.180   3.007   5.134
 6330SOL     OW19888   5.828   0.659   3.456
 6330SOL    HW119889   5.769   0.732   3.422
 6330SOL    HW219890   5.817   0.650   3.555
 6331SOL     OW19891   6.348   2.870   5.069
 6331SOL    HW119892   6.292   2.802   5.116
 6331SOL    HW219893   6.295   2.911   4.995
 6332SOL     OW19894   1.878   1.571   1.489
 6332SOL    HW119895   1.955   1.609   1.540
 6332SOL    HW219896   1.851   1.634   1.417
 6333SOL     OW19897   4.854   0.102   0.410
 6333SOL    HW119898   4.798   0.141   0.337
 6333SOL    HW219899   4.858   0.166   0.487
 6334SOL     OW19900   2.577   1.873   1.708
 6334SOL    HW119901   2.654   1.935   1.695
 6334SOL    HW219902   2.602   1.804   1.776
 6335SOL     OW19903   5.484   0.980   1.005
 6335SOL    HW119904   5.464   1.058   0.946
 6335SOL    HW219905   5.465   1.005   1.100
 6336SOL     OW19906   6.885   4.655   6.123
 6336SOL    HW119907   6.851   4.613   6.038
 6336SOL    HW219908   6.924   4.584   6.182
 6337SOL     OW19909   4.356   5.682   4.803
 6337SOL    HW119910   4.356   5.745   4.725
 6337SOL    HW219911   4.450   5.661   4.829
 6338SOL     OW19912   3.123   2.146   4.311
 6338SOL    HW119913   3.221   2.124   4.311
 6338SOL    HW219914   3.086   2.129   4.219
 6339SOL     OW19915   0.861   3.117   2.660
 6339SOL    HW119916   0.765   3.112   2.631
 6339SOL    HW219917   0.912   3.178   2.599
 6340SOL     OW19918   2.824   3.827   1.355
 6340SOL    HW119919   2.830   3.739   1.402
 6340SOL    HW219920   2.905   3.881   1.377
 6341SOL     OW19921   1.161   3.439   3.371
 6341SOL    HW119922   1.210   3.495   3.437
 6341SOL    HW219923   1.170   3.479   3.280
 6342SOL     OW19924   2.492   1.066   1.499
 6342SOL    HW119925   2.433   1.082   1.419
 6342SOL    HW219926   2.537   1.151   1.525
 6343SOL     OW19927   3.479   6.454   0.265
 6343SOL    HW119928   3.431   6.374   0.227
 6343SOL    HW219929   3.420   6.499   0.331
 6344SOL     OW19930   6.005   2.749   4.157
 6344SOL    HW119931   5.988   2.675   4.222
 6344SOL    HW219932   6.013   2.712   4.065
 6345SOL     OW19933   5.009   3.381   2.122
 6345SOL    HW119934   5.108   3.390   2.110
 6345SOL    HW219935   4.962   3.446   2.062
 6346SOL     OW19936   0.051   4.104   5.467
 6346SOL    HW119937   0.059   4.005   5.470
 6346SOL    HW219938   6.987   4.130   5.428
 6347SOL     OW19939   2.692   2.383   2.435
 6347SOL    HW119940   2.624   2.314   2.411
 6347SOL    HW219941   2.779   2.360   2.392
 6348SOL     OW19942   0.303   1.864   5.868
 6348SOL    HW119943   0.227   1.812   5.830
 6348SOL    HW219944   0.374   1.874   5.798
 6349SOL     OW19945   1.518   0.245   0.098
 6349SOL    HW119946   1.454   0.171   0.121
 6349SOL    HW219947   1.561   0.226   0.010
 6350SOL     OW19948   0.901   5.037   2.908
 6350SOL    HW119949   0.858   4.946   2.903
 6350SOL    HW219950   0.875   5.081   2.993
 6351SOL     OW19951   6.344   4.371   3.682
 6351SOL    HW119952   6.314   4.380   3.587
 6351SOL    HW219953   6.332   4.277   3.712
 6352SOL     OW19954   2.478   0.459   4.337
 6352SOL    HW119955   2.521   0.539   4.296
 6352SOL    HW219956   2.393   0.438   4.289
 6353SOL     OW19957   2.464   5.115   0.063
 6353SOL    HW119958   2.400   5.100   7.012
 6353SOL    HW219959   2.441   5.053   0.138
 6354SOL     OW19960   4.993   5.152   2.856
 6354SOL    HW119961   5.016   5.068   2.905
 6354SOL    HW219962   4.902   5.144   2.817
 6355SOL     OW19963   2.832   5.351   0.733
 6355SOL    HW119964   2.803   5.377   0.640
 6355SOL    HW219965   2.930   5.367   0.743
 6356SOL     OW19966   5.067   5.009   6.964
 6356SOL    HW119967   5.044   4.961   6.879
 6356SOL    HW219968   5.154   4.974   6.999
 6357SOL     OW19969   5.746   1.881   1.204
 6357SOL    HW119970   5.658   1.885   1.156
 6357SOL    HW219971   5.740   1.934   1.289
 6358SOL     OW19972   0.546   1.610   6.660
 6358SOL    HW119973   0.471   1.574   6.606
 6358SOL    HW219974   0.589   1.686   6.612
 6359SOL     OW19975   6.386   6.788   0.617
 6359SOL    HW119976   6.332   6.718   0.571
 6359SOL    HW219977   6.388   6.769   0.715
 6360SOL     OW19978   6.958   2.503   3.601
 6360SOL    HW119979   6.860   2.520   3.593
 6360SOL    HW219980   7.003   2.586   3.635
 6361SOL     OW19981   0.455   0.701   0.286
 6361SOL    HW119982   0.473   0.797   0.264
 6361SOL    HW219983   0.357   0.683   0.280
 6362SOL     OW19984   0.985   6.342   6.657
 6362SOL    HW119985   0.961   6.432   6.620
 6362SOL    HW219986   1.001   6.278   6.582
 6363SOL     OW19987   2.656   5.337   3.481
 6363SOL    HW119988   2.726   5.376   3.541
 6363SOL    HW219989   2.692   5.254   3.438
 6364SOL     OW19990   2.080   2.277   4.988
 6364SOL    HW119991   2.086   2.269   5.087
 6364SOL    HW219992   2.005   2.338   4.963
 6365SOL     OW19993   6.064   5.686   4.742
 6365SOL    HW119994   6.134   5.715   4.677
 6365SOL    HW219995   5.975   5.680   4.696
 6366SOL     OW19996   6.130   6.523   4.365
 6366SOL    HW119997   6.128   6.443   4.425
 6366SOL    HW219998   6.162   6.603   4.417
 6367SOL     OW19999   2.997   1.768   2.807
 6367SOL    HW120000   3.017   1.764   2.905
 6367SOL    HW220001   2.927   1.837   2.790
 6368SOL     OW20002   4.606   4.407   4.026
 6368SOL    HW120003   4.543   4.469   4.071
 6368SOL    HW220004   4.656   4.354   4.095
 6369SOL     OW20005   2.487   5.849   5.881
 6369SOL    HW120006   2.585   5.868   5.880
 6369SOL    HW220007   2.470   5.756   5.848
 6370SOL     OW20008   5.164   3.713   3.316
 6370SOL    HW120009   5.224   3.633   3.324
 6370SOL    HW220010   5.074   3.690   3.353
 6371SOL     OW20011   5.466   3.958   2.050
 6371SOL    HW120012   5.400   3.887   2.074
 6371SOL    HW220013   5.497   3.945   1.956
 6372SOL     OW20014   0.426   1.010   2.821
 6372SOL    HW120015   0.393   0.955   2.743
 6372SOL    HW220016   0.508   0.967   2.859
 6373SOL     OW20017   5.480   4.153   1.598
 6373SOL    HW120018   5.517   4.234   1.552
 6373SOL    HW220019   5.382   4.147   1.581
 6374SOL     OW20020   4.486   3.089   0.289
 6374SOL    HW120021   4.540   3.164   0.328
 6374SOL    HW220022   4.539   3.042   0.219
 6375SOL     OW20023   0.632   2.597   2.275
 6375SOL    HW120024   0.723   2.597   2.234
 6375SOL    HW220025   0.597   2.503   2.280
 6376SOL     OW20026   4.370   0.784   5.774
 6376SOL    HW120027   4.466   0.811   5.785
 6376SOL    HW220028   4.320   0.806   5.857
 6377SOL     OW20029   6.708   0.665   6.300
 6377SOL    HW120030   6.718   0.744   6.360
 6377SOL    HW220031   6.799   0.633   6.272
 6378SOL     OW20032   4.983   5.690   2.847
 6378SOL    HW120033   4.898   5.673   2.897
 6378SOL    HW220034   5.048   5.616   2.864
 6379SOL     OW20035   1.773   5.254   6.016
 6379SOL    HW120036   1.807   5.201   5.938
 6379SOL    HW220037   1.834   5.331   6.034
 6380SOL     OW20038   0.658   3.427   4.566
 6380SOL    HW120039   0.730   3.433   4.635
 6380SOL    HW220040   0.569   3.439   4.610
 6381SOL     OW20041   3.890   3.065   0.620
 6381SOL    HW120042   3.915   3.160   0.601
 6381SOL    HW220043   3.967   3.006   0.597
 6382SOL     OW20044   2.787   1.950   1.327
 6382SOL    HW120045   2.787   1.870   1.387
 6382SOL    HW220046   2.755   1.923   1.236
 6383SOL     OW20047   1.851   2.861   2.664
 6383SOL    HW120048   1.848   2.955   2.698
 6383SOL    HW220049   1.891   2.860   2.573
 6384SOL     OW20050   5.864   2.496   2.282
 6384SOL    HW120051   5.786   2.454   2.236
 6384SOL    HW220052   5.937   2.513   2.216
 6385SOL     OW20053   6.778   3.893   0.912
 6385SOL    HW120054   6.693   3.943   0.896
 6385SOL    HW220055   6.834   3.943   0.977
 6386SOL     OW20056   1.976   3.939   0.290
 6386SOL    HW120057   2.020   3.923   0.378
 6386SOL    HW220058   1.989   4.035   0.263
 6387SOL     OW20059   6.212   1.226   0.243
 6387SOL    HW120060   6.222   1.297   0.173
 6387SOL    HW220061   6.115   1.202   0.252
 6388SOL     OW20062   6.633   4.970   2.625
 6388SOL    HW120063   6.597   5.033   2.556
 6388SOL    HW220064   6.697   4.906   2.583
 6389SOL     OW20065   1.558   6.904   0.125
 6389SOL    HW120066   1.625   6.951   0.183
 6389SOL    HW220067   1.552   6.950   0.037
 6390SOL     OW20068   6.308   0.340   0.407
 6390SOL    HW120069   6.237   0.365   0.341
 6390SOL    HW220070   6.366   0.419   0.424
 6391SOL     OW20071   0.970   0.862   5.664
 6391SOL    HW120072   1.042   0.897   5.724
 6391SOL    HW220073   0.922   0.938   5.621
 6392SOL     OW20074   3.835   5.906   3.362
 6392SOL    HW120075   3.837   5.811   3.332
 6392SOL    HW220076   3.817   5.965   3.283
 6393SOL     OW20077   5.625   6.755   1.673
 6393SOL    HW120078   5.542   6.764   1.729
 6393SOL    HW220079   5.706   6.764   1.732
 6394SOL     OW20080   0.945   5.008   0.757
 6394SOL    HW120081   0.933   5.106   0.774
 6394SOL    HW220082   0.855   4.964   0.755
 6395SOL     OW20083   0.229   3.882   2.941
 6395SOL    HW120084   0.187   3.963   2.981
 6395SOL    HW220085   0.158   3.817   2.913
 6396SOL     OW20086   6.906   3.314   6.652
 6396SOL    HW120087   6.965   3.318   6.571
 6396SOL    HW220088   6.939   3.243   6.714
 6397SOL     OW20089   6.173   1.958   3.108
 6397SOL    HW120090   6.233   1.936   3.031
 6397SOL    HW220091   6.080   1.930   3.086
 6398SOL     OW20092   1.519   6.334   1.506
 6398SOL    HW120093   1.608   6.290   1.500
 6398SOL    HW220094   1.450   6.265   1.528
 6399SOL     OW20095   1.845   0.138   6.740
 6399SOL    HW120096   1.896   0.119   6.656
 6399SOL    HW220097   1.756   0.176   6.717
 6400SOL     OW20098   1.692   6.015   3.168
 6400SOL    HW120099   1.759   6.002   3.240
 6400SOL    HW220100   1.603   6.036   3.208
 6401SOL     OW20101   4.259   4.705   3.082
 6401SOL    HW120102   4.346   4.754   3.083
 6401SOL    HW220103   4.216   4.715   2.993
 6402SOL     OW20104   1.276   3.645   3.538
 6402SOL    HW120105   1.263   3.702   3.457
 6402SOL    HW220106   1.355   3.679   3.590
 6403SOL     OW20107   5.730   6.427   4.897
 6403SOL    HW120108   5.806   6.406   4.958
 6403SOL    HW220109   5.684   6.510   4.927
 6404SOL     OW20110   3.519   0.870   2.650
 6404SOL    HW120111   3.573   0.817   2.585
 6404SOL    HW220112   3.466   0.939   2.600
 6405SOL     OW20113   5.157   1.626   3.479
 6405SOL    HW120114   5.227   1.584   3.537
 6405SOL    HW220115   5.086   1.667   3.537
 6406SOL     OW20116   0.902   2.637   2.709
 6406SOL    HW120117   0.885   2.563   2.774
 6406SOL    HW220118   0.873   2.724   2.750
 6407SOL     OW20119   1.983   6.441   3.442
 6407SOL    HW120120   1.953   6.484   3.527
 6407SOL    HW220121   1.996   6.511   3.372
 6408SOL     OW20122   0.261   0.795   1.368
 6408SOL    HW120123   0.211   0.857   1.429
 6408SOL    HW220124   0.285   0.843   1.284
 6409SOL     OW20125   6.337   4.869   3.858
 6409SOL    HW120126   6.300   4.783   3.822
 6409SOL    HW220127   6.287   4.896   3.939
 6410SOL     OW20128   2.397   1.348   5.709
 6410SOL    HW120129   2.378   1.406   5.630
 6410SOL    HW220130   2.490   1.312   5.703
 6411SOL     OW20131   0.152   3.110   1.758
 6411SOL    HW120132   0.128   3.059   1.676
 6411SOL    HW220133   0.241   3.154   1.745
 6412SOL     OW20134   3.250   0.900   7.013
 6412SOL    HW120135   3.322   0.855   0.041
 6412SOL    HW220136   3.221   0.842   6.938
 6413SOL     OW20137   4.324   5.087   4.457
 6413SOL    HW120138   4.233   5.102   4.419
 6413SOL    HW220139   4.317   5.072   4.556
 6414SOL     OW20140   0.633   6.655   6.859
 6414SOL    HW120141   0.624   6.601   6.776
 6414SOL    HW220142   0.543   6.667   6.901
 6415SOL     OW20143   1.239   3.546   2.692
 6415SOL    HW120144   1.182   3.623   2.722
 6415SOL    HW220145   1.330   3.555   2.731
 6416SOL     OW20146   3.066   0.060   6.661
 6416SOL    HW120147   3.005   7.011   6.633
 6416SOL    HW220148   3.052   0.138   6.601
 6417SOL     OW20149   4.886   2.180   0.889
 6417SOL    HW120150   4.872   2.268   0.933
 6417SOL    HW220151   4.978   2.175   0.850
 6418SOL     OW20152   4.708   4.555   1.896
 6418SOL    HW120153   4.627   4.610   1.875
 6418SOL    HW220154   4.682   4.480   1.957
 6419SOL     OW20155   0.985   6.899   6.422
 6419SOL    HW120156   1.052   6.829   6.396
 6419SOL    HW220157   0.937   6.931   6.340
 6420SOL     OW20158   1.444   2.600   4.035
 6420SOL    HW120159   1.538   2.626   4.059
 6420SOL    HW220160   1.385   2.608   4.116
 6421SOL     OW20161   5.643   0.673   1.459
 6421SOL    HW120162   5.700   0.640   1.534
 6421SOL    HW220163   5.691   0.660   1.372
 6422SOL     OW20164   0.113   2.329   5.538
 6422SOL    HW120165   0.105   2.245   5.484
 6422SOL    HW220166   0.115   2.408   5.477
 6423SOL     OW20167   2.950   5.878   4.345
 6423SOL    HW120168   2.998   5.800   4.385
 6423SOL    HW220169   3.016   5.938   4.299
 6424SOL     OW20170   0.294   3.322   4.683
 6424SOL    HW120171   0.324   3.352   4.592
 6424SOL    HW220172   0.317   3.225   4.695
 6425SOL     OW20173   0.027   5.682   2.471
 6425SOL    HW120174   6.977   5.739   2.504
 6425SOL    HW220175   0.046   5.703   2.375
 6426SOL     OW20176   4.657   4.916   4.560
 6426SOL    HW120177   4.572   4.887   4.514
 6426SOL    HW220178   4.671   4.860   4.642
 6427SOL     OW20179   2.963   3.767   2.760
 6427SOL    HW120180   2.911   3.735   2.839
 6427SOL    HW220181   2.926   3.728   2.676
 6428SOL     OW20182   5.152   2.164   0.803
 6428SOL    HW120183   5.172   2.127   0.713
 6428SOL    HW220184   5.189   2.257   0.810
 6429SOL     OW20185   2.014   0.981   5.290
 6429SOL    HW120186   1.941   0.946   5.231
 6429SOL    HW220187   2.081   0.909   5.307
 6430SOL     OW20188   0.030   0.696   5.460
 6430SOL    HW120189   0.093   0.619   5.472
 6430SOL    HW220190   6.968   0.675   5.503
 6431SOL     OW20191   4.644   5.375   3.267
 6431SOL    HW120192   4.593   5.400   3.185
 6431SOL    HW220193   4.699   5.293   3.248
 6432SOL     OW20194   3.452   3.886   6.563
 6432SOL    HW120195   3.382   3.814   6.571
 6432SOL    HW220196   3.535   3.856   6.610
 6433SOL     OW20197   3.004   5.392   6.911
 6433SOL    HW120198   3.006   5.468   6.976
 6433SOL    HW220199   3.071   5.407   6.839
 6434SOL     OW20200   2.981   6.163   6.267
 6434SOL    HW120201   3.005   6.067   6.255
 6434SOL    HW220202   2.944   6.199   6.181
 6435SOL     OW20203   6.046   0.018   0.832
 6435SOL    HW120204   6.118   0.007   0.763
 6435SOL    HW220205   6.061   0.102   0.884
 6436SOL     OW20206   0.690   3.544   3.442
 6436SOL    HW120207   0.741   3.463   3.469
 6436SOL    HW220208   0.739   3.626   3.472
 6437SOL     OW20209   0.629   1.759   5.234
 6437SOL    HW120210   0.688   1.764   5.314
 6437SOL    HW220211   0.679   1.794   5.154
 6438SOL     OW20212   0.839   5.436   6.453
 6438SOL    HW120213   0.753   5.487   6.460
 6438SOL    HW220214   0.824   5.353   6.399
 6439SOL     OW20215   6.832   0.632   3.620
 6439SOL    HW120216   6.892   0.706   3.591
 6439SOL    HW220217   6.876   0.580   3.694
 6440SOL     OW20218   2.213   0.539   6.572
 6440SOL    HW120219   2.308   0.551   6.544
 6440SOL    HW220220   2.209   0.521   6.670
 6441SOL     OW20221   0.092   0.733   3.069
 6441SOL    HW120222   0.008   0.688   3.101
 6441SOL    HW220223   0.170   0.689   3.112
 6442SOL     OW20224   2.440   2.233   4.877
 6442SOL    HW120225   2.358   2.181   4.853
 6442SOL    HW220226   2.436   2.261   4.973
 6443SOL     OW20227   3.915   2.094   0.332
 6443SOL    HW120228   4.007   2.131   0.325
 6443SOL    HW220229   3.855   2.161   0.376
 6444SOL     OW20230   0.128   2.548   5.366
 6444SOL    HW120231   0.105   2.611   5.440
 6444SOL    HW220232   0.088   2.581   5.281
 6445SOL     OW20233   3.126   3.543   3.431
 6445SOL    HW120234   3.166   3.571   3.519
 6445SOL    HW220235   3.181   3.471   3.391
 6446SOL     OW20236   1.679   1.966   6.440
 6446SOL    HW120237   1.620   1.933   6.514
 6446SOL    HW220238   1.766   1.918   6.443
 6447SOL     OW20239   6.802   4.336   1.444
 6447SOL    HW120240   6.784   4.404   1.515
 6447SOL    HW220241   6.901   4.322   1.436
 6448SOL     OW20242   4.824   5.346   1.547
 6448SOL    HW120243   4.774   5.264   1.522
 6448SOL    HW220244   4.760   5.416   1.579
 6449SOL     OW20245   2.177   6.004   1.179
 6449SOL    HW120246   2.132   6.034   1.263
 6449SOL    HW220247   2.272   5.980   1.199
 6450SOL     OW20248   0.311   4.089   0.738
 6450SOL    HW120249   0.383   4.071   0.805
 6450SOL    HW220250   0.221   4.074   0.780
 6451SOL     OW20251   3.560   1.823   6.959
 6451SOL    HW120252   3.525   1.911   6.991
 6451SOL    HW220253   3.574   1.761   0.011
 6452SOL     OW20254   5.278   3.436   2.570
 6452SOL    HW120255   5.306   3.528   2.541
 6452SOL    HW220256   5.330   3.410   2.651
 6453SOL     OW20257   3.449   0.008   0.563
 6453SOL    HW120258   3.403   0.056   0.489
 6453SOL    HW220259   3.494   0.076   0.622
 6454SOL     OW20260   6.859   1.713   2.608
 6454SOL    HW120261   6.801   1.637   2.639
 6454SOL    HW220262   6.936   1.724   2.670
 6455SOL     OW20263   6.387   4.695   2.923
 6455SOL    HW120264   6.468   4.658   2.878
 6455SOL    HW220265   6.337   4.621   2.969
 6456SOL     OW20266   0.882   1.018   2.843
 6456SOL    HW120267   0.885   1.109   2.801
 6456SOL    HW220268   0.792   1.003   2.884
 6457SOL     OW20269   5.191   0.035   1.560
 6457SOL    HW120270   5.247   0.003   1.484
 6457SOL    HW220271   5.250   0.068   1.634
 6458SOL     OW20272   1.168   5.137   4.185
 6458SOL    HW120273   1.233   5.170   4.254
 6458SOL    HW220274   1.159   5.037   4.193
 6459SOL     OW20275   6.308   2.766   2.804
 6459SOL    HW120276   6.396   2.776   2.757
 6459SOL    HW220277   6.317   2.704   2.881
 6460SOL     OW20278   6.464   5.371   5.334
 6460SOL    HW120279   6.540   5.346   5.274
 6460SOL    HW220280   6.405   5.292   5.347
 6461SOL     OW20281   3.496   4.337   0.546
 6461SOL    HW120282   3.580   4.363   0.593
 6461SOL    HW220283   3.443   4.419   0.524
 6462SOL     OW20284   1.895   3.864   4.430
 6462SOL    HW120285   1.871   3.884   4.335
 6462SOL    HW220286   1.992   3.837   4.434
 6463SOL     OW20287   5.503   0.305   0.723
 6463SOL    HW120288   5.589   0.257   0.746
 6463SOL    HW220289   5.464   0.343   0.807
 6464SOL     OW20290   1.203   6.375   5.026
 6464SOL    HW120291   1.248   6.344   5.110
 6464SOL    HW220292   1.143   6.302   4.992
 6465SOL     OW20293   5.645   2.391   2.150
 6465SOL    HW120294   5.610   2.351   2.065
 6465SOL    HW220295   5.569   2.412   2.211
 6466SOL     OW20296   6.627   2.660   6.423
 6466SOL    HW120297   6.668   2.725   6.487
 6466SOL    HW220298   6.631   2.568   6.462
 6467SOL     OW20299   3.414   1.149   0.812
 6467SOL    HW120300   3.413   1.134   0.911
 6467SOL    HW220301   3.489   1.097   0.771
 6468SOL     OW20302   4.161   6.092   0.632
 6468SOL    HW120303   4.074   6.088   0.583
 6468SOL    HW220304   4.184   6.188   0.651
 6469SOL     OW20305   3.072   2.085   4.042
 6469SOL    HW120306   3.167   2.077   4.011
 6469SOL    HW220307   3.017   2.124   3.968
 6470SOL     OW20308   6.581   2.306   0.532
 6470SOL    HW120309   6.506   2.310   0.598
 6470SOL    HW220310   6.565   2.232   0.466
 6471SOL     OW20311   0.738   6.694   4.985
 6471SOL    HW120312   0.669   6.704   5.057
 6471SOL    HW220313   0.803   6.623   5.010
 6472SOL     OW20314   6.669   6.536   2.525
 6472SOL    HW120315   6.681   6.533   2.426
 6472SOL    HW220316   6.703   6.452   2.566
 6473SOL     OW20317   1.893   1.607   4.161
 6473SOL    HW120318   1.855   1.605   4.068
 6473SOL    HW220319   1.966   1.676   4.165
 6474SOL     OW20320   4.288   5.367   5.446
 6474SOL    HW120321   4.317   5.291   5.504
 6474SOL    HW220322   4.259   5.443   5.504
 6475SOL     OW20323   5.513   5.121   3.461
 6475SOL    HW120324   5.572   5.197   3.433
 6475SOL    HW220325   5.491   5.129   3.558
 6476SOL     OW20326   3.762   2.293   6.744
 6476SOL    HW120327   3.780   2.350   6.824
 6476SOL    HW220328   3.676   2.322   6.702
 6477SOL     OW20329   6.636   5.409   0.889
 6477SOL    HW120330   6.706   5.347   0.925
 6477SOL    HW220331   6.546   5.376   0.917
 6478SOL     OW20332   2.566   6.092   1.821
 6478SOL    HW120333   2.611   6.009   1.789
 6478SOL    HW220334   2.514   6.071   1.904
 6479SOL     OW20335   3.268   5.815   4.504
 6479SOL    HW120336   3.255   5.897   4.447
 6479SOL    HW220337   3.350   5.826   4.559
 6480SOL     OW20338   2.139   0.861   0.075
 6480SOL    HW120339   2.199   0.846   0.154
 6480SOL    HW220340   2.062   0.919   0.103
 6481SOL     OW20341   3.141   2.306   1.717
 6481SOL    HW120342   3.237   2.318   1.742
 6481SOL    HW220343   3.083   2.355   1.782
 6482SOL     OW20344   6.939   2.329   5.898
 6482SOL    HW120345   6.875   2.308   5.972
 6482SOL    HW220346   6.894   2.389   5.831
 6483SOL     OW20347   1.115   5.702   4.235
 6483SOL    HW120348   1.047   5.774   4.243
 6483SOL    HW220349   1.105   5.656   4.147
 6484SOL     OW20350   2.952   1.341   2.646
 6484SOL    HW120351   3.047   1.313   2.661
 6484SOL    HW220352   2.950   1.432   2.603
 6485SOL     OW20353   2.036   6.502   4.957
 6485SOL    HW120354   2.000   6.467   4.871
 6485SOL    HW220355   2.129   6.537   4.943
 6486SOL     OW20356   0.605   4.787   2.730
 6486SOL    HW120357   0.517   4.772   2.774
 6486SOL    HW220358   0.594   4.847   2.650
 6487SOL     OW20359   1.321   5.260   4.380
 6487SOL    HW120360   1.281   5.351   4.369
 6487SOL    HW220361   1.309   5.230   4.474
 6488SOL     OW20362   4.724   5.624   5.084
 6488SOL    HW120363   4.744   5.618   4.987
 6488SOL    HW220364   4.631   5.659   5.097
 6489SOL     OW20365   3.487   2.982   6.077
 6489SOL    HW120366   3.494   2.999   5.978
 6489SOL    HW220367   3.568   3.019   6.123
 6490SOL     OW20368   2.231   1.950   6.716
 6490SOL    HW120369   2.324   1.932   6.748
 6490SOL    HW220370   2.185   1.863   6.698
 6491SOL     OW20371   2.309   7.021   1.221
 6491SOL    HW120372   2.331   0.033   1.311
 6491SOL    HW220373   2.230   0.045   1.183
 6492SOL     OW20374   3.343   4.123   4.268
 6492SOL    HW120375   3.415   4.156   4.207
 6492SOL    HW220376   3.376   4.126   4.362
 6493SOL     OW20377   1.242   4.640   6.503
 6493SOL    HW120378   1.170   4.571   6.487
 6493SOL    HW220379   1.317   4.624   6.439
 6494SOL     OW20380   5.954   6.503   2.413
 6494SOL    HW120381   5.919   6.409   2.411
 6494SOL    HW220382   5.983   6.526   2.506
 6495SOL     OW20383   6.497   0.046   4.810
 6495SOL    HW120384   6.442   0.066   4.728
 6495SOL    HW220385   6.474   0.112   4.881
 6496SOL     OW20386   4.773   6.742   1.415
 6496SOL    HW120387   4.792   6.689   1.498
 6496SOL    HW220388   4.850   6.802   1.395
 6497SOL     OW20389   0.550   1.730   1.088
 6497SOL    HW120390   0.561   1.650   1.029
 6497SOL    HW220391   0.509   1.702   1.175
 6498SOL     OW20392   1.061   4.232   4.180
 6498SOL    HW120393   1.125   4.198   4.248
 6498SOL    HW220394   1.074   4.183   4.094
 6499SOL     OW20395   5.494   3.923   4.204
 6499SOL    HW120396   5.494   3.823   4.200
 6499SOL    HW220397   5.421   3.959   4.147
 6500SOL     OW20398   0.605   3.656   2.234
 6500SOL    HW120399   0.539   3.617   2.170
 6500SOL    HW220400   0.648   3.583   2.287
 6501SOL     OW20401   0.251   1.658   1.067
 6501SOL    HW120402   0.293   1.747   1.050
 6501SOL    HW220403   0.291   1.590   1.006
 6502SOL     OW20404   6.557   3.674   1.554
 6502SOL    HW120405   6.514   3.764   1.556
 6502SOL    HW220406   6.495   3.608   1.511
 6503SOL     OW20407   6.612   2.192   5.455
 6503SOL    HW120408   6.607   2.100   5.416
 6503SOL    HW220409   6.648   2.187   5.548
 6504SOL     OW20410   4.846   6.518   6.734
 6504SOL    HW120411   4.913   6.592   6.723
 6504SOL    HW220412   4.805   6.524   6.825
 6505SOL     OW20413   5.706   6.812   0.103
 6505SOL    HW120414   5.780   6.825   0.169
 6505SOL    HW220415   5.640   6.886   0.112
 6506SOL     OW20416   0.008   3.603   3.709
 6506SOL    HW120417   6.943   3.588   3.752
 6506SOL    HW220418   0.016   3.544   3.629
 6507SOL     OW20419   3.385   5.513   6.502
 6507SOL    HW120420   3.359   5.582   6.434
 6507SOL    HW220421   3.407   5.427   6.455
 6508SOL     OW20422   1.755   6.565   2.492
 6508SOL    HW120423   1.714   6.474   2.482
 6508SOL    HW220424   1.689   6.635   2.465
 6509SOL     OW20425   3.919   1.185   5.072
 6509SOL    HW120426   3.916   1.264   5.011
 6509SOL    HW220427   3.844   1.123   5.050
 6510SOL     OW20428   4.750   6.442   6.319
 6510SOL    HW120429   4.663   6.477   6.352
 6510SOL    HW220430   4.742   6.419   6.222
 6511SOL     OW20431   3.875   0.876   5.893
 6511SOL    HW120432   3.878   0.783   5.930
 6511SOL    HW220433   3.949   0.887   5.826
 6512SOL     OW20434   2.812   6.929   2.488
 6512SOL    HW120435   2.775   6.845   2.527
 6512SOL    HW220436   2.887   6.961   2.545
 6513SOL     OW20437   2.695   5.716   4.476
 6513SOL    HW120438   2.650   5.719   4.565
 6513SOL    HW220439   2.679   5.803   4.428
 6514SOL     OW20440   5.910   0.475   5.393
 6514SOL    HW120441   5.821   0.520   5.394
 6514SOL    HW220442   5.980   0.540   5.421
 6515SOL     OW20443   2.208   4.594   2.364
 6515SOL    HW120444   2.215   4.523   2.294
 6515SOL    HW220445   2.225   4.683   2.323
 6516SOL     OW20446   6.889   3.155   1.866
 6516SOL    HW120447   6.834   3.183   1.788
 6516SOL    HW220448   6.979   3.125   1.835
 6517SOL     OW20449   6.897   1.961   1.010
 6517SOL    HW120450   6.944   2.047   1.029
 6517SOL    HW220451   6.801   1.970   1.034
 6518SOL     OW20452   6.649   0.966   2.302
 6518SOL    HW120453   6.663   0.961   2.401
 6518SOL    HW220454   6.736   0.950   2.255
 6519SOL     OW20455   0.617   0.559   2.735
 6519SOL    HW120456   0.556   0.525   2.806
 6519SOL    HW220457   0.564   0.591   2.657
 6520SOL     OW20458   0.248   5.927   0.028
 6520SOL    HW120459   0.342   5.902   0.004
 6520SOL    HW220460   0.185   5.892   6.984
 6521SOL     OW20461   1.703   2.930   2.995
 6521SOL    HW120462   1.636   2.924   3.068
 6521SOL    HW220463   1.667   2.986   2.920
 6522SOL     OW20464   2.754   4.382   5.555
 6522SOL    HW120465   2.660   4.405   5.529
 6522SOL    HW220466   2.755   4.298   5.608
 6523SOL     OW20467   5.553   0.002   0.224
 6523SOL    HW120468   5.595   7.003   0.311
 6523SOL    HW220469   5.454   0.011   0.236
 6524SOL     OW20470   2.789   2.531   1.707
 6524SOL    HW120471   2.847   2.480   1.771
 6524SOL    HW220472   2.825   2.624   1.698
 6525SOL     OW20473   1.969   5.210   3.353
 6525SOL    HW120474   1.878   5.248   3.370
 6525SOL    HW220475   1.987   5.211   3.255
 6526SOL     OW20476   0.275   6.932   1.288
 6526SOL    HW120477   0.317   7.002   1.230
 6526SOL    HW220478   0.217   6.873   1.232
 6527SOL     OW20479   0.571   2.283   0.512
 6527SOL    HW120480   0.578   2.215   0.585
 6527SOL    HW220481   0.477   2.317   0.507
 6528SOL     OW20482   6.828   1.519   6.311
 6528SOL    HW120483   6.758   1.556   6.372
 6528SOL    HW220484   6.869   1.438   6.354
 6529SOL     OW20485   0.355   0.551   2.594
 6529SOL    HW120486   0.320   0.629   2.647
 6529SOL    HW220487   0.279   0.496   2.561
 6530SOL     OW20488   0.756   1.825   2.091
 6530SOL    HW120489   0.840   1.864   2.054
 6530SOL    HW220490   0.774   1.731   2.121
 6531SOL     OW20491   4.149   3.303   5.603
 6531SOL    HW120492   4.210   3.381   5.616
 6531SOL    HW220493   4.086   3.322   5.527
 6532SOL     OW20494   1.840   1.201   0.307
 6532SOL    HW120495   1.833   1.284   0.252
 6532SOL    HW220496   1.842   1.224   0.404
 6533SOL     OW20497   4.442   5.877   0.268
 6533SOL    HW120498   4.507   5.926   0.210
 6533SOL    HW220499   4.447   5.912   0.362
 6534SOL     OW20500   5.023   5.086   1.829
 6534SOL    HW120501   5.067   5.122   1.911
 6534SOL    HW220502   5.043   4.988   1.821
 6535SOL     OW20503   5.871   3.973   4.464
 6535SOL    HW120504   5.820   3.984   4.549
 6535SOL    HW220505   5.960   4.018   4.473
 6536SOL     OW20506   0.411   2.300   5.121
 6536SOL    HW120507   0.331   2.300   5.060
 6536SOL    HW220508   0.411   2.216   5.176
 6537SOL     OW20509   6.590   4.597   4.669
 6537SOL    HW120510   6.567   4.692   4.651
 6537SOL    HW220511   6.614   4.586   4.765
 6538SOL     OW20512   1.888   3.528   5.614
 6538SOL    HW120513   1.885   3.623   5.645
 6538SOL    HW220514   1.947   3.522   5.534
 6539SOL     OW20515   5.074   0.729   0.026
 6539SOL    HW120516   5.061   0.769   0.117
 6539SOL    HW220517   5.042   0.792   6.981
 6540SOL     OW20518   2.184   3.196   6.116
 6540SOL    HW120519   2.203   3.192   6.018
 6540SOL    HW220520   2.185   3.104   6.155
 6541SOL     OW20521   5.247   2.363   5.751
 6541SOL    HW120522   5.155   2.401   5.743
 6541SOL    HW220523   5.244   2.280   5.807
 6542SOL     OW20524   1.004   3.411   4.538
 6542SOL    HW120525   0.951   3.410   4.623
 6542SOL    HW220526   1.098   3.383   4.558
 6543SOL     OW20527   3.642   2.482   5.370
 6543SOL    HW120528   3.663   2.408   5.434
 6543SOL    HW220529   3.544   2.498   5.368
 6544SOL     OW20530   0.541   6.452   2.246
 6544SOL    HW120531   0.614   6.430   2.311
 6544SOL    HW220532   0.573   6.434   2.153
 6545SOL     OW20533   3.792   6.876   0.784
 6545SOL    HW120534   3.821   6.847   0.875
 6545SOL    HW220535   3.715   6.820   0.754
 6546SOL     OW20536   3.938   4.732   6.806
 6546SOL    HW120537   3.891   4.646   6.826
 6546SOL    HW220538   4.024   4.735   6.856
 6547SOL     OW20539   4.783   0.193   5.611
 6547SOL    HW120540   4.854   0.140   5.657
 6547SOL    HW220541   4.758   0.148   5.526
 6548SOL     OW20542   1.142   3.046   6.401
 6548SOL    HW120543   1.233   3.004   6.407
 6548SOL    HW220544   1.145   3.137   6.443
 6549SOL     OW20545   4.720   0.068   1.950
 6549SOL    HW120546   4.715   0.140   2.019
 6549SOL    HW220547   4.637   0.069   1.895
 6550SOL     OW20548   7.004   0.344   3.785
 6550SOL    HW120549   6.947   0.359   3.867
 6550SOL    HW220550   0.075   0.343   3.811
 6551SOL     OW20551   2.622   3.207   1.550
 6551SOL    HW120552   2.605   3.202   1.451
 6551SOL    HW220553   2.585   3.293   1.585
 6552SOL     OW20554   1.980   6.862   0.518
 6552SOL    HW120555   2.009   6.773   0.554
 6552SOL    HW220556   1.941   6.917   0.592
 6553SOL     OW20557   0.601   1.291   2.895
 6553SOL    HW120558   0.665   1.323   2.965
 6553SOL    HW220559   0.650   1.235   2.828
 6554SOL     OW20560   2.828   1.216   5.552
 6554SOL    HW120561   2.776   1.202   5.636
 6554SOL    HW220562   2.798   1.150   5.483
 6555SOL     OW20563   5.891   1.860   4.038
 6555SOL    HW120564   5.845   1.775   4.014
 6555SOL    HW220565   5.963   1.841   4.106
 6556SOL     OW20566   6.420   3.183   2.323
 6556SOL    HW120567   6.321   3.188   2.340
 6556SOL    HW220568   6.459   3.275   2.332
 6557SOL     OW20569   2.060   0.496   2.104
 6557SOL    HW120570   2.137   0.434   2.118
 6557SOL    HW220571   2.008   0.503   2.189
 6558SOL     OW20572   5.619   5.091   0.108
 6558SOL    HW120573   5.675   5.169   0.133
 6558SOL    HW220574   5.630   5.072   0.010
 6559SOL     OW20575   6.772   3.551   6.349
 6559SOL    HW120576   6.744   3.635   6.303
 6559SOL    HW220577   6.830   3.573   6.427
 6560SOL     OW20578   3.848   4.900   0.691
 6560SOL    HW120579   3.945   4.914   0.674
 6560SOL    HW220580   3.795   4.917   0.608
 6561SOL     OW20581   4.148   4.856   0.934
 6561SOL    HW120582   4.196   4.914   0.869
 6561SOL    HW220583   4.119   4.772   0.889
 6562SOL     OW20584   5.367   2.638   1.147
 6562SOL    HW120585   5.392   2.543   1.163
 6562SOL    HW220586   5.424   2.698   1.203
 6563SOL     OW20587   5.087   0.505   5.969
 6563SOL    HW120588   5.098   0.433   6.037
 6563SOL    HW220589   5.003   0.490   5.916
 6564SOL     OW20590   6.483   3.860   1.867
 6564SOL    HW120591   6.505   3.767   1.896
 6564SOL    HW220592   6.538   3.885   1.788
 6565SOL     OW20593   6.204   6.484   3.142
 6565SOL    HW120594   6.286   6.501   3.088
 6565SOL    HW220595   6.213   6.528   3.231
 6566SOL     OW20596   3.156   5.416   2.307
 6566SOL    HW120597   3.141   5.472   2.389
 6566SOL    HW220598   3.162   5.320   2.333
 6567SOL     OW20599   4.083   0.430   1.739
 6567SOL    HW120600   4.084   0.336   1.772
 6567SOL    HW220601   4.176   0.458   1.716
 6568SOL     OW20602   4.254   1.780   2.727
 6568SOL    HW120603   4.252   1.707   2.658
 6568SOL    HW220604   4.267   1.739   2.817
 6569SOL     OW20605   0.741   3.175   6.162
 6569SOL    HW120606   0.648   3.195   6.131
 6569SOL    HW220607   0.802   3.168   6.083
 6570SOL     OW20608   4.253   0.933   2.623
 6570SOL    HW120609   4.214   1.024   2.606
 6570SOL    HW220610   4.180   0.872   2.656
 6571SOL     OW20611   2.395   4.840   3.187
 6571SOL    HW120612   2.331   4.912   3.212
 6571SOL    HW220613   2.465   4.877   3.126
 6572SOL     OW20614   0.866   3.792   4.077
 6572SOL    HW120615   0.879   3.832   4.168
 6572SOL    HW220616   0.896   3.696   4.078
 6573SOL     OW20617   0.949   1.299   3.738
 6573SOL    HW120618   0.868   1.241   3.748
 6573SOL    HW220619   0.978   1.300   3.643
 6574SOL     OW20620   2.474   6.880   3.445
 6574SOL    HW120621   2.551   6.916   3.393
 6574SOL    HW220622   2.468   6.927   3.533
 6575SOL     OW20623   0.458   6.814   3.226
 6575SOL    HW120624   0.392   6.814   3.301
 6575SOL    HW220625   0.411   6.786   3.141
 6576SOL     OW20626   3.318   4.928   0.447
 6576SOL    HW120627   3.415   4.909   0.435
 6576SOL    HW220628   3.273   4.930   0.358
 6577SOL     OW20629   1.876   2.163   3.379
 6577SOL    HW120630   1.826   2.249   3.392
 6577SOL    HW220631   1.857   2.128   3.287
 6578SOL     OW20632   0.685   5.971   1.644
 6578SOL    HW120633   0.719   5.897   1.587
 6578SOL    HW220634   0.724   6.058   1.612
 6579SOL     OW20635   0.012   2.018   4.213
 6579SOL    HW120636   0.066   1.950   4.262
 6579SOL    HW220637   7.009   1.981   4.124
 6580SOL     OW20638   1.113   1.325   0.830
 6580SOL    HW120639   1.141   1.421   0.833
 6580SOL    HW220640   1.130   1.287   0.739
 6581SOL     OW20641   1.421   1.232   0.570
 6581SOL    HW120642   1.510   1.218   0.526
 6581SOL    HW220643   1.399   1.153   0.627
 6582SOL     OW20644   6.492   0.476   2.584
 6582SOL    HW120645   6.406   0.514   2.550
 6582SOL    HW220646   6.557   0.549   2.598
 6583SOL     OW20647   5.358   6.406   5.092
 6583SOL    HW120648   5.400   6.407   5.001
 6583SOL    HW220649   5.375   6.317   5.135
 6584SOL     OW20650   3.610   2.709   0.879
 6584SOL    HW120651   3.705   2.712   0.846
 6584SOL    HW220652   3.550   2.685   0.803
 6585SOL     OW20653   6.979   6.583   0.014
 6585SOL    HW120654   6.988   6.595   0.113
 6585SOL    HW220655   6.895   6.531   7.019
 6586SOL     OW20656   6.288   1.792   6.200
 6586SOL    HW120657   6.324   1.744   6.121
 6586SOL    HW220658   6.363   1.840   6.247
 6587SOL     OW20659   1.103   4.675   5.987
 6587SOL    HW120660   1.022   4.702   6.039
 6587SOL    HW220661   1.184   4.678   6.047
 6588SOL     OW20662   0.654   3.153   0.883
 6588SOL    HW120663   0.624   3.096   0.959
 6588SOL    HW220664   0.634   3.106   0.797
 6589SOL     OW20665   5.202   0.988   2.304
 6589SOL    HW120666   5.164   1.030   2.386
 6589SOL    HW220667   5.147   1.013   2.225
 6590SOL     OW20668   0.554   0.285   5.214
 6590SOL    HW120669   0.476   0.347   5.212
 6590SOL    HW220670   0.523   0.191   5.221
 6591SOL     OW20671   5.373   5.478   3.603
 6591SOL    HW120672   5.337   5.570   3.617
 6591SOL    HW220673   5.298   5.415   3.583
 6592SOL     OW20674   5.266   0.393   3.265
 6592SOL    HW120675   5.309   0.317   3.315
 6592SOL    HW220676   5.336   0.454   3.230
 6593SOL     OW20677   2.878   2.204   2.310
 6593SOL    HW120678   2.821   2.122   2.306
 6593SOL    HW220679   2.893   2.239   2.217
 6594SOL     OW20680   3.714   1.661   5.600
 6594SOL    HW120681   3.810   1.645   5.624
 6594SOL    HW220682   3.709   1.730   5.528
 6595SOL     OW20683   1.535   3.127   5.050
 6595SOL    HW120684   1.627   3.152   5.021
 6595SOL    HW220685   1.467   3.179   4.998
 6596SOL     OW20686   4.094   6.179   3.460
 6596SOL    HW120687   4.192   6.159   3.464
 6596SOL    HW220688   4.081   6.275   3.432
 6597SOL     OW20689   1.304   4.944   1.906
 6597SOL    HW120690   1.212   4.927   1.942
 6597SOL    HW220691   1.342   4.860   1.869
 6598SOL     OW20692   1.974   4.376   3.485
 6598SOL    HW120693   2.019   4.300   3.436
 6598SOL    HW220694   2.042   4.447   3.504
 6599SOL     OW20695   5.273   6.220   0.084
 6599SOL    HW120696   5.201   6.251   0.146
 6599SOL    HW220697   5.360   6.215   0.133
 6600SOL     OW20698   4.324   6.805   4.391
 6600SOL    HW120699   4.290   6.874   4.326
 6600SOL    HW220700   4.273   6.811   4.476
 6601SOL     OW20701   0.604   2.482   3.050
 6601SOL    HW120702   0.690   2.514   3.090
 6601SOL    HW220703   0.622   2.428   2.968
 6602SOL     OW20704   2.643   0.258   1.231
 6602SOL    HW120705   2.673   0.163   1.227
 6602SOL    HW220706   2.650   0.300   1.141
 6603SOL     OW20707   0.741   2.973   3.756
 6603SOL    HW120708   0.786   3.009   3.674
 6603SOL    HW220709   0.787   2.888   3.784
 6604SOL     OW20710   2.070   0.105   1.136
 6604SOL    HW120711   2.024   0.088   1.049
 6604SOL    HW220712   2.003   0.140   1.203
 6605SOL     OW20713   5.727   5.792   1.901
 6605SOL    HW120714   5.658   5.780   1.830
 6605SOL    HW220715   5.712   5.878   1.949
 6606SOL     OW20716   6.825   4.104   3.143
 6606SOL    HW120717   6.899   4.169   3.123
 6606SOL    HW220718   6.770   4.139   3.219
 6607SOL     OW20719   6.423   4.946   3.518
 6607SOL    HW120720   6.441   5.039   3.549
 6607SOL    HW220721   6.476   4.882   3.574
 6608SOL     OW20722   6.976   0.513   0.883
 6608SOL    HW120723   0.006   0.446   0.832
 6608SOL    HW220724   6.898   0.467   0.926
 6609SOL     OW20725   5.067   1.556   6.242
 6609SOL    HW120726   4.989   1.561   6.180
 6609SOL    HW220727   5.037   1.522   6.331
 6610SOL     OW20728   2.953   5.966   6.968
 6610SOL    HW120729   2.941   6.061   6.997
 6610SOL    HW220730   2.872   5.936   6.917
 6611SOL     OW20731   5.017   2.772   3.404
 6611SOL    HW120732   4.951   2.845   3.425
 6611SOL    HW220733   4.971   2.698   3.355
 6612SOL     OW20734   6.533   2.190   6.104
 6612SOL    HW120735   6.617   2.197   6.156
 6612SOL    HW220736   6.535   2.108   6.047
 6613SOL     OW20737   5.760   0.381   6.090
 6613SOL    HW120738   5.767   0.284   6.068
 6613SOL    HW220739   5.852   0.419   6.104
 6614SOL     OW20740   4.671   6.887   0.805
 6614SOL    HW120741   4.682   6.891   0.904
 6614SOL    HW220742   4.704   6.799   0.771
 6615SOL     OW20743   2.308   5.424   0.493
 6615SOL    HW120744   2.230   5.417   0.431
 6615SOL    HW220745   2.278   5.460   0.581
 6616SOL     OW20746   4.612   6.772   5.708
 6616SOL    HW120747   4.587   6.798   5.801
 6616SOL    HW220748   4.536   6.794   5.645
 6617SOL     OW20749   4.052   6.437   3.373
 6617SOL    HW120750   4.118   6.511   3.387
 6617SOL    HW220751   3.975   6.470   3.319
 6618SOL     OW20752   0.701   1.015   3.186
 6618SOL    HW120753   0.768   1.081   3.151
 6618SOL    HW220754   0.745   0.955   3.253
 6619SOL     OW20755   4.907   6.942   3.806
 6619SOL    HW120756   4.930   6.938   3.903
 6619SOL    HW220757   4.961   7.013   3.761
 6620SOL     OW20758   2.167   3.285   3.846
 6620SOL    HW120759   2.185   3.197   3.804
 6620SOL    HW220760   2.155   3.273   3.945
 6621SOL     OW20761   3.708   2.927   5.065
 6621SOL    HW120762   3.617   2.949   5.029
 6621SOL    HW220763   3.762   3.010   5.072
 6622SOL     OW20764   5.807   5.936   1.564
 6622SOL    HW120765   5.826   6.027   1.527
 6622SOL    HW220766   5.870   5.870   1.524
 6623SOL     OW20767   3.784   4.340   5.273
 6623SOL    HW120768   3.718   4.372   5.340
 6623SOL    HW220769   3.739   4.281   5.206
 6624SOL     OW20770   0.669   3.507   5.688
 6624SOL    HW120771   0.720   3.430   5.648
 6624SOL    HW220772   0.616   3.552   5.617
 6625SOL     OW20773   5.853   2.001   5.281
 6625SOL    HW120774   5.848   2.099   5.262
 6625SOL    HW220775   5.860   1.951   5.195
 6626SOL     OW20776   3.484   6.805   5.587
 6626SOL    HW120777   3.511   6.709   5.581
 6626SOL    HW220778   3.549   6.862   5.537
 6627SOL     OW20779   1.925   6.413   4.137
 6627SOL    HW120780   2.017   6.403   4.099
 6627SOL    HW220781   1.930   6.414   4.237
 6628SOL     OW20782   5.262   4.969   3.893
 6628SOL    HW120783   5.225   5.061   3.906
 6628SOL    HW220784   5.359   4.975   3.870
 6629SOL     OW20785   4.551   5.345   6.625
 6629SOL    HW120786   4.534   5.430   6.575
 6629SOL    HW220787   4.625   5.359   6.691
 6630SOL     OW20788   3.408   1.506   1.629
 6630SOL    HW120789   3.397   1.427   1.689
 6630SOL    HW220790   3.416   1.476   1.534
 6631SOL     OW20791   2.168   5.332   4.262
 6631SOL    HW120792   2.252   5.371   4.225
 6631SOL    HW220793   2.183   5.236   4.286
 6632SOL     OW20794   1.764   1.294   1.118
 6632SOL    HW120795   1.778   1.206   1.074
 6632SOL    HW220796   1.695   1.346   1.068
 6633SOL     OW20797   2.766   4.539   6.253
 6633SOL    HW120798   2.786   4.624   6.302
 6633SOL    HW220799   2.673   4.509   6.274
 6634SOL     OW20800   4.717   2.082   5.284
 6634SOL    HW120801   4.689   2.077   5.380
 6634SOL    HW220802   4.648   2.038   5.227
 6635SOL     OW20803   4.909   3.824   3.069
 6635SOL    HW120804   4.933   3.759   2.996
 6635SOL    HW220805   4.911   3.917   3.034
 6636SOL     OW20806   3.137   1.506   1.589
 6636SOL    HW120807   3.089   1.418   1.591
 6636SOL    HW220808   3.236   1.489   1.595
 6637SOL     OW20809   2.737   0.200   7.017
 6637SOL    HW120810   2.675   0.256   0.048
 6637SOL    HW220811   2.683   0.146   6.952
 6638SOL     OW20812   3.490   3.583   3.211
 6638SOL    HW120813   3.475   3.537   3.298
 6638SOL    HW220814   3.488   3.515   3.137
 6639SOL     OW20815   3.764   3.338   6.424
 6639SOL    HW120816   3.709   3.391   6.358
 6639SOL    HW220817   3.708   3.314   6.503
 6640SOL     OW20818   6.857   2.543   5.656
 6640SOL    HW120819   6.798   2.523   5.579
 6640SOL    HW220820   6.940   2.589   5.624
 6641SOL     OW20821   3.790   1.938   0.084
 6641SOL    HW120822   3.738   1.998   0.023
 6641SOL    HW220823   3.805   1.985   0.172
 6642SOL     OW20824   2.446   5.091   6.209
 6642SOL    HW120825   2.423   5.070   6.114
 6642SOL    HW220826   2.437   5.009   6.265
 6643SOL     OW20827   6.807   6.831   0.748
 6643SOL    HW120828   6.795   6.734   0.770
 6643SOL    HW220829   6.762   6.851   0.661
 6644SOL     OW20830   1.819   6.255   3.626
 6644SOL    HW120831   1.867   6.221   3.545
 6644SOL    HW220832   1.881   6.312   3.679
 6645SOL     OW20833   6.004   3.278   0.381
 6645SOL    HW120834   6.070   3.260   0.308
 6645SOL    HW220835   5.997   3.198   0.440
 6646SOL     OW20836   4.716   0.591   6.133
 6646SOL    HW120837   4.700   0.581   6.035
 6646SOL    HW220838   4.640   0.640   6.175
 6647SOL     OW20839   4.480   6.553   1.169
 6647SOL    HW120840   4.439   6.643   1.182
 6647SOL    HW220841   4.534   6.552   1.085
 6648SOL     OW20842   3.569   5.987   4.739
 6648SOL    HW120843   3.571   5.889   4.758
 6648SOL    HW220844   3.566   6.002   4.640
 6649SOL     OW20845   6.046   2.928   6.576
 6649SOL    HW120846   6.017   3.011   6.622
 6649SOL    HW220847   6.142   2.937   6.548
 6650SOL     OW20848   3.940   1.342   4.855
 6650SOL    HW120849   3.909   1.287   4.778
 6650SOL    HW220850   4.040   1.351   4.851
 6651SOL     OW20851   1.642   1.943   6.848
 6651SOL    HW120852   1.586   1.863   6.825
 6651SOL    HW220853   1.594   2.026   6.821
 6652SOL     OW20854   0.867   4.456   6.908
 6652SOL    HW120855   0.786   4.461   6.849
 6652SOL    HW220856   0.879   4.544   6.954
 6653SOL     OW20857   5.006   3.308   0.992
 6653SOL    HW120858   5.100   3.309   0.958
 6653SOL    HW220859   4.999   3.246   1.070
 6654SOL     OW20860   0.471   5.152   2.519
 6654SOL    HW120861   0.448   5.230   2.462
 6654SOL    HW220862   0.482   5.182   2.614
 6655SOL     OW20863   0.164   6.227   1.882
 6655SOL    HW120864   0.118   6.165   1.819
 6655SOL    HW220865   0.261   6.205   1.885
 6656SOL     OW20866   4.991   2.096   3.209
 6656SOL    HW120867   5.063   2.029   3.192
 6656SOL    HW220868   4.948   2.122   3.122
 6657SOL     OW20869   6.136   2.781   4.467
 6657SOL    HW120870   6.170   2.722   4.394
 6657SOL    HW220871   6.125   2.727   4.550
 6658SOL     OW20872   6.432   6.974   5.464
 6658SOL    HW120873   6.509   6.946   5.407
 6658SOL    HW220874   6.351   6.921   5.440
 6659SOL     OW20875   1.110   3.785   1.473
 6659SOL    HW120876   1.197   3.736   1.465
 6659SOL    HW220877   1.119   3.859   1.539
 6660SOL     OW20878   1.877   5.107   1.722
 6660SOL    HW120879   1.846   5.202   1.730
 6660SOL    HW220880   1.800   5.045   1.736
 6661SOL     OW20881   3.006   0.802   4.832
 6661SOL    HW120882   2.962   0.795   4.742
 6661SOL    HW220883   3.083   0.866   4.825
 6662SOL     OW20884   2.124   0.511   0.818
 6662SOL    HW120885   2.049   0.449   0.796
 6662SOL    HW220886   2.170   0.479   0.901
 6663SOL     OW20887   0.704   6.336   5.156
 6663SOL    HW120888   0.747   6.298   5.238
 6663SOL    HW220889   0.609   6.303   5.150
 6664SOL     OW20890   2.204   0.391   1.052
 6664SOL    HW120891   2.118   0.356   1.090
 6664SOL    HW220892   2.278   0.376   1.116
 6665SOL     OW20893   1.807   6.618   5.621
 6665SOL    HW120894   1.860   6.543   5.580
 6665SOL    HW220895   1.838   6.632   5.716
 6666SOL     OW20896   6.366   5.702   5.046
 6666SOL    HW120897   6.355   5.622   4.988
 6666SOL    HW220898   6.330   5.682   5.137
 6667SOL     OW20899   6.622   6.348   6.076
 6667SOL    HW120900   6.612   6.444   6.050
 6667SOL    HW220901   6.717   6.330   6.100
 6668SOL     OW20902   6.869   6.175   1.477
 6668SOL    HW120903   6.846   6.110   1.404
 6668SOL    HW220904   6.785   6.218   1.511
 6669SOL     OW20905   3.781   2.048   1.376
 6669SOL    HW120906   3.805   1.981   1.447
 6669SOL    HW220907   3.693   2.089   1.397
 6670SOL     OW20908   3.044   0.921   6.470
 6670SOL    HW120909   2.968   0.862   6.495
 6670SOL    HW220910   3.035   1.009   6.516
 6671SOL     OW20911   5.939   6.609   0.777
 6671SOL    HW120912   5.935   6.548   0.698
 6671SOL    HW220913   5.973   6.558   0.857
 6672SOL     OW20914   1.228   2.469   0.391
 6672SOL    HW120915   1.279   2.395   0.436
 6672SOL    HW220916   1.149   2.431   0.344
 6673SOL     OW20917   4.814   3.953   3.634
 6673SOL    HW120918   4.763   4.038   3.619
 6673SOL    HW220919   4.798   3.891   3.557
 6674SOL     OW20920   0.266   3.174   6.728
 6674SOL    HW120921   0.331   3.098   6.738
 6674SOL    HW220922   0.288   3.225   6.645
 6675SOL     OW20923   5.453   2.488   0.501
 6675SOL    HW120924   5.522   2.559   0.487
 6675SOL    HW220925   5.487   2.420   0.566
 6676SOL     OW20926   1.059   3.541   2.965
 6676SOL    HW120927   1.004   3.467   3.005
 6676SOL    HW220928   1.138   3.559   3.023
 6677SOL     OW20929   0.540   1.075   6.739
 6677SOL    HW120930   0.584   1.161   6.712
 6677SOL    HW220931   0.489   1.038   6.661
 6678SOL     OW20932   2.128   4.365   0.798
 6678SOL    HW120933   2.220   4.392   0.773
 6678SOL    HW220934   2.074   4.348   0.716
 6679SOL     OW20935   4.030   0.950   3.976
 6679SOL    HW120936   3.982   0.902   3.902
 6679SOL    HW220937   4.126   0.923   3.977
 6680SOL     OW20938   4.680   6.094   6.594
 6680SOL    HW120939   4.761   6.151   6.607
 6680SOL    HW220940   4.616   6.109   6.669
 6681SOL     OW20941   5.007   5.455   1.384
 6681SOL    HW120942   4.979   5.415   1.296
 6681SOL    HW220943   4.956   5.412   1.458
 6682SOL     OW20944   2.098   4.452   6.849
 6682SOL    HW120945   2.154   4.493   6.921
 6682SOL    HW220946   2.143   4.466   6.760
 6683SOL     OW20947   6.089   3.375   6.000
 6683SOL    HW120948   6.115   3.349   6.093
 6683SOL    HW220949   5.991   3.394   5.997
 6684SOL     OW20950   3.811   6.770   2.159
 6684SOL    HW120951   3.887   6.832   2.179
 6684SOL    HW220952   3.815   6.742   2.063
 6685SOL     OW20953   4.955   2.263   6.363
 6685SOL    HW120954   5.024   2.292   6.296
 6685SOL    HW220955   4.899   2.341   6.389
 6686SOL     OW20956   5.957   5.960   3.735
 6686SOL    HW120957   6.018   6.015   3.678
 6686SOL    HW220958   5.901   5.901   3.677
 6687SOL     OW20959   0.428   2.736   2.118
 6687SOL    HW120960   0.423   2.834   2.140
 6687SOL    HW220961   0.504   2.695   2.168
 6688SOL     OW20962   4.092   4.565   0.713
 6688SOL    HW120963   4.107   4.466   0.720
 6688SOL    HW220964   4.115   4.596   0.621
 6689SOL     OW20965   4.232   3.441   5.902
 6689SOL    HW120966   4.151   3.497   5.921
 6689SOL    HW220967   4.260   3.455   5.807
 6690SOL     OW20968   1.192   6.650   0.242
 6690SOL    HW120969   1.207   6.706   0.323
 6690SOL    HW220970   1.144   6.566   0.267
 6691SOL     OW20971   2.004   0.317   2.347
 6691SOL    HW120972   1.925   0.258   2.332
 6691SOL    HW220973   1.973   0.410   2.368
 6692SOL     OW20974   4.118   3.790   2.029
 6692SOL    HW120975   4.167   3.720   1.976
 6692SOL    HW220976   4.185   3.849   2.074
 6693SOL     OW20977   4.570   1.907   5.135
 6693SOL    HW120978   4.499   1.920   5.066
 6693SOL    HW220979   4.540   1.837   5.200
 6694SOL     OW20980   4.598   6.370   1.367
 6694SOL    HW120981   4.622   6.289   1.313
 6694SOL    HW220982   4.537   6.428   1.314
 6695SOL     OW20983   2.952   1.947   6.899
 6695SOL    HW120984   3.022   1.988   6.958
 6695SOL    HW220985   2.996   1.881   6.837
 6696SOL     OW20986   4.141   3.559   3.251
 6696SOL    HW120987   4.097   3.487   3.307
 6696SOL    HW220988   4.128   3.647   3.295
 6697SOL     OW20989   4.786   2.519   3.576
 6697SOL    HW120990   4.770   2.594   3.512
 6697SOL    HW220991   4.792   2.432   3.526
 6698SOL     OW20992   3.266   3.385   1.152
 6698SOL    HW120993   3.291   3.346   1.240
 6698SOL    HW220994   3.215   3.317   1.099
 6699SOL     OW20995   2.320   6.654   5.615
 6699SOL    HW120996   2.361   6.745   5.629
 6699SOL    HW220997   2.364   6.610   5.536
 6700SOL     OW20998   5.790   1.179   1.112
 6700SOL    HW120999   5.758   1.113   1.044
 6700SOL    HW221000   5.723   1.253   1.120
 6701SOL     OW21001   5.383   6.254   1.681
 6701SOL    HW121002   5.418   6.346   1.660
 6701SOL    HW221003   5.382   6.199   1.598
 6702SOL     OW21004   1.773   2.621   1.885
 6702SOL    HW121005   1.830   2.604   1.966
 6702SOL    HW221006   1.749   2.718   1.881
 6703SOL     OW21007   1.097   1.070   0.107
 6703SOL    HW121008   1.028   1.019   0.158
 6703SOL    HW221009   1.060   1.159   0.082
 6704SOL     OW21010   4.308   2.398   4.623
 6704SOL    HW121011   4.312   2.416   4.721
 6704SOL    HW221012   4.216   2.367   4.599
 6705SOL     OW21013   5.854   2.765   0.697
 6705SOL    HW121014   5.869   2.801   0.605
 6705SOL    HW221015   5.912   2.814   0.761
 6706SOL     OW21016   1.995   6.388   0.709
 6706SOL    HW121017   2.036   6.339   0.632
 6706SOL    HW221018   2.063   6.402   0.781
 6707SOL     OW21019   5.350   6.849   3.080
 6707SOL    HW121020   5.299   6.934   3.069
 6707SOL    HW221021   5.368   6.809   2.991
 6708SOL     OW21022   5.803   5.477   1.021
 6708SOL    HW121023   5.850   5.430   1.096
 6708SOL    HW221024   5.730   5.419   0.985
 6709SOL     OW21025   0.498   5.205   2.851
 6709SOL    HW121026   0.482   5.133   2.920
 6709SOL    HW221027   0.593   5.236   2.858
 6710SOL     OW21028   4.401   1.433   0.794
 6710SOL    HW121029   4.352   1.511   0.832
 6710SOL    HW221030   4.383   1.426   0.696
 6711SOL     OW21031   5.223   6.771   5.745
 6711SOL    HW121032   5.157   6.793   5.673
 6711SOL    HW221033   5.176   6.726   5.821
 6712SOL     OW21034   6.072   3.141   1.319
 6712SOL    HW121035   6.160   3.098   1.298
 6712SOL    HW221036   6.063   3.149   1.418
 6713SOL     OW21037   1.102   0.924   3.247
 6713SOL    HW121038   1.199   0.910   3.268
 6713SOL    HW221039   1.056   0.835   3.243
 6714SOL     OW21040   5.744   1.223   0.507
 6714SOL    HW121041   5.806   1.181   0.573
 6714SOL    HW221042   5.667   1.264   0.555
 6715SOL     OW21043   1.572   0.452   1.388
 6715SOL    HW121044   1.607   0.531   1.339
 6715SOL    HW221045   1.536   0.480   1.477
 6716SOL     OW21046   6.946   5.958   2.163
 6716SOL    HW121047   6.893   5.917   2.088
 6716SOL    HW221048   6.998   5.887   2.209
 6717SOL     OW21049   2.480   2.426   6.275
 6717SOL    HW121050   2.497   2.332   6.302
 6717SOL    HW221051   2.563   2.481   6.287
 6718SOL     OW21052   3.563   0.722   1.306
 6718SOL    HW121053   3.644   0.664   1.303
 6718SOL    HW221054   3.559   0.779   1.224
 6719SOL     OW21055   2.159   6.927   0.205
 6719SOL    HW121056   2.180   6.929   0.107
 6719SOL    HW221057   2.070   6.971   0.221
 6720SOL     OW21058   2.391   1.181   4.478
 6720SOL    HW121059   2.490   1.193   4.474
 6720SOL    HW221060   2.347   1.270   4.483
 6721SOL     OW21061   6.730   6.661   0.401
 6721SOL    HW121062   6.687   6.750   0.418
 6721SOL    HW221063   6.677   6.589   0.445
 6722SOL     OW21064   0.132   2.592   6.964
 6722SOL    HW121065   0.076   2.527   6.914
 6722SOL    HW221066   0.087   2.682   6.964
 6723SOL     OW21067   1.545   6.920   5.697
 6723SOL    HW121068   1.579   6.938   5.605
 6723SOL    HW221069   1.457   6.967   5.710
 6724SOL     OW21070   2.236   2.612   6.251
 6724SOL    HW121071   2.334   2.609   6.228
 6724SOL    HW221072   2.211   2.528   6.300
 6725SOL     OW21073   6.747   2.535   2.226
 6725SOL    HW121074   6.756   2.456   2.287
 6725SOL    HW221075   6.663   2.584   2.249
 6726SOL     OW21076   0.199   2.273   4.146
 6726SOL    HW121077   0.138   2.348   4.170
 6726SOL    HW221078   0.170   2.190   4.194
 6727SOL     OW21079   0.078   4.414   5.579
 6727SOL    HW121080   0.141   4.445   5.649
 6727SOL    HW221081   0.113   4.330   5.538
 6728SOL     OW21082   3.592   1.931   3.036
 6728SOL    HW121083   3.622   1.970   3.123
 6728SOL    HW221084   3.653   1.855   3.010
 6729SOL     OW21085   6.998   1.699   1.035
 6729SOL    HW121086   0.072   1.691   1.047
 6729SOL    HW221087   6.974   1.795   1.021
 6730SOL     OW21088   1.947   0.033   0.917
 6730SOL    HW121089   1.862   7.014   0.947
 6730SOL    HW221090   1.967   0.007   0.823
 6731SOL     OW21091   1.517   6.743   1.028
 6731SOL    HW121092   1.473   6.653   1.022
 6731SOL    HW221093   1.446   6.814   1.030
 6732SOL     OW21094   4.959   4.389   4.487
 6732SOL    HW121095   4.875   4.441   4.473
 6732SOL    HW221096   4.943   4.319   4.557
 6733SOL     OW21097   4.128   5.702   6.272
 6733SOL    HW121098   4.209   5.685   6.216
 6733SOL    HW221099   4.086   5.788   6.244
 6734SOL     OW21100   5.268   2.159   5.928
 6734SOL    HW121101   5.246   2.117   6.015
 6734SOL    HW221102   5.365   2.145   5.907
 6735SOL     OW21103   5.803   3.332   4.050
 6735SOL    HW121104   5.815   3.396   3.974
 6735SOL    HW221105   5.808   3.238   4.016
 6736SOL     OW21106   3.335   3.719   6.178
 6736SOL    HW121107   3.433   3.719   6.198
 6736SOL    HW221108   3.292   3.639   6.221
 6737SOL     OW21109   1.256   3.358   1.221
 6737SOL    HW121110   1.234   3.417   1.143
 6737SOL    HW221111   1.290   3.270   1.187
 6738SOL     OW21112   1.764   5.506   3.902
 6738SOL    HW121113   1.846   5.538   3.950
 6738SOL    HW221114   1.785   5.492   3.805
 6739SOL     OW21115   6.279   5.806   3.896
 6739SOL    HW121116   6.261   5.894   3.940
 6739SOL    HW221117   6.192   5.759   3.882
 6740SOL     OW21118   6.542   0.657   5.135
 6740SOL    HW121119   6.523   0.587   5.204
 6740SOL    HW221120   6.459   0.710   5.117
 6741SOL     OW21121   3.370   1.939   5.433
 6741SOL    HW121122   3.432   1.930   5.355
 6741SOL    HW221123   3.321   1.853   5.448
 6742SOL     OW21124   5.628   5.451   3.509
 6742SOL    HW121125   5.675   5.415   3.590
 6742SOL    HW221126   5.533   5.471   3.532
 6743SOL     OW21127   3.763   3.996   6.453
 6743SOL    HW121128   3.746   4.078   6.507
 6743SOL    HW221129   3.735   3.915   6.505
 6744SOL     OW21130   0.138   6.711   5.444
 6744SOL    HW121131   0.180   6.765   5.371
 6744SOL    HW221132   0.210   6.662   5.494
 6745SOL     OW21133   6.541   6.071   3.696
 6745SOL    HW121134   6.560   6.169   3.689
 6745SOL    HW221135   6.542   6.044   3.793
 6746SOL     OW21136   1.173   0.683   3.806
 6746SOL    HW121137   1.187   0.585   3.793
 6746SOL    HW221138   1.218   0.713   3.890
 6747SOL     OW21139   5.849   0.478   0.388
 6747SOL    HW121140   5.763   0.489   0.337
 6747SOL    HW221141   5.861   0.556   0.451
 6748SOL     OW21142   3.166   1.889   3.345
 6748SOL    HW121143   3.256   1.855   3.317
 6748SOL    HW221144   3.137   1.961   3.282
 6749SOL     OW21145   3.950   4.429   1.050
 6749SOL    HW121146   3.947   4.506   0.987
 6749SOL    HW221147   3.927   4.460   1.142
 6750SOL     OW21148   3.041   1.851   4.388
 6750SOL    HW121149   3.026   1.948   4.372
 6750SOL    HW221150   3.139   1.833   4.396
 6751SOL     OW21151   4.695   0.642   3.248
 6751SOL    HW121152   4.673   0.561   3.303
 6751SOL    HW221153   4.779   0.683   3.282
 6752SOL     OW21154   2.044   0.150   2.647
 6752SOL    HW121155   2.127   0.202   2.628
 6752SOL    HW221156   1.964   0.209   2.636
 6753SOL     OW21157   3.419   1.393   6.368
 6753SOL    HW121158   3.411   1.392   6.269
 6753SOL    HW221159   3.436   1.487   6.400
 6754SOL     OW21160   6.670   1.323   0.890
 6754SOL    HW121161   6.763   1.358   0.901
 6754SOL    HW221162   6.665   1.265   0.809
 6755SOL     OW21163   4.372   4.190   1.159
 6755SOL    HW121164   4.367   4.255   1.084
 6755SOL    HW221165   4.405   4.102   1.124
 6756SOL     OW21166   3.683   6.968   5.482
 6756SOL    HW121167   3.754   0.013   5.473
 6756SOL    HW221168   3.725   6.877   5.474
 6757SOL     OW21169   3.823   2.487   0.796
 6757SOL    HW121170   3.849   2.401   0.751
 6757SOL    HW221171   3.853   2.485   0.891
 6758SOL     OW21172   6.174   2.840   1.585
 6758SOL    HW121173   6.201   2.748   1.556
 6758SOL    HW221174   6.096   2.834   1.647
 6759SOL     OW21175   0.350   3.220   2.441
 6759SOL    HW121176   0.324   3.251   2.532
 6759SOL    HW221177   0.310   3.130   2.424
 6760SOL     OW21178   6.296   3.931   2.456
 6760SOL    HW121179   6.375   3.900   2.404
 6760SOL    HW221180   6.316   3.925   2.554
 6761SOL     OW21181   5.706   3.131   4.875
 6761SOL    HW121182   5.646   3.188   4.820
 6761SOL    HW221183   5.795   3.122   4.830
 6762SOL     OW21184   0.774   5.120   4.308
 6762SOL    HW121185   0.819   5.178   4.239
 6762SOL    HW221186   0.675   5.134   4.303
 6763SOL     OW21187   5.458   5.693   3.989
 6763SOL    HW121188   5.496   5.654   4.073
 6763SOL    HW221189   5.526   5.753   3.947
 6764SOL     OW21190   2.573   5.398   1.763
 6764SOL    HW121191   2.669   5.419   1.786
 6764SOL    HW221192   2.525   5.483   1.742
 6765SOL     OW21193   5.818   5.051   3.063
 6765SOL    HW121194   5.768   4.986   3.120
 6765SOL    HW221195   5.908   5.068   3.103
 6766SOL     OW21196   5.183   6.437   5.619
 6766SOL    HW121197   5.259   6.489   5.659
 6766SOL    HW221198   5.198   6.427   5.521
 6767SOL     OW21199   3.188   0.566   1.128
 6767SOL    HW121200   3.158   0.605   1.041
 6767SOL    HW221201   3.262   0.500   1.111
 6768SOL     OW21202   1.809   0.982   5.480
 6768SOL    HW121203   1.764   1.068   5.505
 6768SOL    HW221204   1.887   1.002   5.421
 6769SOL     OW21205   3.230   1.822   0.549
 6769SOL    HW121206   3.170   1.744   0.569
 6769SOL    HW221207   3.323   1.789   0.532
 6770SOL     OW21208   0.084   1.149   2.193
 6770SOL    HW121209   0.095   1.071   2.132
 6770SOL    HW221210   0.083   1.117   2.288
 6771SOL     OW21211   4.992   2.602   3.733
 6771SOL    HW121212   4.943   2.565   3.654
 6771SOL    HW221213   4.985   2.701   3.734
 6772SOL     OW21214   3.388   2.150   3.235
 6772SOL    HW121215   3.487   2.136   3.237
 6772SOL    HW221216   3.362   2.189   3.146
 6773SOL     OW21217   6.709   5.245   2.117
 6773SOL    HW121218   6.715   5.147   2.137
 6773SOL    HW221219   6.800   5.286   2.125
 6774SOL     OW21220   0.636   1.997   5.424
 6774SOL    HW121221   0.572   1.988   5.348
 6774SOL    HW221222   0.688   2.082   5.414
 6775SOL     OW21223   2.430   2.743   1.738
 6775SOL    HW121224   2.476   2.673   1.685
 6775SOL    HW221225   2.466   2.833   1.713
 6776SOL     OW21226   4.285   4.855   0.176
 6776SOL    HW121227   4.379   4.854   0.209
 6776SOL    HW221228   4.255   4.762   0.157
 6777SOL     OW21229   4.287   4.192   0.039
 6777SOL    HW121230   4.237   4.106   0.035
 6777SOL    HW221231   4.381   4.174   0.068
 6778SOL     OW21232   5.871   4.894   1.917
 6778SOL    HW121233   5.780   4.863   1.889
 6778SOL    HW221234   5.884   4.989   1.889
 6779SOL     OW21235   6.575   5.328   6.544
 6779SOL    HW121236   6.553   5.334   6.446
 6779SOL    HW221237   6.624   5.410   6.571
 6780SOL     OW21238   1.389   2.914   1.967
 6780SOL    HW121239   1.479   2.903   1.924
 6780SOL    HW221240   1.375   2.841   2.034
 6781SOL     OW21241   6.676   0.720   4.891
 6781SOL    HW121242   6.684   0.818   4.906
 6781SOL    HW221243   6.625   0.679   4.966
 6782SOL     OW21244   6.982   0.327   3.497
 6782SOL    HW121245   6.993   0.337   3.596
 6782SOL    HW221246   0.036   0.365   3.451
 6783SOL     OW21247   6.201   1.332   5.773
 6783SOL    HW121248   6.186   1.330   5.674
 6783SOL    HW221249   6.282   1.386   5.794
 6784SOL     OW21250   2.730   4.307   1.113
 6784SOL    HW121251   2.667   4.307   1.190
 6784SOL    HW221252   2.769   4.216   1.102
 6785SOL     OW21253   5.280   5.140   3.666
 6785SOL    HW121254   5.374   5.142   3.700
 6785SOL    HW221255   5.218   5.165   3.740
 6786SOL     OW21256   1.615   2.142   0.187
 6786SOL    HW121257   1.655   2.051   0.202
 6786SOL    HW221258   1.588   2.151   0.091
 6787SOL     OW21259   2.003   2.457   1.242
 6787SOL    HW121260   1.905   2.444   1.233
 6787SOL    HW221261   2.023   2.506   1.327
 6788SOL     OW21262   2.370   3.831   1.371
 6788SOL    HW121263   2.403   3.917   1.333
 6788SOL    HW221264   2.309   3.850   1.448
 6789SOL     OW21265   6.672   5.767   3.179
 6789SOL    HW121266   6.673   5.856   3.225
 6789SOL    HW221267   6.763   5.747   3.144
 6790SOL     OW21268   0.684   3.946   1.309
 6790SOL    HW121269   0.627   3.899   1.376
 6790SOL    HW221270   0.630   4.015   1.260
 6791SOL     OW21271   4.009   2.482   1.589
 6791SOL    HW121272   4.093   2.513   1.634
 6791SOL    HW221273   4.022   2.389   1.555
 6792SOL     OW21274   6.268   5.586   5.279
 6792SOL    HW121275   6.197   5.577   5.349
 6792SOL    HW221276   6.337   5.514   5.293
 6793SOL     OW21277   0.913   1.951   0.949
 6793SOL    HW121278   0.832   1.961   1.007
 6793SOL    HW221279   0.987   2.005   0.987
 6794SOL     OW21280   5.014   1.507   6.519
 6794SOL    HW121281   5.059   1.496   6.608
 6794SOL    HW221282   4.917   1.528   6.533
 6795SOL     OW21283   2.684   6.663   1.235
 6795SOL    HW121284   2.733   6.579   1.261
 6795SOL    HW221285   2.740   6.742   1.257
 6796SOL     OW21286   6.292   1.020   1.936
 6796SOL    HW121287   6.241   0.935   1.924
 6796SOL    HW221288   6.386   0.999   1.963
 6797SOL     OW21289   5.536   2.851   1.919
 6797SOL    HW121290   5.447   2.810   1.942
 6797SOL    HW221291   5.534   2.883   1.824
 6798SOL     OW21292   4.948   6.814   1.837
 6798SOL    HW121293   4.957   6.876   1.915
 6798SOL    HW221294   4.967   6.720   1.868
 6799SOL     OW21295   6.777   6.634   1.204
 6799SOL    HW121296   6.704   6.697   1.178
 6799SOL    HW221297   6.819   6.595   1.121
 6800SOL     OW21298   2.186   3.688   0.913
 6800SOL    HW121299   2.115   3.739   0.961
 6800SOL    HW221300   2.237   3.750   0.852
 6801SOL     OW21301   0.534   0.151   2.871
 6801SOL    HW121302   0.539   0.076   2.937
 6801SOL    HW221303   0.487   0.121   2.788
 6802SOL     OW21304   3.326   6.064   0.728
 6802SOL    HW121305   3.298   5.968   0.739
 6802SOL    HW221306   3.413   6.068   0.679
 6803SOL     OW21307   5.064   3.005   6.075
 6803SOL    HW121308   5.131   3.080   6.073
 6803SOL    HW221309   4.999   3.016   6.000
 6804SOL     OW21310   3.426   5.302   4.103
 6804SOL    HW121311   3.455   5.306   4.007
 6804SOL    HW221312   3.353   5.234   4.113
 6805SOL     OW21313   6.151   4.829   6.299
 6805SOL    HW121314   6.203   4.914   6.286
 6805SOL    HW221315   6.210   4.751   6.279
 6806SOL     OW21316   5.919   0.158   3.942
 6806SOL    HW121317   5.986   0.085   3.931
 6806SOL    HW221318   5.939   0.233   3.879
 6807SOL     OW21319   3.182   3.232   0.146
 6807SOL    HW121320   3.268   3.191   0.115
 6807SOL    HW221321   3.108   3.202   0.086
 6808SOL     OW21322   0.494   1.884   4.973
 6808SOL    HW121323   0.508   1.826   5.053
 6808SOL    HW221324   0.399   1.916   4.971
 6809SOL     OW21325   1.220   3.081   1.176
 6809SOL    HW121326   1.122   3.082   1.194
 6809SOL    HW221327   1.268   3.039   1.252
 6810SOL     OW21328   1.800   0.166   1.550
 6810SOL    HW121329   1.865   0.186   1.622
 6810SOL    HW221330   1.838   0.192   1.462
 6811SOL     OW21331   5.223   4.085   0.794
 6811SOL    HW121332   5.176   4.021   0.733
 6811SOL    HW221333   5.200   4.064   0.889
 6812SOL     OW21334   3.326   3.376   3.308
 6812SOL    HW121335   3.296   3.304   3.371
 6812SOL    HW221336   3.381   3.336   3.234
 6813SOL     OW21337   5.125   2.401   2.999
 6813SOL    HW121338   5.183   2.407   3.081
 6813SOL    HW221339   5.030   2.388   3.027
 6814SOL     OW21340   3.211   1.859   6.264
 6814SOL    HW121341   3.297   1.854   6.213
 6814SOL    HW221342   3.198   1.953   6.297
 6815SOL     OW21343   3.339   0.113   1.762
 6815SOL    HW121344   3.296   0.175   1.826
 6815SOL    HW221345   3.399   0.050   1.811
 6816SOL     OW21346   0.559   0.105   0.134
 6816SOL    HW121347   0.515   0.073   0.050
 6816SOL    HW221348   0.656   0.123   0.117
 6817SOL     OW21349   1.416   2.565   3.539
 6817SOL    HW121350   1.493   2.595   3.596
 6817SOL    HW221351   1.449   2.501   3.470
 6818SOL     OW21352   2.913   5.048   1.823
 6818SOL    HW121353   2.867   5.047   1.734
 6818SOL    HW221354   2.897   4.961   1.870
 6819SOL     OW21355   5.148   0.794   4.497
 6819SOL    HW121356   5.194   0.786   4.586
 6819SOL    HW221357   5.123   0.703   4.465
 6820SOL     OW21358   1.824   5.974   2.935
 6820SOL    HW121359   1.776   5.983   3.023
 6820SOL    HW221360   1.808   5.883   2.897
 6821SOL     OW21361   3.321   1.123   4.478
 6821SOL    HW121362   3.421   1.115   4.473
 6821SOL    HW221363   3.297   1.197   4.540
 6822SOL     OW21364   5.464   2.519   6.825
 6822SOL    HW121365   5.563   2.522   6.839
 6822SOL    HW221366   5.423   2.456   6.892
 6823SOL     OW21367   3.824   3.324   4.584
 6823SOL    HW121368   3.809   3.225   4.590
 6823SOL    HW221369   3.923   3.342   4.586
 6824SOL     OW21370   0.929   2.498   6.793
 6824SOL    HW121371   0.927   2.415   6.736
 6824SOL    HW221372   0.927   2.472   6.889
 6825SOL     OW21373   4.923   6.936   2.111
 6825SOL    HW121374   4.987   7.009   2.137
 6825SOL    HW221375   4.833   6.976   2.093
 6826SOL     OW21376   2.054   4.237   2.238
 6826SOL    HW121377   2.064   4.163   2.171
 6826SOL    HW221378   2.145   4.273   2.261
 6827SOL     OW21379   4.626   5.748   6.235
 6827SOL    HW121380   4.611   5.844   6.212
 6827SOL    HW221381   4.717   5.720   6.205
 6828SOL     OW21382   2.951   2.145   1.619
 6828SOL    HW121383   3.012   2.220   1.643
 6828SOL    HW221384   2.856   2.174   1.630
 6829SOL     OW21385   4.313   6.425   4.173
 6829SOL    HW121386   4.379   6.356   4.143
 6829SOL    HW221387   4.267   6.393   4.256
 6830SOL     OW21388   5.149   1.351   3.973
 6830SOL    HW121389   5.213   1.275   3.973
 6830SOL    HW221390   5.074   1.332   4.036
 6831SOL     OW21391   1.209   0.585   6.686
 6831SOL    HW121392   1.189   0.664   6.627
 6831SOL    HW221393   1.135   0.518   6.679
 6832SOL     OW21394   2.245   4.134   0.886
 6832SOL    HW121395   2.229   4.076   0.806
 6832SOL    HW221396   2.197   4.221   0.873
 6833SOL     OW21397   3.871   3.796   6.081
 6833SOL    HW121398   3.822   3.862   6.025
 6833SOL    HW221399   3.925   3.736   6.022
 6834SOL     OW21400   5.210   6.466   1.109
 6834SOL    HW121401   5.157   6.384   1.087
 6834SOL    HW221402   5.245   6.507   1.025
 6835SOL     OW21403   3.662   0.124   4.382
 6835SOL    HW121404   3.660   0.091   4.477
 6835SOL    HW221405   3.585   0.087   4.332
 6836SOL     OW21406   3.026   5.555   0.096
 6836SOL    HW121407   3.097   5.495   0.134
 6836SOL    HW221408   2.942   5.544   0.148
 6837SOL     OW21409   0.838   1.646   2.605
 6837SOL    HW121410   0.888   1.716   2.656
 6837SOL    HW221411   0.754   1.685   2.569
 6838SOL     OW21412   2.838   6.175   0.353
 6838SOL    HW121413   2.866   6.080   0.341
 6838SOL    HW221414   2.907   6.224   0.406
 6839SOL     OW21415   5.303   0.537   0.029
 6839SOL    HW121416   5.212   0.573   0.050
 6839SOL    HW221417   5.368   0.573   0.096
 6840SOL     OW21418   2.654   0.964   4.950
 6840SOL    HW121419   2.584   1.032   4.970
 6840SOL    HW221420   2.705   0.991   4.868
 6841SOL     OW21421   4.864   4.217   6.372
 6841SOL    HW121422   4.934   4.254   6.432
 6841SOL    HW221423   4.900   4.208   6.279
 6842SOL     OW21424   2.882   4.298   1.501
 6842SOL    HW121425   2.789   4.285   1.467
 6842SOL    HW221426   2.920   4.382   1.462
 6843SOL     OW21427   6.062   6.462   1.011
 6843SOL    HW121428   6.080   6.544   1.065
 6843SOL    HW221429   6.039   6.386   1.073
 6844SOL     OW21430   5.740   1.070   4.544
 6844SOL    HW121431   5.704   1.069   4.637
 6844SOL    HW221432   5.666   1.050   4.480
 6845SOL     OW21433   6.034   3.628   3.301
 6845SOL    HW121434   5.972   3.574   3.243
 6845SOL    HW221435   5.982   3.698   3.349
 6846SOL     OW21436   3.949   3.236   6.967
 6846SOL    HW121437   4.015   3.161   6.963
 6846SOL    HW221438   3.894   3.228   0.025
 6847SOL     OW21439   6.948   3.327   4.930
 6847SOL    HW121440   6.916   3.342   5.024
 6847SOL    HW221441   6.994   3.410   4.898
 6848SOL     OW21442   5.367   4.407   3.421
 6848SOL    HW121443   5.357   4.311   3.395
 6848SOL    HW221444   5.406   4.458   3.344
 6849SOL     OW21445   4.664   3.915   5.287
 6849SOL    HW121446   4.632   3.823   5.264
 6849SOL    HW221447   4.657   3.929   5.385
 6850SOL     OW21448   5.390   3.091   2.856
 6850SOL    HW121449   5.467   3.029   2.846
 6850SOL    HW221450   5.329   3.083   2.777
 6851SOL     OW21451   0.725   2.144   2.942
 6851SOL    HW121452   0.818   2.117   2.970
 6851SOL    HW221453   0.693   2.218   3.002
 6852SOL     OW21454   2.805   4.594   1.130
 6852SOL    HW121455   2.751   4.644   1.197
 6852SOL    HW221456   2.758   4.510   1.104
 6853SOL     OW21457   5.483   4.430   6.494
 6853SOL    HW121458   5.548   4.440   6.569
 6853SOL    HW221459   5.403   4.487   6.511
 6854SOL     OW21460   5.333   0.582   5.882
 6854SOL    HW121461   5.387   0.498   5.880
 6854SOL    HW221462   5.239   0.560   5.907
 6855SOL     OW21463   4.568   5.950   3.801
 6855SOL    HW121464   4.492   6.002   3.762
 6855SOL    HW221465   4.622   5.909   3.727
 6856SOL     OW21466   0.196   2.326   4.941
 6856SOL    HW121467   0.170   2.280   4.856
 6856SOL    HW221468   0.114   2.360   4.986
 6857SOL     OW21469   1.418   2.919   6.365
 6857SOL    HW121470   1.450   3.013   6.379
 6857SOL    HW221471   1.422   2.870   6.452
 6858SOL     OW21472   4.085   3.941   1.657
 6858SOL    HW121473   4.131   4.028   1.675
 6858SOL    HW221474   4.146   3.865   1.681
 6859SOL     OW21475   0.802   1.099   1.309
 6859SOL    HW121476   0.862   1.090   1.388
 6859SOL    HW221477   0.809   1.192   1.272
 6860SOL     OW21478   0.048   4.941   1.155
 6860SOL    HW121479   0.083   5.009   1.220
 6860SOL    HW221480   0.023   4.858   1.204
 6861SOL     OW21481   5.089   3.837   6.478
 6861SOL    HW121482   4.998   3.869   6.506
 6861SOL    HW221483   5.139   3.913   6.438
 6862SOL     OW21484   0.291   6.162   5.688
 6862SOL    HW121485   0.347   6.168   5.605
 6862SOL    HW221486   0.194   6.157   5.663
 6863SOL     OW21487   6.640   6.506   5.734
 6863SOL    HW121488   6.576   6.509   5.811
 6863SOL    HW221489   6.594   6.469   5.653
 6864SOL     OW21490   2.482   4.431   5.477
 6864SOL    HW121491   2.489   4.476   5.388
 6864SOL    HW221492   2.435   4.491   5.541
 6865SOL     OW21493   0.722   6.949   4.827
 6865SOL    HW121494   0.718   6.896   4.911
 6865SOL    HW221495   0.637   6.999   4.814
 6866SOL     OW21496   5.693   5.261   2.942
 6866SOL    HW121497   5.747   5.185   2.977
 6866SOL    HW221498   5.598   5.232   2.930
 6867SOL     OW21499   2.284   3.262   1.659
 6867SOL    HW121500   2.350   3.323   1.703
 6867SOL    HW221501   2.227   3.315   1.596
 6868SOL     OW21502   2.046   6.805   5.609
 6868SOL    HW121503   2.130   6.751   5.611
 6868SOL    HW221504   2.006   6.800   5.517
 6869SOL     OW21505   5.280   0.798   6.056
 6869SOL    HW121506   5.193   0.772   6.099
 6869SOL    HW221507   5.296   0.740   5.976
 6870SOL     OW21508   0.534   4.296   0.856
 6870SOL    HW121509   0.593   4.367   0.818
 6870SOL    HW221510   0.550   4.210   0.809
 6871SOL     OW21511   5.946   4.242   3.227
 6871SOL    HW121512   5.923   4.263   3.322
 6871SOL    HW221513   5.934   4.323   3.171
 6872SOL     OW21514   0.641   2.521   1.669
 6872SOL    HW121515   0.595   2.593   1.721
 6872SOL    HW221516   0.579   2.443   1.658
 6873SOL     OW21517   0.806   3.156   4.152
 6873SOL    HW121518   0.755   3.204   4.223
 6873SOL    HW221519   0.771   3.182   4.062
 6874SOL     OW21520   6.776   5.239   3.557
 6874SOL    HW121521   6.743   5.290   3.477
 6874SOL    HW221522   6.857   5.283   3.594
 6875SOL     OW21523   2.242   1.672   2.256
 6875SOL    HW121524   2.192   1.627   2.182
 6875SOL    HW221525   2.179   1.693   2.331
 6876SOL     OW21526   3.955   6.732   3.533
 6876SOL    HW121527   3.922   6.826   3.537
 6876SOL    HW221528   3.877   6.669   3.531
 6877SOL     OW21529   3.250   4.462   1.435
 6877SOL    HW121530   3.179   4.448   1.366
 6877SOL    HW221531   3.220   4.424   1.523
 6878SOL     OW21532   2.783   1.844   3.842
 6878SOL    HW121533   2.694   1.849   3.886
 6878SOL    HW221534   2.781   1.894   3.756
 6879SOL     OW21535   2.428   2.709   6.923
 6879SOL    HW121536   2.443   2.749   7.013
 6879SOL    HW221537   2.364   2.632   6.932
 6880SOL     OW21538   0.831   6.169   5.714
 6880SOL    HW121539   0.931   6.160   5.713
 6880SOL    HW221540   0.796   6.137   5.802
 6881SOL     OW21541   1.115   3.350   1.465
 6881SOL    HW121542   1.131   3.258   1.502
 6881SOL    HW221543   1.174   3.364   1.385
 6882SOL     OW21544   2.564   0.342   0.437
 6882SOL    HW121545   2.644   0.364   0.381
 6882SOL    HW221546   2.493   0.301   0.380
 6883SOL     OW21547   5.090   1.396   0.305
 6883SOL    HW121548   5.075   1.485   0.347
 6883SOL    HW221549   5.157   1.345   0.359
 6884SOL     OW21550   0.966   4.075   2.711
 6884SOL    HW121551   0.987   4.171   2.694
 6884SOL    HW221552   0.985   4.053   2.807
 6885SOL     OW21553   4.659   5.059   2.998
 6885SOL    HW121554   4.658   5.112   2.913
 6885SOL    HW221555   4.721   5.101   3.063
 6886SOL     OW21556   0.097   1.245   4.626
 6886SOL    HW121557   0.127   1.247   4.721
 6886SOL    HW221558   0.078   1.339   4.595
 6887SOL     OW21559   4.690   5.620   6.482
 6887SOL    HW121560   4.697   5.669   6.569
 6887SOL    HW221561   4.703   5.684   6.406
 6888SOL     OW21562   5.203   5.108   6.678
 6888SOL    HW121563   5.120   5.056   6.694
 6888SOL    HW221564   5.188   5.172   6.603
 6889SOL     OW21565   1.785   2.813   5.935
 6889SOL    HW121566   1.732   2.752   5.876
 6889SOL    HW221567   1.771   2.787   6.030
 6890SOL     OW21568   4.081   5.990   1.873
 6890SOL    HW121569   4.135   5.992   1.957
 6890SOL    HW221570   4.004   5.928   1.886
 6891SOL     OW21571   2.212   3.637   1.232
 6891SOL    HW121572   2.294   3.687   1.257
 6891SOL    HW221573   2.205   3.630   1.133
 6892SOL     OW21574   3.813   1.589   4.172
 6892SOL    HW121575   3.885   1.609   4.238
 6892SOL    HW221576   3.852   1.537   4.096
 6893SOL     OW21577   4.928   3.965   6.897
 6893SOL    HW121578   4.860   3.991   6.829
 6893SOL    HW221579   4.971   4.047   6.934
 6894SOL     OW21580   6.308   5.001   1.234
 6894SOL    HW121581   6.274   4.964   1.320
 6894SOL    HW221582   6.237   4.992   1.164
 6895SOL     OW21583   1.979   5.015   1.402
 6895SOL    HW121584   2.008   4.973   1.488
 6895SOL    HW221585   1.906   4.959   1.361
 6896SOL     OW21586   3.135   2.014   3.599
 6896SOL    HW121587   3.113   1.957   3.520
 6896SOL    HW221588   3.170   1.957   3.673
 6897SOL     OW21589   4.844   3.374   5.277
 6897SOL    HW121590   4.765   3.424   5.242
 6897SOL    HW221591   4.920   3.381   5.212
 6898SOL     OW21592   3.777   1.750   1.354
 6898SOL    HW121593   3.710   1.758   1.280
 6898SOL    HW221594   3.729   1.741   1.442
 6899SOL     OW21595   4.701   5.888   2.420
 6899SOL    HW121596   4.648   5.810   2.452
 6899SOL    HW221597   4.671   5.913   2.328
 6900SOL     OW21598   6.548   4.857   4.667
 6900SOL    HW121599   6.574   4.902   4.752
 6900SOL    HW221600   6.572   4.915   4.589
 6901SOL     OW21601   5.681   6.018   6.590
 6901SOL    HW121602   5.622   6.051   6.663
 6901SOL    HW221603   5.772   6.059   6.599
 6902SOL     OW21604   6.592   5.634   5.596
 6902SOL    HW121605   6.514   5.626   5.659
 6902SOL    HW221606   6.663   5.690   5.638
 6903SOL     OW21607   3.237   4.905   5.030
 6903SOL    HW121608   3.278   4.904   5.122
 6903SOL    HW221609   3.143   4.871   5.035
 6904SOL     OW21610   6.306   0.700   5.898
 6904SOL    HW121611   6.373   0.719   5.970
 6904SOL    HW221612   6.353   0.692   5.810
 6905SOL     OW21613   5.202   5.459   6.696
 6905SOL    HW121614   5.117   5.480   6.743
 6905SOL    HW221615   5.181   5.420   6.606
 6906SOL     OW21616   4.089   1.219   3.998
 6906SOL    HW121617   4.164   1.221   3.932
 6906SOL    HW221618   4.057   1.125   4.010
 6907SOL     OW21619   6.021   1.909   1.195
 6907SOL    HW121620   5.922   1.918   1.206
 6907SOL    HW221621   6.064   1.890   1.283
 6908SOL     OW21622   2.231   5.244   6.495
 6908SOL    HW121623   2.204   5.153   6.465
 6908SOL    HW221624   2.274   5.294   6.419
 6909SOL     OW21625   5.173   3.845   0.677
 6909SOL    HW121626   5.191   3.862   0.580
 6909SOL    HW221627   5.247   3.788   0.715
 6910SOL     OW21628   1.438   3.339   2.777
 6910SOL    HW121629   1.341   3.334   2.802
 6910SOL    HW221630   1.474   3.430   2.796
 6911SOL     OW21631   4.201   6.996   4.242
 6911SOL    HW121632   4.158   0.061   4.244
 6911SOL    HW221633   4.169   6.945   4.162
 6912SOL     OW21634   2.748   3.390   6.271
 6912SOL    HW121635   2.768   3.395   6.173
 6912SOL    HW221636   2.652   3.364   6.283
 6913SOL     OW21637   5.426   6.106   4.587
 6913SOL    HW121638   5.349   6.158   4.549
 6913SOL    HW221639   5.420   6.104   4.687
 6914SOL     OW21640   5.572   4.702   3.845
 6914SOL    HW121641   5.545   4.695   3.941
 6914SOL    HW221642   5.666   4.734   3.839
 6915SOL     OW21643   6.722   2.481   1.936
 6915SOL    HW121644   6.728   2.460   2.034
 6915SOL    HW221645   6.804   2.529   1.907
 6916SOL     OW21646   5.598   0.824   0.384
 6916SOL    HW121647   5.672   0.840   0.450
 6916SOL    HW221648   5.593   0.901   0.320
 6917SOL     OW21649   4.355   6.329   1.733
 6917SOL    HW121650   4.397   6.369   1.814
 6917SOL    HW221651   4.350   6.230   1.743
 6918SOL     OW21652   6.826   2.432   4.013
 6918SOL    HW121653   6.771   2.500   3.963
 6918SOL    HW221654   6.812   2.444   4.111
 6919SOL     OW21655   6.646   5.724   3.912
 6919SOL    HW121656   6.571   5.722   3.847
 6919SOL    HW221657   6.685   5.816   3.915
 6920SOL     OW21658   4.672   6.516   4.901
 6920SOL    HW121659   4.709   6.607   4.918
 6920SOL    HW221660   4.741   6.460   4.855
 6921SOL     OW21661   4.567   6.404   3.192
 6921SOL    HW121662   4.477   6.394   3.149
 6921SOL    HW221663   4.571   6.347   3.274
 6922SOL     OW21664   1.684   6.133   5.776
 6922SOL    HW121665   1.659   6.139   5.679
 6922SOL    HW221666   1.783   6.142   5.786
 6923SOL     OW21667   5.328   5.868   2.536
 6923SOL    HW121668   5.294   5.833   2.623
 6923SOL    HW221669   5.428   5.869   2.538
 6924SOL     OW21670   2.485   4.262   6.843
 6924SOL    HW121671   2.447   4.179   6.802
 6924SOL    HW221672   2.454   4.342   6.791
 6925SOL     OW21673   5.241   5.515   4.580
 6925SOL    HW121674   5.257   5.579   4.656
 6925SOL    HW221675   5.147   5.482   4.583
 6926SOL     OW21676   2.385   1.922   0.341
 6926SOL    HW121677   2.294   1.891   0.366
 6926SOL    HW221678   2.454   1.861   0.382
 6927SOL     OW21679   3.851   2.082   5.964
 6927SOL    HW121680   3.915   2.134   6.020
 6927SOL    HW221681   3.779   2.143   5.931
 6928SOL     OW21682   5.567   5.833   0.693
 6928SOL    HW121683   5.521   5.770   0.631
 6928SOL    HW221684   5.569   5.794   0.785
 6929SOL     OW21685   5.184   6.002   2.345
 6929SOL    HW121686   5.246   5.950   2.404
 6929SOL    HW221687   5.092   5.964   2.350
 6930SOL     OW21688   1.468   0.872   1.454
 6930SOL    HW121689   1.379   0.905   1.422
 6930SOL    HW221690   1.499   0.930   1.530
 6931SOL     OW21691   1.621   1.698   2.671
 6931SOL    HW121692   1.592   1.774   2.612
 6931SOL    HW221693   1.640   1.618   2.614
 6932SOL     OW21694   4.746   6.645   0.704
 6932SOL    HW121695   4.785   6.596   0.627
 6932SOL    HW221696   4.819   6.690   0.756
 6933SOL     OW21697   3.469   6.254   5.476
 6933SOL    HW121698   3.508   6.273   5.566
 6933SOL    HW221699   3.464   6.338   5.423
 6934SOL     OW21700   4.411   3.473   6.119
 6934SOL    HW121701   4.333   3.452   6.059
 6934SOL    HW221702   4.490   3.498   6.064
 6935SOL     OW21703   4.375   5.623   2.710
 6935SOL    HW121704   4.394   5.671   2.795
 6935SOL    HW221705   4.276   5.620   2.695
 6936SOL     OW21706   6.310   2.793   4.098
 6936SOL    HW121707   6.355   2.721   4.152
 6936SOL    HW221708   6.228   2.824   4.146
 6937SOL     OW21709   6.336   6.204   1.058
 6937SOL    HW121710   6.354   6.107   1.041
 6937SOL    HW221711   6.335   6.253   0.971
 6938SOL     OW21712   6.925   2.554   4.701
 6938SOL    HW121713   7.023   2.558   4.682
 6938SOL    HW221714   6.881   2.490   4.639
 6939SOL     OW21715   0.059   4.921   2.576
 6939SOL    HW121716   0.154   4.909   2.548
 6939SOL    HW221717   0.045   5.015   2.608
 6940SOL     OW21718   4.107   0.067   0.145
 6940SOL    HW121719   4.122   0.005   0.222
 6940SOL    HW221720   4.194   0.109   0.118
 6941SOL     OW21721   3.024   3.758   2.045
 6941SOL    HW121722   3.009   3.670   2.091
 6941SOL    HW221723   3.083   3.816   2.101
 6942SOL     OW21724   5.559   6.774   2.189
 6942SOL    HW121725   5.471   6.749   2.230
 6942SOL    HW221726   5.632   6.721   2.232
 6943SOL     OW21727   3.870   5.561   0.954
 6943SOL    HW121728   3.945   5.526   1.009
 6943SOL    HW221729   3.859   5.659   0.971
 6944SOL     OW21730   1.500   5.372   6.053
 6944SOL    HW121731   1.420   5.376   5.993
 6944SOL    HW221732   1.527   5.276   6.066
 6945SOL     OW21733   6.766   1.627   1.735
 6945SOL    HW121734   6.782   1.725   1.737
 6945SOL    HW221735   6.779   1.589   1.827
 6946SOL     OW21736   4.313   6.499   1.515
 6946SOL    HW121737   4.399   6.543   1.489
 6946SOL    HW221738   4.327   6.439   1.593
 6947SOL     OW21739   3.954   5.490   6.241
 6947SOL    HW121740   4.015   5.568   6.258
 6947SOL    HW221741   4.007   5.405   6.242
 6948SOL     OW21742   1.063   6.064   1.109
 6948SOL    HW121743   1.043   5.985   1.051
 6948SOL    HW221744   1.147   6.108   1.076
 6949SOL     OW21745   2.494   1.141   3.184
 6949SOL    HW121746   2.491   1.076   3.109
 6949SOL    HW221747   2.431   1.113   3.256
 6950SOL     OW21748   1.693   0.925   4.843
 6950SOL    HW121749   1.673   0.834   4.878
 6950SOL    HW221750   1.608   0.971   4.819
 6951SOL     OW21751   0.491   6.172   6.407
 6951SOL    HW121752   0.488   6.115   6.324
 6951SOL    HW221753   0.572   6.229   6.405
 6952SOL     OW21754   1.204   5.138   3.219
 6952SOL    HW121755   1.153   5.190   3.287
 6952SOL    HW221756   1.223   5.196   3.140
 6953SOL     OW21757   5.257   6.612   0.849
 6953SOL    HW121758   5.159   6.594   0.839
 6953SOL    HW221759   5.271   6.695   0.904
 6954SOL     OW21760   0.951   4.467   1.378
 6954SOL    HW121761   0.933   4.440   1.473
 6954SOL    HW221762   0.909   4.556   1.361
 6955SOL     OW21763   4.810   0.615   2.671
 6955SOL    HW121764   4.873   0.558   2.723
 6955SOL    HW221765   4.834   0.711   2.683
 6956SOL     OW21766   4.818   5.890   3.197
 6956SOL    HW121767   4.842   5.963   3.261
 6956SOL    HW221768   4.826   5.923   3.103
 6957SOL     OW21769   5.658   5.625   0.171
 6957SOL    HW121770   5.659   5.631   0.072
 6957SOL    HW221771   5.654   5.717   0.210
 6958SOL     OW21772   4.133   3.499   4.617
 6958SOL    HW121773   4.149   3.413   4.569
 6958SOL    HW221774   4.095   3.481   4.707
 6959SOL     OW21775   1.860   3.915   3.165
 6959SOL    HW121776   1.942   3.946   3.212
 6959SOL    HW221777   1.880   3.902   3.068
 6960SOL     OW21778   1.695   4.203   0.666
 6960SOL    HW121779   1.710   4.222   0.569
 6960SOL    HW221780   1.596   4.200   0.684
 6961SOL     OW21781   6.082   1.330   5.026
 6961SOL    HW121782   5.995   1.292   4.997
 6961SOL    HW221783   6.144   1.257   5.053
 6962SOL     OW21784   4.380   5.752   1.094
 6962SOL    HW121785   4.450   5.689   1.059
 6962SOL    HW221786   4.423   5.818   1.156
 6963SOL     OW21787   5.579   5.351   0.902
 6963SOL    HW121788   5.607   5.293   0.978
 6963SOL    HW221789   5.481   5.371   0.910
 6964SOL     OW21790   3.526   0.766   6.431
 6964SOL    HW121791   3.430   0.772   6.402
 6964SOL    HW221792   3.532   0.715   6.516
 6965SOL     OW21793   1.912   1.804   6.505
 6965SOL    HW121794   1.924   1.785   6.603
 6965SOL    HW221795   2.000   1.835   6.467
 6966SOL     OW21796   0.200   0.748   2.749
 6966SOL    HW121797   0.176   0.845   2.750
 6966SOL    HW221798   0.206   0.715   2.843
 6967SOL     OW21799   3.263   1.033   5.392
 6967SOL    HW121800   3.215   0.957   5.436
 6967SOL    HW221801   3.208   1.116   5.399
 6968SOL     OW21802   2.639   1.304   4.008
 6968SOL    HW121803   2.640   1.397   3.973
 6968SOL    HW221804   2.690   1.244   3.946
 6969SOL     OW21805   3.012   2.059   1.364
 6969SOL    HW121806   2.930   2.006   1.341
 6969SOL    HW221807   3.005   2.092   1.458
 6970SOL     OW21808   4.282   3.557   5.230
 6970SOL    HW121809   4.210   3.596   5.288
 6970SOL    HW221810   4.368   3.555   5.281
 6971SOL     OW21811   6.133   4.413   1.234
 6971SOL    HW121812   6.177   4.356   1.303
 6971SOL    HW221813   6.175   4.396   1.145
 6972SOL     OW21814   5.359   4.002   2.499
 6972SOL    HW121815   5.319   4.073   2.557
 6972SOL    HW221816   5.455   4.024   2.480
 6973SOL     OW21817   0.688   2.414   3.549
 6973SOL    HW121818   0.658   2.497   3.595
 6973SOL    HW221819   0.612   2.350   3.543
 6974SOL     OW21820   3.199   4.058   2.627
 6974SOL    HW121821   3.219   4.012   2.714
 6974SOL    HW221822   3.101   4.073   2.620
 6975SOL     OW21823   1.754   6.833   4.689
 6975SOL    HW121824   1.757   6.751   4.745
 6975SOL    HW221825   1.661   6.846   4.654
 6976SOL     OW21826   6.360   4.717   6.009
 6976SOL    HW121827   6.392   4.777   6.082
 6976SOL    HW221828   6.271   4.750   5.976
 6977SOL     OW21829   3.753   3.478   1.031
 6977SOL    HW121830   3.768   3.514   1.123
 6977SOL    HW221831   3.688   3.402   1.035
 6978SOL     OW21832   5.309   2.452   1.819
 6978SOL    HW121833   5.263   2.499   1.744
 6978SOL    HW221834   5.326   2.517   1.893
 6979SOL     OW21835   0.747   3.735   1.116
 6979SOL    HW121836   0.724   3.819   1.164
 6979SOL    HW221837   0.846   3.724   1.112
 6980SOL     OW21838   2.062   0.891   3.547
 6980SOL    HW121839   2.019   0.980   3.536
 6980SOL    HW221840   2.001   0.820   3.512
 6981SOL     OW21841   3.668   3.304   5.810
 6981SOL    HW121842   3.672   3.320   5.712
 6981SOL    HW221843   3.755   3.331   5.852
 6982SOL     OW21844   0.990   0.753   4.413
 6982SOL    HW121845   1.051   0.680   4.442
 6982SOL    HW221846   0.896   0.718   4.408
 6983SOL     OW21847   4.781   1.496   5.033
 6983SOL    HW121848   4.821   1.547   5.109
 6983SOL    HW221849   4.749   1.559   4.963
 6984SOL     OW21850   2.309   1.726   2.792
 6984SOL    HW121851   2.357   1.639   2.801
 6984SOL    HW221852   2.353   1.795   2.848
 6985SOL     OW21853   6.353   5.185   0.648
 6985SOL    HW121854   6.330   5.160   0.554
 6985SOL    HW221855   6.278   5.237   0.688
 6986SOL     OW21856   3.449   6.590   6.705
 6986SOL    HW121857   3.356   6.618   6.730
 6986SOL    HW221858   3.492   6.547   6.784
 6987SOL     OW21859   6.618   1.232   6.406
 6987SOL    HW121860   6.592   1.156   6.347
 6987SOL    HW221861   6.538   1.287   6.428
 6988SOL     OW21862   1.280   6.701   5.699
 6988SOL    HW121863   1.274   6.678   5.796
 6988SOL    HW221864   1.374   6.728   5.677
 6989SOL     OW21865   0.097   4.734   3.313
 6989SOL    HW121866   0.012   4.752   3.263
 6989SOL    HW221867   0.134   4.645   3.285
 6990SOL     OW21868   3.882   2.979   1.324
 6990SOL    HW121869   3.969   3.026   1.305
 6990SOL    HW221870   3.900   2.883   1.345
 6991SOL     OW21871   4.800   3.888   3.317
 6991SOL    HW121872   4.833   3.839   3.237
 6991SOL    HW221873   4.767   3.979   3.289
 6992SOL     OW21874   6.148   6.658   6.635
 6992SOL    HW121875   6.131   6.754   6.657
 6992SOL    HW221876   6.106   6.636   6.547
 6993SOL     OW21877   5.922   0.617   2.046
 6993SOL    HW121878   5.884   0.676   2.118
 6993SOL    HW221879   5.863   0.620   1.966
 6994SOL     OW21880   0.959   1.895   4.156
 6994SOL    HW121881   0.871   1.852   4.135
 6994SOL    HW221882   1.029   1.857   4.095
 6995SOL     OW21883   0.001   3.606   6.495
 6995SOL    HW121884   0.096   3.634   6.509
 6995SOL    HW221885   7.019   3.506   6.496
 6996SOL     OW21886   1.629   0.549   0.223
 6996SOL    HW121887   1.614   0.582   0.130
 6996SOL    HW221888   1.664   0.455   0.220
 6997SOL     OW21889   0.613   4.668   5.128
 6997SOL    HW121890   0.638   4.581   5.170
 6997SOL    HW221891   0.606   4.739   5.198
 6998SOL     OW21892   1.818   1.783   1.276
 6998SOL    HW121893   1.882   1.715   1.241
 6998SOL    HW221894   1.844   1.874   1.244
 6999SOL     OW21895   1.764   2.243   5.981
 6999SOL    HW121896   1.715   2.220   6.065
 6999SOL    HW221897   1.778   2.342   5.976
 7000SOL     OW21898   5.833   0.599   2.760
 7000SOL    HW121899   5.841   0.593   2.661
 7000SOL    HW221900   5.884   0.524   2.803
 7001SOL     OW21901   0.902   2.699   5.072
 7001SOL    HW121902   0.822   2.747   5.037
 7001SOL    HW221903   0.943   2.645   4.998
 7002SOL     OW21904   2.287   5.205   3.985
 7002SOL    HW121905   2.211   5.217   3.921
 7002SOL    HW221906   2.293   5.109   4.013
 7003SOL     OW21907   4.676   6.035   1.609
 7003SOL    HW121908   4.719   6.121   1.639
 7003SOL    HW221909   4.577   6.046   1.609
 7004SOL     OW21910   0.571   6.579   0.726
 7004SOL    HW121911   0.521   6.627   0.654
 7004SOL    HW221912   0.589   6.485   0.697
 7005SOL     OW21913   1.160   1.125   0.558
 7005SOL    HW121914   1.201   1.125   0.467
 7005SOL    HW221915   1.226   1.088   0.624
 7006SOL     OW21916   5.759   5.851   3.455
 7006SOL    HW121917   5.673   5.804   3.471
 7006SOL    HW221918   5.781   5.848   3.358
 7007SOL     OW21919   4.179   0.500   4.705
 7007SOL    HW121920   4.178   0.450   4.792
 7007SOL    HW221921   4.121   0.581   4.712
 7008SOL     OW21922   0.581   4.198   4.463
 7008SOL    HW121923   0.670   4.226   4.427
 7008SOL    HW221924   0.555   4.111   4.422
 7009SOL     OW21925   3.760   6.649   2.402
 7009SOL    HW121926   3.842   6.664   2.457
 7009SOL    HW221927   3.776   6.678   2.308
 7010SOL     OW21928   5.360   4.087   3.659
 7010SOL    HW121929   5.297   4.038   3.598
 7010SOL    HW221930   5.436   4.125   3.605
 7011SOL     OW21931   3.688   6.742   0.317
 7011SOL    HW121932   3.665   6.802   0.241
 7011SOL    HW221933   3.621   6.756   0.391
 7012SOL     OW21934   0.696   1.953   1.095
 7012SOL    HW121935   0.736   1.966   1.185
 7012SOL    HW221936   0.636   1.873   1.096
 7013SOL     OW21937   1.191   0.051   6.451
 7013SOL    HW121938   1.098   0.037   6.487
 7013SOL    HW221939   1.246   6.995   6.468
 7014SOL     OW21940   5.669   3.096   0.491
 7014SOL    HW121941   5.635   3.155   0.564
 7014SOL    HW221942   5.591   3.053   0.444
 7015SOL     OW21943   5.657   4.593   1.723
 7015SOL    HW121944   5.677   4.508   1.772
 7015SOL    HW221945   5.629   4.663   1.789
 7016SOL     OW21946   4.051   4.848   1.324
 7016SOL    HW121947   4.028   4.879   1.232
 7016SOL    HW221948   4.150   4.854   1.338
 7017SOL     OW21949   3.491   5.196   3.071
 7017SOL    HW121950   3.471   5.101   3.046
 7017SOL    HW221951   3.589   5.212   3.064
 7018SOL     OW21952   5.275   4.083   4.567
 7018SOL    HW121953   5.258   4.158   4.502
 7018SOL    HW221954   5.190   4.058   4.612
 7019SOL     OW21955   4.018   4.128   1.392
 7019SOL    HW121956   4.004   4.059   1.463
 7019SOL    HW221957   4.102   4.179   1.411
 7020SOL     OW21958   0.030   4.147   5.775
 7020SOL    HW121959   0.117   4.109   5.806
 7020SOL    HW221960   0.042   4.185   5.683
 7021SOL     OW21961   1.914   3.000   3.899
 7021SOL    HW121962   2.011   3.009   3.879
 7021SOL    HW221963   1.902   2.961   3.991
 7022SOL     OW21964   4.994   0.400   0.296
 7022SOL    HW121965   5.084   0.369   0.266
 7022SOL    HW221966   4.925   0.332   0.270
 7023SOL     OW21967   0.516   2.745   1.852
 7023SOL    HW121968   0.427   2.760   1.810
 7023SOL    HW221969   0.509   2.756   1.952
 7024SOL     OW21970   3.818   3.731   4.445
 7024SOL    HW121971   3.735   3.782   4.421
 7024SOL    HW221972   3.805   3.686   4.533
 7025SOL     OW21973   3.883   1.148   1.146
 7025SOL    HW121974   3.818   1.088   1.192
 7025SOL    HW221975   3.973   1.138   1.188
 7026SOL     OW21976   3.560   2.056   2.256
 7026SOL    HW121977   3.593   2.114   2.181
 7026SOL    HW221978   3.612   1.971   2.258
 7027SOL     OW21979   2.418   5.789   3.806
 7027SOL    HW121980   2.405   5.865   3.870
 7027SOL    HW221981   2.407   5.702   3.856
 7028SOL     OW21982   3.878   0.424   3.957
 7028SOL    HW121983   3.937   0.469   4.024
 7028SOL    HW221984   3.848   0.335   3.993
 7029SOL     OW21985   4.695   3.559   5.669
 7029SOL    HW121986   4.699   3.459   5.675
 7029SOL    HW221987   4.712   3.587   5.574
 7030SOL     OW21988   0.620   1.411   4.588
 7030SOL    HW121989   0.708   1.363   4.590
 7030SOL    HW221990   0.635   1.509   4.602
 7031SOL     OW21991   3.820   6.125   0.282
 7031SOL    HW121992   3.903   6.131   0.226
 7031SOL    HW221993   3.776   6.215   0.285
 7032SOL     OW21994   4.184   1.378   3.447
 7032SOL    HW121995   4.131   1.299   3.419
 7032SOL    HW221996   4.165   1.455   3.386
 7033SOL     OW21997   1.162   2.801   3.315
 7033SOL    HW121998   1.091   2.869   3.334
 7033SOL    HW221999   1.219   2.788   3.396
 7034SOL     OW22000   6.999   1.793   3.189
 7034SOL    HW122001   6.953   1.871   3.147
 7034SOL    HW222002   6.931   1.732   3.229
 7035SOL     OW22003   1.739   0.388   0.594
 7035SOL    HW122004   1.814   0.363   0.533
 7035SOL    HW222005   1.654   0.346   0.561
 7036SOL     OW22006   6.548   1.915   2.332
 7036SOL    HW122007   6.489   1.946   2.257
 7036SOL    HW222008   6.506   1.837   2.378
 7037SOL     OW22009   0.510   1.201   6.371
 7037SOL    HW122010   0.467   1.136   6.434
 7037SOL    HW222011   0.493   1.294   6.402
 7038SOL     OW22012   2.606   4.643   5.025
 7038SOL    HW122013   2.568   4.714   4.965
 7038SOL    HW222014   2.705   4.658   5.036
 7039SOL     OW22015   0.385   6.256   3.716
 7039SOL    HW122016   0.307   6.193   3.720
 7039SOL    HW222017   0.417   6.263   3.621
 7040SOL     OW22018   4.853   2.536   5.927
 7040SOL    HW122019   4.838   2.589   6.011
 7040SOL    HW222020   4.920   2.464   5.945
 7041SOL     OW22021   0.129   1.691   2.992
 7041SOL    HW122022   0.228   1.684   3.002
 7041SOL    HW222023   0.088   1.713   3.081
 7042SOL     OW22024   4.061   6.236   4.334
 7042SOL    HW122025   3.974   6.283   4.319
 7042SOL    HW222026   4.044   6.138   4.347
 7043SOL     OW22027   2.809   5.166   3.318
 7043SOL    HW122028   2.888   5.226   3.307
 7043SOL    HW222029   2.784   5.127   3.229
 7044SOL     OW22030   5.195   5.967   5.207
 7044SOL    HW122031   5.120   5.998   5.148
 7044SOL    HW222032   5.165   5.973   5.303
 7045SOL     OW22033   5.433   5.936   2.158
 7045SOL    HW122034   5.514   5.968   2.107
 7045SOL    HW222035   5.410   5.843   2.129
 7046SOL     OW22036   3.347   1.544   3.865
 7046SOL    HW122037   3.427   1.525   3.922
 7046SOL    HW222038   3.292   1.460   3.855
 7047SOL     OW22039   7.010   1.255   1.686
 7047SOL    HW122040   6.943   1.184   1.666
 7047SOL    HW222041   6.993   1.292   1.777
 7048SOL     OW22042   5.860   6.313   4.663
 7048SOL    HW122043   5.805   6.288   4.583
 7048SOL    HW222044   5.801   6.351   4.734
 7049SOL     OW22045   3.388   1.841   1.995
 7049SOL    HW122046   3.465   1.878   1.942
 7049SOL    HW222047   3.348   1.913   2.051
 7050SOL     OW22048   3.924   3.915   1.219
 7050SOL    HW122049   3.927   3.883   1.314
 7050SOL    HW222050   3.982   3.996   1.209
 7051SOL     OW22051   6.857   6.662   1.462
 7051SOL    HW122052   6.957   6.659   1.458
 7051SOL    HW222053   6.819   6.654   1.370
 7052SOL     OW22054   6.067   0.797   4.076
 7052SOL    HW122055   5.984   0.849   4.090
 7052SOL    HW222056   6.089   0.746   4.160
 7053SOL     OW22057   1.796   3.907   4.177
 7053SOL    HW122058   1.699   3.924   4.198
 7053SOL    HW222059   1.840   3.994   4.152
 7054SOL     OW22060   0.241   6.817   1.693
 7054SOL    HW122061   0.301   6.879   1.642
 7054SOL    HW222062   0.295   6.765   1.759
 7055SOL     OW22063   2.991   0.148   0.135
 7055SOL    HW122064   3.040   0.102   0.061
 7055SOL    HW222065   2.900   0.173   0.103
 7056SOL     OW22066   0.048   5.681   1.205
 7056SOL    HW122067   0.070   5.757   1.265
 7056SOL    HW222068   0.089   5.696   1.115
 7057SOL     OW22069   2.897   5.679   3.802
 7057SOL    HW122070   2.868   5.668   3.897
 7057SOL    HW222071   2.992   5.648   3.792
 7058SOL     OW22072   5.086   1.951   6.552
 7058SOL    HW122073   5.165   1.890   6.548
 7058SOL    HW222074   5.117   2.045   6.569
 7059SOL     OW22075   1.647   1.127   4.088
 7059SOL    HW122076   1.731   1.123   4.035
 7059SOL    HW222077   1.572   1.086   4.035
 7060SOL     OW22078   3.834   6.843   1.078
 7060SOL    HW122079   3.800   6.749   1.077
 7060SOL    HW222080   3.759   6.905   1.101
 7061SOL     OW22081   0.462   2.943   3.133
 7061SOL    HW122082   0.494   2.950   3.038
 7061SOL    HW222083   0.467   2.847   3.162
 7062SOL     OW22084   3.984   2.047   5.130
 7062SOL    HW122085   3.982   1.951   5.155
 7062SOL    HW222086   3.921   2.063   5.054
 7063SOL     OW22087   1.481   0.385   1.872
 7063SOL    HW122088   1.461   0.290   1.847
 7063SOL    HW222089   1.470   0.396   1.971
 7064SOL     OW22090   4.128   1.639   6.389
 7064SOL    HW122091   4.093   1.613   6.299
 7064SOL    HW222092   4.224   1.668   6.380
 7065SOL     OW22093   3.583   4.214   5.161
 7065SOL    HW122094   3.551   4.201   5.067
 7065SOL    HW222095   3.505   4.230   5.221
 7066SOL     OW22096   4.400   0.126   5.575
 7066SOL    HW122097   4.389   0.070   5.493
 7066SOL    HW222098   4.425   0.220   5.549
 7067SOL     OW22099   1.192   3.214   6.116
 7067SOL    HW122100   1.114   3.260   6.159
 7067SOL    HW222101   1.187   3.116   6.133
 7068SOL     OW22102   5.580   4.379   4.469
 7068SOL    HW122103   5.678   4.360   4.462
 7068SOL    HW222104   5.529   4.311   4.415
 7069SOL     OW22105   5.568   1.995   5.331
 7069SOL    HW122106   5.660   1.955   5.325
 7069SOL    HW222107   5.555   2.058   5.254
 7070SOL     OW22108   1.013   6.407   4.445
 7070SOL    HW122109   0.964   6.458   4.516
 7070SOL    HW222110   0.949   6.353   4.392
 7071SOL     OW22111   4.747   5.836   6.652
 7071SOL    HW122112   4.795   5.854   6.738
 7071SOL    HW222113   4.716   5.922   6.612
 7072SOL     OW22114   2.294   4.839   7.024
 7072SOL    HW122115   2.250   4.861   0.086
 7072SOL    HW222116   2.393   4.831   0.013
 7073SOL     OW22117   3.535   0.147   3.004
 7073SOL    HW122118   3.547   0.231   3.058
 7073SOL    HW222119   3.622   0.123   2.960
 7074SOL     OW22120   6.354   3.333   3.414
 7074SOL    HW122121   6.328   3.426   3.385
 7074SOL    HW222122   6.418   3.339   3.490
 7075SOL     OW22123   2.873   5.261   4.644
 7075SOL    HW122124   2.796   5.216   4.689
 7075SOL    HW222125   2.876   5.357   4.670
 7076SOL     OW22126   5.586   2.755   0.733
 7076SOL    HW122127   5.685   2.746   0.737
 7076SOL    HW222128   5.547   2.677   0.683
 7077SOL     OW22129   2.375   4.342   3.283
 7077SOL    HW122130   2.413   4.435   3.282
 7077SOL    HW222131   2.410   4.291   3.204
 7078SOL     OW22132   6.085   6.239   1.168
 7078SOL    HW122133   6.074   6.297   1.249
 7078SOL    HW222134   6.182   6.231   1.146
 7079SOL     OW22135   1.129   6.518   4.023
 7079SOL    HW122136   1.134   6.419   4.041
 7079SOL    HW222137   1.153   6.535   3.928
 7080SOL     OW22138   4.177   1.954   3.905
 7080SOL    HW122139   4.176   1.865   3.952
 7080SOL    HW222140   4.231   1.946   3.821
 7081SOL     OW22141   1.026   6.011   0.498
 7081SOL    HW122142   0.944   5.984   0.447
 7081SOL    HW222143   1.083   6.068   0.440
 7082SOL     OW22144   6.944   4.353   0.443
 7082SOL    HW122145   0.018   4.353   0.425
 7082SOL    HW222146   6.925   4.296   0.523
 7083SOL     OW22147   0.378   1.444   2.407
 7083SOL    HW122148   0.351   1.484   2.494
 7083SOL    HW222149   0.467   1.481   2.380
 7084SOL     OW22150   0.838   5.537   5.673
 7084SOL    HW122151   0.751   5.516   5.629
 7084SOL    HW222152   0.872   5.625   5.640
 7085SOL     OW22153   6.732   2.330   2.781
 7085SOL    HW122154   6.694   2.401   2.722
 7085SOL    HW222155   6.731   2.362   2.876
 7086SOL     OW22156   5.488   0.460   6.555
 7086SOL    HW122157   5.459   0.494   6.644
 7086SOL    HW222158   5.588   0.466   6.548
 7087SOL     OW22159   5.314   3.752   2.119
 7087SOL    HW122160   5.244   3.735   2.188
 7087SOL    HW222161   5.329   3.670   2.065
 7088SOL     OW22162   4.990   2.385   5.624
 7088SOL    HW122163   4.972   2.288   5.643
 7088SOL    HW222164   4.903   2.433   5.614
 7089SOL     OW22165   2.518   4.509   2.882
 7089SOL    HW122166   2.547   4.570   2.808
 7089SOL    HW222167   2.447   4.553   2.936
 7090SOL     OW22168   2.543   1.465   0.432
 7090SOL    HW122169   2.578   1.548   0.388
 7090SOL    HW222170   2.534   1.480   0.531
 7091SOL     OW22171   0.604   0.456   1.530
 7091SOL    HW122172   0.528   0.518   1.544
 7091SOL    HW222173   0.682   0.486   1.585
 7092SOL     OW22174   3.921   2.827   5.889
 7092SOL    HW122175   3.828   2.792   5.877
 7092SOL    HW222176   3.962   2.842   5.799
 7093SOL     OW22177   3.145   3.473   1.962
 7093SOL    HW122178   3.230   3.513   1.930
 7093SOL    HW222179   3.070   3.500   1.901
 7094SOL     OW22180   1.346   0.197   5.431
 7094SOL    HW122181   1.305   0.110   5.402
 7094SOL    HW222182   1.297   0.232   5.510
 7095SOL     OW22183   3.657   4.783   6.151
 7095SOL    HW122184   3.678   4.718   6.078
 7095SOL    HW222185   3.570   4.828   6.132
 7096SOL     OW22186   6.464   0.695   2.211
 7096SOL    HW122187   6.368   0.695   2.239
 7096SOL    HW222188   6.522   0.717   2.290
 7097SOL     OW22189   4.792   0.556   2.063
 7097SOL    HW122190   4.757   0.496   1.992
 7097SOL    HW222191   4.875   0.602   2.029
 7098SOL     OW22192   1.442   6.076   5.524
 7098SOL    HW122193   1.530   6.029   5.534
 7098SOL    HW222194   1.431   6.107   5.430
 7099SOL     OW22195   3.989   2.071   4.357
 7099SOL    HW122196   4.052   2.147   4.373
 7099SOL    HW222197   3.961   2.033   4.445
 7100SOL     OW22198   6.763   2.981   0.792
 7100SOL    HW122199   6.806   2.906   0.843
 7100SOL    HW222200   6.669   2.956   0.769
 7101SOL     OW22201   2.672   0.382   5.919
 7101SOL    HW122202   2.677   0.285   5.896
 7101SOL    HW222203   2.629   0.393   6.009
 7102SOL     OW22204   5.959   0.350   1.321
 7102SOL    HW122205   5.975   0.256   1.288
 7102SOL    HW222206   5.940   0.348   1.419
 7103SOL     OW22207   5.134   5.453   1.886
 7103SOL    HW122208   5.222   5.495   1.866
 7103SOL    HW222209   5.069   5.475   1.813
 7104SOL     OW22210   5.476   3.680   2.365
 7104SOL    HW122211   5.439   3.697   2.456
 7104SOL    HW222212   5.477   3.765   2.313
 7105SOL     OW22213   3.912   4.017   4.449
 7105SOL    HW122214   3.948   4.039   4.540
 7105SOL    HW222215   3.900   3.918   4.442
 7106SOL     OW22216   3.124   3.029   1.052
 7106SOL    HW122217   3.113   3.052   1.148
 7106SOL    HW222218   3.187   2.951   1.043
 7107SOL     OW22219   3.788   0.213   0.358
 7107SOL    HW122220   3.760   0.179   0.447
 7107SOL    HW222221   3.721   0.279   0.325
 7108SOL     OW22222   2.619   6.259   2.366
 7108SOL    HW122223   2.594   6.200   2.442
 7108SOL    HW222224   2.604   6.211   2.279
 7109SOL     OW22225   1.628   1.272   6.655
 7109SOL    HW122226   1.567   1.223   6.592
 7109SOL    HW222227   1.722   1.239   6.643
 7110SOL     OW22228   3.530   6.036   4.189
 7110SOL    HW122229   3.588   5.971   4.139
 7110SOL    HW222230   3.434   6.019   4.166
 7111SOL     OW22231   1.407   1.965   3.998
 7111SOL    HW122232   1.463   2.045   3.977
 7111SOL    HW222233   1.437   1.925   4.085
 7112SOL     OW22234   2.250   4.099   4.471
 7112SOL    HW122235   2.178   4.126   4.535
 7112SOL    HW222236   2.338   4.097   4.518
 7113SOL     OW22237   3.336   4.871   5.279
 7113SOL    HW122238   3.434   4.890   5.267
 7113SOL    HW222239   3.308   4.900   5.371
 7114SOL     OW22240   4.461   5.405   1.391
 7114SOL    HW122241   4.432   5.456   1.473
 7114SOL    HW222242   4.385   5.347   1.360
 7115SOL     OW22243   5.501   3.567   0.102
 7115SOL    HW122244   5.555   3.491   0.139
 7115SOL    HW222245   5.449   3.610   0.176
 7116SOL     OW22246   5.572   4.108   3.147
 7116SOL    HW122247   5.511   4.125   3.224
 7116SOL    HW222248   5.603   4.196   3.110
 7117SOL     OW22249   7.002   0.081   4.598
 7117SOL    HW122250   0.046   0.116   4.661
 7117SOL    HW222251   7.009   7.006   4.594
 7118SOL     OW22252   3.639   4.444   5.740
 7118SOL    HW122253   3.599   4.352   5.738
 7118SOL    HW222254   3.592   4.499   5.809
 7119SOL     OW22255   5.065   1.079   5.134
 7119SOL    HW122256   5.001   1.016   5.178
 7119SOL    HW222257   5.124   1.028   5.070
 7120SOL     OW22258   4.454   1.917   1.594
 7120SOL    HW122259   4.392   1.971   1.650
 7120SOL    HW222260   4.531   1.885   1.650
 7121SOL     OW22261   0.249   6.474   2.941
 7121SOL    HW122262   0.268   6.380   2.968
 7121SOL    HW222263   0.237   6.480   2.842
 7122SOL     OW22264   1.560   0.392   5.842
 7122SOL    HW122265   1.613   0.368   5.761
 7122SOL    HW222266   1.463   0.375   5.824
 7123SOL     OW22267   6.860   5.121   4.038
 7123SOL    HW122268   6.930   5.184   4.006
 7123SOL    HW222269   6.775   5.138   3.989
 7124SOL     OW22270   0.944   2.149   1.615
 7124SOL    HW122271   0.894   2.197   1.687
 7124SOL    HW222272   1.037   2.130   1.646
 7125SOL     OW22273   1.671   1.424   1.580
 7125SOL    HW122274   1.725   1.340   1.588
 7125SOL    HW222275   1.729   1.497   1.541
 7126SOL     OW22276   4.333   5.683   0.739
 7126SOL    HW122277   4.334   5.774   0.781
 7126SOL    HW222278   4.427   5.657   0.715
 7127SOL     OW22279   2.845   6.178   5.724
 7127SOL    HW122280   2.900   6.098   5.749
 7127SOL    HW222281   2.775   6.151   5.658
 7128SOL     OW22282   3.865   3.551   6.621
 7128SOL    HW122283   3.876   3.649   6.635
 7128SOL    HW222284   3.865   3.531   6.523
 7129SOL     OW22285   1.385   1.283   1.198
 7129SOL    HW122286   1.465   1.276   1.258
 7129SOL    HW222287   1.353   1.377   1.196
 7130SOL     OW22288   3.533   6.712   4.079
 7130SOL    HW122289   3.546   6.636   4.143
 7130SOL    HW222290   3.491   6.678   3.995
 7131SOL     OW22291   3.413   1.426   1.358
 7131SOL    HW122292   3.413   1.478   1.273
 7131SOL    HW222293   3.328   1.373   1.365
 7132SOL     OW22294   5.134   4.357   0.217
 7132SOL    HW122295   5.215   4.307   0.187
 7132SOL    HW222296   5.151   4.456   0.211
 7133SOL     OW22297   4.329   4.927   4.162
 7133SOL    HW122298   4.359   4.849   4.107
 7133SOL    HW222299   4.392   4.938   4.240
 7134SOL     OW22300   5.373   6.499   1.903
 7134SOL    HW122301   5.433   6.440   1.849
 7134SOL    HW222302   5.379   6.593   1.869
 7135SOL     OW22303   2.093   3.303   2.214
 7135SOL    HW122304   2.175   3.347   2.178
 7135SOL    HW222305   2.084   3.322   2.311
 7136SOL     OW22306   2.686   1.553   1.273
 7136SOL    HW122307   2.725   1.611   1.201
 7136SOL    HW222308   2.705   1.593   1.362
 7137SOL     OW22309   3.037   1.612   0.585
 7137SOL    HW122310   3.029   1.526   0.534
 7137SOL    HW222311   2.960   1.671   0.562
 7138SOL     OW22312   2.106   1.217   1.043
 7138SOL    HW122313   2.146   1.166   0.967
 7138SOL    HW222314   2.008   1.201   1.046
 7139SOL     OW22315   5.250   4.823   2.115
 7139SOL    HW122316   5.286   4.732   2.134
 7139SOL    HW222317   5.151   4.824   2.131
 7140SOL     OW22318   5.950   4.323   1.070
 7140SOL    HW122319   5.952   4.358   0.976
 7140SOL    HW222320   6.014   4.375   1.126
 7141SOL     OW22321   4.388   6.937   0.941
 7141SOL    HW122322   4.485   6.918   0.950
 7141SOL    HW222323   4.351   6.886   0.864
 7142SOL     OW22324   3.193   7.009   3.907
 7142SOL    HW122325   3.199   6.911   3.888
 7142SOL    HW222326   3.100   0.017   3.891
 7143SOL     OW22327   1.382   3.860   6.864
 7143SOL    HW122328   1.318   3.836   6.791
 7143SOL    HW222329   1.408   3.778   6.914
 7144SOL     OW22330   0.463   1.061   3.771
 7144SOL    HW122331   0.384   1.014   3.733
 7144SOL    HW222332   0.434   1.141   3.823
 7145SOL     OW22333   4.384   0.855   6.729
 7145SOL    HW122334   4.425   0.920   6.792
 7145SOL    HW222335   4.391   0.891   6.635
 7146SOL     OW22336   1.733   1.743   6.114
 7146SOL    HW122337   1.713   1.713   6.208
 7146SOL    HW222338   1.786   1.828   6.117
 7147SOL     OW22339   6.063   6.054   3.245
 7147SOL    HW122340   6.012   6.031   3.162
 7147SOL    HW222341   6.069   5.973   3.304
 7148SOL     OW22342   5.956   5.741   1.375
 7148SOL    HW122343   5.884   5.758   1.308
 7148SOL    HW222344   6.044   5.735   1.328
 7149SOL     OW22345   0.196   5.032   3.708
 7149SOL    HW122346   0.101   5.041   3.678
 7149SOL    HW222347   0.214   4.936   3.732
 7150SOL     OW22348   3.892   3.256   0.218
 7150SOL    HW122349   3.973   3.315   0.221
 7150SOL    HW222350   3.824   3.290   0.283
 7151SOL     OW22351   3.454   6.420   0.711
 7151SOL    HW122352   3.384   6.488   0.734
 7151SOL    HW222353   3.477   6.368   0.794
 7152SOL     OW22354   6.189   0.880   6.624
 7152SOL    HW122355   6.203   0.974   6.594
 7152SOL    HW222356   6.112   0.875   6.687
 7153SOL     OW22357   3.788   5.390   2.439
 7153SOL    HW122358   3.796   5.366   2.342
 7153SOL    HW222359   3.691   5.404   2.461
 7154SOL     OW22360   3.855   0.893   2.863
 7154SOL    HW122361   3.777   0.954   2.848
 7154SOL    HW222362   3.902   0.876   2.776
 7155SOL     OW22363   2.853   2.459   0.884
 7155SOL    HW122364   2.789   2.490   0.954
 7155SOL    HW222365   2.862   2.529   0.813
 7156SOL     OW22366   4.846   3.450   2.645
 7156SOL    HW122367   4.856   3.524   2.712
 7156SOL    HW222368   4.855   3.362   2.691
 7157SOL     OW22369   6.502   4.535   1.346
 7157SOL    HW122370   6.493   4.440   1.316
 7157SOL    HW222371   6.457   4.596   1.281
 7158SOL     OW22372   6.642   0.512   3.448
 7158SOL    HW122373   6.652   0.547   3.354
 7158SOL    HW222374   6.716   0.546   3.505
 7159SOL     OW22375   0.720   4.628   4.342
 7159SOL    HW122376   0.630   4.638   4.383
 7159SOL    HW222377   0.712   4.629   4.242
 7160SOL     OW22378   6.107   6.558   2.639
 7160SOL    HW122379   6.105   6.519   2.731
 7160SOL    HW222380   6.201   6.583   2.616
 7161SOL     OW22381   3.589   4.026   3.157
 7161SOL    HW122382   3.495   4.059   3.146
 7161SOL    HW222383   3.607   3.956   3.088
 7162SOL     OW22384   0.450   4.847   0.160
 7162SOL    HW122385   0.364   4.797   0.151
 7162SOL    HW222386   0.525   4.789   0.126
 7163SOL     OW22387   2.039   0.540   2.733
 7163SOL    HW122388   2.007   0.635   2.722
 7163SOL    HW222389   2.022   0.510   2.826
 7164SOL     OW22390   1.963   1.039   4.724
 7164SOL    HW122391   1.868   1.010   4.738
 7164SOL    HW222392   2.010   0.973   4.665
 7165SOL     OW22393   6.224   6.023   1.679
 7165SOL    HW122394   6.139   5.993   1.722
 7165SOL    HW222395   6.286   6.060   1.749
 7166SOL     OW22396   5.789   0.463   6.471
 7166SOL    HW122397   5.857   0.531   6.500
 7166SOL    HW222398   5.834   0.392   6.417
 7167SOL     OW22399   5.191   1.979   5.575
 7167SOL    HW122400   5.171   1.942   5.484
 7167SOL    HW222401   5.235   1.909   5.630
 7168SOL     OW22402   3.003   1.613   2.588
 7168SOL    HW122403   3.093   1.616   2.544
 7168SOL    HW222404   3.005   1.666   2.673
 7169SOL     OW22405   0.904   4.118   4.515
 7169SOL    HW122406   0.825   4.115   4.576
 7169SOL    HW222407   0.898   4.199   4.456
 7170SOL     OW22408   4.062   6.544   2.301
 7170SOL    HW122409   3.995   6.601   2.349
 7170SOL    HW222410   4.016   6.488   2.232
 7171SOL     OW22411   5.993   4.061   1.033
 7171SOL    HW122412   5.940   3.984   1.070
 7171SOL    HW222413   5.935   4.142   1.030
 7172SOL     OW22414   2.184   1.691   5.278
 7172SOL    HW122415   2.182   1.616   5.211
 7172SOL    HW222416   2.279   1.717   5.295
 7173SOL     OW22417   6.514   5.462   6.786
 7173SOL    HW122418   6.527   5.475   6.885
 7173SOL    HW222419   6.435   5.403   6.770
 7174SOL     OW22420   6.606   4.547   1.016
 7174SOL    HW122421   6.608   4.471   0.952
 7174SOL    HW222422   6.696   4.589   1.022
 7175SOL     OW22423   6.351   3.869   5.290
 7175SOL    HW122424   6.256   3.883   5.263
 7175SOL    HW222425   6.409   3.937   5.244
 7176SOL     OW22426   0.618   1.258   4.036
 7176SOL    HW122427   0.580   1.307   3.958
 7176SOL    HW222428   0.550   1.194   4.072
 7177SOL     OW22429   2.070   5.570   5.421
 7177SOL    HW122430   2.076   5.596   5.517
 7177SOL    HW222431   2.059   5.470   5.414
 7178SOL     OW22432   1.022   1.123   6.350
 7178SOL    HW122433   1.100   1.099   6.409
 7178SOL    HW222434   1.048   1.200   6.291
 7179SOL     OW22435   2.129   4.467   4.773
 7179SOL    HW122436   2.072   4.549   4.771
 7179SOL    HW222437   2.202   4.476   4.706
 7180SOL     OW22438   2.611   3.962   1.195
 7180SOL    HW122439   2.674   3.914   1.256
 7180SOL    HW222440   2.622   3.928   1.102
 7181SOL     OW22441   2.131   1.098   6.086
 7181SOL    HW122442   2.163   1.159   6.013
 7181SOL    HW222443   2.033   1.085   6.077
 7182SOL     OW22444   1.052   3.840   3.234
 7182SOL    HW122445   0.980   3.771   3.226
 7182SOL    HW222446   1.011   3.925   3.268
 7183SOL     OW22447   2.068   5.688   2.036
 7183SOL    HW122448   2.033   5.696   2.129
 7183SOL    HW222449   2.141   5.754   2.021
 7184SOL     OW22450   5.778   1.165   3.584
 7184SOL    HW122451   5.682   1.190   3.598
 7184SOL    HW222452   5.801   1.087   3.642
 7185SOL     OW22453   5.487   0.939   5.793
 7185SOL    HW122454   5.501   0.848   5.753
 7185SOL    HW222455   5.392   0.948   5.823
 7186SOL     OW22456   0.520   0.867   0.882
 7186SOL    HW122457   0.459   0.800   0.840
 7186SOL    HW222458   0.560   0.924   0.810
 7187SOL     OW22459   3.164   3.726   5.137
 7187SOL    HW122460   3.157   3.628   5.124
 7187SOL    HW222461   3.083   3.771   5.100
 7188SOL     OW22462   4.565   4.195   0.085
 7188SOL    HW122463   4.643   4.138   0.112
 7188SOL    HW222464   4.575   4.222   7.014
 7189SOL     OW22465   6.236   3.466   5.211
 7189SOL    HW122466   6.332   3.436   5.209
 7189SOL    HW222467   6.220   3.533   5.139
 7190SOL     OW22468   5.903   6.170   1.452
 7190SOL    HW122469   5.871   6.258   1.488
 7190SOL    HW222470   5.858   6.152   1.365
 7191SOL     OW22471   0.168   4.096   3.321
 7191SOL    HW122472   0.226   4.016   3.314
 7191SOL    HW222473   0.122   4.112   3.233
 7192SOL     OW22474   1.441   4.395   6.004
 7192SOL    HW122475   1.392   4.311   5.980
 7192SOL    HW222476   1.473   4.388   6.099
 7193SOL     OW22477   2.757   1.551   3.048
 7193SOL    HW122478   2.765   1.473   2.986
 7193SOL    HW222479   2.714   1.627   3.000
 7194SOL     OW22480   2.240   2.312   0.143
 7194SOL    HW122481   2.286   2.324   0.055
 7194SOL    HW222482   2.143   2.336   0.134
 7195SOL     OW22483   5.967   4.387   6.466
 7195SOL    HW122484   5.928   4.479   6.478
 7195SOL    HW222485   5.925   4.325   6.533
 7196SOL     OW22486   3.337   3.891   2.023
 7196SOL    HW122487   3.274   3.964   2.049
 7196SOL    HW222488   3.413   3.887   2.088
 7197SOL     OW22489   1.066   4.123   5.506
 7197SOL    HW122490   1.050   4.122   5.408
 7197SOL    HW222491   1.135   4.193   5.528
 7198SOL     OW22492   0.139   0.780   0.013
 7198SOL    HW122493   0.043   0.801   7.022
 7198SOL    HW222494   0.196   0.824   6.969
 7199SOL     OW22495   0.936   0.138   2.562
 7199SOL    HW122496   0.911   0.222   2.611
 7199SOL    HW222497   1.005   0.159   2.493
 7200SOL     OW22498   1.752   3.482   0.701
 7200SOL    HW122499   1.771   3.387   0.676
 7200SOL    HW222500   1.767   3.493   0.799
 7201SOL     OW22501   0.212   5.664   4.145
 7201SOL    HW122502   0.153   5.585   4.156
 7201SOL    HW222503   0.307   5.638   4.164
 7202SOL     OW22504   5.387   0.098   5.801
 7202SOL    HW122505   5.361   0.017   5.854
 7202SOL    HW222506   5.457   0.072   5.734
 7203SOL     OW22507   1.227   0.933   1.955
 7203SOL    HW122508   1.144   0.878   1.948
 7203SOL    HW222509   1.208   1.026   1.924
 7204SOL     OW22510   6.396   1.477   6.806
 7204SOL    HW122511   6.382   1.426   6.721
 7204SOL    HW222512   6.318   1.463   6.867
 7205SOL     OW22513   1.279   3.323   4.592
 7205SOL    HW122514   1.297   3.285   4.683
 7205SOL    HW222515   1.336   3.403   4.577
 7206SOL     OW22516   1.433   1.546   1.454
 7206SOL    HW122517   1.491   1.625   1.434
 7206SOL    HW222518   1.490   1.464   1.460
 7207SOL     OW22519   2.619   1.534   3.841
 7207SOL    HW122520   2.592   1.629   3.825
 7207SOL    HW222521   2.703   1.514   3.791
 7208SOL     OW22522   4.835   0.043   4.335
 7208SOL    HW122523   4.858   0.094   4.253
 7208SOL    HW222524   4.836   6.970   4.315
 7209SOL     OW22525   2.109   2.701   2.276
 7209SOL    HW122526   2.172   2.777   2.295
 7209SOL    HW222527   2.156   2.631   2.224
 7210SOL     OW22528   3.805   1.915   3.710
 7210SOL    HW122529   3.777   1.934   3.616
 7210SOL    HW222530   3.732   1.942   3.773
 7211SOL     OW22531   3.175   5.959   5.632
 7211SOL    HW122532   3.266   5.932   5.662
 7211SOL    HW222533   3.181   6.038   5.571
 7212SOL     OW22534   6.908   6.517   6.440
 7212SOL    HW122535   6.944   6.580   6.509
 7212SOL    HW222536   6.885   6.568   6.357
 7213SOL     OW22537   3.806   6.374   6.411
 7213SOL    HW122538   3.741   6.450   6.409
 7213SOL    HW222539   3.769   6.297   6.360
 7214SOL     OW22540   6.890   1.153   5.640
 7214SOL    HW122541   6.897   1.114   5.549
 7214SOL    HW222542   6.954   1.229   5.649
 7215SOL     OW22543   6.304   2.553   4.301
 7215SOL    HW122544   6.298   2.465   4.255
 7215SOL    HW222545   6.373   2.548   4.373
 7216SOL     OW22546   3.065   5.939   2.389
 7216SOL    HW122547   3.020   6.020   2.425
 7216SOL    HW222548   3.126   5.965   2.314
 7217SOL     OW22549   1.548   3.575   3.298
 7217SOL    HW122550   1.604   3.511   3.350
 7217SOL    HW222551   1.481   3.617   3.360
 7218SOL     OW22552   0.095   2.963   3.868
 7218SOL    HW122553   0.144   3.031   3.924
 7218SOL    HW222554   0.159   2.918   3.807
 7219SOL     OW22555   3.229   6.854   1.881
 7219SOL    HW122556   3.299   6.854   1.810
 7219SOL    HW222557   3.140   6.874   1.841
 7220SOL     OW22558   6.537   4.766   3.686
 7220SOL    HW122559   6.615   4.825   3.709
 7220SOL    HW222560   6.460   4.790   3.745
 7221SOL     OW22561   3.342   6.125   4.669
 7221SOL    HW122562   3.395   6.067   4.731
 7221SOL    HW222563   3.401   6.157   4.595
 7222SOL     OW22564   5.567   0.335   3.276
 7222SOL    HW122565   5.571   0.364   3.372
 7222SOL    HW222566   5.540   0.239   3.271
 7223SOL     OW22567   2.926   0.692   0.524
 7223SOL    HW122568   2.882   0.630   0.589
 7223SOL    HW222569   2.945   0.643   0.438
 7224SOL     OW22570   4.835   2.489   4.830
 7224SOL    HW122571   4.911   2.458   4.886
 7224SOL    HW222572   4.843   2.448   4.739
 7225SOL     OW22573   2.168   6.749   0.879
 7225SOL    HW122574   2.202   6.833   0.838
 7225SOL    HW222575   2.069   6.743   0.866
 7226SOL     OW22576   6.041   0.315   1.619
 7226SOL    HW122577   6.096   0.390   1.656
 7226SOL    HW222578   5.984   0.277   1.691
 7227SOL     OW22579   2.814   1.673   1.932
 7227SOL    HW122580   2.890   1.709   1.877
 7227SOL    HW222581   2.824   1.574   1.941
 7228SOL     OW22582   1.225   1.378   3.676
 7228SOL    HW122583   1.263   1.286   3.668
 7228SOL    HW222584   1.135   1.373   3.721
 7229SOL     OW22585   0.208   6.910   4.954
 7229SOL    HW122586   0.260   6.927   4.870
 7229SOL    HW222587   0.167   6.995   4.986
 7230SOL     OW22588   3.067   5.523   3.513
 7230SOL    HW122589   3.120   5.445   3.547
 7230SOL    HW222590   3.089   5.540   3.417
 7231SOL     OW22591   4.217   1.021   0.967
 7231SOL    HW122592   4.163   0.946   0.931
 7231SOL    HW222593   4.187   1.107   0.925
 7232SOL     OW22594   4.869   6.352   2.880
 7232SOL    HW122595   4.964   6.343   2.911
 7232SOL    HW222596   4.823   6.422   2.933
 7233SOL     OW22597   1.043   1.062   4.941
 7233SOL    HW122598   1.119   1.029   4.997
 7233SOL    HW222599   0.960   1.068   4.997
 7234SOL     OW22600   5.595   3.431   2.815
 7234SOL    HW122601   5.508   3.406   2.856
 7234SOL    HW222602   5.590   3.418   2.716
 7235SOL     OW22603   6.311   4.710   1.792
 7235SOL    HW122604   6.213   4.694   1.789
 7235SOL    HW222605   6.338   4.765   1.713
 7236SOL     OW22606   2.089   2.557   2.657
 7236SOL    HW122607   2.006   2.561   2.600
 7236SOL    HW222608   2.138   2.473   2.637
 7237SOL     OW22609   3.918   0.109   6.281
 7237SOL    HW122610   3.881   0.016   6.279
 7237SOL    HW222611   3.848   0.173   6.250
 7238SOL     OW22612   4.425   2.356   6.526
 7238SOL    HW122613   4.494   2.285   6.539
 7238SOL    HW222614   4.388   2.350   6.433
 7239SOL     OW22615   1.008   3.247   1.978
 7239SOL    HW122616   1.090   3.234   1.923
 7239SOL    HW222617   0.952   3.164   1.976
 7240SOL     OW22618   6.686   1.475   6.853
 7240SOL    HW122619   6.590   1.500   6.846
 7240SOL    HW222620   6.741   1.539   6.799
 7241SOL     OW22621   2.675   6.968   0.458
 7241SOL    HW122622   2.586   6.975   0.414
 7241SOL    HW222623   2.664   6.930   0.550
 7242SOL     OW22624   7.013   5.724   5.863
 7242SOL    HW122625   0.061   5.751   5.800
 7242SOL    HW222626   6.927   5.716   5.814
 7243SOL     OW22627   6.910   4.342   6.200
 7243SOL    HW122628   6.926   4.351   6.102
 7243SOL    HW222629   6.902   4.245   6.224
 7244SOL     OW22630   0.636   0.441   1.260
 7244SOL    HW122631   0.668   0.444   1.355
 7244SOL    HW222632   0.537   0.450   1.257
 7245SOL     OW22633   1.110   2.719   5.260
 7245SOL    HW122634   1.197   2.687   5.223
 7245SOL    HW222635   1.035   2.679   5.208
 7246SOL     OW22636   1.639   0.250   4.059
 7246SOL    HW122637   1.684   0.231   4.147
 7246SOL    HW222638   1.680   0.330   4.017
 7247SOL     OW22639   3.046   2.131   5.745
 7247SOL    HW122640   3.065   2.186   5.664
 7247SOL    HW222641   3.112   2.057   5.752
 7248SOL     OW22642   2.992   0.711   2.639
 7248SOL    HW122643   3.061   0.780   2.615
 7248SOL    HW222644   3.027   0.620   2.620
 7249SOL     OW22645   4.815   5.353   1.908
 7249SOL    HW122646   4.855   5.405   1.983
 7249SOL    HW222647   4.782   5.415   1.838
 7250SOL     OW22648   5.337   5.219   6.096
 7250SOL    HW122649   5.286   5.290   6.047
 7250SOL    HW222650   5.426   5.255   6.123
 7251SOL     OW22651   0.904   0.161   4.784
 7251SOL    HW122652   0.960   0.203   4.855
 7251SOL    HW222653   0.876   0.069   4.813
 7252SOL     OW22654   3.036   3.527   1.699
 7252SOL    HW122655   2.940   3.502   1.693
 7252SOL    HW222656   3.050   3.620   1.663
 7253SOL     OW22657   2.107   6.006   6.782
 7253SOL    HW122658   2.173   5.987   6.710
 7253SOL    HW222659   2.024   6.045   6.742
 7254SOL     OW22660   5.250   5.158   4.598
 7254SOL    HW122661   5.346   5.160   4.626
 7254SOL    HW222662   5.192   5.171   4.678
 7255SOL     OW22663   4.721   3.850   0.008
 7255SOL    HW122664   4.731   3.754   7.006
 7255SOL    HW222665   4.805   3.900   7.010
 7256SOL     OW22666   3.418   5.912   5.767
 7256SOL    HW122667   3.480   5.988   5.785
 7256SOL    HW222668   3.462   5.848   5.704
 7257SOL     OW22669   0.501   1.913   3.632
 7257SOL    HW122670   0.473   1.876   3.544
 7257SOL    HW222671   0.481   2.011   3.635
 7258SOL     OW22672   4.876   1.990   2.959
 7258SOL    HW122673   4.961   2.025   2.920
 7258SOL    HW222674   4.803   1.998   2.893
 7259SOL     OW22675   1.263   3.431   1.983
 7259SOL    HW122676   1.244   3.437   2.081
 7259SOL    HW222677   1.270   3.334   1.957
 7260SOL     OW22678   5.813   1.602   2.057
 7260SOL    HW122679   5.848   1.667   2.125
 7260SOL    HW222680   5.866   1.608   1.973
 7261SOL     OW22681   0.931   4.752   1.434
 7261SOL    HW122682   0.892   4.831   1.481
 7261SOL    HW222683   1.014   4.722   1.482
 7262SOL     OW22684   5.244   1.936   6.894
 7262SOL    HW122685   5.307   2.013   6.881
 7262SOL    HW222686   5.194   1.948   6.979
 7263SOL     OW22687   0.354   6.388   0.389
 7263SOL    HW122688   0.347   6.302   0.439
 7263SOL    HW222689   0.265   6.410   0.348
 7264SOL     OW22690   5.397   1.163   0.825
 7264SOL    HW122691   5.353   1.101   0.760
 7264SOL    HW222692   5.411   1.252   0.781
 7265SOL     OW22693   5.576   4.687   5.622
 7265SOL    HW122694   5.665   4.706   5.662
 7265SOL    HW222695   5.586   4.619   5.549
 7266SOL     OW22696   5.934   1.243   3.126
 7266SOL    HW122697   5.843   1.270   3.094
 7266SOL    HW222698   5.926   1.184   3.206
 7267SOL     OW22699   6.597   6.634   5.086
 7267SOL    HW122700   6.639   6.547   5.060
 7267SOL    HW222701   6.505   6.616   5.121
 7268SOL     OW22702   6.992   6.090   4.551
 7268SOL    HW122703   6.962   6.164   4.491
 7268SOL    HW222704   0.061   6.108   4.581
 7269SOL     OW22705   2.032   6.269   5.971
 7269SOL    HW122706   2.032   6.332   6.048
 7269SOL    HW222707   2.063   6.317   5.889
 7270SOL     OW22708   0.325   3.040   4.670
 7270SOL    HW122709   0.391   3.039   4.595
 7270SOL    HW222710   0.235   3.015   4.636
 7271SOL     OW22711   1.555   4.915   4.414
 7271SOL    HW122712   1.455   4.911   4.410
 7271SOL    HW222713   1.587   4.996   4.366
 7272SOL     OW22714   5.992   6.028   2.249
 7272SOL    HW122715   6.065   6.005   2.184
 7272SOL    HW222716   5.940   5.946   2.272
 7273SOL     OW22717   6.030   3.904   0.377
 7273SOL    HW122718   6.075   3.849   0.447
 7273SOL    HW222719   6.094   3.975   0.345
 7274SOL     OW22720   0.481   5.099   6.839
 7274SOL    HW122721   0.445   5.040   6.910
 7274SOL    HW222722   0.417   5.174   6.821
 7275SOL     OW22723   6.761   5.676   2.866
 7275SOL    HW122724   6.807   5.760   2.839
 7275SOL    HW222725   6.825   5.599   2.859
 7276SOL     OW22726   4.910   0.749   3.386
 7276SOL    HW122727   4.837   0.757   3.454
 7276SOL    HW222728   4.981   0.816   3.406
 7277SOL     OW22729   5.096   0.537   4.430
 7277SOL    HW122730   4.997   0.539   4.444
 7277SOL    HW222731   5.138   0.483   4.503
 7278SOL     OW22732   3.668   3.002   1.480
 7278SOL    HW122733   3.640   2.909   1.502
 7278SOL    HW222734   3.745   3.000   1.416
 7279SOL     OW22735   4.364   4.846   6.217
 7279SOL    HW122736   4.416   4.780   6.162
 7279SOL    HW222737   4.425   4.919   6.248
 7280SOL     OW22738   0.191   0.993   3.433
 7280SOL    HW122739   0.162   1.073   3.382
 7280SOL    HW222740   0.290   0.980   3.422
 7281SOL     OW22741   3.287   1.825   6.696
 7281SOL    HW122742   3.260   1.918   6.671
 7281SOL    HW222743   3.368   1.828   6.755
 7282SOL     OW22744   5.521   5.704   3.057
 7282SOL    HW122745   5.562   5.795   3.051
 7282SOL    HW222746   5.446   5.705   3.122
 7283SOL     OW22747   4.118   1.550   2.906
 7283SOL    HW122748   4.132   1.451   2.904
 7283SOL    HW222749   4.043   1.574   2.844
 7284SOL     OW22750   0.325   3.261   6.241
 7284SOL    HW122751   0.251   3.206   6.201
 7284SOL    HW222752   0.412   3.232   6.201
 7285SOL     OW22753   5.109   3.221   2.544
 7285SOL    HW122754   5.158   3.308   2.553
 7285SOL    HW222755   5.039   3.215   2.614
 7286SOL     OW22756   2.922   0.698   0.232
 7286SOL    HW122757   2.970   0.740   0.155
 7286SOL    HW222758   2.888   0.769   0.293
 7287SOL     OW22759   0.075   2.473   6.132
 7287SOL    HW122760   0.160   2.422   6.150
 7287SOL    HW222761   0.043   2.451   6.040
 7288SOL     OW22762   3.124   0.479   0.438
 7288SOL    HW122763   3.160   0.386   0.450
 7288SOL    HW222764   3.195   0.545   0.461
 7289SOL     OW22765   5.076   2.277   4.406
 7289SOL    HW122766   4.981   2.256   4.429
 7289SOL    HW222767   5.113   2.341   4.473
 7290SOL     OW22768   3.596   0.427   5.493
 7290SOL    HW122769   3.563   0.463   5.581
 7290SOL    HW222770   3.599   0.327   5.497
 7291SOL     OW22771   1.899   6.686   0.820
 7291SOL    HW122772   1.808   6.686   0.779
 7291SOL    HW222773   1.914   6.599   0.869
 7292SOL     OW22774   3.308   0.725   3.130
 7292SOL    HW122775   3.291   0.649   3.068
 7292SOL    HW222776   3.322   0.690   3.223
 7293SOL     OW22777   1.378   2.200   5.078
 7293SOL    HW122778   1.311   2.173   5.147
 7293SOL    HW222779   1.455   2.137   5.079
 7294SOL     OW22780   2.313   4.562   6.965
 7294SOL    HW122781   2.291   4.657   6.989
 7294SOL    HW222782   2.385   4.528   0.001
 7295SOL     OW22783   0.820   2.554   0.853
 7295SOL    HW122784   0.837   2.552   0.951
 7295SOL    HW222785   0.894   2.602   0.807
 7296SOL     OW22786   2.991   5.373   1.619
 7296SOL    HW122787   3.014   5.277   1.604
 7296SOL    HW222788   2.934   5.381   1.701
 7297SOL     OW22789   3.616   6.144   1.566
 7297SOL    HW122790   3.550   6.141   1.491
 7297SOL    HW222791   3.693   6.202   1.541
 7298SOL     OW22792   4.552   4.655   5.167
 7298SOL    HW122793   4.512   4.616   5.084
 7298SOL    HW222794   4.580   4.581   5.228
 7299SOL     OW22795   0.789   1.718   0.565
 7299SOL    HW122796   0.883   1.724   0.532
 7299SOL    HW222797   0.780   1.771   0.649
 7300SOL     OW22798   6.427   5.722   3.284
 7300SOL    HW122799   6.348   5.710   3.224
 7300SOL    HW222800   6.493   5.784   3.240
 7301SOL     OW22801   5.849   1.197   4.857
 7301SOL    HW122802   5.784   1.127   4.828
 7301SOL    HW222803   5.799   1.278   4.888
 7302SOL     OW22804   0.976   2.023   5.588
 7302SOL    HW122805   0.935   1.949   5.641
 7302SOL    HW222806   1.057   1.988   5.540
 7303SOL     OW22807   3.843   0.441   6.913
 7303SOL    HW122808   3.807   0.498   6.986
 7303SOL    HW222809   3.875   0.354   6.950
 7304SOL     OW22810   3.878   4.617   0.855
 7304SOL    HW122811   3.950   4.597   0.789
 7304SOL    HW222812   3.861   4.716   0.858
 7305SOL     OW22813   4.759   1.008   0.457
 7305SOL    HW122814   4.690   0.943   0.425
 7305SOL    HW222815   4.800   0.973   0.541
 7306SOL     OW22816   4.794   2.262   2.000
 7306SOL    HW122817   4.763   2.334   2.063
 7306SOL    HW222818   4.874   2.295   1.949
 7307SOL     OW22819   2.031   6.991   2.229
 7307SOL    HW122820   2.048   0.037   2.161
 7307SOL    HW222821   1.993   0.009   2.311
 7308SOL     OW22822   7.011   3.425   5.801
 7308SOL    HW122823   7.023   3.333   5.762
 7308SOL    HW222824   6.960   3.418   5.887
 7309SOL     OW22825   4.889   5.697   1.348
 7309SOL    HW122826   4.940   5.614   1.370
 7309SOL    HW222827   4.929   5.775   1.396
 7310SOL     OW22828   2.355   3.987   1.642
 7310SOL    HW122829   2.340   4.085   1.637
 7310SOL    HW222830   2.279   3.939   1.597
 7311SOL     OW22831   3.323   2.090   1.724
 7311SOL    HW122832   3.224   2.087   1.733
 7311SOL    HW222833   3.352   2.183   1.701
 7312SOL     OW22834   0.423   3.529   4.858
 7312SOL    HW122835   0.365   3.458   4.819
 7312SOL    HW222836   0.405   3.536   4.956
 7313SOL     OW22837   2.625   1.783   6.344
 7313SOL    HW122838   2.590   1.690   6.334
 7313SOL    HW222839   2.642   1.803   6.440
 7314SOL     OW22840   6.938   5.617   6.112
 7314SOL    HW122841   6.860   5.666   6.152
 7314SOL    HW222842   6.960   5.657   6.024
 7315SOL     OW22843   6.228   0.556   2.579
 7315SOL    HW122844   6.151   0.493   2.590
 7315SOL    HW222845   6.196   0.639   2.533
 7316SOL     OW22846   3.114   3.809   6.372
 7316SOL    HW122847   3.032   3.769   6.330
 7316SOL    HW222848   3.184   3.822   6.302
 7317SOL     OW22849   4.975   1.205   2.779
 7317SOL    HW122850   4.926   1.170   2.859
 7317SOL    HW222851   5.024   1.288   2.803
 7318SOL     OW22852   1.660   0.630   1.179
 7318SOL    HW122853   1.627   0.638   1.085
 7318SOL    HW222854   1.690   0.719   1.213
 7319SOL     OW22855   6.708   4.684   6.449
 7319SOL    HW122856   6.717   4.770   6.499
 7319SOL    HW222857   6.675   4.703   6.357
 7320SOL     OW22858   6.577   3.544   2.127
 7320SOL    HW122859   6.610   3.634   2.153
 7320SOL    HW222860   6.560   3.489   2.209
 7321SOL     OW22861   2.446   0.549   5.484
 7321SOL    HW122862   2.537   0.513   5.506
 7321SOL    HW222863   2.383   0.530   5.559
 7322SOL     OW22864   6.700   2.832   2.969
 7322SOL    HW122865   6.616   2.886   2.975
 7322SOL    HW222866   6.742   2.845   2.880
 7323SOL     OW22867   1.843   2.154   2.071
 7323SOL    HW122868   1.834   2.095   1.991
 7323SOL    HW222869   1.782   2.233   2.061
 7324SOL     OW22870   4.516   6.279   2.232
 7324SOL    HW122871   4.488   6.226   2.312
 7324SOL    HW222872   4.616   6.279   2.226
 7325SOL     OW22873   3.289   6.552   0.443
 7325SOL    HW122874   3.211   6.510   0.396
 7325SOL    HW222875   3.274   6.551   0.541
 7326SOL     OW22876   2.999   5.757   5.751
 7326SOL    HW122877   3.059   5.816   5.698
 7326SOL    HW222878   2.919   5.731   5.696
 7327SOL     OW22879   6.109   1.999   6.459
 7327SOL    HW122880   6.180   1.958   6.402
 7327SOL    HW222881   6.083   1.935   6.531
 7328SOL     OW22882   3.484   0.567   6.678
 7328SOL    HW122883   3.409   0.526   6.729
 7328SOL    HW222884   3.518   0.502   6.610
 7329SOL     OW22885   5.700   4.206   1.343
 7329SOL    HW122886   5.637   4.280   1.364
 7329SOL    HW222887   5.778   4.209   1.405
 7330SOL     OW22888   2.467   2.028   6.854
 7330SOL    HW122889   2.426   2.008   6.943
 7330SOL    HW222890   2.437   2.119   6.824
 7331SOL     OW22891   5.755   6.956   2.194
 7331SOL    HW122892   5.659   6.930   2.206
 7331SOL    HW222893   5.781   7.019   2.267
 7332SOL     OW22894   2.189   6.266   0.522
 7332SOL    HW122895   2.216   6.319   0.442
 7332SOL    HW222896   2.116   6.201   0.496
 7333SOL     OW22897   0.298   2.152   2.439
 7333SOL    HW122898   0.258   2.234   2.480
 7333SOL    HW222899   0.389   2.136   2.478
 7334SOL     OW22900   3.314   5.675   6.271
 7334SOL    HW122901   3.234   5.620   6.246
 7334SOL    HW222902   3.343   5.730   6.193
 7335SOL     OW22903   1.621   2.562   3.097
 7335SOL    HW122904   1.715   2.560   3.061
 7335SOL    HW222905   1.572   2.640   3.059
 7336SOL     OW22906   1.202   7.024   3.220
 7336SOL    HW122907   1.188   6.995   3.314
 7336SOL    HW222908   1.208   0.099   3.216
 7337SOL     OW22909   6.969   3.356   2.033
 7337SOL    HW122910   6.930   3.306   1.956
 7337SOL    HW222911   0.023   3.306   2.069
 7338SOL     OW22912   6.511   2.054   1.339
 7338SOL    HW122913   6.434   2.104   1.380
 7338SOL    HW222914   6.480   2.004   1.258
 7339SOL     OW22915   5.957   6.914   3.790
 7339SOL    HW122916   6.006   6.829   3.813
 7339SOL    HW222917   5.874   6.892   3.738
 7340SOL     OW22918   2.483   0.826   1.141
 7340SOL    HW122919   2.533   0.911   1.160
 7340SOL    HW222920   2.394   0.828   1.187
 7341SOL     OW22921   6.727   3.031   6.759
 7341SOL    HW122922   6.687   3.116   6.727
 7341SOL    HW222923   6.789   3.049   6.835
 7342SOL     OW22924   0.306   1.516   1.534
 7342SOL    HW122925   0.307   1.420   1.565
 7342SOL    HW222926   0.276   1.574   1.609
 7343SOL     OW22927   5.544   3.975   0.190
 7343SOL    HW122928   5.535   3.947   0.285
 7343SOL    HW222929   5.472   3.931   0.135
 7344SOL     OW22930   0.621   1.345   6.713
 7344SOL    HW122931   0.605   1.438   6.680
 7344SOL    HW222932   0.578   1.333   6.802
 7345SOL     OW22933   4.555   3.837   5.592
 7345SOL    HW122934   4.550   3.817   5.690
 7345SOL    HW222935   4.606   3.763   5.546
 7346SOL     OW22936   4.109   5.686   2.595
 7346SOL    HW122937   4.123   5.769   2.649
 7346SOL    HW222938   4.011   5.665   2.591
 7347SOL     OW22939   0.858   2.072   0.710
 7347SOL    HW122940   0.906   2.007   0.769
 7347SOL    HW222941   0.893   2.164   0.727
 7348SOL     OW22942   1.326   3.788   3.309
 7348SOL    HW122943   1.241   3.787   3.257
 7348SOL    HW222944   1.359   3.882   3.319
 7349SOL     OW22945   4.114   0.178   1.820
 7349SOL    HW122946   4.120   0.108   1.891
 7349SOL    HW222947   4.172   0.151   1.743
 7350SOL     OW22948   2.789   2.445   5.506
 7350SOL    HW122949   2.837   2.532   5.491
 7350SOL    HW222950   2.805   2.384   5.428
 7351SOL     OW22951   5.772   5.587   3.967
 7351SOL    HW122952   5.720   5.530   3.904
 7351SOL    HW222953   5.726   5.592   4.055
 7352SOL     OW22954   2.062   1.749   2.698
 7352SOL    HW122955   1.993   1.760   2.769
 7352SOL    HW222956   2.151   1.730   2.740
 7353SOL     OW22957   0.052   0.488   6.497
 7353SOL    HW122958   0.144   0.449   6.498
 7353SOL    HW222959   7.016   0.428   6.444
 7354SOL     OW22960   1.092   2.155   4.799
 7354SOL    HW122961   1.008   2.208   4.815
 7354SOL    HW222962   1.095   2.079   4.863
 7355SOL     OW22963   1.314   0.981   0.723
 7355SOL    HW122964   1.312   0.883   0.746
 7355SOL    HW222965   1.348   1.032   0.802
 7356SOL     OW22966   4.141   3.422   6.330
 7356SOL    HW122967   4.147   3.329   6.367
 7356SOL    HW222968   4.140   3.418   6.230
 7357SOL     OW22969   3.213   5.976   2.155
 7357SOL    HW122970   3.270   5.906   2.111
 7357SOL    HW222971   3.228   6.064   2.110
 7358SOL     OW22972   6.567   3.429   2.377
 7358SOL    HW122973   6.497   3.487   2.416
 7358SOL    HW222974   6.639   3.412   2.445
 7359SOL     OW22975   4.580   2.068   5.525
 7359SOL    HW122976   4.642   1.991   5.536
 7359SOL    HW222977   4.552   2.102   5.615
 7360SOL     OW22978   3.009   3.301   5.491
 7360SOL    HW122979   2.921   3.339   5.518
 7360SOL    HW222980   3.066   3.373   5.452
 7361SOL     OW22981   5.141   0.747   3.098
 7361SOL    HW122982   5.125   0.843   3.122
 7361SOL    HW222983   5.057   0.694   3.114
 7362SOL     OW22984   1.324   5.932   6.148
 7362SOL    HW122985   1.403   5.970   6.100
 7362SOL    HW222986   1.355   5.862   6.212
 7363SOL     OW22987   4.636   1.578   1.241
 7363SOL    HW122988   4.699   1.598   1.315
 7363SOL    HW222989   4.624   1.659   1.183
 7364SOL     OW22990   3.925   0.904   2.022
 7364SOL    HW122991   3.909   0.994   2.063
 7364SOL    HW222992   4.022   0.879   2.032
 7365SOL     OW22993   0.745   6.444   1.977
 7365SOL    HW122994   0.708   6.501   1.904
 7365SOL    HW222995   0.785   6.502   2.048
 7366SOL     OW22996   2.081   6.937   5.864
 7366SOL    HW122997   2.036   0.000   5.882
 7366SOL    HW222998   2.045   6.899   5.779
 7367SOL     OW22999   4.760   2.902   0.944
 7367SOL    HW123000   4.678   2.891   1.000
 7367SOL    HW223001   4.733   2.903   0.847
 7368SOL     OW23002   3.810   2.983   2.558
 7368SOL    HW123003   3.721   3.028   2.551
 7368SOL    HW223004   3.875   3.045   2.601
 7369SOL     OW23005   2.871   1.708   1.127
 7369SOL    HW123006   2.876   1.747   1.035
 7369SOL    HW223007   2.958   1.667   1.151
 7370SOL     OW23008   2.277   1.503   6.077
 7370SOL    HW123009   2.200   1.499   6.140
 7370SOL    HW223010   2.266   1.432   6.007
 7371SOL     OW23011   2.621   6.662   3.018
 7371SOL    HW123012   2.693   6.721   3.053
 7371SOL    HW223013   2.533   6.708   3.028
 7372SOL     OW23014   4.431   6.538   4.447
 7372SOL    HW123015   4.491   6.525   4.368
 7372SOL    HW223016   4.376   6.621   4.433
 7373SOL     OW23017   6.331   1.595   4.506
 7373SOL    HW123018   6.427   1.567   4.501
 7373SOL    HW223019   6.323   1.677   4.563
 7374SOL     OW23020   2.468   2.054   5.226
 7374SOL    HW123021   2.414   1.983   5.179
 7374SOL    HW223022   2.438   2.144   5.194
 7375SOL     OW23023   2.081   2.589   1.866
 7375SOL    HW123024   2.095   2.686   1.846
 7375SOL    HW223025   1.999   2.579   1.923
 7376SOL     OW23026   1.367   1.968   1.239
 7376SOL    HW123027   1.377   1.909   1.320
 7376SOL    HW223028   1.457   1.997   1.208
 7377SOL     OW23029   5.048   4.966   0.542
 7377SOL    HW123030   4.965   4.912   0.554
 7377SOL    HW223031   5.128   4.909   0.562
 7378SOL     OW23032   1.236   0.740   4.847
 7378SOL    HW123033   1.184   0.801   4.787
 7378SOL    HW223034   1.318   0.708   4.800
 7379SOL     OW23035   3.574   1.225   2.403
 7379SOL    HW123036   3.653   1.282   2.381
 7379SOL    HW223037   3.519   1.269   2.475
 7380SOL     OW23038   0.511   4.649   3.938
 7380SOL    HW123039   0.472   4.675   3.850
 7380SOL    HW223040   0.610   4.660   3.936
 7381SOL     OW23041   4.203   3.143   0.601
 7381SOL    HW123042   4.135   3.217   0.591
 7381SOL    HW223043   4.244   3.124   0.512
 7382SOL     OW23044   6.966   1.234   4.934
 7382SOL    HW123045   6.976   1.146   4.889
 7382SOL    HW223046   0.026   1.287   4.923
 7383SOL     OW23047   2.912   6.022   1.416
 7383SOL    HW123048   2.953   5.960   1.483
 7383SOL    HW223049   2.821   5.989   1.391
 7384SOL     OW23050   6.862   6.911   2.793
 7384SOL    HW123051   6.781   6.871   2.750
 7384SOL    HW223052   6.944   6.879   2.746
 7385SOL     OW23053   2.906   5.415   2.532
 7385SOL    HW123054   2.951   5.463   2.458
 7385SOL    HW223055   2.970   5.402   2.608
 7386SOL     OW23056   6.739   2.785   6.656
 7386SOL    HW123057   6.686   2.719   6.709
 7386SOL    HW223058   6.726   2.877   6.694
 7387SOL     OW23059   6.759   5.045   5.116
 7387SOL    HW123060   6.841   5.096   5.140
 7387SOL    HW223061   6.705   5.027   5.199
 7388SOL     OW23062   1.250   4.854   2.412
 7388SOL    HW123063   1.180   4.921   2.438
 7388SOL    HW223064   1.218   4.801   2.333
 7389SOL     OW23065   6.688   3.774   6.231
 7389SOL    HW123066   6.662   3.839   6.301
 7389SOL    HW223067   6.657   3.806   6.141
 7390SOL     OW23068   2.393   2.235   2.176
 7390SOL    HW123069   2.484   2.276   2.172
 7390SOL    HW223070   2.401   2.138   2.198
 7391SOL     OW23071   3.911   3.359   3.100
 7391SOL    HW123072   3.956   3.272   3.122
 7391SOL    HW223073   3.981   3.429   3.088
 7392SOL     OW23074   3.311   6.090   6.862
 7392SOL    HW123075   3.318   5.991   6.846
 7392SOL    HW223076   3.232   6.108   6.921
 7393SOL     OW23077   6.102   4.666   3.150
 7393SOL    HW123078   6.153   4.748   3.124
 7393SOL    HW223079   6.080   4.670   3.248
 7394SOL     OW23080   1.209   3.082   5.655
 7394SOL    HW123081   1.225   3.022   5.733
 7394SOL    HW223082   1.287   3.078   5.593
 7395SOL     OW23083   1.964   3.739   1.363
 7395SOL    HW123084   2.047   3.706   1.320
 7395SOL    HW223085   1.911   3.792   1.296
 7396SOL     OW23086   2.085   6.539   1.435
 7396SOL    HW123087   1.999   6.552   1.385
 7396SOL    HW223088   2.153   6.500   1.373
 7397SOL     OW23089   4.949   5.381   4.398
 7397SOL    HW123090   5.006   5.404   4.319
 7397SOL    HW223091   4.914   5.288   4.388
 7398SOL     OW23092   1.054   4.900   3.176
 7398SOL    HW123093   1.066   4.997   3.158
 7398SOL    HW223094   0.989   4.887   3.251
 7399SOL     OW23095   7.017   2.766   4.007
 7399SOL    HW123096   0.059   2.746   4.078
 7399SOL    HW223097   0.009   2.857   3.970
 7400SOL     OW23098   4.116   2.669   5.997
 7400SOL    HW123099   4.203   2.718   6.002
 7400SOL    HW223100   4.048   2.726   5.950
 7401SOL     OW23101   1.297   3.553   3.106
 7401SOL    HW123102   1.326   3.648   3.117
 7401SOL    HW223103   1.347   3.495   3.170
 7402SOL     OW23104   3.421   4.182   6.257
 7402SOL    HW123105   3.424   4.196   6.356
 7402SOL    HW223106   3.406   4.085   6.238
 7403SOL     OW23107   1.478   4.103   2.190
 7403SOL    HW123108   1.559   4.147   2.150
 7403SOL    HW223109   1.506   4.047   2.268
 7404SOL     OW23110   2.803   4.794   1.765
 7404SOL    HW123111   2.870   4.761   1.698
 7404SOL    HW223112   2.791   4.725   1.837
 7405SOL     OW23113   3.744   5.002   4.408
 7405SOL    HW123114   3.662   5.012   4.353
 7405SOL    HW223115   3.730   5.045   4.498
 7406SOL     OW23116   1.089   1.414   4.629
 7406SOL    HW123117   1.127   1.372   4.712
 7406SOL    HW223118   1.162   1.459   4.579
 7407SOL     OW23119   1.430   6.762   5.348
 7407SOL    HW123120   1.499   6.794   5.283
 7407SOL    HW223121   1.474   6.710   5.421
 7408SOL     OW23122   3.774   4.202   5.970
 7408SOL    HW123123   3.700   4.206   5.903
 7408SOL    HW223124   3.742   4.156   6.052
 7409SOL     OW23125   5.358   3.651   0.322
 7409SOL    HW123126   5.424   3.693   0.385
 7409SOL    HW223127   5.377   3.553   0.315
 7410SOL     OW23128   0.673   0.899   0.299
 7410SOL    HW123129   0.629   0.986   0.274
 7410SOL    HW223130   0.739   0.874   0.229
 7411SOL     OW23131   2.067   0.780   6.849
 7411SOL    HW123132   2.095   0.797   6.944
 7411SOL    HW223133   2.123   0.834   6.787
 7412SOL     OW23134   4.373   6.807   1.232
 7412SOL    HW123135   4.427   6.889   1.249
 7412SOL    HW223136   4.276   6.830   1.234
 7413SOL     OW23137   4.293   4.885   3.725
 7413SOL    HW123138   4.362   4.815   3.742
 7413SOL    HW223139   4.217   4.845   3.674
 7414SOL     OW23140   1.963   0.977   3.158
 7414SOL    HW123141   1.874   1.004   3.121
 7414SOL    HW223142   1.971   0.877   3.156
 7415SOL     OW23143   1.901   4.688   4.950
 7415SOL    HW123144   1.825   4.688   5.015
 7415SOL    HW223145   1.981   4.644   4.992
 7416SOL     OW23146   2.257   0.247   2.340
 7416SOL    HW123147   2.163   0.274   2.364
 7416SOL    HW223148   2.292   0.183   2.408
 7417SOL     OW23149   2.229   2.036   1.880
 7417SOL    HW123150   2.315   2.053   1.929
 7417SOL    HW223151   2.181   2.123   1.867
 7418SOL     OW23152   1.747   5.086   6.550
 7418SOL    HW123153   1.813   5.021   6.511
 7418SOL    HW223154   1.791   5.176   6.560
 7419SOL     OW23155   6.699   4.212   4.143
 7419SOL    HW123156   6.798   4.226   4.151
 7419SOL    HW223157   6.676   4.198   4.047
 7420SOL     OW23158   0.238   6.332   1.025
 7420SOL    HW123159   0.207   6.346   1.119
 7420SOL    HW223160   0.177   6.381   0.962
 7421SOL     OW23161   4.212   3.640   1.208
 7421SOL    HW123162   4.236   3.567   1.143
 7421SOL    HW223163   4.123   3.679   1.184
 7422SOL     OW23164   7.015   4.384   1.998
 7422SOL    HW123165   7.001   4.403   1.901
 7422SOL    HW223166   6.926   4.376   2.044
 7423SOL     OW23167   6.277   2.782   5.544
 7423SOL    HW123168   6.342   2.713   5.575
 7423SOL    HW223169   6.184   2.747   5.552
 7424SOL     OW23170   6.860   1.751   5.597
 7424SOL    HW123171   6.884   1.677   5.534
 7424SOL    HW223172   6.770   1.787   5.574
 7425SOL     OW23173   5.149   0.009   0.525
 7425SOL    HW123174   5.228   6.999   0.475
 7425SOL    HW223175   5.066   7.020   0.470
 7426SOL     OW23176   3.285   1.691   5.500
 7426SOL    HW123177   3.187   1.689   5.520
 7426SOL    HW223178   3.313   1.604   5.459
 7427SOL     OW23179   4.854   0.898   4.456
 7427SOL    HW123180   4.925   0.912   4.526
 7427SOL    HW223181   4.778   0.961   4.473
 7428SOL     OW23182   4.280   0.375   5.331
 7428SOL    HW123183   4.276   0.372   5.431
 7428SOL    HW223184   4.293   0.283   5.294
 7429SOL     OW23185   0.642   6.313   3.426
 7429SOL    HW123186   0.714   6.363   3.475
 7429SOL    HW223187   0.666   6.216   3.423
 7430SOL     OW23188   0.095   3.201   0.955
 7430SOL    HW123189   0.170   3.239   0.901
 7430SOL    HW223190   0.008   3.234   0.918
 7431SOL     OW23191   0.556   2.343   2.821
 7431SOL    HW123192   0.579   2.396   2.739
 7431SOL    HW223193   0.590   2.250   2.811
 7432SOL     OW23194   1.746   0.445   3.504
 7432SOL    HW123195   1.750   0.402   3.594
 7432SOL    HW223196   1.689   0.390   3.442
 7433SOL     OW23197   4.267   6.395   6.498
 7433SOL    HW123198   4.312   6.369   6.583
 7433SOL    HW223199   4.187   6.336   6.483
 7434SOL     OW23200   5.356   5.485   5.643
 7434SOL    HW123201   5.437   5.488   5.584
 7434SOL    HW223202   5.299   5.565   5.625
 7435SOL     OW23203   4.765   0.103   1.439
 7435SOL    HW123204   4.827   0.030   1.410
 7435SOL    HW223205   4.817   0.181   1.472
 7436SOL     OW23206   4.608   4.131   6.247
 7436SOL    HW123207   4.635   4.035   6.248
 7436SOL    HW223208   4.668   4.183   6.308
 7437SOL     OW23209   3.062   5.621   0.432
 7437SOL    HW123210   3.141   5.657   0.382
 7437SOL    HW223211   3.055   5.522   0.418
 7438SOL     OW23212   1.323   0.082   0.161
 7438SOL    HW123213   1.327   7.008   0.146
 7438SOL    HW223214   1.243   0.104   0.217
 7439SOL     OW23215   1.695   6.291   5.547
 7439SOL    HW123216   1.672   6.229   5.472
 7439SOL    HW223217   1.612   6.315   5.597
 7440SOL     OW23218   6.781   2.826   4.141
 7440SOL    HW123219   6.852   2.803   4.074
 7440SOL    HW223220   6.764   2.924   4.138
 7441SOL     OW23221   5.453   0.296   4.525
 7441SOL    HW123222   5.521   0.330   4.460
 7441SOL    HW223223   5.498   0.236   4.592
 7442SOL     OW23224   6.087   1.483   0.427
 7442SOL    HW123225   6.003   1.454   0.380
 7442SOL    HW223226   6.121   1.568   0.386
 7443SOL     OW23227   5.939   5.151   1.865
 7443SOL    HW123228   5.939   5.161   1.766
 7443SOL    HW223229   5.903   5.233   1.907
 7444SOL     OW23230   5.533   1.133   6.885
 7444SOL    HW123231   5.531   1.233   6.886
 7444SOL    HW223232   5.441   1.098   6.870
 7445SOL     OW23233   2.957   0.807   1.398
 7445SOL    HW123234   3.056   0.806   1.411
 7445SOL    HW223235   2.914   0.745   1.464
 7446SOL     OW23236   5.151   2.118   0.547
 7446SOL    HW123237   5.234   2.150   0.502
 7446SOL    HW223238   5.071   2.153   0.498
 7447SOL     OW23239   6.380   5.140   6.601
 7447SOL    HW123240   6.449   5.212   6.594
 7447SOL    HW223241   6.314   5.150   6.527
 7448SOL     OW23242   5.829   6.795   4.436
 7448SOL    HW123243   5.827   6.782   4.535
 7448SOL    HW223244   5.903   6.857   4.411
 7449SOL     OW23245   0.946   5.600   0.702
 7449SOL    HW123246   0.930   5.640   0.792
 7449SOL    HW223247   0.862   5.558   0.668
 7450SOL     OW23248   5.669   2.583   5.017
 7450SOL    HW123249   5.639   2.515   5.084
 7450SOL    HW223250   5.736   2.644   5.060
 7451SOL     OW23251   6.168   5.941   2.074
 7451SOL    HW123252   6.197   5.847   2.092
 7451SOL    HW223253   6.240   6.004   2.103
 7452SOL     OW23254   5.798   5.838   4.643
 7452SOL    HW123255   5.852   5.921   4.658
 7452SOL    HW223256   5.707   5.862   4.612
 7453SOL     OW23257   4.334   5.079   4.734
 7453SOL    HW123258   4.306   5.160   4.787
 7453SOL    HW223259   4.329   4.998   4.793
 7454SOL     OW23260   2.767   1.772   0.870
 7454SOL    HW123261   2.713   1.829   0.932
 7454SOL    HW223262   2.735   1.677   0.877
 7455SOL     OW23263   6.862   2.987   2.080
 7455SOL    HW123264   6.779   2.935   2.065
 7455SOL    HW223265   6.869   3.060   2.011
 7456SOL     OW23266   2.299   1.377   4.856
 7456SOL    HW123267   2.356   1.447   4.813
 7456SOL    HW223268   2.276   1.307   4.789
 7457SOL     OW23269   3.176   0.188   4.824
 7457SOL    HW123270   3.234   0.269   4.837
 7457SOL    HW223271   3.112   0.205   4.750
 7458SOL     OW23272   1.574   0.249   6.096
 7458SOL    HW123273   1.559   0.294   6.008
 7458SOL    HW223274   1.550   0.152   6.089
 7459SOL     OW23275   5.980   1.509   2.888
 7459SOL    HW123276   5.919   1.484   2.813
 7459SOL    HW223277   6.053   1.569   2.854
 7460SOL     OW23278   1.079   5.738   0.190
 7460SOL    HW123279   1.166   5.738   0.239
 7460SOL    HW223280   1.004   5.744   0.256
 7461SOL     OW23281   6.324   6.589   6.259
 7461SOL    HW123282   6.231   6.568   6.288
 7461SOL    HW223283   6.384   6.512   6.280
 7462SOL     OW23284   1.850   4.577   1.824
 7462SOL    HW123285   1.889   4.669   1.833
 7462SOL    HW223286   1.893   4.516   1.891
 7463SOL     OW23287   2.820   4.358   0.104
 7463SOL    HW123288   2.799   4.294   0.030
 7463SOL    HW223289   2.901   4.412   0.079
 7464SOL     OW23290   5.869   6.603   5.557
 7464SOL    HW123291   5.784   6.584   5.509
 7464SOL    HW223292   5.850   6.653   5.641
 7465SOL     OW23293   2.506   4.840   6.743
 7465SOL    HW123294   2.582   4.896   6.708
 7465SOL    HW223295   2.420   4.888   6.727
 7466SOL     OW23296   0.089   0.747   5.827
 7466SOL    HW123297   0.047   0.732   5.737
 7466SOL    HW223298   0.080   0.844   5.851
 7467SOL     OW23299   0.404   2.659   5.744
 7467SOL    HW123300   0.442   2.584   5.691
 7467SOL    HW223301   0.308   2.638   5.766
 7468SOL     OW23302   5.137   3.077   4.619
 7468SOL    HW123303   5.047   3.103   4.582
 7468SOL    HW223304   5.132   3.074   4.718
 7469SOL     OW23305   6.541   1.394   0.229
 7469SOL    HW123306   6.590   1.307   0.224
 7469SOL    HW223307   6.477   1.391   0.306
 7470SOL     OW23308   5.223   3.969   3.455
 7470SOL    HW123309   5.144   4.030   3.455
 7470SOL    HW223310   5.199   3.883   3.409
 7471SOL     OW23311   5.310   6.381   6.293
 7471SOL    HW123312   5.267   6.464   6.328
 7471SOL    HW223313   5.409   6.394   6.290
 7472SOL     OW23314   6.612   1.254   5.369
 7472SOL    HW123315   6.663   1.169   5.380
 7472SOL    HW223316   6.523   1.245   5.416
 7473SOL     OW23317   5.077   5.746   3.969
 7473SOL    HW123318   5.038   5.744   4.062
 7473SOL    HW223319   5.024   5.809   3.913
 7474SOL     OW23320   6.491   1.735   6.836
 7474SOL    HW123321   6.470   1.638   6.821
 7474SOL    HW223322   6.415   1.791   6.802
 7475SOL     OW23323   4.459   2.388   1.926
 7475SOL    HW123324   4.523   2.438   1.869
 7475SOL    HW223325   4.368   2.388   1.884
 7476SOL     OW23326   2.663   1.427   3.292
 7476SOL    HW123327   2.621   1.371   3.363
 7476SOL    HW223328   2.598   1.438   3.216
 7477SOL     OW23329   6.903   2.737   4.934
 7477SOL    HW123330   6.915   2.692   4.845
 7477SOL    HW223331   6.865   2.829   4.920
 7478SOL     OW23332   5.873   3.831   5.203
 7478SOL    HW123333   5.879   3.790   5.112
 7478SOL    HW223334   5.853   3.761   5.271
 7479SOL     OW23335   5.015   2.693   1.953
 7479SOL    HW123336   5.016   2.621   2.022
 7479SOL    HW223337   4.931   2.747   1.962
 7480SOL     OW23338   1.601   4.469   2.304
 7480SOL    HW123339   1.599   4.567   2.282
 7480SOL    HW223340   1.690   4.446   2.343
 7481SOL     OW23341   6.383   5.079   0.236
 7481SOL    HW123342   6.432   4.995   0.210
 7481SOL    HW223343   6.292   5.079   0.195
 7482SOL     OW23344   4.469   2.416   2.384
 7482SOL    HW123345   4.516   2.470   2.454
 7482SOL    HW223346   4.386   2.465   2.355
 7483SOL     OW23347   5.042   3.041   4.882
 7483SOL    HW123348   5.003   3.012   4.970
 7483SOL    HW223349   5.031   2.967   4.815
 7484SOL     OW23350   2.056   5.358   4.514
 7484SOL    HW123351   2.107   5.330   4.433
 7484SOL    HW223352   2.118   5.397   4.581
 7485SOL     OW23353   2.697   0.454   4.735
 7485SOL    HW123354   2.674   0.537   4.786
 7485SOL    HW223355   2.729   0.383   4.798
 7486SOL     OW23356   1.370   6.091   7.013
 7486SOL    HW123357   1.357   5.997   6.979
 7486SOL    HW223358   1.293   6.148   6.982
 7487SOL     OW23359   2.880   0.493   3.467
 7487SOL    HW123360   2.820   0.573   3.459
 7487SOL    HW223361   2.966   0.520   3.510
 7488SOL     OW23362   1.972   5.911   4.631
 7488SOL    HW123363   1.932   5.822   4.654
 7488SOL    HW223364   1.981   5.918   4.531
 7489SOL     OW23365   5.935   3.147   6.742
 7489SOL    HW123366   5.924   3.118   6.837
 7489SOL    HW223367   6.004   3.219   6.737
 7490SOL     OW23368   1.437   0.464   3.585
 7490SOL    HW123369   1.512   0.529   3.580
 7490SOL    HW223370   1.464   0.378   3.542
 7491SOL     OW23371   4.399   2.683   6.515
 7491SOL    HW123372   4.329   2.648   6.453
 7491SOL    HW223373   4.399   2.629   6.599
 7492SOL     OW23374   2.094   0.603   4.309
 7492SOL    HW123375   2.136   0.600   4.400
 7492SOL    HW223376   2.165   0.596   4.239
 7493SOL     OW23377   6.301   3.002   5.697
 7493SOL    HW123378   6.303   3.083   5.638
 7493SOL    HW223379   6.310   2.920   5.640
 7494SOL     OW23380   5.558   1.920   3.749
 7494SOL    HW123381   5.625   1.852   3.719
 7494SOL    HW223382   5.466   1.892   3.722
 7495SOL     OW23383   0.973   3.122   5.550
 7495SOL    HW123384   1.066   3.096   5.575
 7495SOL    HW223385   0.915   3.040   5.550
 7496SOL     OW23386   5.834   3.493   4.285
 7496SOL    HW123387   5.796   3.458   4.200
 7496SOL    HW223388   5.852   3.591   4.275
 7497SOL     OW23389   1.574   5.109   1.017
 7497SOL    HW123390   1.482   5.149   1.009
 7497SOL    HW223391   1.635   5.174   1.063
 7498SOL     OW23392   3.132   1.104   4.280
 7498SOL    HW123393   3.214   1.113   4.337
 7498SOL    HW223394   3.054   1.080   4.338
 7499SOL     OW23395   4.225   2.325   3.504
 7499SOL    HW123396   4.318   2.302   3.475
 7499SOL    HW223397   4.165   2.327   3.423
 7500SOL     OW23398   3.329   6.106   2.836
 7500SOL    HW123399   3.301   6.092   2.741
 7500SOL    HW223400   3.251   6.092   2.897
 7501SOL     OW23401   5.224   4.423   3.662
 7501SOL    HW123402   5.250   4.511   3.702
 7501SOL    HW223403   5.277   4.409   3.578
 7502SOL     OW23404   2.854   6.855   4.297
 7502SOL    HW123405   2.864   6.825   4.392
 7502SOL    HW223406   2.794   6.792   4.248
 7503SOL     OW23407   2.779   6.424   1.287
 7503SOL    HW123408   2.795   6.432   1.189
 7503SOL    HW223409   2.849   6.366   1.328
 7504SOL     OW23410   0.226   6.231   3.120
 7504SOL    HW123411   0.320   6.217   3.151
 7504SOL    HW223412   0.163   6.216   3.196
 7505SOL     OW23413   1.385   2.222   6.115
 7505SOL    HW123414   1.415   2.138   6.160
 7505SOL    HW223415   1.337   2.280   6.181
 7506SOL     OW23416   4.547   2.489   3.837
 7506SOL    HW123417   4.512   2.455   3.924
 7506SOL    HW223418   4.504   2.440   3.762
 7507SOL     OW23419   5.966   2.702   3.001
 7507SOL    HW123420   5.947   2.660   3.090
 7507SOL    HW223421   5.906   2.662   2.932
 7508SOL     OW23422   2.399   4.952   0.287
 7508SOL    HW123423   2.366   5.014   0.358
 7508SOL    HW223424   2.477   4.900   0.322
 7509SOL     OW23425   6.019   3.513   0.528
 7509SOL    HW123426   6.030   3.556   0.439
 7509SOL    HW223427   6.001   3.415   0.516
 7510SOL     OW23428   4.087   3.796   4.744
 7510SOL    HW123429   4.098   3.716   4.685
 7510SOL    HW223430   4.129   3.778   4.833
 7511SOL     OW23431   2.838   6.122   2.946
 7511SOL    HW123432   2.825   6.174   3.030
 7511SOL    HW223433   2.900   6.172   2.885
 7512SOL     OW23434   2.510   0.848   6.835
 7512SOL    HW123435   2.583   0.865   6.901
 7512SOL    HW223436   2.426   0.891   6.866
 7513SOL     OW23437   1.536   1.724   2.246
 7513SOL    HW123438   1.595   1.652   2.283
 7513SOL    HW223439   1.484   1.766   2.321
 7514SOL     OW23440   2.514   5.328   3.083
 7514SOL    HW123441   2.520   5.233   3.114
 7514SOL    HW223442   2.422   5.345   3.047
 7515SOL     OW23443   0.088   4.756   4.990
 7515SOL    HW123444   0.182   4.788   5.008
 7515SOL    HW223445   0.080   4.730   4.894
 7516SOL     OW23446   0.639   5.256   6.143
 7516SOL    HW123447   0.589   5.172   6.121
 7516SOL    HW223448   0.700   5.239   6.221
 7517SOL     OW23449   0.890   2.124   0.078
 7517SOL    HW123450   0.969   2.076   0.115
 7517SOL    HW223451   0.814   2.119   0.143
 7518SOL     OW23452   5.226   3.548   3.668
 7518SOL    HW123453   5.244   3.508   3.578
 7518SOL    HW223454   5.258   3.486   3.739
 7519SOL     OW23455   6.641   6.597   4.651
 7519SOL    HW123456   6.634   6.682   4.703
 7519SOL    HW223457   6.737   6.579   4.629
 7520SOL     OW23458   1.914   0.569   2.350
 7520SOL    HW123459   1.828   0.536   2.388
 7520SOL    HW223460   1.937   0.658   2.390
 7521SOL     OW23461   5.685   2.856   4.653
 7521SOL    HW123462   5.742   2.825   4.729
 7521SOL    HW223463   5.684   2.956   4.651
 7522SOL     OW23464   1.552   0.440   5.402
 7522SOL    HW123465   1.469   0.479   5.443
 7522SOL    HW223466   1.594   0.507   5.341
 7523SOL     OW23467   5.015   0.716   6.607
 7523SOL    HW123468   5.071   0.758   6.535
 7523SOL    HW223469   5.016   0.617   6.596
 7524SOL     OW23470   0.057   3.020   4.640
 7524SOL    HW123471   7.017   2.948   4.616
 7524SOL    HW223472   0.023   3.108   4.607
 7525SOL     OW23473   4.548   6.795   6.826
 7525SOL    HW123474   4.487   6.784   6.747
 7525SOL    HW223475   4.494   6.827   6.904
 7526SOL     OW23476   2.643   2.786   1.347
 7526SOL    HW123477   2.627   2.847   1.425
 7526SOL    HW223478   2.708   2.828   1.284
 7527SOL     OW23479   3.384   5.832   3.701
 7527SOL    HW123480   3.375   5.750   3.644
 7527SOL    HW223481   3.295   5.857   3.738
 7528SOL     OW23482   6.058   2.547   0.039
 7528SOL    HW123483   6.112   2.472   0.001
 7528SOL    HW223484   6.013   2.596   6.989
 7529SOL     OW23485   5.316   1.817   4.420
 7529SOL    HW123486   5.345   1.867   4.338
 7529SOL    HW223487   5.268   1.879   4.482
 7530SOL     OW23488   6.035   2.238   2.212
 7530SOL    HW123489   6.118   2.211   2.261
 7530SOL    HW223490   6.046   2.330   2.175
 7531SOL     OW23491   5.193   3.169   3.676
 7531SOL    HW123492   5.095   3.151   3.688
 7531SOL    HW223493   5.224   3.231   3.747
 7532SOL     OW23494   4.826   6.315   0.132
 7532SOL    HW123495   4.831   6.369   0.047
 7532SOL    HW223496   4.882   6.233   0.122
 7533SOL     OW23497   3.559   2.026   1.868
 7533SOL    HW123498   3.603   2.106   1.909
 7533SOL    HW223499   3.477   2.054   1.819
 7534SOL     OW23500   5.018   5.714   4.441
 7534SOL    HW123501   5.091   5.778   4.462
 7534SOL    HW223502   5.025   5.635   4.503
 7535SOL     OW23503   1.745   6.622   4.848
 7535SOL    HW123504   1.668   6.597   4.906
 7535SOL    HW223505   1.831   6.596   4.894
 7536SOL     OW23506   4.915   5.915   3.797
 7536SOL    HW123507   4.874   5.946   3.883
 7536SOL    HW223508   4.941   5.994   3.742
 7537SOL     OW23509   1.934   4.693   2.430
 7537SOL    HW123510   2.028   4.663   2.416
 7537SOL    HW223511   1.933   4.791   2.453
 7538SOL     OW23512   2.216   2.786   1.357
 7538SOL    HW123513   2.150   2.859   1.375
 7538SOL    HW223514   2.179   2.699   1.389
 7539SOL     OW23515   1.313   4.380   3.329
 7539SOL    HW123516   1.311   4.448   3.255
 7539SOL    HW223517   1.295   4.426   3.416
 7540SOL     OW23518   4.089   6.525   4.602
 7540SOL    HW123519   4.081   6.623   4.623
 7540SOL    HW223520   4.185   6.502   4.585
 7541SOL     OW23521   1.004   4.344   5.940
 7541SOL    HW123522   1.026   4.250   5.914
 7541SOL    HW223523   1.059   4.407   5.885
 7542SOL     OW23524   6.485   5.856   6.740
 7542SOL    HW123525   6.484   5.786   6.811
 7542SOL    HW223526   6.505   5.945   6.780
 7543SOL     OW23527   3.187   0.662   5.299
 7543SOL    HW123528   3.127   0.679   5.222
 7543SOL    HW223529   3.176   0.735   5.367
 7544SOL     OW23530   6.925   2.667   4.367
 7544SOL    HW123531   6.852   2.668   4.298
 7544SOL    HW223532   6.886   2.644   4.456
 7545SOL     OW23533   0.697   6.574   6.135
 7545SOL    HW123534   0.621   6.639   6.124
 7545SOL    HW223535   0.725   6.573   6.231
 7546SOL     OW23536   4.904   2.370   1.765
 7546SOL    HW123537   4.932   2.440   1.699
 7546SOL    HW223538   4.815   2.334   1.741
 7547SOL     OW23539   4.846   0.732   1.048
 7547SOL    HW123540   4.813   0.737   1.142
 7547SOL    HW223541   4.929   0.787   1.039
 7548SOL     OW23542   4.429   2.515   6.753
 7548SOL    HW123543   4.439   2.454   6.674
 7548SOL    HW223544   4.407   2.461   6.834
 7549SOL     OW23545   3.707   3.113   6.206
 7549SOL    HW123546   3.734   3.033   6.260
 7549SOL    HW223547   3.720   3.196   6.262
 7550SOL     OW23548   1.916   4.647   3.264
 7550SOL    HW123549   1.902   4.685   3.355
 7550SOL    HW223550   2.012   4.619   3.255
 7551SOL     OW23551   5.659   3.117   5.572
 7551SOL    HW123552   5.729   3.048   5.591
 7551SOL    HW223553   5.667   3.192   5.638
 7552SOL     OW23554   1.581   5.888   4.231
 7552SOL    HW123555   1.493   5.854   4.198
 7552SOL    HW223556   1.654   5.853   4.173
 7553SOL     OW23557   5.421   6.626   5.577
 7553SOL    HW123558   5.368   6.707   5.602
 7553SOL    HW223559   5.437   6.626   5.478
 7554SOL     OW23560   4.789   0.821   0.097
 7554SOL    HW123561   4.718   0.801   0.165
 7554SOL    HW223562   4.804   0.919   0.092
 7555SOL     OW23563   3.631   6.033   6.559
 7555SOL    HW123564   3.600   6.104   6.622
 7555SOL    HW223565   3.633   5.945   6.607
 7556SOL     OW23566   2.494   1.435   0.063
 7556SOL    HW123567   2.460   1.364   0.125
 7556SOL    HW223568   2.591   1.451   0.080
 7557SOL     OW23569   4.878   0.389   6.549
 7557SOL    HW123570   4.890   0.418   6.454
 7557SOL    HW223571   4.968   0.379   6.591
 7558SOL     OW23572   2.197   3.024   3.788
 7558SOL    HW123573   2.193   2.925   3.804
 7558SOL    HW223574   2.221   3.041   3.692
 7559SOL     OW23575   4.250   2.310   5.753
 7559SOL    HW123576   4.179   2.268   5.697
 7559SOL    HW223577   4.273   2.400   5.717
 7560SOL     OW23578   6.152   0.030   0.201
 7560SOL    HW123579   6.191   6.991   0.268
 7560SOL    HW223580   6.068   0.070   0.237
 7561SOL     OW23581   6.448   3.332   5.892
 7561SOL    HW123582   6.509   3.411   5.895
 7561SOL    HW223583   6.356   3.360   5.920
 7562SOL     OW23584   0.877   4.823   5.239
 7562SOL    HW123585   0.861   4.823   5.141
 7562SOL    HW223586   0.806   4.767   5.284
 7563SOL     OW23587   2.494   6.000   2.085
 7563SOL    HW123588   2.514   6.089   2.126
 7563SOL    HW223589   2.533   5.927   2.142
 7564SOL     OW23590   3.945   0.102   4.499
 7564SOL    HW123591   4.009   0.178   4.485
 7564SOL    HW223592   3.906   0.074   4.411
 7565SOL     OW23593   5.401   3.744   5.724
 7565SOL    HW123594   5.404   3.746   5.824
 7565SOL    HW223595   5.423   3.835   5.689
 7566SOL     OW23596   5.634   5.409   2.280
 7566SOL    HW123597   5.546   5.413   2.328
 7566SOL    HW223598   5.659   5.501   2.249
 7567SOL     OW23599   0.885   1.147   6.032
 7567SOL    HW123600   0.833   1.194   6.103
 7567SOL    HW223601   0.833   1.068   5.999
 7568SOL     OW23602   5.484   4.949   2.232
 7568SOL    HW123603   5.403   4.935   2.175
 7568SOL    HW223604   5.486   4.882   2.306
 7569SOL     OW23605   3.929   4.299   6.265
 7569SOL    HW123606   3.976   4.262   6.345
 7569SOL    HW223607   3.996   4.335   6.200
 7570SOL     OW23608   6.084   3.932   3.868
 7570SOL    HW123609   6.110   3.889   3.782
 7570SOL    HW223610   6.165   3.944   3.926
 7571SOL     OW23611   5.272   3.422   3.415
 7571SOL    HW123612   5.228   3.347   3.465
 7571SOL    HW223613   5.337   3.384   3.350
 7572SOL     OW23614   5.378   0.737   3.459
 7572SOL    HW123615   5.373   0.713   3.363
 7572SOL    HW223616   5.286   0.746   3.497
 7573SOL     OW23617   6.579   0.610   5.462
 7573SOL    HW123618   6.674   0.629   5.485
 7573SOL    HW223619   6.574   0.525   5.410
 7574SOL     OW23620   5.783   1.240   4.245
 7574SOL    HW123621   5.808   1.282   4.333
 7574SOL    HW223622   5.813   1.299   4.170
 7575SOL     OW23623   6.258   6.543   0.224
 7575SOL    HW123624   6.288   6.627   0.179
 7575SOL    HW223625   6.287   6.464   0.169
 7576SOL     OW23626   4.926   2.056   0.326
 7576SOL    HW123627   4.862   1.989   0.364
 7576SOL    HW223628   4.913   2.144   0.372
 7577SOL     OW23629   0.476   6.091   0.690
 7577SOL    HW123630   0.415   6.085   0.611
 7577SOL    HW223631   0.423   6.082   0.774
 7578SOL     OW23632   1.490   5.502   2.339
 7578SOL    HW123633   1.568   5.530   2.395
 7578SOL    HW223634   1.489   5.555   2.254
 7579SOL     OW23635   6.918   1.457   1.544
 7579SOL    HW123636   6.855   1.504   1.606
 7579SOL    HW223637   6.949   1.372   1.587
 7580SOL     OW23638   1.205   4.568   3.130
 7580SOL    HW123639   1.117   4.524   3.117
 7580SOL    HW223640   1.204   4.660   3.089
 7581SOL     OW23641   0.499   1.073   1.657
 7581SOL    HW123642   0.579   1.122   1.623
 7581SOL    HW223643   0.416   1.114   1.619
 7582SOL     OW23644   4.151   1.735   4.051
 7582SOL    HW123645   4.071   1.713   3.995
 7582SOL    HW223646   4.225   1.671   4.030
 7583SOL     OW23647   5.568   3.405   2.525
 7583SOL    HW123648   5.494   3.353   2.484
 7583SOL    HW223649   5.655   3.381   2.482
 7584SOL     OW23650   1.411   0.307   3.065
 7584SOL    HW123651   1.490   0.358   3.098
 7584SOL    HW223652   1.442   0.232   3.006
 7585SOL     OW23653   1.457   1.988   6.225
 7585SOL    HW123654   1.467   1.894   6.192
 7585SOL    HW223655   1.494   1.995   6.317
 7586SOL     OW23656   1.930   6.672   3.252
 7586SOL    HW123657   1.837   6.645   3.278
 7586SOL    HW223658   1.935   6.679   3.152
 7587SOL     OW23659   2.773   1.441   6.770
 7587SOL    HW123660   2.693   1.491   6.737
 7587SOL    HW223661   2.789   1.361   6.712
 7588SOL     OW23662   1.726   2.706   3.971
 7588SOL    HW123663   1.727   2.762   4.054
 7588SOL    HW223664   1.811   2.653   3.966
 7589SOL     OW23665   6.905   1.078   2.720
 7589SOL    HW123666   6.861   1.167   2.727
 7589SOL    HW223667   6.902   1.032   2.809
 7590SOL     OW23668   5.576   0.424   0.287
 7590SOL    HW123669   5.545   0.348   0.345
 7590SOL    HW223670   5.516   0.503   0.301
 7591SOL     OW23671   5.380   3.971   6.457
 7591SOL    HW123672   5.336   3.886   6.483
 7591SOL    HW223673   5.467   3.980   6.505
 7592SOL     OW23674   6.203   5.205   4.589
 7592SOL    HW123675   6.252   5.125   4.625
 7592SOL    HW223676   6.220   5.284   4.648
 7593SOL     OW23677   0.001   2.818   6.956
 7593SOL    HW123678   0.006   2.870   6.871
 7593SOL    HW223679   0.052   2.867   0.003
 7594SOL     OW23680   1.197   4.693   1.253
 7594SOL    HW123681   1.155   4.643   1.177
 7594SOL    HW223682   1.296   4.689   1.244
 7595SOL     OW23683   6.392   2.947   6.241
 7595SOL    HW123684   6.422   2.983   6.153
 7595SOL    HW223685   6.395   2.847   6.240
 7596SOL     OW23686   3.270   6.612   5.218
 7596SOL    HW123687   3.303   6.700   5.183
 7596SOL    HW223688   3.217   6.566   5.147
 7597SOL     OW23689   1.960   6.693   2.934
 7597SOL    HW123690   1.958   6.609   2.879
 7597SOL    HW223691   1.916   6.767   2.882
 7598SOL     OW23692   6.219   0.923   3.291
 7598SOL    HW123693   6.133   0.909   3.242
 7598SOL    HW223694   6.244   0.839   3.339
 7599SOL     OW23695   5.646   3.272   1.356
 7599SOL    HW123696   5.635   3.173   1.365
 7599SOL    HW223697   5.636   3.315   1.446
 7600SOL     OW23698   0.854   0.962   3.565
 7600SOL    HW123699   0.800   1.044   3.584
 7600SOL    HW223700   0.916   0.945   3.641
 7601SOL     OW23701   3.094   5.181   2.007
 7601SOL    HW123702   3.019   5.152   1.948
 7601SOL    HW223703   3.137   5.101   2.048
 7602SOL     OW23704   1.265   3.041   6.729
 7602SOL    HW123705   1.335   3.101   6.768
 7602SOL    HW223706   1.302   2.949   6.717
 7603SOL     OW23707   1.758   6.579   6.006
 7603SOL    HW123708   1.843   6.593   5.955
 7603SOL    HW223709   1.759   6.490   6.051
 7604SOL     OW23710   1.191   2.147   5.290
 7604SOL    HW123711   1.211   2.105   5.379
 7604SOL    HW223712   1.177   2.246   5.303
 7605SOL     OW23713   1.234   0.625   0.604
 7605SOL    HW123714   1.150   0.575   0.584
 7605SOL    HW223715   1.225   0.673   0.691
 7606SOL     OW23716   5.826   2.787   5.153
 7606SOL    HW123717   5.740   2.836   5.143
 7606SOL    HW223718   5.865   2.805   5.243
 7607SOL     OW23719   3.952   5.200   0.153
 7607SOL    HW123720   3.959   5.288   0.104
 7607SOL    HW223721   4.003   5.130   0.103
 7608SOL     OW23722   5.000   2.534   0.541
 7608SOL    HW123723   5.029   2.543   0.636
 7608SOL    HW223724   5.078   2.508   0.484
 7609SOL     OW23725   1.133   3.503   3.751
 7609SOL    HW123726   1.207   3.476   3.812
 7609SOL    HW223727   1.170   3.559   3.676
 7610SOL     OW23728   3.757   4.576   5.551
 7610SOL    HW123729   3.816   4.635   5.606
 7610SOL    HW223730   3.705   4.516   5.612
 7611SOL     OW23731   5.483   3.415   1.186
 7611SOL    HW123732   5.544   3.354   1.236
 7611SOL    HW223733   5.537   3.484   1.138
 7612SOL     OW23734   4.747   2.802   2.999
 7612SOL    HW123735   4.715   2.753   3.080
 7612SOL    HW223736   4.847   2.805   3.000
 7613SOL     OW23737   0.849   1.569   2.149
 7613SOL    HW123738   0.930   1.565   2.209
 7613SOL    HW223739   0.875   1.541   2.057
 7614SOL     OW23740   5.266   3.643   1.163
 7614SOL    HW123741   5.319   3.573   1.212
 7614SOL    HW223742   5.327   3.715   1.130
 7615SOL     OW23743   4.788   4.090   5.893
 7615SOL    HW123744   4.863   4.113   5.955
 7615SOL    HW223745   4.754   3.998   5.914
 7616SOL     OW23746   6.989   0.065   4.060
 7616SOL    HW123747   6.918   0.136   4.052
 7616SOL    HW223748   0.053   0.108   4.075
 7617SOL     OW23749   5.674   6.114   3.376
 7617SOL    HW123750   5.682   6.019   3.406
 7617SOL    HW223751   5.679   6.175   3.455
 7618SOL     OW23752   1.161   2.680   6.739
 7618SOL    HW123753   1.235   2.678   6.806
 7618SOL    HW223754   1.073   2.665   6.785
 7619SOL     OW23755   6.805   2.238   4.268
 7619SOL    HW123756   6.901   2.214   4.285
 7619SOL    HW223757   6.768   2.177   4.198
 7620SOL     OW23758   4.045   5.321   1.094
 7620SOL    HW123759   3.949   5.297   1.110
 7620SOL    HW223760   4.059   5.339   0.997
 7621SOL     OW23761   0.594   0.290   0.994
 7621SOL    HW123762   0.608   0.327   1.086
 7621SOL    HW223763   0.677   0.243   0.965
 7622SOL     OW23764   4.717   4.815   6.343
 7622SOL    HW123765   4.692   4.783   6.434
 7622SOL    HW223766   4.684   4.909   6.331
 7623SOL     OW23767   4.560   4.527   0.867
 7623SOL    HW123768   4.645   4.541   0.816
 7623SOL    HW223769   4.582   4.500   0.961
 7624SOL     OW23770   6.569   3.619   3.612
 7624SOL    HW123771   6.596   3.626   3.516
 7624SOL    HW223772   6.567   3.711   3.652
 7625SOL     OW23773   0.070   1.667   0.261
 7625SOL    HW123774   0.101   1.719   0.181
 7625SOL    HW223775   6.999   1.690   0.280
 7626SOL     OW23776   6.638   1.133   5.759
 7626SOL    HW123777   6.637   1.057   5.824
 7626SOL    HW223778   6.732   1.154   5.734
 7627SOL     OW23779   2.965   1.979   0.340
 7627SOL    HW123780   2.931   2.028   0.421
 7627SOL    HW223781   3.040   1.918   0.367
 7628SOL     OW23782   3.949   2.872   1.675
 7628SOL    HW123783   4.038   2.885   1.719
 7628SOL    HW223784   3.876   2.877   1.744
 7629SOL     OW23785   6.759   4.411   3.297
 7629SOL    HW123786   6.725   4.326   3.338
 7629SOL    HW223787   6.723   4.489   3.347
 7630SOL     OW23788   0.708   0.764   6.432
 7630SOL    HW123789   0.772   0.707   6.380
 7630SOL    HW223790   0.750   0.853   6.451
 7631SOL     OW23791   1.413   1.264   5.489
 7631SOL    HW123792   1.342   1.218   5.435
 7631SOL    HW223793   1.433   1.353   5.448
 7632SOL     OW23794   4.573   5.141   0.743
 7632SOL    HW123795   4.603   5.065   0.799
 7632SOL    HW223796   4.563   5.111   0.648
 7633SOL     OW23797   5.229   0.539   2.076
 7633SOL    HW123798   5.154   0.585   2.027
 7633SOL    HW223799   5.216   0.551   2.175
 7634SOL     OW23800   2.269   1.278   1.514
 7634SOL    HW123801   2.229   1.222   1.442
 7634SOL    HW223802   2.324   1.351   1.473
 7635SOL     OW23803   3.294   5.197   4.522
 7635SOL    HW123804   3.298   5.097   4.520
 7635SOL    HW223805   3.360   5.232   4.588
 7636SOL     OW23806   1.535   3.982   4.180
 7636SOL    HW123807   1.477   3.937   4.247
 7636SOL    HW223808   1.505   4.077   4.167
 7637SOL     OW23809   1.671   6.342   3.142
 7637SOL    HW123810   1.635   6.258   3.180
 7637SOL    HW223811   1.660   6.342   3.042
 7638SOL     OW23812   1.111   5.329   2.333
 7638SOL    HW123813   1.110   5.357   2.237
 7638SOL    HW223814   1.021   5.343   2.374
 7639SOL     OW23815   0.603   1.464   0.353
 7639SOL    HW123816   0.670   1.412   0.300
 7639SOL    HW223817   0.611   1.561   0.332
 7640SOL     OW23818   2.874   2.230   6.870
 7640SOL    HW123819   2.918   2.141   6.858
 7640SOL    HW223820   2.867   2.251   6.967
 7641SOL     OW23821   6.729   3.846   2.727
 7641SOL    HW123822   6.746   3.858   2.825
 7641SOL    HW223823   6.632   3.823   2.713
 7642SOL     OW23824   5.752   1.196   2.784
 7642SOL    HW123825   5.819   1.122   2.775
 7642SOL    HW223826   5.721   1.201   2.879
 7643SOL     OW23827   5.234   1.392   2.773
 7643SOL    HW123828   5.300   1.455   2.815
 7643SOL    HW223829   5.242   1.397   2.674
 7644SOL     OW23830   4.845   3.068   2.492
 7644SOL    HW123831   4.803   3.011   2.422
 7644SOL    HW223832   4.904   3.136   2.449
 7645SOL     OW23833   4.352   3.497   5.641
 7645SOL    HW123834   4.415   3.517   5.567
 7645SOL    HW223835   4.314   3.582   5.677
 7646SOL     OW23836   0.567   2.653   3.984
 7646SOL    HW123837   0.541   2.744   4.017
 7646SOL    HW223838   0.487   2.594   3.984
 7647SOL     OW23839   0.501   3.110   4.461
 7647SOL    HW123840   0.506   3.177   4.387
 7647SOL    HW223841   0.592   3.095   4.500
 7648SOL     OW23842   2.387   1.486   2.426
 7648SOL    HW123843   2.318   1.465   2.495
 7648SOL    HW223844   2.364   1.572   2.381
 7649SOL     OW23845   1.374   1.283   4.508
 7649SOL    HW123846   1.284   1.307   4.471
 7649SOL    HW223847   1.445   1.315   4.446
 7650SOL     OW23848   6.247   0.213   1.171
 7650SOL    HW123849   6.290   0.303   1.167
 7650SOL    HW223850   6.229   0.189   1.267
 7651SOL     OW23851   2.517   6.155   4.402
 7651SOL    HW123852   2.510   6.161   4.502
 7651SOL    HW223853   2.564   6.070   4.378
 7652SOL     OW23854   5.540   2.802   5.358
 7652SOL    HW123855   5.483   2.768   5.283
 7652SOL    HW223856   5.482   2.830   5.434
 7653SOL     OW23857   1.422   1.568   0.244
 7653SOL    HW123858   1.377   1.494   0.294
 7653SOL    HW223859   1.507   1.535   0.204
 7654SOL     OW23860   5.510   3.686   4.785
 7654SOL    HW123861   5.546   3.648   4.870
 7654SOL    HW223862   5.561   3.648   4.708
 7655SOL     OW23863   3.893   0.564   3.582
 7655SOL    HW123864   3.862   0.548   3.488
 7655SOL    HW223865   3.815   0.570   3.643
 7656SOL     OW23866   4.988   2.649   6.476
 7656SOL    HW123867   5.028   2.678   6.389
 7656SOL    HW223868   5.049   2.675   6.551
 7657SOL     OW23869   1.941   2.545   3.972
 7657SOL    HW123870   1.989   2.459   3.955
 7657SOL    HW223871   1.986   2.595   4.045
 7658SOL     OW23872   3.184   0.416   0.736
 7658SOL    HW123873   3.118   0.480   0.775
 7658SOL    HW223874   3.148   0.379   0.650
 7659SOL     OW23875   4.949   4.212   0.028
 7659SOL    HW123876   4.923   4.247   6.963
 7659SOL    HW223877   5.035   4.255   0.057
 7660SOL     OW23878   6.153   5.385   4.186
 7660SOL    HW123879   6.177   5.390   4.089
 7660SOL    HW223880   6.164   5.475   4.229
 7661SOL     OW23881   4.839   1.792   5.888
 7661SOL    HW123882   4.858   1.763   5.794
 7661SOL    HW223883   4.921   1.836   5.925
 7662SOL     OW23884   0.858   2.642   3.017
 7662SOL    HW123885   0.863   2.725   2.962
 7662SOL    HW223886   0.894   2.660   3.108
 7663SOL     OW23887   4.869   5.360   6.507
 7663SOL    HW123888   4.842   5.401   6.595
 7663SOL    HW223889   4.919   5.276   6.524
 7664SOL     OW23890   3.342   1.332   2.631
 7664SOL    HW123891   3.412   1.387   2.675
 7664SOL    HW223892   3.310   1.379   2.548
 7665SOL     OW23893   5.373   1.656   4.198
 7665SOL    HW123894   5.344   1.678   4.291
 7665SOL    HW223895   5.393   1.741   4.148
 7666SOL     OW23896   0.221   4.830   3.885
 7666SOL    HW123897   0.137   4.781   3.908
 7666SOL    HW223898   0.236   4.904   3.951
 7667SOL     OW23899   4.126   0.475   3.062
 7667SOL    HW123900   4.080   0.552   3.107
 7667SOL    HW223901   4.172   0.419   3.131
 7668SOL     OW23902   2.644   4.944   0.589
 7668SOL    HW123903   2.744   4.932   0.588
 7668SOL    HW223904   2.601   4.867   0.541
 7669SOL     OW23905   4.518   0.976   5.166
 7669SOL    HW123906   4.447   0.932   5.220
 7669SOL    HW223907   4.479   1.014   5.083
 7670SOL     OW23908   0.945   6.148   0.750
 7670SOL    HW123909   0.974   6.129   0.656
 7670SOL    HW223910   0.866   6.090   0.772
 7671SOL     OW23911   4.381   0.265   2.264
 7671SOL    HW123912   4.345   0.172   2.256
 7671SOL    HW223913   4.338   0.323   2.194
 7672SOL     OW23914   6.777   4.865   3.447
 7672SOL    HW123915   6.865   4.909   3.466
 7672SOL    HW223916   6.719   4.928   3.395
 7673SOL     OW23917   1.872   5.480   2.277
 7673SOL    HW123918   1.810   5.514   2.207
 7673SOL    HW223919   1.952   5.539   2.282
 7674SOL     OW23920   4.566   0.240   4.056
 7674SOL    HW123921   4.512   0.160   4.082
 7674SOL    HW223922   4.581   0.297   4.137
 7675SOL     OW23923   4.718   6.308   3.615
 7675SOL    HW123924   4.691   6.344   3.705
 7675SOL    HW223925   4.765   6.380   3.563
 7676SOL     OW23926   2.949   2.329   6.254
 7676SOL    HW123927   3.030   2.370   6.296
 7676SOL    HW223928   2.919   2.385   6.177
 7677SOL     OW23929   0.183   4.534   0.785
 7677SOL    HW123930   0.118   4.580   0.725
 7677SOL    HW223931   0.238   4.470   0.732
 7678SOL     OW23932   1.617   2.720   5.300
 7678SOL    HW123933   1.605   2.757   5.208
 7678SOL    HW223934   1.702   2.754   5.340
 7679SOL     OW23935   2.096   5.279   5.410
 7679SOL    HW123936   2.002   5.246   5.415
 7679SOL    HW223937   2.158   5.203   5.394
 7680SOL     OW23938   1.411   0.420   6.236
 7680SOL    HW123939   1.498   0.378   6.208
 7680SOL    HW223940   1.356   0.351   6.285
 7681SOL     OW23941   2.971   1.229   0.184
 7681SOL    HW123942   3.021   1.315   0.175
 7681SOL    HW223943   2.885   1.245   0.232
 7682SOL     OW23944   4.757   1.095   2.065
 7682SOL    HW123945   4.728   1.079   2.159
 7682SOL    HW223946   4.676   1.097   2.006
 7683SOL     OW23947   0.340   1.391   5.086
 7683SOL    HW123948   0.436   1.363   5.081
 7683SOL    HW223949   0.334   1.484   5.123
 7684SOL     OW23950   3.767   2.432   1.333
 7684SOL    HW123951   3.726   2.505   1.278
 7684SOL    HW223952   3.724   2.430   1.423
 7685SOL     OW23953   3.410   1.651   6.485
 7685SOL    HW123954   3.351   1.646   6.566
 7685SOL    HW223955   3.439   1.746   6.471
 7686SOL     OW23956   6.033   6.931   4.256
 7686SOL    HW123957   5.996   6.998   4.192
 7686SOL    HW223958   6.083   6.861   4.205
 7687SOL     OW23959   4.811   5.163   4.957
 7687SOL    HW123960   4.723   5.156   4.911
 7687SOL    HW223961   4.836   5.073   4.994
 7688SOL     OW23962   6.916   6.379   6.145
 7688SOL    HW123963   6.968   6.442   6.203
 7688SOL    HW223964   6.953   6.381   6.052
 7689SOL     OW23965   5.185   0.075   2.675
 7689SOL    HW123966   5.210   7.003   2.667
 7689SOL    HW223967   5.246   0.119   2.741
 7690SOL     OW23968   5.680   5.282   0.668
 7690SOL    HW123969   5.638   5.326   0.747
 7690SOL    HW223970   5.698   5.185   0.689
 7691SOL     OW23971   4.960   4.648   1.822
 7691SOL    HW123972   4.982   4.740   1.855
 7691SOL    HW223973   4.867   4.624   1.851
 7692SOL     OW23974   0.833   6.175   1.547
 7692SOL    HW123975   0.864   6.215   1.461
 7692SOL    HW223976   0.893   6.206   1.621
 7693SOL     OW23977   3.045   0.348   1.393
 7693SOL    HW123978   3.081   0.388   1.477
 7693SOL    HW223979   2.956   0.389   1.373
 7694SOL     OW23980   5.945   2.964   4.474
 7694SOL    HW123981   5.888   2.972   4.391
 7694SOL    HW223982   6.012   2.891   4.461
 7695SOL     OW23983   5.984   0.650   1.547
 7695SOL    HW123984   5.987   0.746   1.521
 7695SOL    HW223985   6.034   0.595   1.479
 7696SOL     OW23986   6.923   1.334   6.074
 7696SOL    HW123987   6.824   1.329   6.061
 7696SOL    HW223988   6.942   1.360   6.169
 7697SOL     OW23989   2.812   0.865   2.514
 7697SOL    HW123990   2.869   0.798   2.560
 7697SOL    HW223991   2.860   0.954   2.513
 7698SOL     OW23992   6.751   1.460   5.269
 7698SOL    HW123993   6.715   1.374   5.306
 7698SOL    HW223994   6.759   1.454   5.170
 7699SOL     OW23995   2.543   5.154   6.749
 7699SOL    HW123996   2.454   5.182   6.786
 7699SOL    HW223997   2.612   5.221   6.774
 7700SOL     OW23998   3.928   6.078   3.636
 7700SOL    HW123999   4.000   6.100   3.570
 7700SOL    HW224000   3.861   6.018   3.593
 7701SOL     OW24001   0.278   2.348   6.671
 7701SOL    HW124002   0.267   2.430   6.614
 7701SOL    HW224003   0.375   2.331   6.688
 7702SOL     OW24004   4.483   6.112   5.291
 7702SOL    HW124005   4.535   6.186   5.333
 7702SOL    HW224006   4.413   6.151   5.230
 7703SOL     OW24007   6.264   6.574   5.528
 7703SOL    HW124008   6.352   6.531   5.507
 7703SOL    HW224009   6.191   6.530   5.476
 7704SOL     OW24010   6.005   2.186   3.389
 7704SOL    HW124011   6.040   2.168   3.480
 7704SOL    HW224012   6.080   2.211   3.328
 7705SOL     OW24013   2.529   4.956   1.028
 7705SOL    HW124014   2.440   4.998   1.048
 7705SOL    HW224015   2.597   5.028   1.015
 7706SOL     OW24016   3.695   3.295   3.523
 7706SOL    HW124017   3.792   3.279   3.541
 7706SOL    HW224018   3.646   3.208   3.527
 7707SOL     OW24019   0.324   4.659   6.463
 7707SOL    HW124020   0.239   4.676   6.514
 7707SOL    HW224021   0.402   4.694   6.515
 7708SOL     OW24022   1.324   6.562   4.571
 7708SOL    HW124023   1.294   6.562   4.475
 7708SOL    HW224024   1.372   6.477   4.591
 7709SOL     OW24025   6.402   5.248   1.847
 7709SOL    HW124026   6.403   5.160   1.893
 7709SOL    HW224027   6.327   5.304   1.884
 7710SOL     OW24028   1.834   2.611   0.540
 7710SOL    HW124029   1.917   2.578   0.495
 7710SOL    HW224030   1.856   2.648   0.630
 7711SOL     OW24031   5.615   5.538   5.773
 7711SOL    HW124032   5.670   5.566   5.852
 7711SOL    HW224033   5.531   5.493   5.805
 7712SOL     OW24034   6.337   4.620   0.096
 7712SOL    HW124035   6.270   4.663   0.157
 7712SOL    HW224036   6.422   4.603   0.147
 7713SOL     OW24037   2.111   3.898   0.538
 7713SOL    HW124038   2.141   3.808   0.509
 7713SOL    HW224039   2.033   3.889   0.600
 7714SOL     OW24040   0.439   6.369   5.233
 7714SOL    HW124041   0.357   6.312   5.228
 7714SOL    HW224042   0.436   6.438   5.160
 7715SOL     OW24043   2.520   2.029   6.542
 7715SOL    HW124044   2.548   1.962   6.610
 7715SOL    HW224045   2.499   2.116   6.587
 7716SOL     OW24046   7.023   5.175   0.275
 7716SOL    HW124047   6.992   5.088   0.315
 7716SOL    HW224048   0.093   5.192   0.302
 7717SOL     OW24049   1.425   1.766   5.322
 7717SOL    HW124050   1.436   1.670   5.347
 7717SOL    HW224051   1.432   1.776   5.223
 7718SOL     OW24052   6.964   4.388   3.092
 7718SOL    HW124053   6.957   4.468   3.032
 7718SOL    HW224054   6.884   4.385   3.153
 7719SOL     OW24055   1.134   4.258   4.552
 7719SOL    HW124056   1.080   4.174   4.558
 7719SOL    HW224057   1.207   4.245   4.484
 7720SOL     OW24058   6.035   1.615   5.959
 7720SOL    HW124059   6.003   1.522   5.975
 7720SOL    HW224060   6.033   1.635   5.861
 7721SOL     OW24061   0.307   6.942   2.809
 7721SOL    HW124062   0.331   7.002   2.733
 7721SOL    HW224063   0.231   6.882   2.781
 7722SOL     OW24064   2.003   5.250   3.887
 7722SOL    HW124065   1.931   5.266   3.819
 7722SOL    HW224066   1.977   5.175   3.947
 7723SOL     OW24067   4.992   3.626   6.306
 7723SOL    HW124068   5.006   3.695   6.377
 7723SOL    HW224069   5.017   3.663   6.217
 7724SOL     OW24070   3.157   4.278   0.388
 7724SOL    HW124071   3.059   4.263   0.371
 7724SOL    HW224072   3.168   4.357   0.449
 7725SOL     OW24073   5.992   2.502   2.669
 7725SOL    HW124074   5.915   2.533   2.724
 7725SOL    HW224075   5.977   2.407   2.643
 7726SOL     OW24076   0.952   3.201   5.948
 7726SOL    HW124077   1.017   3.126   5.959
 7726SOL    HW224078   0.996   3.278   5.903
 7727SOL     OW24079   5.913   2.491   1.500
 7727SOL    HW124080   5.910   2.583   1.460
 7727SOL    HW224081   5.919   2.498   1.599
 7728SOL     OW24082   2.168   2.558   5.187
 7728SOL    HW124083   2.154   2.657   5.193
 7728SOL    HW224084   2.252   2.540   5.135
 7729SOL     OW24085   5.414   1.636   2.225
 7729SOL    HW124086   5.406   1.554   2.168
 7729SOL    HW224087   5.322   1.667   2.250
 7730SOL     OW24088   6.591   4.775   6.206
 7730SOL    HW124089   6.677   4.786   6.157
 7730SOL    HW224090   6.556   4.865   6.234
 7731SOL     OW24091   6.613   6.922   0.462
 7731SOL    HW124092   6.522   6.911   0.502
 7731SOL    HW224093   6.628   7.017   0.437
 7732SOL     OW24094   4.057   0.439   0.346
 7732SOL    HW124095   4.024   0.344   0.347
 7732SOL    HW224096   4.154   0.440   0.322
 7733SOL     OW24097   6.259   5.225   2.398
 7733SOL    HW124098   6.187   5.165   2.364
 7733SOL    HW224099   6.291   5.284   2.323
 7734SOL     OW24100   2.413   4.840   4.608
 7734SOL    HW124101   2.459   4.808   4.526
 7734SOL    HW224102   2.481   4.866   4.677
 7735SOL     OW24103   6.221   5.877   0.316
 7735SOL    HW124104   6.212   5.788   0.271
 7735SOL    HW224105   6.317   5.900   0.326
 7736SOL     OW24106   2.173   3.234   0.455
 7736SOL    HW124107   2.145   3.203   0.364
 7736SOL    HW224108   2.093   3.243   0.514
 7737SOL     OW24109   3.122   5.700   1.989
 7737SOL    HW124110   3.104   5.605   1.962
 7737SOL    HW224111   3.060   5.760   1.939
 7738SOL     OW24112   2.492   5.613   0.135
 7738SOL    HW124113   2.429   5.542   0.167
 7738SOL    HW224114   2.453   5.703   0.155
 7739SOL     OW24115   1.983   1.884   1.854
 7739SOL    HW124116   2.059   1.929   1.900
 7739SOL    HW224117   2.018   1.811   1.794
 7740SOL     OW24118   1.683   1.045   2.655
 7740SOL    HW124119   1.737   1.050   2.571
 7740SOL    HW224120   1.732   1.092   2.729
 7741SOL     OW24121   0.597   4.041   5.139
 7741SOL    HW124122   0.630   4.116   5.081
 7741SOL    HW224123   0.541   4.079   5.213
 7742SOL     OW24124   4.324   1.558   3.896
 7742SOL    HW124125   4.254   1.578   3.828
 7742SOL    HW224126   4.400   1.622   3.886
 7743SOL     OW24127   4.848   1.115   0.039
 7743SOL    HW124128   4.801   1.133   0.125
 7743SOL    HW224129   4.935   1.166   0.038
 7744SOL     OW24130   0.638   6.040   3.409
 7744SOL    HW124131   0.702   5.963   3.404
 7744SOL    HW224132   0.556   6.011   3.459
 7745SOL     OW24133   2.444   6.822   6.846
 7745SOL    HW124134   2.480   6.810   6.753
 7745SOL    HW224135   2.450   6.736   6.895
 7746SOL     OW24136   1.555   0.056   0.825
 7746SOL    HW124137   1.621   0.012   0.886
 7746SOL    HW224138   1.468   0.006   0.828
 7747SOL     OW24139   0.527   6.313   1.328
 7747SOL    HW124140   0.500   6.407   1.349
 7747SOL    HW224141   0.577   6.311   1.242
 7748SOL     OW24142   3.150   4.081   4.450
 7748SOL    HW124143   3.053   4.100   4.466
 7748SOL    HW224144   3.173   4.104   4.355
 7749SOL     OW24145   3.292   3.586   3.660
 7749SOL    HW124146   3.283   3.626   3.751
 7749SOL    HW224147   3.384   3.546   3.650
 7750SOL     OW24148   5.861   5.878   6.206
 7750SOL    HW124149   5.913   5.895   6.290
 7750SOL    HW224150   5.793   5.806   6.223
 7751SOL     OW24151   1.003   2.121   2.670
 7751SOL    HW124152   1.069   2.185   2.709
 7751SOL    HW224153   0.916   2.168   2.655
 7752SOL     OW24154   5.597   5.680   6.019
 7752SOL    HW124155   5.637   5.628   6.094
 7752SOL    HW224156   5.626   5.775   6.024
 7753SOL     OW24157   2.769   0.907   4.179
 7753SOL    HW124158   2.706   0.833   4.203
 7753SOL    HW224159   2.860   0.886   4.215
 7754SOL     OW24160   5.719   0.421   1.670
 7754SOL    HW124161   5.726   0.357   1.594
 7754SOL    HW224162   5.698   0.371   1.754
 7755SOL     OW24163   1.166   1.146   6.021
 7755SOL    HW124164   1.069   1.125   6.026
 7755SOL    HW224165   1.179   1.244   6.005
 7756SOL     OW24166   2.888   5.798   2.546
 7756SOL    HW124167   2.934   5.857   2.612
 7756SOL    HW224168   2.931   5.809   2.456
 7757SOL     OW24169   5.101   6.308   3.996
 7757SOL    HW124170   5.138   6.383   4.051
 7757SOL    HW224171   5.002   6.320   3.985
 7758SOL     OW24172   1.865   2.164   6.603
 7758SOL    HW124173   1.844   2.083   6.549
 7758SOL    HW224174   1.955   2.199   6.577
 7759SOL     OW24175   2.104   1.487   4.969
 7759SOL    HW124176   2.170   1.428   4.922
 7759SOL    HW224177   2.090   1.455   5.062
 7760SOL     OW24178   5.992   3.267   2.108
 7760SOL    HW124179   5.926   3.324   2.058
 7760SOL    HW224180   5.971   3.171   2.092
 7761SOL     OW24181   1.986   0.216   5.817
 7761SOL    HW124182   2.067   0.174   5.777
 7761SOL    HW224183   1.944   0.277   5.749
 7762SOL     OW24184   4.254   0.796   5.272
 7762SOL    HW124185   4.304   0.743   5.340
 7762SOL    HW224186   4.183   0.850   5.318
 7763SOL     OW24187   1.329   1.554   1.200
 7763SOL    HW124188   1.365   1.563   1.292
 7763SOL    HW224189   1.230   1.571   1.201
 7764SOL     OW24190   3.563   3.233   2.787
 7764SOL    HW124191   3.470   3.195   2.787
 7764SOL    HW224192   3.576   3.292   2.708
 7765SOL     OW24193   6.634   3.051   4.065
 7765SOL    HW124194   6.553   3.091   4.109
 7765SOL    HW224195   6.626   3.059   3.966
 7766SOL     OW24196   5.063   1.622   0.491
 7766SOL    HW124197   4.976   1.626   0.539
 7766SOL    HW224198   5.131   1.676   0.540
 7767SOL     OW24199   3.835   6.787   4.045
 7767SOL    HW124200   3.755   6.754   4.096
 7767SOL    HW224201   3.855   6.724   3.970
 7768SOL     OW24202   4.070   5.085   2.607
 7768SOL    HW124203   4.026   5.163   2.650
 7768SOL    HW224204   4.110   5.026   2.677
 7769SOL     OW24205   4.963   1.698   1.843
 7769SOL    HW124206   4.896   1.624   1.834
 7769SOL    HW224207   5.047   1.661   1.883
 7770SOL     OW24208   1.446   4.276   2.419
 7770SOL    HW124209   1.450   4.208   2.346
 7770SOL    HW224210   1.485   4.362   2.386
 7771SOL     OW24211   2.450   2.864   5.410
 7771SOL    HW124212   2.519   2.882   5.480
 7771SOL    HW224213   2.459   2.931   5.336
 7772SOL     OW24214   5.149   0.767   3.878
 7772SOL    HW124215   5.145   0.667   3.881
 7772SOL    HW224216   5.175   0.796   3.785
 7773SOL     OW24217   2.799   5.121   5.399
 7773SOL    HW124218   2.856   5.123   5.316
 7773SOL    HW224219   2.848   5.073   5.472
 7774SOL     OW24220   6.090   2.252   6.509
 7774SOL    HW124221   6.100   2.153   6.509
 7774SOL    HW224222   6.033   2.280   6.586
 7775SOL     OW24223   3.368   6.963   2.993
 7775SOL    HW124224   3.425   0.010   3.033
 7775SOL    HW224225   3.347   6.895   3.063
 7776SOL     OW24226   3.120   3.676   0.026
 7776SOL    HW124227   3.122   3.755   6.990
 7776SOL    HW224228   3.025   3.656   0.052
 7777SOL     OW24229   2.639   1.739   5.149
 7777SOL    HW124230   2.566   1.741   5.217
 7777SOL    HW224231   2.631   1.657   5.093
 7778SOL     OW24232   5.035   6.932   0.207
 7778SOL    HW124233   4.955   6.989   0.225
 7778SOL    HW224234   5.030   6.899   0.112
 7779SOL     OW24235   3.438   3.037   0.618
 7779SOL    HW124236   3.356   3.059   0.565
 7779SOL    HW224237   3.451   3.106   0.689
 7780SOL     OW24238   1.692   5.363   4.757
 7780SOL    HW124239   1.650   5.400   4.840
 7780SOL    HW224240   1.761   5.295   4.783
 7781SOL     OW24241   1.387   4.045   6.647
 7781SOL    HW124242   1.374   3.981   6.722
 7781SOL    HW224243   1.371   4.138   6.679
 7782SOL     OW24244   1.471   3.975   5.488
 7782SOL    HW124245   1.445   3.882   5.462
 7782SOL    HW224246   1.442   4.039   5.417
 7783SOL     OW24247   2.243   5.983   5.869
 7783SOL    HW124248   2.332   5.940   5.852
 7783SOL    HW224249   2.257   6.078   5.896
 7784SOL     OW24250   2.340   2.458   0.365
 7784SOL    HW124251   2.345   2.389   0.292
 7784SOL    HW224252   2.421   2.516   0.361
 7785SOL     OW24253   1.523   6.937   3.936
 7785SOL    HW124254   1.588   6.868   3.905
 7785SOL    HW224255   1.432   6.896   3.944
 7786SOL     OW24256   3.559   6.041   6.305
 7786SOL    HW124257   3.460   6.054   6.306
 7786SOL    HW224258   3.595   6.050   6.398
 7787SOL     OW24259   2.046   3.506   5.417
 7787SOL    HW124260   2.057   3.408   5.402
 7787SOL    HW224261   2.083   3.557   5.339
 7788SOL     OW24262   1.381   6.949   1.685
 7788SOL    HW124263   1.317   6.996   1.747
 7788SOL    HW224264   1.330   6.892   1.622
 7789SOL     OW24265   3.420   6.766   0.144
 7789SOL    HW124266   3.503   6.712   0.152
 7789SOL    HW224267   3.395   6.802   0.234
 7790SOL     OW24268   5.822   5.260   2.154
 7790SOL    HW124269   5.761   5.321   2.205
 7790SOL    HW224270   5.776   5.172   2.141
 7791SOL     OW24271   3.007   6.495   3.754
 7791SOL    HW124272   2.914   6.530   3.762
 7791SOL    HW224273   3.023   6.463   3.661
 7792SOL     OW24274   0.961   5.809   5.907
 7792SOL    HW124275   1.027   5.750   5.860
 7792SOL    HW224276   1.008   5.859   5.980
 7793SOL     OW24277   1.851   0.879   6.097
 7793SOL    HW124278   1.824   0.976   6.100
 7793SOL    HW224279   1.822   0.839   6.010
 7794SOL     OW24280   4.588   5.073   3.382
 7794SOL    HW124281   4.611   4.986   3.427
 7794SOL    HW224282   4.489   5.081   3.374
 7795SOL     OW24283   2.102   3.601   5.172
 7795SOL    HW124284   2.083   3.689   5.130
 7795SOL    HW224285   2.121   3.533   5.100
 7796SOL     OW24286   3.028   3.599   4.028
 7796SOL    HW124287   3.007   3.610   3.931
 7796SOL    HW224288   3.124   3.620   4.044
 7797SOL     OW24289   0.881   5.990   2.835
 7797SOL    HW124290   0.870   6.087   2.856
 7797SOL    HW224291   0.876   5.977   2.736
 7798SOL     OW24292   1.358   5.000   6.448
 7798SOL    HW124293   1.288   4.941   6.489
 7798SOL    HW224294   1.353   4.992   6.349
 7799SOL     OW24295   6.831   6.423   1.594
 7799SOL    HW124296   6.794   6.419   1.687
 7799SOL    HW224297   6.797   6.505   1.549
 7800SOL     OW24298   1.539   5.301   0.802
 7800SOL    HW124299   1.554   5.340   0.711
 7800SOL    HW224300   1.461   5.238   0.798
 7801SOL     OW24301   2.692   2.209   1.697
 7801SOL    HW124302   2.635   2.206   1.615
 7801SOL    HW224303   2.654   2.274   1.763
 7802SOL     OW24304   5.356   2.056   1.532
 7802SOL    HW124305   5.284   2.114   1.568
 7802SOL    HW224306   5.373   1.980   1.596
 7803SOL     OW24307   4.432   3.118   5.845
 7803SOL    HW124308   4.390   3.209   5.852
 7803SOL    HW224309   4.498   3.106   5.919
 7804SOL     OW24310   6.278   1.231   3.713
 7804SOL    HW124311   6.200   1.228   3.776
 7804SOL    HW224312   6.285   1.322   3.673
 7805SOL     OW24313   5.577   0.948   1.484
 7805SOL    HW124314   5.652   1.010   1.460
 7805SOL    HW224315   5.615   0.857   1.504
 7806SOL     OW24316   5.488   2.346   6.087
 7806SOL    HW124317   5.414   2.399   6.044
 7806SOL    HW224318   5.472   2.249   6.071
 7807SOL     OW24319   0.314   4.769   6.202
 7807SOL    HW124320   0.332   4.861   6.165
 7807SOL    HW224321   0.366   4.757   6.286
 7808SOL     OW24322   0.397   2.607   4.260
 7808SOL    HW124323   0.363   2.697   4.289
 7808SOL    HW224324   0.495   2.601   4.278
 7809SOL     OW24325   2.551   6.132   4.734
 7809SOL    HW124326   2.497   6.183   4.801
 7809SOL    HW224327   2.498   6.053   4.701
 7810SOL     OW24328   3.750   6.769   5.217
 7810SOL    HW124329   3.762   6.727   5.307
 7810SOL    HW224330   3.812   6.847   5.208
 7811SOL     OW24331   0.360   4.740   3.663
 7811SOL    HW124332   0.311   4.773   3.583
 7811SOL    HW224333   0.300   4.742   3.743
 7812SOL     OW24334   1.264   1.958   3.742
 7812SOL    HW124335   1.329   1.948   3.817
 7812SOL    HW224336   1.313   1.988   3.660
 7813SOL     OW24337   4.257   2.352   6.292
 7813SOL    HW124338   4.236   2.372   6.196
 7813SOL    HW224339   4.210   2.418   6.351
 7814SOL     OW24340   6.768   3.610   3.801
 7814SOL    HW124341   6.729   3.565   3.881
 7814SOL    HW224342   6.712   3.590   3.721
 7815SOL     OW24343   4.771   0.631   6.908
 7815SOL    HW124344   4.768   0.706   6.974
 7815SOL    HW224345   4.851   0.573   6.927
 7816SOL     OW24346   1.291   2.646   6.294
 7816SOL    HW124347   1.263   2.638   6.198
 7816SOL    HW224348   1.287   2.742   6.321
 7817SOL     OW24349   5.916   4.384   3.966
 7817SOL    HW124350   5.818   4.383   3.988
 7817SOL    HW224351   5.967   4.425   4.042
 7818SOL     OW24352   4.313   0.781   3.109
 7818SOL    HW124353   4.376   0.737   3.045
 7818SOL    HW224354   4.334   0.749   3.202
 7819SOL     OW24355   6.614   3.035   1.629
 7819SOL    HW124356   6.695   3.093   1.615
 7819SOL    HW224357   6.537   3.072   1.577
 7820SOL     OW24358   1.233   2.448   4.487
 7820SOL    HW124359   1.154   2.508   4.487
 7820SOL    HW224360   1.316   2.501   4.506
 7821SOL     OW24361   4.814   6.328   0.940
 7821SOL    HW124362   4.829   6.300   0.846
 7821SOL    HW224363   4.900   6.325   0.990
 7822SOL     OW24364   0.249   0.270   5.758
 7822SOL    HW124365   0.325   0.333   5.777
 7822SOL    HW224366   0.163   0.312   5.786
 7823SOL     OW24367   2.485   3.868   5.379
 7823SOL    HW124368   2.420   3.796   5.402
 7823SOL    HW224369   2.446   3.926   5.307
 7824SOL     OW24370   5.943   1.652   4.997
 7824SOL    HW124371   6.002   1.733   4.995
 7824SOL    HW224372   5.995   1.573   5.029
 7825SOL     OW24373   1.601   3.224   0.340
 7825SOL    HW124374   1.551   3.307   0.363
 7825SOL    HW224375   1.585   3.154   0.410
 7826SOL     OW24376   6.034   1.148   1.555
 7826SOL    HW124377   6.101   1.164   1.628
 7826SOL    HW224378   5.980   1.231   1.541
 7827SOL     OW24379   2.010   5.881   0.998
 7827SOL    HW124380   2.031   5.793   0.956
 7827SOL    HW224381   2.091   5.917   1.044
 7828SOL     OW24382   6.552   4.859   0.205
 7828SOL    HW124383   6.643   4.820   0.221
 7828SOL    HW224384   6.483   4.793   0.233
 7829SOL     OW24385   2.675   3.476   1.210
 7829SOL    HW124386   2.712   3.549   1.152
 7829SOL    HW224387   2.592   3.509   1.256
 7830SOL     OW24388   3.673   5.142   5.417
 7830SOL    HW124389   3.746   5.187   5.468
 7830SOL    HW224390   3.597   5.206   5.405
 7831SOL     OW24391   1.527   0.150   1.709
 7831SOL    HW124392   1.592   0.173   1.637
 7831SOL    HW224393   1.483   0.063   1.689
 7832SOL     OW24394   6.439   0.526   4.847
 7832SOL    HW124395   6.452   0.564   4.755
 7832SOL    HW224396   6.359   0.570   4.890
 7833SOL     OW24397   1.094   0.905   4.701
 7833SOL    HW124398   1.043   0.951   4.628
 7833SOL    HW224399   1.059   0.935   4.789
 7834SOL     OW24400   6.903   1.766   3.700
 7834SOL    HW124401   6.965   1.833   3.659
 7834SOL    HW224402   6.956   1.696   3.748
 7835SOL     OW24403   4.017   1.798   5.285
 7835SOL    HW124404   3.921   1.770   5.285
 7835SOL    HW224405   4.045   1.820   5.378
 7836SOL     OW24406   3.141   4.183   5.321
 7836SOL    HW124407   3.142   4.148   5.228
 7836SOL    HW224408   3.052   4.226   5.340
 7837SOL     OW24409   4.948   5.893   6.880
 7837SOL    HW124410   4.878   5.893   6.952
 7837SOL    HW224411   5.034   5.930   6.917
 7838SOL     OW24412   4.090   6.452   1.305
 7838SOL    HW124413   4.140   6.439   1.391
 7838SOL    HW224414   4.004   6.500   1.324
 7839SOL     OW24415   6.227   3.943   4.333
 7839SOL    HW124416   6.179   3.964   4.418
 7839SOL    HW224417   6.307   4.003   4.324
 7840SOL     OW24418   0.241   3.387   3.979
 7840SOL    HW124419   0.270   3.474   3.938
 7840SOL    HW224420   0.148   3.397   4.015
 7841SOL     OW24421   4.238   1.751   6.708
 7841SOL    HW124422   4.275   1.787   6.622
 7841SOL    HW224423   4.139   1.741   6.699
 7842SOL     OW24424   2.007   1.264   2.383
 7842SOL    HW124425   1.984   1.361   2.375
 7842SOL    HW224426   2.084   1.243   2.323
 7843SOL     OW24427   0.245   6.522   3.725
 7843SOL    HW124428   0.298   6.438   3.739
 7843SOL    HW224429   0.306   6.601   3.725
 7844SOL     OW24430   2.751   0.674   2.337
 7844SOL    HW124431   2.759   0.739   2.413
 7844SOL    HW224432   2.753   0.581   2.373
 7845SOL     OW24433   4.837   1.656   2.619
 7845SOL    HW124434   4.860   1.613   2.532
 7845SOL    HW224435   4.903   1.629   2.689
 7846SOL     OW24436   1.411   2.541   1.424
 7846SOL    HW124437   1.357   2.572   1.345
 7846SOL    HW224438   1.404   2.442   1.432
 7847SOL     OW24439   6.476   1.631   3.423
 7847SOL    HW124440   6.457   1.724   3.392
 7847SOL    HW224441   6.410   1.568   3.381
 7848SOL     OW24442   3.357   5.067   1.350
 7848SOL    HW124443   3.314   5.156   1.334
 7848SOL    HW224444   3.310   5.021   1.425
 7849SOL     OW24445   6.119   4.085   4.558
 7849SOL    HW124446   6.184   4.033   4.613
 7849SOL    HW224447   6.158   4.175   4.537
 7850SOL     OW24448   0.434   1.573   3.640
 7850SOL    HW124449   0.362   1.627   3.684
 7850SOL    HW224450   0.409   1.554   3.545
 7851SOL     OW24451   6.998   2.397   1.653
 7851SOL    HW124452   6.958   2.343   1.727
 7851SOL    HW224453   0.066   2.423   1.678
 7852SOL     OW24454   3.076   1.013   0.394
 7852SOL    HW124455   3.107   1.063   0.313
 7852SOL    HW224456   2.987   0.971   0.376
 7853SOL     OW24457   4.832   2.792   1.482
 7853SOL    HW124458   4.802   2.859   1.550
 7853SOL    HW224459   4.891   2.836   1.415
 7854SOL     OW24460   3.190   2.546   6.011
 7854SOL    HW124461   3.247   2.628   6.015
 7854SOL    HW224462   3.117   2.559   5.944
 7855SOL     OW24463   4.311   5.912   4.565
 7855SOL    HW124464   4.232   5.867   4.523
 7855SOL    HW224465   4.279   5.990   4.619
 7856SOL     OW24466   0.492   5.481   4.873
 7856SOL    HW124467   0.576   5.517   4.833
 7856SOL    HW224468   0.434   5.444   4.801
 7857SOL     OW24469   4.834   3.322   0.739
 7857SOL    HW124470   4.831   3.287   0.832
 7857SOL    HW224471   4.881   3.411   0.738
 7858SOL     OW24472   6.571   6.792   4.862
 7858SOL    HW124473   6.518   6.877   4.860
 7858SOL    HW224474   6.576   6.757   4.956
 7859SOL     OW24475   4.517   3.581   0.300
 7859SOL    HW124476   4.452   3.580   0.376
 7859SOL    HW224477   4.519   3.673   0.260
 7860SOL     OW24478   4.371   1.188   4.150
 7860SOL    HW124479   4.293   1.185   4.212
 7860SOL    HW224480   4.391   1.095   4.117
 7861SOL     OW24481   2.792   5.010   1.546
 7861SOL    HW124482   2.795   4.917   1.582
 7861SOL    HW224483   2.698   5.043   1.546
 7862SOL     OW24484   2.063   5.461   2.668
 7862SOL    HW124485   2.094   5.370   2.698
 7862SOL    HW224486   2.143   5.518   2.648
 7863SOL     OW24487   0.484   4.230   3.901
 7863SOL    HW124488   0.496   4.214   3.803
 7863SOL    HW224489   0.573   4.243   3.944
 7864SOL     OW24490   1.200   5.652   6.012
 7864SOL    HW124491   1.212   5.560   5.976
 7864SOL    HW224492   1.276   5.710   5.981
 7865SOL     OW24493   6.288   5.591   4.343
 7865SOL    HW124494   6.285   5.599   4.443
 7865SOL    HW224495   6.324   5.676   4.304
 7866SOL     OW24496   0.986   0.674   5.469
 7866SOL    HW124497   0.993   0.734   5.549
 7866SOL    HW224498   0.959   0.582   5.499
 7867SOL     OW24499   5.951   6.673   3.022
 7867SOL    HW124500   5.983   6.580   3.002
 7867SOL    HW224501   6.026   6.738   3.012
 7868SOL     OW24502   4.522   5.948   1.225
 7868SOL    HW124503   4.622   5.942   1.219
 7868SOL    HW224504   4.496   5.991   1.311
 7869SOL     OW24505   5.456   4.459   5.884
 7869SOL    HW124506   5.433   4.534   5.822
 7869SOL    HW224507   5.375   4.402   5.898
 7870SOL     OW24508   4.787   6.413   4.671
 7870SOL    HW124509   4.727   6.334   4.658
 7870SOL    HW224510   4.882   6.384   4.667
 7871SOL     OW24511   4.623   2.416   2.139
 7871SOL    HW124512   4.555   2.404   2.066
 7871SOL    HW224513   4.577   2.414   2.228
 7872SOL     OW24514   1.752   3.766   2.634
 7872SOL    HW124515   1.775   3.671   2.652
 7872SOL    HW224516   1.731   3.778   2.537
 7873SOL     OW24517   6.429   0.104   0.325
 7873SOL    HW124518   6.455   0.152   0.241
 7873SOL    HW224519   6.388   0.170   0.389
 7874SOL     OW24520   4.671   2.646   1.318
 7874SOL    HW124521   4.716   2.709   1.382
 7874SOL    HW224522   4.637   2.697   1.239
 7875SOL     OW24523   3.612   2.913   0.316
 7875SOL    HW124524   3.636   2.941   0.409
 7875SOL    HW224525   3.519   2.877   0.315
 7876SOL     OW24526   1.218   6.307   3.584
 7876SOL    HW124527   1.134   6.268   3.546
 7876SOL    HW224528   1.282   6.233   3.605
 7877SOL     OW24529   0.398   1.152   3.050
 7877SOL    HW124530   0.457   1.228   3.024
 7877SOL    HW224531   0.396   1.084   2.977
 7878SOL     OW24532   4.672   4.173   3.588
 7878SOL    HW124533   4.673   4.242   3.515
 7878SOL    HW224534   4.584   4.173   3.634
 7879SOL     OW24535   3.856   5.166   2.812
 7879SOL    HW124536   3.812   5.243   2.857
 7879SOL    HW224537   3.792   5.089   2.806
 7880SOL     OW24538   2.339   4.103   1.149
 7880SOL    HW124539   2.433   4.071   1.162
 7880SOL    HW224540   2.315   4.096   1.052
 7881SOL     OW24541   4.834   3.968   4.577
 7881SOL    HW124542   4.894   3.930   4.647
 7881SOL    HW224543   4.807   4.061   4.603
 7882SOL     OW24544   2.117   3.475   1.527
 7882SOL    HW124545   2.142   3.519   1.441
 7882SOL    HW224546   2.118   3.542   1.601
 7883SOL     OW24547   1.052   0.851   6.050
 7883SOL    HW124548   1.033   0.936   6.099
 7883SOL    HW224549   1.138   0.860   6.000
 7884SOL     OW24550   0.931   3.711   4.527
 7884SOL    HW124551   0.945   3.612   4.519
 7884SOL    HW224552   0.868   3.730   4.603
 7885SOL     OW24553   6.846   5.697   0.926
 7885SOL    HW124554   6.923   5.761   0.921
 7885SOL    HW224555   6.866   5.626   0.994
 7886SOL     OW24556   4.000   6.051   0.093
 7886SOL    HW124557   4.097   6.064   0.114
 7886SOL    HW224558   3.989   6.027   7.022
 7887SOL     OW24559   3.642   2.360   6.237
 7887SOL    HW124560   3.642   2.452   6.197
 7887SOL    HW224561   3.603   2.364   6.329
 7888SOL     OW24562   6.447   0.284   4.950
 7888SOL    HW124563   6.360   0.277   4.999
 7888SOL    HW224564   6.449   0.368   4.897
 7889SOL     OW24565   1.954   4.832   1.825
 7889SOL    HW124566   1.980   4.840   1.729
 7889SOL    HW224567   1.906   4.915   1.853
 7890SOL     OW24568   1.420   3.946   2.668
 7890SOL    HW124569   1.434   3.905   2.577
 7890SOL    HW224570   1.348   4.015   2.662
 7891SOL     OW24571   1.603   3.998   2.993
 7891SOL    HW124572   1.590   3.905   3.029
 7891SOL    HW224573   1.514   4.041   2.978
 7892SOL     OW24574   2.083   2.705   4.160
 7892SOL    HW124575   2.053   2.801   4.162
 7892SOL    HW224576   2.183   2.702   4.156
 7893SOL     OW24577   6.292   0.061   2.808
 7893SOL    HW124578   6.332   0.150   2.786
 7893SOL    HW224579   6.356   7.013   2.780
 7894SOL     OW24580   2.634   6.352   1.802
 7894SOL    HW124581   2.574   6.390   1.732
 7894SOL    HW224582   2.605   6.259   1.824
 7895SOL     OW24583   6.517   1.392   5.805
 7895SOL    HW124584   6.541   1.307   5.758
 7895SOL    HW224585   6.598   1.450   5.812
 7896SOL     OW24586   5.046   4.309   6.568
 7896SOL    HW124587   5.052   4.365   6.651
 7896SOL    HW224588   5.133   4.263   6.552
 7897SOL     OW24589   2.889   4.014   6.171
 7897SOL    HW124590   2.822   4.072   6.124
 7897SOL    HW224591   2.888   3.923   6.131
 7898SOL     OW24592   5.274   2.050   3.521
 7898SOL    HW124593   5.300   1.957   3.493
 7898SOL    HW224594   5.225   2.046   3.608
 7899SOL     OW24595   6.480   1.351   1.810
 7899SOL    HW124596   6.494   1.269   1.866
 7899SOL    HW224597   6.544   1.350   1.733
 7900SOL     OW24598   1.310   5.123   1.069
 7900SOL    HW124599   1.241   5.193   1.087
 7900SOL    HW224600   1.327   5.071   1.153
 7901SOL     OW24601   4.898   0.564   6.330
 7901SOL    HW124602   4.846   0.569   6.244
 7901SOL    HW224603   4.986   0.609   6.319
 7902SOL     OW24604   5.487   4.969   1.871
 7902SOL    HW124605   5.439   4.933   1.792
 7902SOL    HW224606   5.501   5.068   1.860
 7903SOL     OW24607   6.108   2.363   0.773
 7903SOL    HW124608   6.135   2.347   0.868
 7903SOL    HW224609   6.042   2.293   0.745
 7904SOL     OW24610   5.917   0.564   3.238
 7904SOL    HW124611   6.008   0.530   3.262
 7904SOL    HW224612   5.870   0.592   3.322
 7905SOL     OW24613   4.264   1.677   0.324
 7905SOL    HW124614   4.191   1.637   0.268
 7905SOL    HW224615   4.289   1.766   0.286
 7906SOL     OW24616   0.750   5.626   0.034
 7906SOL    HW124617   0.822   5.696   0.040
 7906SOL    HW224618   0.792   5.538   0.012
 7907SOL     OW24619   6.066   1.828   4.477
 7907SOL    HW124620   6.066   1.734   4.513
 7907SOL    HW224621   5.992   1.879   4.520
 7908SOL     OW24622   1.580   1.623   4.230
 7908SOL    HW124623   1.676   1.618   4.201
 7908SOL    HW224624   1.558   1.545   4.287
 7909SOL     OW24625   5.247   3.477   5.108
 7909SOL    HW124626   5.303   3.430   5.040
 7909SOL    HW224627   5.150   3.460   5.088
 7910SOL     OW24628   3.161   3.057   5.873
 7910SOL    HW124629   3.136   2.994   5.799
 7910SOL    HW224630   3.259   3.078   5.868
 7911SOL     OW24631   0.800   3.857   6.510
 7911SOL    HW124632   0.790   3.955   6.494
 7911SOL    HW224633   0.869   3.820   6.449
 7912SOL     OW24634   0.620   4.976   0.326
 7912SOL    HW124635   0.539   4.930   0.291
 7912SOL    HW224636   0.700   4.948   0.272
 7913SOL     OW24637   1.035   5.069   0.427
 7913SOL    HW124638   1.014   4.975   0.454
 7913SOL    HW224639   1.130   5.074   0.397
 7914SOL     OW24640   0.228   5.261   6.800
 7914SOL    HW124641   0.169   5.238   6.877
 7914SOL    HW224642   0.192   5.341   6.752
 7915SOL     OW24643   4.610   2.599   2.499
 7915SOL    HW124644   4.601   2.645   2.587
 7915SOL    HW224645   4.706   2.598   2.472
 7916SOL     OW24646   6.023   4.088   5.235
 7916SOL    HW124647   5.934   4.043   5.232
 7916SOL    HW224648   6.075   4.067   5.152
 7917SOL     OW24649   3.732   2.977   4.103
 7917SOL    HW124650   3.777   3.040   4.041
 7917SOL    HW224651   3.792   2.899   4.121
 7918SOL     OW24652   0.159   1.338   0.831
 7918SOL    HW124653   0.147   1.302   0.738
 7918SOL    HW224654   0.080   1.312   0.887
 7919SOL     OW24655   0.217   4.385   3.382
 7919SOL    HW124656   0.202   4.440   3.300
 7919SOL    HW224657   0.215   4.288   3.359
 7920SOL     OW24658   0.310   4.919   1.474
 7920SOL    HW124659   0.319   4.987   1.547
 7920SOL    HW224660   0.376   4.939   1.401
 7921SOL     OW24661   3.553   5.430   0.353
 7921SOL    HW124662   3.506   5.516   0.373
 7921SOL    HW224663   3.621   5.412   0.424
 7922SOL     OW24664   6.666   5.746   0.417
 7922SOL    HW124665   6.625   5.830   0.383
 7922SOL    HW224666   6.604   5.703   0.483
 7923SOL     OW24667   2.471   0.430   2.473
 7923SOL    HW124668   2.497   0.395   2.383
 7923SOL    HW224669   2.443   0.526   2.465
 7924SOL     OW24670   3.822   6.498   3.266
 7924SOL    HW124671   3.825   6.478   3.168
 7924SOL    HW224672   3.732   6.533   3.290
 7925SOL     OW24673   0.257   1.810   6.395
 7925SOL    HW124674   0.306   1.811   6.307
 7925SOL    HW224675   0.164   1.778   6.380
 7926SOL     OW24676   4.290   1.498   4.216
 7926SOL    HW124677   4.360   1.561   4.248
 7926SOL    HW224678   4.332   1.423   4.164
 7927SOL     OW24679   3.978   5.642   5.073
 7927SOL    HW124680   4.015   5.575   5.138
 7927SOL    HW224681   4.046   5.714   5.057
 7928SOL     OW24682   0.906   3.420   3.894
 7928SOL    HW124683   0.916   3.469   3.980
 7928SOL    HW224684   0.993   3.419   3.845
 7929SOL     OW24685   3.993   4.008   5.342
 7929SOL    HW124686   3.975   3.983   5.247
 7929SOL    HW224687   4.008   4.107   5.348
 7930SOL     OW24688   4.716   5.449   4.087
 7930SOL    HW124689   4.620   5.477   4.079
 7930SOL    HW224690   4.767   5.519   4.138
 7931SOL     OW24691   1.731   2.184   6.268
 7931SOL    HW124692   1.700   2.106   6.323
 7931SOL    HW224693   1.779   2.249   6.327
 7932SOL     OW24694   2.369   6.511   0.346
 7932SOL    HW124695   2.334   6.541   0.435
 7932SOL    HW224696   2.311   6.548   0.274
 7933SOL     OW24697   6.664   0.140   0.088
 7933SOL    HW124698   6.592   0.208   0.081
 7933SOL    HW224699   6.623   0.049   0.102
 7934SOL     OW24700   2.331   4.287   6.540
 7934SOL    HW124701   2.430   4.283   6.527
 7934SOL    HW224702   2.308   4.367   6.596
 7935SOL     OW24703   5.187   5.229   0.364
 7935SOL    HW124704   5.235   5.148   0.333
 7935SOL    HW224705   5.105   5.243   0.308
 7936SOL     OW24706   3.400   5.536   2.352
 7936SOL    HW124707   3.434   5.627   2.328
 7936SOL    HW224708   3.310   5.523   2.311
 7937SOL     OW24709   5.333   6.981   3.775
 7937SOL    HW124710   5.328   6.923   3.693
 7937SOL    HW224711   5.321   0.052   3.748
 7938SOL     OW24712   5.373   4.735   4.994
 7938SOL    HW124713   5.420   4.810   4.948
 7938SOL    HW224714   5.341   4.668   4.926
 7939SOL     OW24715   0.652   2.048   5.895
 7939SOL    HW124716   0.708   1.985   5.949
 7939SOL    HW224717   0.598   1.996   5.828
 7940SOL     OW24718   2.351   4.629   2.641
 7940SOL    HW124719   2.448   4.604   2.646
 7940SOL    HW224720   2.324   4.641   2.546
 7941SOL     OW24721   6.986   7.002   1.141
 7941SOL    HW124722   7.005   0.068   1.178
 7941SOL    HW224723   6.896   7.001   1.099
 7942SOL     OW24724   6.837   6.470   2.990
 7942SOL    HW124725   6.755   6.521   3.018
 7942SOL    HW224726   6.863   6.407   3.063
 7943SOL     OW24727   5.495   1.809   1.120
 7943SOL    HW124728   5.454   1.878   1.179
 7943SOL    HW224729   5.423   1.756   1.075
 7944SOL     OW24730   0.177   2.754   0.310
 7944SOL    HW124731   0.171   2.803   0.222
 7944SOL    HW224732   0.104   2.687   0.315
 7945SOL     OW24733   5.414   0.027   2.487
 7945SOL    HW124734   5.377   0.076   2.565
 7945SOL    HW224735   5.484   6.988   2.518
 7946SOL     OW24736   1.891   2.747   5.399
 7946SOL    HW124737   1.882   2.805   5.480
 7946SOL    HW224738   1.981   2.703   5.399
 7947SOL     OW24739   4.078   2.912   6.875
 7947SOL    HW124740   4.076   2.941   6.779
 7947SOL    HW224741   4.124   2.982   6.930
 7948SOL     OW24742   0.090   6.687   1.424
 7948SOL    HW124743   0.103   6.719   1.330
 7948SOL    HW224744   0.145   6.743   1.486
 7949SOL     OW24745   4.493   4.667   3.757
 7949SOL    HW124746   4.535   4.733   3.694
 7949SOL    HW224747   4.536   4.578   3.744
 7950SOL     OW24748   5.061   5.462   3.664
 7950SOL    HW124749   5.018   5.409   3.738
 7950SOL    HW224750   5.058   5.559   3.686
 7951SOL     OW24751   2.766   3.670   1.038
 7951SOL    HW124752   2.699   3.718   0.982
 7951SOL    HW224753   2.841   3.732   1.061
 7952SOL     OW24754   6.887   3.119   6.970
 7952SOL    HW124755   6.798   3.132   7.013
 7952SOL    HW224756   6.959   3.137   0.012
 7953SOL     OW24757   2.234   2.945   2.927
 7953SOL    HW124758   2.156   2.888   2.903
 7953SOL    HW224759   2.202   3.034   2.959
 7954SOL     OW24760   4.903   4.975   5.490
 7954SOL    HW124761   4.966   5.013   5.557
 7954SOL    HW224762   4.955   4.932   5.416
 7955SOL     OW24763   0.933   6.524   6.009
 7955SOL    HW124764   0.845   6.525   6.056
 7955SOL    HW224765   0.918   6.511   5.911
 7956SOL     OW24766   1.201   5.901   3.144
 7956SOL    HW124767   1.156   5.871   3.060
 7956SOL    HW224768   1.279   5.841   3.164
 7957SOL     OW24769   2.216   1.430   0.681
 7957SOL    HW124770   2.292   1.370   0.706
 7957SOL    HW224771   2.225   1.456   0.584
 7958SOL     OW24772   3.484   5.655   4.083
 7958SOL    HW124773   3.398   5.641   4.132
 7958SOL    HW224774   3.561   5.650   4.147
 7959SOL     OW24775   4.021   5.273   0.798
 7959SOL    HW124776   3.926   5.259   0.772
 7959SOL    HW224777   4.046   5.369   0.784
 7960SOL     OW24778   3.482   1.770   0.415
 7960SOL    HW124779   3.554   1.820   0.463
 7960SOL    HW224780   3.510   1.752   0.321
 7961SOL     OW24781   1.645   6.048   6.815
 7961SOL    HW124782   1.643   5.949   6.802
 7961SOL    HW224783   1.552   6.082   6.824
 7962SOL     OW24784   2.049   0.248   0.107
 7962SOL    HW124785   2.050   0.347   0.120
 7962SOL    HW224786   2.141   0.211   0.119
 7963SOL     OW24787   6.222   1.143   4.321
 7963SOL    HW124788   6.215   1.082   4.241
 7963SOL    HW224789   6.150   1.119   4.386
 7964SOL     OW24790   6.085   5.240   3.431
 7964SOL    HW124791   6.129   5.311   3.485
 7964SOL    HW224792   6.121   5.150   3.459
 7965SOL     OW24793   3.597   2.694   6.602
 7965SOL    HW124794   3.697   2.685   6.605
 7965SOL    HW224795   3.572   2.769   6.541
 7966SOL     OW24796   0.717   3.586   4.940
 7966SOL    HW124797   0.622   3.580   4.909
 7966SOL    HW224798   0.718   3.607   5.038
 7967SOL     OW24799   3.022   6.349   3.977
 7967SOL    HW124800   2.999   6.401   3.895
 7967SOL    HW224801   2.979   6.392   4.057
 7968SOL     OW24802   2.155   2.982   3.251
 7968SOL    HW124803   2.194   2.931   3.174
 7968SOL    HW224804   2.060   2.954   3.265
 7969SOL     OW24805   4.637   0.191   2.198
 7969SOL    HW124806   4.718   0.249   2.191
 7969SOL    HW224807   4.560   0.244   2.234
 7970SOL     OW24808   7.019   3.744   2.909
 7970SOL    HW124809   6.935   3.776   2.954
 7970SOL    HW224810   7.016   3.645   2.899
 7971SOL     OW24811   3.443   1.508   1.069
 7971SOL    HW124812   3.480   1.600   1.058
 7971SOL    HW224813   3.391   1.483   0.988
 7972SOL     OW24814   0.434   4.415   1.131
 7972SOL    HW124815   0.356   4.478   1.125
 7972SOL    HW224816   0.429   4.350   1.056
 7973SOL     OW24817   4.891   3.416   3.004
 7973SOL    HW124818   4.797   3.383   3.012
 7973SOL    HW224819   4.893   3.494   2.941
 7974SOL     OW24820   5.504   0.368   4.916
 7974SOL    HW124821   5.529   0.272   4.908
 7974SOL    HW224822   5.411   0.375   4.951
 7975SOL     OW24823   5.649   0.189   3.893
 7975SOL    HW124824   5.748   0.193   3.907
 7975SOL    HW224825   5.630   0.164   3.798
 7976SOL     OW24826   0.690   0.324   5.929
 7976SOL    HW124827   0.749   0.373   5.994
 7976SOL    HW224828   0.654   0.389   5.862
 7977SOL     OW24829   4.505   5.702   2.501
 7977SOL    HW124830   4.416   5.708   2.458
 7977SOL    HW224831   4.494   5.689   2.600
 7978SOL     OW24832   5.700   3.898   6.030
 7978SOL    HW124833   5.654   3.809   6.032
 7978SOL    HW224834   5.797   3.885   6.046
 7979SOL     OW24835   2.670   0.426   5.552
 7979SOL    HW124836   2.658   0.330   5.529
 7979SOL    HW224837   2.747   0.435   5.616
 7980SOL     OW24838   3.411   5.902   0.069
 7980SOL    HW124839   3.388   5.961   0.147
 7980SOL    HW224840   3.329   5.852   0.040
 7981SOL     OW24841   0.994   5.732   2.230
 7981SOL    HW124842   0.917   5.784   2.266
 7981SOL    HW224843   1.059   5.794   2.186
 7982SOL     OW24844   6.674   1.714   0.966
 7982SOL    HW124845   6.688   1.813   0.958
 7982SOL    HW224846   6.738   1.668   0.904
 7983SOL     OW24847   5.327   1.875   2.842
 7983SOL    HW124848   5.363   1.798   2.894
 7983SOL    HW224849   5.398   1.909   2.780
 7984SOL     OW24850   1.594   1.758   1.417
 7984SOL    HW124851   1.610   1.826   1.488
 7984SOL    HW224852   1.669   1.759   1.352
 7985SOL     OW24853   2.004   6.912   3.416
 7985SOL    HW124854   1.956   6.828   3.391
 7985SOL    HW224855   2.052   6.948   3.336
 7986SOL     OW24856   3.518   1.035   6.773
 7986SOL    HW124857   3.421   1.061   6.782
 7986SOL    HW224858   3.530   0.941   6.804
 7987SOL     OW24859   7.010   4.029   6.411
 7987SOL    HW124860   0.032   3.982   6.336
 7987SOL    HW224861   6.916   4.051   6.383
 7988SOL     OW24862   2.058   2.325   4.593
 7988SOL    HW124863   2.120   2.256   4.557
 7988SOL    HW224864   1.969   2.283   4.612
 7989SOL     OW24865   3.363   2.338   5.408
 7989SOL    HW124866   3.327   2.396   5.481
 7989SOL    HW224867   3.312   2.355   5.324
 7990SOL     OW24868   6.763   3.867   3.527
 7990SOL    HW124869   6.786   3.920   3.609
 7990SOL    HW224870   6.844   3.857   3.469
 7991SOL     OW24871   6.590   1.790   5.524
 7991SOL    HW124872   6.511   1.738   5.492
 7991SOL    HW224873   6.611   1.864   5.460
 7992SOL     OW24874   1.745   6.416   0.866
 7992SOL    HW124875   1.797   6.435   0.949
 7992SOL    HW224876   1.808   6.395   0.791
 7993SOL     OW24877   1.667   5.838   6.462
 7993SOL    HW124878   1.608   5.819   6.383
 7993SOL    HW224879   1.725   5.759   6.480
 7994SOL     OW24880   4.580   0.296   3.597
 7994SOL    HW124881   4.525   0.264   3.674
 7994SOL    HW224882   4.639   0.221   3.565
 7995SOL     OW24883   4.066   5.660   3.332
 7995SOL    HW124884   4.112   5.649   3.420
 7995SOL    HW224885   4.087   5.582   3.273
 7996SOL     OW24886   2.591   6.434   4.300
 7996SOL    HW124887   2.513   6.491   4.276
 7996SOL    HW224888   2.567   6.375   4.377
 7997SOL     OW24889   0.076   1.156   1.211
 7997SOL    HW124890   0.146   1.198   1.268
 7997SOL    HW224891   0.002   1.221   1.194
 7998SOL     OW24892   4.114   5.534   0.742
 7998SOL    HW124893   4.042   5.584   0.789
 7998SOL    HW224894   4.199   5.587   0.743
 7999SOL     OW24895   0.902   0.594   6.027
 7999SOL    HW124896   0.957   0.677   6.037
 7999SOL    HW224897   0.813   0.608   6.071
 8000SOL     OW24898   5.960   0.639   6.562
 8000SOL    HW124899   6.031   0.667   6.498
 8000SOL    HW224900   5.942   0.714   6.626
 8001SOL     OW24901   3.264   6.040   1.508
 8001SOL    HW124902   3.229   6.131   1.485
 8001SOL    HW224903   3.248   5.978   1.431
 8002SOL     OW24904   0.166   3.045   6.212
 8002SOL    HW124905   0.074   3.083   6.223
 8002SOL    HW224906   0.159   2.954   6.170
 8003SOL     OW24907   2.282   4.379   2.181
 8003SOL    HW124908   2.255   4.315   2.109
 8003SOL    HW224909   2.332   4.455   2.140
 8004SOL     OW24910   1.567   4.454   3.005
 8004SOL    HW124911   1.656   4.410   2.989
 8004SOL    HW224912   1.495   4.395   2.968
 8005SOL     OW24913   3.317   1.460   2.399
 8005SOL    HW124914   3.269   1.545   2.422
 8005SOL    HW224915   3.392   1.481   2.336
 8006SOL     OW24916   2.429   6.298   0.650
 8006SOL    HW124917   2.345   6.287   0.596
 8006SOL    HW224918   2.497   6.232   0.619
 8007SOL     OW24919   0.887   6.650   4.133
 8007SOL    HW124920   0.973   6.616   4.093
 8007SOL    HW224921   0.897   6.746   4.156
 8008SOL     OW24922   5.042   6.758   5.972
 8008SOL    HW124923   4.985   6.744   5.892
 8008SOL    HW224924   5.017   6.693   6.044
 8009SOL     OW24925   6.269   0.350   3.687
 8009SOL    HW124926   6.364   0.372   3.708
 8009SOL    HW224927   6.265   0.297   3.602
 8010SOL     OW24928   1.557   1.367   6.904
 8010SOL    HW124929   1.621   1.443   6.918
 8010SOL    HW224930   1.593   1.307   6.832
 8011SOL     OW24931   2.496   2.541   1.303
 8011SOL    HW124932   2.420   2.534   1.366
 8011SOL    HW224933   2.552   2.620   1.326
 8012SOL     OW24934   1.962   5.565   1.421
 8012SOL    HW124935   1.979   5.651   1.373
 8012SOL    HW224936   1.882   5.576   1.480
 8013SOL     OW24937   0.738   5.279   4.729
 8013SOL    HW124938   0.820   5.329   4.703
 8013SOL    HW224939   0.764   5.191   4.770
 8014SOL     OW24940   0.950   6.212   5.200
 8014SOL    HW124941   1.018   6.161   5.253
 8014SOL    HW224942   0.910   6.151   5.132
 8015SOL     OW24943   2.752   1.315   0.318
 8015SOL    HW124944   2.834   1.324   0.373
 8015SOL    HW224945   2.677   1.368   0.359
 8016SOL     OW24946   4.177   0.152   6.208
 8016SOL    HW124947   4.231   0.226   6.169
 8016SOL    HW224948   4.097   0.190   6.255
 8017SOL     OW24949   6.508   5.065   6.221
 8017SOL    HW124950   6.446   5.054   6.144
 8017SOL    HW224951   6.573   5.138   6.201
 8018SOL     OW24952   4.192   2.416   6.045
 8018SOL    HW124953   4.167   2.513   6.042
 8018SOL    HW224954   4.211   2.384   5.952
 8019SOL     OW24955   1.729   3.835   6.959
 8019SOL    HW124956   1.818   3.868   6.926
 8019SOL    HW224957   1.695   3.765   6.896
 8020SOL     OW24958   6.377   5.991   0.865
 8020SOL    HW124959   6.389   6.026   0.772
 8020SOL    HW224960   6.428   5.906   0.875
 8021SOL     OW24961   1.386   2.121   2.154
 8021SOL    HW124962   1.412   2.207   2.198
 8021SOL    HW224963   1.444   2.047   2.187
 8022SOL     OW24964   4.208   0.690   2.854
 8022SOL    HW124965   4.223   0.764   2.919
 8022SOL    HW224966   4.222   0.602   2.900
 8023SOL     OW24967   5.943   5.759   3.196
 8023SOL    HW124968   5.874   5.688   3.207
 8023SOL    HW224969   6.030   5.728   3.234
 8024SOL     OW24970   2.692   4.682   0.142
 8024SOL    HW124971   2.699   4.743   0.063
 8024SOL    HW224972   2.664   4.591   0.112
 8025SOL     OW24973   3.080   6.309   5.999
 8025SOL    HW124974   3.175   6.288   5.972
 8025SOL    HW224975   3.066   6.408   5.996
 8026SOL     OW24976   0.647   4.124   6.994
 8026SOL    HW124977   0.697   4.088   6.915
 8026SOL    HW224978   0.639   4.054   0.039
 8027SOL     OW24979   4.504   2.186   5.772
 8027SOL    HW124980   4.558   2.255   5.821
 8027SOL    HW224981   4.407   2.211   5.775
 8028SOL     OW24982   4.085   4.869   6.140
 8028SOL    HW124983   4.006   4.907   6.189
 8028SOL    HW224984   4.167   4.885   6.194
 8029SOL     OW24985   5.741   3.868   6.831
 8029SOL    HW124986   5.758   3.946   6.891
 8029SOL    HW224987   5.713   3.789   6.887
 8030SOL     OW24988   5.751   4.057   6.245
 8030SOL    HW124989   5.728   4.019   6.155
 8030SOL    HW224990   5.687   4.130   6.269
 8031SOL     OW24991   4.689   5.686   2.831
 8031SOL    HW124992   4.719   5.591   2.839
 8031SOL    HW224993   4.653   5.717   2.918
 8032SOL     OW24994   5.823   4.578   5.173
 8032SOL    HW124995   5.894   4.512   5.198
 8032SOL    HW224996   5.830   4.600   5.076
 8033SOL     OW24997   4.776   3.413   0.220
 8033SOL    HW124998   4.834   3.371   0.151
 8033SOL    HW224999   4.689   3.441   0.179
 8034SOL     OW25000   6.001   1.230   5.433
 8034SOL    HW125001   5.948   1.191   5.509
 8034SOL    HW225002   5.941   1.240   5.354
 8035SOL     OW25003   4.819   6.944   5.180
 8035SOL    HW125004   4.875   6.867   5.210
 8035SOL    HW225005   4.878   7.014   5.139
 8036SOL     OW25006   0.761   3.628   1.916
 8036SOL    HW125007   0.805   3.579   1.992
 8036SOL    HW225008   0.709   3.705   1.953
 8037SOL     OW25009   1.828   3.667   1.588
 8037SOL    HW125010   1.860   3.724   1.512
 8037SOL    HW225011   1.860   3.573   1.575
 8038SOL     OW25012   4.929   1.465   2.464
 8038SOL    HW125013   4.881   1.386   2.501
 8038SOL    HW225014   4.932   1.459   2.364
 8039SOL     OW25015   1.024   6.630   3.391
 8039SOL    HW125016   1.112   6.596   3.355
 8039SOL    HW225017   0.951   6.604   3.328
 8040SOL     OW25018   1.392   5.880   1.284
 8040SOL    HW125019   1.429   5.913   1.371
 8040SOL    HW225020   1.443   5.800   1.253
 8041SOL     OW25021   3.223   2.074   2.102
 8041SOL    HW125022   3.294   2.143   2.087
 8041SOL    HW225023   3.154   2.081   2.029
 8042SOL     OW25024   3.712   2.885   2.794
 8042SOL    HW125025   3.760   2.873   2.707
 8042SOL    HW225026   3.613   2.888   2.778
 8043SOL     OW25027   3.824   6.334   0.578
 8043SOL    HW125028   3.852   6.425   0.610
 8043SOL    HW225029   3.788   6.341   0.485
 8044SOL     OW25030   2.946   3.514   0.841
 8044SOL    HW125031   2.900   3.552   0.922
 8044SOL    HW225032   2.947   3.414   0.848
 8045SOL     OW25033   5.324   0.790   2.176
 8045SOL    HW125034   5.264   0.853   2.226
 8045SOL    HW225035   5.269   0.734   2.113
 8046SOL     OW25036   5.866   4.885   6.562
 8046SOL    HW125037   5.859   4.785   6.561
 8046SOL    HW225038   5.951   4.912   6.607
 8047SOL     OW25039   3.742   5.030   4.930
 8047SOL    HW125040   3.839   5.020   4.951
 8047SOL    HW225041   3.687   4.992   5.005
 8048SOL     OW25042   5.218   1.085   5.587
 8048SOL    HW125043   5.260   1.170   5.619
 8048SOL    HW225044   5.191   1.095   5.491
 8049SOL     OW25045   1.196   0.065   1.830
 8049SOL    HW125046   1.101   0.047   1.855
 8049SOL    HW225047   1.201   0.148   1.773
 8050SOL     OW25048   0.443   4.017   1.620
 8050SOL    HW125049   0.461   4.004   1.717
 8050SOL    HW225050   0.493   4.096   1.586
 8051SOL     OW25051   5.070   6.830   2.939
 8051SOL    HW125052   5.073   6.896   3.014
 8051SOL    HW225053   5.037   6.875   2.856
 8052SOL     OW25054   3.493   1.557   1.949
 8052SOL    HW125055   3.464   1.643   1.907
 8052SOL    HW225056   3.461   1.480   1.894
 8053SOL     OW25057   3.560   3.553   2.745
 8053SOL    HW125058   3.597   3.610   2.818
 8053SOL    HW225059   3.460   3.558   2.746
 8054SOL     OW25060   5.443   6.243   3.851
 8054SOL    HW125061   5.472   6.185   3.927
 8054SOL    HW225062   5.376   6.194   3.796
 8055SOL     OW25063   0.717   0.480   6.225
 8055SOL    HW125064   0.700   0.396   6.276
 8055SOL    HW225065   0.630   0.524   6.202
 8056SOL     OW25066   4.098   1.062   3.577
 8056SOL    HW125067   4.177   1.098   3.628
 8056SOL    HW225068   4.074   1.126   3.505
 8057SOL     OW25069   2.124   1.238   2.080
 8057SOL    HW125070   2.206   1.182   2.067
 8057SOL    HW225071   2.043   1.180   2.071
 8058SOL     OW25072   3.323   0.285   2.883
 8058SOL    HW125073   3.379   0.219   2.934
 8058SOL    HW225074   3.233   0.294   2.926
 8059SOL     OW25075   4.115   2.213   4.963
 8059SOL    HW125076   4.052   2.157   5.017
 8059SOL    HW225077   4.142   2.293   5.017
 8060SOL     OW25078   0.347   1.383   4.453
 8060SOL    HW125079   0.396   1.419   4.533
 8060SOL    HW225080   0.317   1.289   4.473
 8061SOL     OW25081   6.803   6.759   2.281
 8061SOL    HW125082   6.781   6.795   2.190
 8061SOL    HW225083   6.779   6.662   2.284
 8062SOL     OW25084   2.287   4.167   3.962
 8062SOL    HW125085   2.295   4.192   4.058
 8062SOL    HW225086   2.257   4.072   3.953
 8063SOL     OW25087   1.854   3.715   0.509
 8063SOL    HW125088   1.901   3.667   0.435
 8063SOL    HW225089   1.829   3.649   0.580
 8064SOL     OW25090   0.266   4.607   1.035
 8064SOL    HW125091   0.224   4.591   0.946
 8064SOL    HW225092   0.259   4.704   1.058
 8065SOL     OW25093   4.316   6.394   3.560
 8065SOL    HW125094   4.253   6.386   3.637
 8065SOL    HW225095   4.301   6.482   3.514
 8066SOL     OW25096   1.460   1.723   6.752
 8066SOL    HW125097   1.427   1.645   6.699
 8066SOL    HW225098   1.434   1.712   6.848
 8067SOL     OW25099   4.805   3.149   1.442
 8067SOL    HW125100   4.743   3.086   1.487
 8067SOL    HW225101   4.862   3.195   1.510
 8068SOL     OW25102   6.904   5.401   6.262
 8068SOL    HW125103   6.911   5.486   6.209
 8068SOL    HW225104   6.992   5.379   6.303
 8069SOL     OW25105   2.407   5.786   1.436
 8069SOL    HW125106   2.432   5.846   1.512
 8069SOL    HW225107   2.359   5.706   1.472
 8070SOL     OW25108   3.042   4.418   0.606
 8070SOL    HW125109   3.107   4.343   0.612
 8070SOL    HW225110   2.970   4.395   0.540
 8071SOL     OW25111   3.168   6.315   4.754
 8071SOL    HW125112   3.203   6.223   4.735
 8071SOL    HW225113   3.091   6.334   4.692
 8072SOL     OW25114   3.160   1.139   0.633
 8072SOL    HW125115   3.117   1.115   0.546
 8072SOL    HW225116   3.259   1.140   0.622
 8073SOL     OW25117   5.040   6.998   6.784
 8073SOL    HW125118   5.062   6.928   6.852
 8073SOL    HW225119   4.970   6.962   6.722
 8074SOL     OW25120   3.358   2.637   6.758
 8074SOL    HW125121   3.295   2.579   6.706
 8074SOL    HW225122   3.439   2.655   6.703
 8075SOL     OW25123   6.620   1.134   1.820
 8075SOL    HW125124   6.634   1.058   1.883
 8075SOL    HW225125   6.652   1.107   1.729
 8076SOL     OW25126   4.344   2.950   5.373
 8076SOL    HW125127   4.269   2.883   5.381
 8076SOL    HW225128   4.306   3.040   5.352
 8077SOL     OW25129   0.969   6.485   1.783
 8077SOL    HW125130   1.064   6.465   1.808
 8077SOL    HW225131   0.909   6.458   1.859
 8078SOL     OW25132   6.177   1.501   0.701
 8078SOL    HW125133   6.250   1.440   0.733
 8078SOL    HW225134   6.116   1.450   0.640
 8079SOL     OW25135   5.280   1.783   3.294
 8079SOL    HW125136   5.225   1.815   3.217
 8079SOL    HW225137   5.225   1.722   3.351
 8080SOL     OW25138   1.030   3.922   0.624
 8080SOL    HW125139   1.068   3.878   0.543
 8080SOL    HW225140   1.045   3.863   0.703
 8081SOL     OW25141   5.491   0.424   5.395
 8081SOL    HW125142   5.528   0.456   5.483
 8081SOL    HW225143   5.549   0.457   5.321
 8082SOL     OW25144   5.908   1.794   2.249
 8082SOL    HW125145   5.812   1.773   2.269
 8082SOL    HW225146   5.966   1.757   2.321
 8083SOL     OW25147   5.217   3.039   2.254
 8083SOL    HW125148   5.120   3.062   2.247
 8083SOL    HW225149   5.227   2.944   2.283
 8084SOL     OW25150   6.113   6.718   1.132
 8084SOL    HW125151   6.083   6.806   1.096
 8084SOL    HW225152   6.110   6.720   1.232
 8085SOL     OW25153   5.513   0.509   2.469
 8085SOL    HW125154   5.532   0.493   2.566
 8085SOL    HW225155   5.484   0.424   2.426
 8086SOL     OW25156   4.081   0.213   4.174
 8086SOL    HW125157   4.023   0.284   4.213
 8086SOL    HW225158   4.027   0.157   4.111
 8087SOL     OW25159   2.182   1.475   0.976
 8087SOL    HW125160   2.145   1.384   0.996
 8087SOL    HW225161   2.165   1.497   0.880
 8088SOL     OW25162   6.003   1.549   1.824
 8088SOL    HW125163   5.996   1.625   1.759
 8088SOL    HW225164   6.099   1.522   1.833
 8089SOL     OW25165   5.608   1.670   0.596
 8089SOL    HW125166   5.541   1.627   0.535
 8089SOL    HW225167   5.693   1.686   0.546
 8090SOL     OW25168   4.597   1.763   6.141
 8090SOL    HW125169   4.517   1.822   6.151
 8090SOL    HW225170   4.653   1.770   6.224
 8091SOL     OW25171   3.222   3.735   6.592
 8091SOL    HW125172   3.164   3.756   6.513
 8091SOL    HW225173   3.256   3.642   6.585
 8092SOL     OW25174   1.450   1.826   5.054
 8092SOL    HW125175   1.469   1.765   4.976
 8092SOL    HW225176   1.489   1.916   5.035
 8093SOL     OW25177   5.878   5.523   1.665
 8093SOL    HW125178   5.865   5.618   1.639
 8093SOL    HW225179   5.871   5.514   1.764
 8094SOL     OW25180   2.332   4.354   4.949
 8094SOL    HW125181   2.287   4.357   4.859
 8094SOL    HW225182   2.425   4.321   4.939
 8095SOL     OW25183   6.290   3.658   3.844
 8095SOL    HW125184   6.360   3.645   3.774
 8095SOL    HW225185   6.234   3.575   3.851
 8096SOL     OW25186   3.161   5.642   3.803
 8096SOL    HW125187   3.151   5.619   3.707
 8096SOL    HW225188   3.173   5.558   3.856
 8097SOL     OW25189   5.335   0.900   4.292
 8097SOL    HW125190   5.287   0.867   4.373
 8097SOL    HW225191   5.421   0.943   4.319
 8098SOL     OW25192   2.456   6.786   4.529
 8098SOL    HW125193   2.472   6.818   4.623
 8098SOL    HW225194   2.491   6.853   4.464
 8099SOL     OW25195   6.289   0.712   4.543
 8099SOL    HW125196   6.210   0.767   4.514
 8099SOL    HW225197   6.336   0.676   4.463
 8100SOL     OW25198   0.229   6.705   0.344
 8100SOL    HW125199   0.228   6.804   0.341
 8100SOL    HW225200   0.136   6.670   0.346
 8101SOL     OW25201   2.168   0.373   4.825
 8101SOL    HW125202   2.106   0.363   4.903
 8101SOL    HW225203   2.254   0.326   4.843
 8102SOL     OW25204   1.627   5.597   6.137
 8102SOL    HW125205   1.722   5.566   6.146
 8102SOL    HW225206   1.569   5.521   6.107
 8103SOL     OW25207   4.056   1.399   1.328
 8103SOL    HW125208   4.137   1.442   1.367
 8103SOL    HW225209   3.984   1.466   1.318
 8104SOL     OW25210   3.048   6.795   6.074
 8104SOL    HW125211   3.034   6.713   6.129
 8104SOL    HW225212   3.044   6.875   6.133
 8105SOL     OW25213   2.259   2.319   3.590
 8105SOL    HW125214   2.160   2.314   3.599
 8105SOL    HW225215   2.302   2.291   3.676
 8106SOL     OW25216   2.171   5.791   3.302
 8106SOL    HW125217   2.163   5.868   3.238
 8106SOL    HW225218   2.246   5.810   3.366
 8107SOL     OW25219   1.474   6.356   5.723
 8107SOL    HW125220   1.446   6.377   5.817
 8107SOL    HW225221   1.481   6.256   5.712
 8108SOL     OW25222   6.074   2.651   4.803
 8108SOL    HW125223   6.171   2.664   4.823
 8108SOL    HW225224   6.063   2.577   4.737
 8109SOL     OW25225   1.936   4.232   4.669
 8109SOL    HW125226   1.926   4.271   4.577
 8109SOL    HW225227   2.002   4.285   4.721
 8110SOL     OW25228   3.769   6.382   0.315
 8110SOL    HW125229   3.683   6.410   0.273
 8110SOL    HW225230   3.820   6.463   0.343
 8111SOL     OW25231   3.287   0.238   6.231
 8111SOL    HW125232   3.305   0.182   6.313
 8111SOL    HW225233   3.362   0.302   6.218
 8112SOL     OW25234   2.012   1.453   5.799
 8112SOL    HW125235   2.012   1.505   5.713
 8112SOL    HW225236   1.949   1.496   5.864
 8113SOL     OW25237   2.678   2.885   0.120
 8113SOL    HW125238   2.744   2.811   0.134
 8113SOL    HW225239   2.589   2.858   0.155
 8114SOL     OW25240   2.268   2.924   2.367
 8114SOL    HW125241   2.302   3.001   2.313
 8114SOL    HW225242   2.274   2.946   2.465
 8115SOL     OW25243   3.591   1.223   1.320
 8115SOL    HW125244   3.668   1.178   1.366
 8115SOL    HW225245   3.560   1.300   1.376
 8116SOL     OW25246   4.993   6.793   4.844
 8116SOL    HW125247   4.998   6.795   4.744
 8116SOL    HW225248   4.898   6.800   4.873
 8117SOL     OW25249   1.822   1.588   3.622
 8117SOL    HW125250   1.790   1.683   3.621
 8117SOL    HW225251   1.888   1.574   3.548
 8118SOL     OW25252   0.047   3.835   5.579
 8118SOL    HW125253   7.000   3.775   5.545
 8118SOL    HW225254   0.028   3.859   5.674
 8119SOL     OW25255   6.959   5.922   4.938
 8119SOL    HW125256   6.987   5.835   4.898
 8119SOL    HW225257   0.014   5.978   4.957
 8120SOL     OW25258   3.847   4.193   6.865
 8120SOL    HW125259   3.932   4.244   6.875
 8120SOL    HW225260   3.774   4.240   6.915
 8121SOL     OW25261   6.897   5.792   3.363
 8121SOL    HW125262   6.907   5.802   3.264
 8121SOL    HW225263   6.843   5.710   3.383
 8122SOL     OW25264   0.331   4.897   2.530
 8122SOL    HW125265   0.361   4.992   2.521
 8122SOL    HW225266   0.396   4.837   2.483
 8123SOL     OW25267   0.388   0.358   6.974
 8123SOL    HW125268   0.298   0.402   6.968
 8123SOL    HW225269   0.378   0.260   6.957
 8124SOL     OW25270   0.800   6.729   1.646
 8124SOL    HW125271   0.741   6.681   1.711
 8124SOL    HW225272   0.860   6.663   1.601
 8125SOL     OW25273   6.423   5.155   2.885
 8125SOL    HW125274   6.427   5.253   2.908
 8125SOL    HW225275   6.386   5.144   2.793
 8126SOL     OW25276   6.194   4.312   2.063
 8126SOL    HW125277   6.145   4.323   1.976
 8126SOL    HW225278   6.235   4.221   2.066
 8127SOL     OW25279   2.277   5.835   0.903
 8127SOL    HW125280   2.308   5.800   0.991
 8127SOL    HW225281   2.323   5.786   0.829
 8128SOL     OW25282   2.992   2.454   0.048
 8128SOL    HW125283   2.943   2.384   0.099
 8128SOL    HW225284   3.045   2.412   7.000
 8129SOL     OW25285   5.061   1.172   6.471
 8129SOL    HW125286   5.009   1.238   6.526
 8129SOL    HW225287   5.154   1.205   6.459
 8130SOL     OW25288   1.077   5.428   6.101
 8130SOL    HW125289   0.994   5.422   6.045
 8130SOL    HW225290   1.105   5.523   6.108
 8131SOL     OW25291   2.627   0.873   0.547
 8131SOL    HW125292   2.592   0.784   0.518
 8131SOL    HW225293   2.633   0.874   0.647
 8132SOL     OW25294   5.473   6.152   5.998
 8132SOL    HW125295   5.452   6.176   5.903
 8132SOL    HW225296   5.514   6.231   6.044
 8133SOL     OW25297   3.442   4.985   2.365
 8133SOL    HW125298   3.503   5.039   2.424
 8133SOL    HW225299   3.493   4.951   2.287
 8134SOL     OW25300   2.015   1.366   4.134
 8134SOL    HW125301   2.043   1.331   4.223
 8134SOL    HW225302   1.953   1.444   4.147
 8135SOL     OW25303   2.599   4.822   2.397
 8135SOL    HW125304   2.594   4.787   2.303
 8135SOL    HW225305   2.568   4.917   2.399
 8136SOL     OW25306   4.769   5.146   2.731
 8136SOL    HW125307   4.731   5.054   2.742
 8136SOL    HW225308   4.777   5.167   2.634
 8137SOL     OW25309   2.142   2.422   4.229
 8137SOL    HW125310   2.140   2.406   4.130
 8137SOL    HW225311   2.077   2.493   4.253
 8138SOL     OW25312   5.645   1.779   2.255
 8138SOL    HW125313   5.574   1.728   2.206
 8138SOL    HW225314   5.650   1.872   2.218
 8139SOL     OW25315   1.297   2.823   3.537
 8139SOL    HW125316   1.361   2.887   3.580
 8139SOL    HW225317   1.314   2.730   3.571
 8140SOL     OW25318   3.818   0.495   0.152
 8140SOL    HW125319   3.902   0.466   0.197
 8140SOL    HW225320   3.740   0.478   0.213
 8141SOL     OW25321   5.324   0.174   5.416
 8141SOL    HW125322   5.406   0.222   5.448
 8141SOL    HW225323   5.258   0.165   5.490
 8142SOL     OW25324   2.252   5.049   1.013
 8142SOL    HW125325   2.160   5.030   1.048
 8142SOL    HW225326   2.293   5.124   1.064
 8143SOL     OW25327   5.022   5.068   1.263
 8143SOL    HW125328   5.032   5.078   1.362
 8143SOL    HW225329   5.074   5.140   1.217
 8144SOL     OW25330   0.552   5.966   5.302
 8144SOL    HW125331   0.638   6.011   5.281
 8144SOL    HW225332   0.540   5.887   5.241
 8145SOL     OW25333   5.132   4.720   0.362
 8145SOL    HW125334   5.154   4.696   0.268
 8145SOL    HW225335   5.142   4.819   0.375
 8146SOL     OW25336   6.306   0.402   5.456
 8146SOL    HW125337   6.403   0.409   5.434
 8146SOL    HW225338   6.270   0.492   5.482
 8147SOL     OW25339   0.390   0.611   0.614
 8147SOL    HW125340   0.480   0.625   0.573
 8147SOL    HW225341   0.331   0.562   0.550
 8148SOL     OW25342   4.049   4.239   6.504
 8148SOL    HW125343   4.057   4.164   6.570
 8148SOL    HW225344   4.006   4.317   6.549
 8149SOL     OW25345   1.464   6.336   4.586
 8149SOL    HW125346   1.378   6.298   4.551
 8149SOL    HW225347   1.486   6.294   4.674
 8150SOL     OW25348   0.372   3.509   1.006
 8150SOL    HW125349   0.304   3.488   1.076
 8150SOL    HW225350   0.358   3.449   0.927
 8151SOL     OW25351   6.008   5.668   3.883
 8151SOL    HW125352   5.919   5.639   3.919
 8151SOL    HW225353   5.995   5.714   3.795
 8152SOL     OW25354   4.672   2.202   3.101
 8152SOL    HW125355   4.603   2.152   3.153
 8152SOL    HW225356   4.698   2.150   3.020
 8153SOL     OW25357   0.548   0.802   3.503
 8153SOL    HW125358   0.639   0.787   3.464
 8153SOL    HW225359   0.502   0.876   3.454
 8154SOL     OW25360   3.071   1.120   3.044
 8154SOL    HW125361   3.055   1.024   3.069
 8154SOL    HW225362   2.989   1.173   3.066
 8155SOL     OW25363   1.060   4.291   2.115
 8155SOL    HW125364   0.973   4.312   2.071
 8155SOL    HW225365   1.129   4.356   2.084
 8156SOL     OW25366   5.187   5.926   1.526
 8156SOL    HW125367   5.201   5.832   1.494
 8156SOL    HW225368   5.090   5.949   1.518
 8157SOL     OW25369   5.971   4.056   5.769
 8157SOL    HW125370   5.875   4.081   5.781
 8157SOL    HW225371   5.977   3.957   5.752
 8158SOL     OW25372   5.189   5.310   6.466
 8158SOL    HW125373   5.267   5.350   6.418
 8158SOL    HW225374   5.125   5.270   6.399
 8159SOL     OW25375   3.771   6.000   5.524
 8159SOL    HW125376   3.759   6.099   5.534
 8159SOL    HW225377   3.794   5.979   5.429
 8160SOL     OW25378   4.409   0.211   3.806
 8160SOL    HW125379   4.451   0.224   3.896
 8160SOL    HW225380   4.317   0.250   3.806
 8161SOL     OW25381   5.869   3.802   6.566
 8161SOL    HW125382   5.786   3.792   6.511
 8161SOL    HW225383   5.845   3.794   6.663
 8162SOL     OW25384   0.509   5.450   0.234
 8162SOL    HW125385   0.559   5.369   0.204
 8162SOL    HW225386   0.434   5.470   0.171
 8163SOL     OW25387   3.647   4.920   5.597
 8163SOL    HW125388   3.658   4.985   5.522
 8163SOL    HW225389   3.635   4.828   5.561
 8164SOL     OW25390   4.684   1.219   0.298
 8164SOL    HW125391   4.673   1.294   0.364
 8164SOL    HW225392   4.726   1.140   0.344
 8165SOL     OW25393   6.842   4.415   6.702
 8165SOL    HW125394   6.834   4.414   6.602
 8165SOL    HW225395   6.758   4.380   6.743
 8166SOL     OW25396   2.219   1.892   3.446
 8166SOL    HW125397   2.119   1.880   3.449
 8166SOL    HW225398   2.240   1.988   3.431
 8167SOL     OW25399   6.855   0.878   3.841
 8167SOL    HW125400   6.922   0.804   3.832
 8167SOL    HW225401   6.848   0.927   3.754
 8168SOL     OW25402   2.808   0.029   1.404
 8168SOL    HW125403   2.728   0.001   1.458
 8168SOL    HW225404   2.887   0.036   1.464
 8169SOL     OW25405   3.945   1.936   0.531
 8169SOL    HW125406   3.935   1.991   0.448
 8169SOL    HW225407   3.856   1.897   0.555
 8170SOL     OW25408   6.564   4.791   1.454
 8170SOL    HW125409   6.532   4.754   1.367
 8170SOL    HW225410   6.652   4.837   1.442
 8171SOL     OW25411   1.371   1.475   6.287
 8171SOL    HW125412   1.456   1.422   6.296
 8171SOL    HW225413   1.368   1.545   6.358
 8172SOL     OW25414   0.330   2.429   2.011
 8172SOL    HW125415   0.368   2.514   2.046
 8172SOL    HW225416   0.250   2.403   2.066
 8173SOL     OW25417   5.837   2.235   2.684
 8173SOL    HW125418   5.770   2.200   2.749
 8173SOL    HW225419   5.894   2.160   2.652
 8174SOL     OW25420   0.841   6.521   2.918
 8174SOL    HW125421   0.918   6.562   2.967
 8174SOL    HW225422   0.757   6.539   2.969
 8175SOL     OW25423   0.860   2.779   4.362
 8175SOL    HW125424   0.840   2.714   4.289
 8175SOL    HW225425   0.787   2.775   4.431
 8176SOL     OW25426   2.282   4.651   1.591
 8176SOL    HW125427   2.290   4.659   1.491
 8176SOL    HW225428   2.368   4.679   1.633
 8177SOL     OW25429   3.682   1.132   3.093
 8177SOL    HW125430   3.767   1.105   3.048
 8177SOL    HW225431   3.627   1.051   3.112
 8178SOL     OW25432   3.127   6.357   1.199
 8178SOL    HW125433   3.058   6.390   1.133
 8178SOL    HW225434   3.169   6.273   1.164
 8179SOL     OW25435   5.563   1.079   4.291
 8179SOL    HW125436   5.654   1.118   4.283
 8179SOL    HW225437   5.497   1.151   4.313
 8180SOL     OW25438   5.871   0.767   0.023
 8180SOL    HW125439   5.772   0.783   0.013
 8180SOL    HW225440   5.908   0.731   6.963
 8181SOL     OW25441   1.028   0.675   1.260
 8181SOL    HW125442   0.956   0.630   1.207
 8181SOL    HW225443   1.075   0.741   1.203
 8182SOL     OW25444   3.430   3.645   4.733
 8182SOL    HW125445   3.384   3.720   4.685
 8182SOL    HW225446   3.434   3.565   4.673
 8183SOL     OW25447   6.565   1.440   4.459
 8183SOL    HW125448   6.597   1.440   4.554
 8183SOL    HW225449   6.532   1.348   4.436
 8184SOL     OW25450   1.039   6.886   0.285
 8184SOL    HW125451   1.062   6.909   0.190
 8184SOL    HW225452   0.959   6.826   0.286
 8185SOL     OW25453   2.166   0.404   0.390
 8185SOL    HW125454   2.073   0.371   0.408
 8185SOL    HW225455   2.167   0.458   0.306
 8186SOL     OW25456   2.528   4.153   5.367
 8186SOL    HW125457   2.498   4.247   5.384
 8186SOL    HW225458   2.481   4.116   5.287
 8187SOL     OW25459   2.412   1.559   4.715
 8187SOL    HW125460   2.508   1.569   4.740
 8187SOL    HW225461   2.381   1.640   4.665
 8188SOL     OW25462   4.491   1.991   3.923
 8188SOL    HW125463   4.409   2.004   3.978
 8188SOL    HW225464   4.468   2.005   3.826
 8189SOL     OW25465   5.604   5.854   2.475
 8189SOL    HW125466   5.639   5.761   2.460
 8189SOL    HW225467   5.642   5.889   2.561
 8190SOL     OW25468   5.067   4.045   3.887
 8190SOL    HW125469   4.977   4.022   3.924
 8190SOL    HW225470   5.111   3.962   3.852
 8191SOL     OW25471   4.528   5.150   2.497
 8191SOL    HW125472   4.441   5.112   2.466
 8191SOL    HW225473   4.512   5.236   2.547
 8192SOL     OW25474   1.356   5.280   2.461
 8192SOL    HW125475   1.411   5.359   2.437
 8192SOL    HW225476   1.260   5.300   2.443
 8193SOL     OW25477   6.219   5.441   4.734
 8193SOL    HW125478   6.315   5.460   4.754
 8193SOL    HW225479   6.166   5.526   4.739
 8194SOL     OW25480   4.117   0.730   1.050
 8194SOL    HW125481   4.134   0.756   1.145
 8194SOL    HW225482   4.038   0.780   1.016
 8195SOL     OW25483   6.436   0.023   4.000
 8195SOL    HW125484   6.521   7.001   3.976
 8195SOL    HW225485   6.457   0.099   4.063
 8196SOL     OW25486   5.271   7.023   0.261
 8196SOL    HW125487   5.259   0.089   0.219
 8196SOL    HW225488   5.185   6.972   0.254
 8197SOL     OW25489   4.373   1.593   1.240
 8197SOL    HW125490   4.340   1.666   1.298
 8197SOL    HW225491   4.463   1.563   1.272
 8198SOL     OW25492   3.143   6.567   2.465
 8198SOL    HW125493   3.225   6.611   2.426
 8198SOL    HW225494   3.095   6.517   2.393
 8199SOL     OW25495   5.208   3.223   6.028
 8199SOL    HW125496   5.207   3.314   5.988
 8199SOL    HW225497   5.266   3.222   6.109
 8200SOL     OW25498   6.045   4.344   1.836
 8200SOL    HW125499   5.956   4.329   1.880
 8200SOL    HW225500   6.031   4.388   1.747
 8201SOL     OW25501   0.093   0.642   5.191
 8201SOL    HW125502   0.073   0.647   5.289
 8201SOL    HW225503   0.181   0.685   5.172
 8202SOL     OW25504   6.497   5.911   2.712
 8202SOL    HW125505   6.503   5.889   2.614
 8202SOL    HW225506   6.428   5.982   2.726
 8203SOL     OW25507   1.971   2.401   0.107
 8203SOL    HW125508   1.915   2.358   0.178
 8203SOL    HW225509   1.922   2.397   0.019
 8204SOL     OW25510   3.934   4.314   0.575
 8204SOL    HW125511   3.965   4.288   0.484
 8204SOL    HW225512   3.858   4.255   0.602
 8205SOL     OW25513   6.960   3.696   6.956
 8205SOL    HW125514   6.984   3.694   6.859
 8205SOL    HW225515   7.000   3.777   6.999
 8206SOL     OW25516   4.556   1.952   0.047
 8206SOL    HW125517   4.545   1.966   0.145
 8206SOL    HW225518   4.626   1.883   0.031
 8207SOL     OW25519   3.552   3.735   4.148
 8207SOL    HW125520   3.612   3.797   4.096
 8207SOL    HW225521   3.536   3.773   4.239
 8208SOL     OW25522   1.478   0.730   0.914
 8208SOL    HW125523   1.381   0.725   0.889
 8208SOL    HW225524   1.532   0.676   0.850
 8209SOL     OW25525   0.113   0.762   4.691
 8209SOL    HW125526   0.052   0.692   4.728
 8209SOL    HW225527   0.208   0.736   4.709
 8210SOL     OW25528   2.142   2.126   0.467
 8210SOL    HW125529   2.216   2.190   0.489
 8210SOL    HW225530   2.137   2.114   0.367
 8211SOL     OW25531   3.643   4.007   1.201
 8211SOL    HW125532   3.556   3.959   1.211
 8211SOL    HW225533   3.718   3.941   1.197
 8212SOL     OW25534   1.451   2.369   3.010
 8212SOL    HW125535   1.527   2.423   3.046
 8212SOL    HW225536   1.395   2.336   3.085
 8213SOL     OW25537   6.817   4.930   1.400
 8213SOL    HW125538   6.891   4.878   1.356
 8213SOL    HW225539   6.798   5.012   1.347
 8214SOL     OW25540   6.073   4.804   4.255
 8214SOL    HW125541   6.077   4.856   4.341
 8214SOL    HW225542   6.000   4.840   4.197
 8215SOL     OW25543   3.851   5.995   5.244
 8215SOL    HW125544   3.817   5.906   5.214
 8215SOL    HW225545   3.781   6.064   5.228
 8216SOL     OW25546   5.325   5.867   4.326
 8216SOL    HW125547   5.337   5.926   4.246
 8216SOL    HW225548   5.298   5.776   4.296
 8217SOL     OW25549   2.494   5.157   0.682
 8217SOL    HW125550   2.553   5.079   0.661
 8217SOL    HW225551   2.551   5.237   0.700
 8218SOL     OW25552   6.964   0.613   6.717
 8218SOL    HW125553   6.968   0.712   6.724
 8218SOL    HW225554   6.988   0.584   6.624
 8219SOL     OW25555   4.596   2.063   0.300
 8219SOL    HW125556   4.605   2.161   0.284
 8219SOL    HW225557   4.622   2.042   0.394
 8220SOL     OW25558   3.698   3.351   3.256
 8220SOL    HW125559   3.778   3.364   3.198
 8220SOL    HW225560   3.726   3.342   3.351
 8221SOL     OW25561   4.831   5.844   4.600
 8221SOL    HW125562   4.903   5.796   4.552
 8221SOL    HW225563   4.871   5.901   4.672
 8222SOL     OW25564   5.122   1.714   2.153
 8222SOL    HW125565   5.102   1.749   2.244
 8222SOL    HW225566   5.059   1.639   2.131
 8223SOL     OW25567   1.551   3.962   5.917
 8223SOL    HW125568   1.622   3.939   5.851
 8223SOL    HW225569   1.556   3.898   5.995
 8224SOL     OW25570   0.253   2.393   2.552
 8224SOL    HW125571   0.226   2.367   2.645
 8224SOL    HW225572   0.172   2.396   2.494
 8225SOL     OW25573   3.656   1.186   6.938
 8225SOL    HW125574   3.603   1.131   6.873
 8225SOL    HW225575   3.729   1.235   6.890
 8226SOL     OW25576   4.364   6.428   1.989
 8226SOL    HW125577   4.371   6.462   2.082
 8226SOL    HW225578   4.270   6.397   1.972
 8227SOL     OW25579   6.815   2.512   3.240
 8227SOL    HW125580   6.735   2.464   3.276
 8227SOL    HW225581   6.824   2.496   3.142
 8228SOL     OW25582   0.149   2.610   5.814
 8228SOL    HW125583   0.133   2.652   5.903
 8228SOL    HW225584   0.151   2.510   5.825
 8229SOL     OW25585   3.750   4.525   0.592
 8229SOL    HW125586   3.758   4.537   0.493
 8229SOL    HW225587   3.831   4.478   0.626
 8230SOL     OW25588   4.221   6.756   5.237
 8230SOL    HW125589   4.163   6.829   5.273
 8230SOL    HW225590   4.178   6.716   5.156
 8231SOL     OW25591   4.346   5.256   0.512
 8231SOL    HW125592   4.270   5.321   0.512
 8231SOL    HW225593   4.432   5.304   0.531
 8232SOL     OW25594   5.262   1.661   1.055
 8232SOL    HW125595   5.255   1.568   1.020
 8232SOL    HW225596   5.194   1.675   1.128
 8233SOL     OW25597   0.936   6.141   6.464
 8233SOL    HW125598   0.857   6.194   6.435
 8233SOL    HW225599   0.927   6.047   6.430
 8234SOL     OW25600   2.763   3.844   6.879
 8234SOL    HW125601   2.847   3.883   6.841
 8234SOL    HW225602   2.711   3.915   6.926
 8235SOL     OW25603   1.472   3.426   0.406
 8235SOL    HW125604   1.488   3.471   0.494
 8235SOL    HW225605   1.375   3.405   0.397
 8236SOL     OW25606   0.000   4.592   6.778
 8236SOL    HW125607   6.986   4.652   6.848
 8236SOL    HW225608   6.952   4.537   6.737
 8237SOL     OW25609   4.367   5.988   4.213
 8237SOL    HW125610   4.399   5.900   4.179
 8237SOL    HW225611   4.444   6.050   4.226
 8238SOL     OW25612   1.267   4.802   6.956
 8238SOL    HW125613   1.219   4.740   7.018
 8238SOL    HW225614   1.230   4.792   6.864
 8239SOL     OW25615   6.541   1.260   5.096
 8239SOL    HW125616   6.550   1.253   5.196
 8239SOL    HW225617   6.623   1.301   5.058
 8240SOL     OW25618   3.508   4.162   2.858
 8240SOL    HW125619   3.603   4.151   2.888
 8240SOL    HW225620   3.457   4.078   2.876
 8241SOL     OW25621   3.715   6.943   0.095
 8241SOL    HW125622   3.671   0.007   0.098
 8241SOL    HW225623   3.782   6.941   0.020
 8242SOL     OW25624   0.809   4.774   5.844
 8242SOL    HW125625   0.846   4.819   5.925
 8242SOL    HW225626   0.779   4.843   5.778
 8243SOL     OW25627   1.055   2.164   0.357
 8243SOL    HW125628   1.002   2.090   0.315
 8243SOL    HW225629   0.993   2.228   0.402
 8244SOL     OW25630   1.132   0.138   3.980
 8244SOL    HW125631   1.125   0.157   4.078
 8244SOL    HW225632   1.217   0.177   3.944
 8245SOL     OW25633   4.255   1.706   3.079
 8245SOL    HW125634   4.213   1.630   3.029
 8245SOL    HW225635   4.200   1.789   3.066
 8246SOL     OW25636   0.231   3.061   5.777
 8246SOL    HW125637   0.273   2.991   5.836
 8246SOL    HW225638   0.141   3.083   5.812
 8247SOL     OW25639   0.660   6.714   2.432
 8247SOL    HW125640   0.690   6.696   2.526
 8247SOL    HW225641   0.703   6.797   2.398
 8248SOL     OW25642   6.110   5.162   4.328
 8248SOL    HW125643   6.098   5.251   4.284
 8248SOL    HW225644   6.130   5.175   4.425
 8249SOL     OW25645   2.047   2.761   4.933
 8249SOL    HW125646   2.127   2.816   4.908
 8249SOL    HW225647   2.077   2.667   4.952
 8250SOL     OW25648   3.305   4.065   2.349
 8250SOL    HW125649   3.402   4.086   2.339
 8250SOL    HW225650   3.272   4.105   2.435
 8251SOL     OW25651   5.872   3.085   3.976
 8251SOL    HW125652   5.924   3.030   3.910
 8251SOL    HW225653   5.873   3.040   4.065
 8252SOL     OW25654   3.190   2.136   6.026
 8252SOL    HW125655   3.103   2.153   5.979
 8252SOL    HW225656   3.259   2.201   5.995
 8253SOL     OW25657   4.451   4.192   5.277
 8253SOL    HW125658   4.418   4.132   5.350
 8253SOL    HW225659   4.373   4.226   5.224
 8254SOL     OW25660   4.337   4.786   4.882
 8254SOL    HW125661   4.354   4.690   4.903
 8254SOL    HW225662   4.252   4.794   4.829
 8255SOL     OW25663   2.900   6.355   5.050
 8255SOL    HW125664   2.899   6.324   5.145
 8255SOL    HW225665   2.893   6.276   4.989
 8256SOL     OW25666   5.966   0.467   2.513
 8256SOL    HW125667   5.983   0.368   2.519
 8256SOL    HW225668   5.896   0.484   2.444
 8257SOL     OW25669   6.342   4.076   3.771
 8257SOL    HW125670   6.362   4.047   3.864
 8257SOL    HW225671   6.282   4.010   3.727
 8258SOL     OW25672   5.314   1.394   1.012
 8258SOL    HW125673   5.321   1.316   0.950
 8258SOL    HW225674   5.301   1.361   1.106
 8259SOL     OW25675   3.871   1.863   3.249
 8259SOL    HW125676   3.817   1.941   3.278
 8259SOL    HW225677   3.956   1.859   3.301
 8260SOL     OW25678   2.709   6.552   1.987
 8260SOL    HW125679   2.802   6.555   2.025
 8260SOL    HW225680   2.688   6.458   1.959
 8261SOL     OW25681   6.170   1.372   2.143
 8261SOL    HW125682   6.172   1.274   2.159
 8261SOL    HW225683   6.089   1.395   2.089
 8262SOL     OW25684   0.466   2.787   0.285
 8262SOL    HW125685   0.452   2.886   0.281
 8262SOL    HW225686   0.380   2.742   0.309
 8263SOL     OW25687   1.354   2.085   0.205
 8263SOL    HW125688   1.313   2.110   0.293
 8263SOL    HW225689   1.453   2.083   0.213
 8264SOL     OW25690   2.525   5.839   2.761
 8264SOL    HW125691   2.452   5.786   2.805
 8264SOL    HW225692   2.597   5.858   2.827
 8265SOL     OW25693   1.141   6.646   0.696
 8265SOL    HW125694   1.205   6.589   0.748
 8265SOL    HW225695   1.080   6.693   0.760
 8266SOL     OW25696   2.249   1.339   3.973
 8266SOL    HW125697   2.154   1.354   4.003
 8266SOL    HW225698   2.300   1.296   4.047
 8267SOL     OW25699   1.342   2.787   0.779
 8267SOL    HW125700   1.356   2.759   0.873
 8267SOL    HW225701   1.354   2.709   0.718
 8268SOL     OW25702   2.318   6.668   5.909
 8268SOL    HW125703   2.405   6.709   5.937
 8268SOL    HW225704   2.310   6.672   5.809
 8269SOL     OW25705   4.737   1.970   2.318
 8269SOL    HW125706   4.805   2.041   2.339
 8269SOL    HW225707   4.727   1.961   2.219
 8270SOL     OW25708   3.115   6.993   5.227
 8270SOL    HW125709   3.200   6.969   5.275
 8270SOL    HW225710   3.098   6.928   5.153
 8271SOL     OW25711   6.454   0.295   2.787
 8271SOL    HW125712   6.481   0.365   2.721
 8271SOL    HW225713   6.535   0.257   2.831
 8272SOL     OW25714   4.571   2.129   1.432
 8272SOL    HW125715   4.530   2.044   1.465
 8272SOL    HW225716   4.502   2.202   1.432
 8273SOL     OW25717   2.758   6.591   0.503
 8273SOL    HW125718   2.684   6.562   0.563
 8273SOL    HW225719   2.814   6.660   0.549
 8274SOL     OW25720   5.426   5.185   2.908
 8274SOL    HW125721   5.382   5.186   2.998
 8274SOL    HW225722   5.360   5.213   2.838
 8275SOL     OW25723   4.995   1.422   5.504
 8275SOL    HW125724   5.040   1.390   5.421
 8275SOL    HW225725   4.903   1.383   5.510
 8276SOL     OW25726   1.111   1.921   3.506
 8276SOL    HW125727   1.166   1.875   3.577
 8276SOL    HW225728   1.092   1.856   3.432
 8277SOL     OW25729   6.875   0.124   0.793
 8277SOL    HW125730   6.968   0.087   0.794
 8277SOL    HW225731   6.818   0.071   0.856
 8278SOL     OW25732   2.598   2.252   5.583
 8278SOL    HW125733   2.660   2.308   5.528
 8278SOL    HW225734   2.639   2.161   5.596
 8279SOL     OW25735   1.404   6.999   4.196
 8279SOL    HW125736   1.312   6.972   4.223
 8279SOL    HW225737   1.411   6.998   4.096
 8280SOL     OW25738   2.568   2.999   0.496
 8280SOL    HW125739   2.568   3.064   0.420
 8280SOL    HW225740   2.541   3.047   0.580
 8281SOL     OW25741   2.544   4.735   1.586
 8281SOL    HW125742   2.520   4.831   1.576
 8281SOL    HW225743   2.612   4.725   1.658
 8282SOL     OW25744   5.356   3.818   0.053
 8282SOL    HW125745   5.398   3.728   0.054
 8282SOL    HW225746   5.315   3.834   6.987
 8283SOL     OW25747   1.988   5.283   6.631
 8283SOL    HW125748   2.079   5.298   6.592
 8283SOL    HW225749   1.974   5.345   6.708
 8284SOL     OW25750   0.630   3.678   0.869
 8284SOL    HW125751   0.630   3.578   0.872
 8284SOL    HW225752   0.687   3.715   0.942
 8285SOL     OW25753   3.058   3.191   4.884
 8285SOL    HW125754   3.002   3.252   4.941
 8285SOL    HW225755   3.097   3.243   4.808
 8286SOL     OW25756   5.587   3.300   6.150
 8286SOL    HW125757   5.522   3.361   6.196
 8286SOL    HW225758   5.538   3.238   6.089
 8287SOL     OW25759   1.984   5.500   4.056
 8287SOL    HW125760   1.990   5.400   4.057
 8287SOL    HW225761   2.057   5.538   4.000
 8288SOL     OW25762   3.015   1.715   1.736
 8288SOL    HW125763   3.079   1.716   1.813
 8288SOL    HW225764   3.032   1.633   1.681
 8289SOL     OW25765   0.876   5.645   0.963
 8289SOL    HW125766   0.781   5.640   0.995
 8289SOL    HW225767   0.924   5.562   0.990
 8290SOL     OW25768   5.592   1.383   1.148
 8290SOL    HW125769   5.509   1.346   1.188
 8290SOL    HW225770   5.626   1.458   1.205
 8291SOL     OW25771   5.409   6.236   5.746
 8291SOL    HW125772   5.311   6.217   5.756
 8291SOL    HW225773   5.423   6.335   5.736
 8292SOL     OW25774   2.970   6.259   7.001
 8292SOL    HW125775   2.906   6.301   0.039
 8292SOL    HW225776   2.974   6.312   6.917
 8293SOL     OW25777   3.832   6.442   6.971
 8293SOL    HW125778   3.775   6.522   6.984
 8293SOL    HW225779   3.788   6.362   7.012
 8294SOL     OW25780   5.572   4.372   5.025
 8294SOL    HW125781   5.557   4.283   5.069
 8294SOL    HW225782   5.487   4.423   5.024
 8295SOL     OW25783   5.010   5.604   1.688
 8295SOL    HW125784   5.068   5.608   1.607
 8295SOL    HW225785   4.954   5.686   1.693
 8296SOL     OW25786   1.966   5.780   6.027
 8296SOL    HW125787   1.976   5.838   5.946
 8296SOL    HW225788   2.048   5.787   6.084
 8297SOL     OW25789   6.186   2.721   2.138
 8297SOL    HW125790   6.144   2.631   2.132
 8297SOL    HW225791   6.225   2.746   2.049
 8298SOL     OW25792   5.975   1.502   1.142
 8298SOL    HW125793   6.048   1.512   1.209
 8298SOL    HW225794   5.993   1.424   1.083
 8299SOL     OW25795   6.564   2.755   1.749
 8299SOL    HW125796   6.572   2.673   1.694
 8299SOL    HW225797   6.542   2.833   1.690
 8300SOL     OW25798   0.179   6.040   4.991
 8300SOL    HW125799   0.204   6.068   4.898
 8300SOL    HW225800   0.203   6.113   5.054
 8301SOL     OW25801   4.087   1.587   2.004
 8301SOL    HW125802   4.078   1.492   2.034
 8301SOL    HW225803   4.156   1.594   1.933
 8302SOL     OW25804   6.152   5.920   6.753
 8302SOL    HW125805   6.205   6.004   6.741
 8302SOL    HW225806   6.182   5.874   6.837
 8303SOL     OW25807   6.191   0.403   4.342
 8303SOL    HW125808   6.271   0.451   4.305
 8303SOL    HW225809   6.179   0.428   4.438
 8304SOL     OW25810   0.342   3.777   1.052
 8304SOL    HW125811   0.382   3.685   1.057
 8304SOL    HW225812   0.407   3.838   1.006
 8305SOL     OW25813   4.096   5.089   4.278
 8305SOL    HW125814   4.050   5.014   4.323
 8305SOL    HW225815   4.171   5.054   4.221
 8306SOL     OW25816   6.754   2.715   5.839
 8306SOL    HW125817   6.769   2.810   5.812
 8306SOL    HW225818   6.805   2.654   5.779
 8307SOL     OW25819   3.570   5.240   1.359
 8307SOL    HW125820   3.618   5.200   1.437
 8307SOL    HW225821   3.492   5.182   1.335
 8308SOL     OW25822   3.803   5.211   1.131
 8308SOL    HW125823   3.772   5.188   1.223
 8308SOL    HW225824   3.735   5.180   1.064
 8309SOL     OW25825   5.686   5.690   3.710
 8309SOL    HW125826   5.664   5.592   3.709
 8309SOL    HW225827   5.768   5.707   3.656
 8310SOL     OW25828   0.582   4.571   0.701
 8310SOL    HW125829   0.662   4.522   0.667
 8310SOL    HW225830   0.537   4.618   0.625
 8311SOL     OW25831   0.852   1.294   4.498
 8311SOL    HW125832   0.840   1.310   4.400
 8311SOL    HW225833   0.936   1.340   4.528
 8312SOL     OW25834   4.700   6.886   0.504
 8312SOL    HW125835   4.772   6.947   0.470
 8312SOL    HW225836   4.682   6.908   0.600
 8313SOL     OW25837   4.988   0.724   2.437
 8313SOL    HW125838   5.016   0.816   2.407
 8313SOL    HW225839   4.893   0.708   2.409
 8314SOL     OW25840   4.275   0.364   0.870
 8314SOL    HW125841   4.312   0.272   0.858
 8314SOL    HW225842   4.349   0.426   0.895
 8315SOL     OW25843   4.010   3.379   1.210
 8315SOL    HW125844   4.044   3.442   1.140
 8315SOL    HW225845   3.930   3.419   1.255
 8316SOL     OW25846   0.482   2.211   1.897
 8316SOL    HW125847   0.413   2.283   1.908
 8316SOL    HW225848   0.565   2.236   1.946
 8317SOL     OW25849   2.139   2.071   2.647
 8317SOL    HW125850   2.040   2.058   2.640
 8317SOL    HW225851   2.184   2.024   2.571
 8318SOL     OW25852   4.455   1.236   4.733
 8318SOL    HW125853   4.415   1.162   4.679
 8318SOL    HW225854   4.528   1.281   4.681
 8319SOL     OW25855   2.475   1.538   6.270
 8319SOL    HW125856   2.408   1.515   6.341
 8319SOL    HW225857   2.431   1.537   6.181
 8320SOL     OW25858   3.300   3.451   1.638
 8320SOL    HW125859   3.355   3.391   1.697
 8320SOL    HW225860   3.207   3.457   1.674
 8321SOL     OW25861   7.002   0.608   0.472
 8321SOL    HW125862   7.009   0.622   0.571
 8321SOL    HW225863   6.994   0.510   0.452
 8322SOL     OW25864   0.410   0.203   0.812
 8322SOL    HW125865   0.450   0.185   0.721
 8322SOL    HW225866   0.477   0.251   0.868
 8323SOL     OW25867   5.862   5.795   2.274
 8323SOL    HW125868   5.941   5.734   2.269
 8323SOL    HW225869   5.781   5.748   2.237
 8324SOL     OW25870   5.428   0.546   1.588
 8324SOL    HW125871   5.444   0.517   1.683
 8324SOL    HW225872   5.511   0.588   1.551
 8325SOL     OW25873   3.167   3.519   5.403
 8325SOL    HW125874   3.254   3.553   5.439
 8325SOL    HW225875   3.098   3.591   5.409
 8326SOL     OW25876   5.016   3.125   5.607
 8326SOL    HW125877   5.106   3.170   5.604
 8326SOL    HW225878   5.027   3.028   5.585
 8327SOL     OW25879   5.995   1.781   6.151
 8327SOL    HW125880   6.003   1.712   6.078
 8327SOL    HW225881   6.083   1.825   6.165
 8328SOL     OW25882   2.333   4.503   5.678
 8328SOL    HW125883   2.266   4.430   5.694
 8328SOL    HW225884   2.390   4.515   5.759
 8329SOL     OW25885   0.336   3.537   6.260
 8329SOL    HW125886   0.297   3.446   6.248
 8329SOL    HW225887   0.433   3.535   6.236
 8330SOL     OW25888   2.806   6.609   0.247
 8330SOL    HW125889   2.792   6.609   0.346
 8330SOL    HW225890   2.756   6.686   0.207
 8331SOL     OW25891   2.792   1.723   1.508
 8331SOL    HW125892   2.886   1.702   1.536
 8331SOL    HW225893   2.734   1.730   1.589
 8332SOL     OW25894   5.349   5.362   2.403
 8332SOL    HW125895   5.407   5.312   2.467
 8332SOL    HW225896   5.255   5.329   2.411
 8333SOL     OW25897   0.722   6.600   6.399
 8333SOL    HW125898   0.795   6.614   6.466
 8333SOL    HW225899   0.641   6.653   6.426
 8334SOL     OW25900   4.160   1.572   3.649
 8334SOL    HW125901   4.184   1.662   3.612
 8334SOL    HW225902   4.177   1.502   3.580
 8335SOL     OW25903   6.256   5.605   6.375
 8335SOL    HW125904   6.174   5.625   6.428
 8335SOL    HW225905   6.238   5.528   6.314
 8336SOL     OW25906   5.988   0.042   3.038
 8336SOL    HW125907   6.046   7.000   2.991
 8336SOL    HW225908   6.034   0.131   3.039
 8337SOL     OW25909   0.665   5.860   3.015
 8337SOL    HW125910   0.747   5.917   3.008
 8337SOL    HW225911   0.659   5.822   3.107
 8338SOL     OW25912   2.137   5.183   1.610
 8338SOL    HW125913   2.180   5.101   1.648
 8338SOL    HW225914   2.037   5.175   1.619
 8339SOL     OW25915   5.721   0.342   2.183
 8339SOL    HW125916   5.764   0.410   2.243
 8339SOL    HW225917   5.676   0.273   2.239
 8340SOL     OW25918   5.134   3.442   1.510
 8340SOL    HW125919   5.070   3.372   1.543
 8340SOL    HW225920   5.094   3.489   1.431
 8341SOL     OW25921   2.030   6.332   6.626
 8341SOL    HW125922   2.077   6.370   6.706
 8341SOL    HW225923   1.976   6.253   6.654
 8342SOL     OW25924   3.870   0.067   1.704
 8342SOL    HW125925   3.923   0.105   1.780
 8342SOL    HW225926   3.904   0.105   1.618
 8343SOL     OW25927   0.904   4.860   6.103
 8343SOL    HW125928   0.973   4.932   6.109
 8343SOL    HW225929   0.821   4.889   6.150
 8344SOL     OW25930   4.070   0.163   5.118
 8344SOL    HW125931   4.035   0.069   5.118
 8344SOL    HW225932   3.994   0.227   5.125
 8345SOL     OW25933   4.576   1.636   3.548
 8345SOL    HW125934   4.578   1.580   3.631
 8345SOL    HW225935   4.641   1.601   3.482
 8346SOL     OW25936   2.381   4.385   0.722
 8346SOL    HW125937   2.453   4.396   0.791
 8346SOL    HW225938   2.387   4.294   0.683
 8347SOL     OW25939   3.878   5.487   4.859
 8347SOL    HW125940   3.898   5.550   4.933
 8347SOL    HW225941   3.798   5.432   4.883
 8348SOL     OW25942   1.656   6.300   2.462
 8348SOL    HW125943   1.568   6.254   2.477
 8348SOL    HW225944   1.730   6.242   2.496
 8349SOL     OW25945   6.204   6.680   1.799
 8349SOL    HW125946   6.207   6.681   1.700
 8349SOL    HW225947   6.111   6.698   1.830
 8350SOL     OW25948   4.337   0.991   4.602
 8350SOL    HW125949   4.306   0.924   4.534
 8350SOL    HW225950   4.383   0.943   4.677
 8351SOL     OW25951   4.764   4.772   3.895
 8351SOL    HW125952   4.687   4.779   3.832
 8351SOL    HW225953   4.833   4.842   3.872
 8352SOL     OW25954   6.931   5.840   3.101
 8352SOL    HW125955   6.888   5.926   3.075
 8352SOL    HW225956   0.004   5.845   3.084
 8353SOL     OW25957   6.580   3.447   1.097
 8353SOL    HW125958   6.659   3.457   1.035
 8353SOL    HW225959   6.560   3.536   1.139
 8354SOL     OW25960   3.985   6.940   6.612
 8354SOL    HW125961   3.944   6.851   6.597
 8354SOL    HW225962   4.024   6.974   6.526
 8355SOL     OW25963   3.126   0.779   6.802
 8355SOL    HW125964   3.142   0.691   6.757
 8355SOL    HW225965   3.028   0.791   6.819
 8356SOL     OW25966   1.987   6.478   1.060
 8356SOL    HW125967   2.078   6.508   1.031
 8356SOL    HW225968   1.984   6.378   1.060
 8357SOL     OW25969   3.837   0.283   5.603
 8357SOL    HW125970   3.831   0.368   5.656
 8357SOL    HW225971   3.773   0.216   5.640
 8358SOL     OW25972   1.350   3.729   5.456
 8358SOL    HW125973   1.403   3.708   5.539
 8358SOL    HW225974   1.348   3.648   5.397
 8359SOL     OW25975   2.472   6.391   4.862
 8359SOL    HW125976   2.498   6.440   4.779
 8359SOL    HW225977   2.386   6.429   4.897
 8360SOL     OW25978   3.633   6.053   0.943
 8360SOL    HW125979   3.719   6.050   0.994
 8360SOL    HW225980   3.648   6.096   0.854
 8361SOL     OW25981   2.449   0.215   2.836
 8361SOL    HW125982   2.480   0.161   2.914
 8361SOL    HW225983   2.366   0.265   2.861
 8362SOL     OW25984   3.129   1.809   0.972
 8362SOL    HW125985   3.182   1.818   1.056
 8362SOL    HW225986   3.125   1.713   0.945
 8363SOL     OW25987   0.660   2.648   6.988
 8363SOL    HW125988   0.583   2.586   6.971
 8363SOL    HW225989   0.656   2.724   6.922
 8364SOL     OW25990   6.717   2.867   2.410
 8364SOL    HW125991   6.757   2.829   2.493
 8364SOL    HW225992   6.698   2.964   2.424
 8365SOL     OW25993   2.119   3.857   1.591
 8365SOL    HW125994   2.148   3.802   1.669
 8365SOL    HW225995   2.054   3.804   1.536
 8366SOL     OW25996   2.675   5.817   2.263
 8366SOL    HW125997   2.636   5.741   2.316
 8366SOL    HW225998   2.738   5.781   2.194
 8367SOL     OW25999   4.096   6.043   3.855
 8367SOL    HW126000   4.085   6.109   3.929
 8367SOL    HW226001   4.017   6.050   3.793
 8368SOL     OW26002   1.980   6.632   5.887
 8368SOL    HW126003   2.037   6.553   5.864
 8368SOL    HW226004   2.039   6.707   5.918
 8369SOL     OW26005   1.855   6.628   6.701
 8369SOL    HW126006   1.917   6.600   6.775
 8369SOL    HW226007   1.899   6.698   6.645
 8370SOL     OW26008   2.345   2.212   5.494
 8370SOL    HW126009   2.317   2.280   5.561
 8370SOL    HW226010   2.443   2.196   5.501
 8371SOL     OW26011   1.996   4.541   0.988
 8371SOL    HW126012   2.042   4.521   0.902
 8371SOL    HW226013   2.024   4.474   1.057
 8372SOL     OW26014   0.520   5.817   2.503
 8372SOL    HW126015   0.450   5.888   2.496
 8372SOL    HW226016   0.493   5.738   2.448
 8373SOL     OW26017   1.322   0.350   4.225
 8373SOL    HW126018   1.408   0.390   4.192
 8373SOL    HW226019   1.341   0.291   4.303
 8374SOL     OW26020   6.599   0.959   5.992
 8374SOL    HW126021   6.523   0.956   6.057
 8374SOL    HW226022   6.668   0.892   6.017
 8375SOL     OW26023   3.559   6.997   6.262
 8375SOL    HW126024   3.512   6.958   6.183
 8375SOL    HW226025   3.559   0.072   6.255
 8376SOL     OW26026   1.865   0.707   4.203
 8376SOL    HW126027   1.953   0.671   4.234
 8376SOL    HW226028   1.878   0.798   4.163
 8377SOL     OW26029   5.598   5.554   1.313
 8377SOL    HW126030   5.633   5.646   1.328
 8377SOL    HW226031   5.662   5.487   1.349
 8378SOL     OW26032   4.155   4.919   2.828
 8378SOL    HW126033   4.225   4.850   2.811
 8378SOL    HW226034   4.180   4.974   2.907
 8379SOL     OW26035   6.070   2.358   1.057
 8379SOL    HW126036   6.088   2.451   1.026
 8379SOL    HW226037   6.039   2.360   1.152
 8380SOL     OW26038   7.016   1.308   2.473
 8380SOL    HW126039   0.068   1.264   2.520
 8380SOL    HW226040   6.946   1.334   2.540
 8381SOL     OW26041   6.885   3.910   5.258
 8381SOL    HW126042   6.875   3.856   5.174
 8381SOL    HW226043   6.937   3.857   5.325
 8382SOL     OW26044   2.095   0.733   1.813
 8382SOL    HW126045   2.044   0.676   1.877
 8382SOL    HW226046   2.189   0.700   1.807
 8383SOL     OW26047   2.560   0.427   6.148
 8383SOL    HW126048   2.519   0.515   6.171
 8383SOL    HW226049   2.568   0.371   6.230
 8384SOL     OW26050   0.295   0.438   0.403
 8384SOL    HW126051   0.238   0.356   0.408
 8384SOL    HW226052   0.267   0.492   0.323
 8385SOL     OW26053   6.248   2.131   1.414
 8385SOL    HW126054   6.250   2.107   1.317
 8385SOL    HW226055   6.237   2.048   1.469
 8386SOL     OW26056   0.797   4.515   1.759
 8386SOL    HW126057   0.721   4.477   1.811
 8386SOL    HW226058   0.852   4.440   1.721
 8387SOL     OW26059   1.295   1.404   2.107
 8387SOL    HW126060   1.385   1.447   2.119
 8387SOL    HW226061   1.306   1.304   2.109
 8388SOL     OW26062   1.723   6.124   0.412
 8388SOL    HW126063   1.714   6.064   0.332
 8388SOL    HW226064   1.738   6.068   0.493
 8389SOL     OW26065   6.087   3.962   2.779
 8389SOL    HW126066   6.026   3.887   2.752
 8389SOL    HW226067   6.043   4.018   2.849
 8390SOL     OW26068   4.089   0.590   6.220
 8390SOL    HW126069   4.033   0.541   6.286
 8390SOL    HW226070   4.110   0.681   6.255
 8391SOL     OW26071   6.598   5.404   0.033
 8391SOL    HW126072   6.518   5.356   0.068
 8391SOL    HW226073   6.645   5.451   0.108
 8392SOL     OW26074   0.259   3.727   4.101
 8392SOL    HW126075   0.167   3.725   4.061
 8392SOL    HW226076   0.324   3.760   4.033
 8393SOL     OW26077   6.176   0.638   2.179
 8393SOL    HW126078   6.123   0.690   2.246
 8393SOL    HW226079   6.129   0.638   2.091
 8394SOL     OW26080   5.915   2.928   1.237
 8394SOL    HW126081   5.980   2.854   1.219
 8394SOL    HW226082   5.965   3.012   1.256
 8395SOL     OW26083   2.750   6.563   5.611
 8395SOL    HW126084   2.718   6.506   5.687
 8395SOL    HW226085   2.804   6.638   5.647
 8396SOL     OW26086   4.875   4.829   3.424
 8396SOL    HW126087   4.911   4.909   3.377
 8396SOL    HW226088   4.946   4.787   3.480
 8397SOL     OW26089   1.065   0.840   2.792
 8397SOL    HW126090   1.046   0.764   2.729
 8397SOL    HW226091   0.979   0.885   2.817
 8398SOL     OW26092   4.352   2.792   5.969
 8398SOL    HW126093   4.344   2.889   5.993
 8398SOL    HW226094   4.447   2.772   5.944
 8399SOL     OW26095   6.129   6.967   6.439
 8399SOL    HW126096   6.059   0.014   6.434
 8399SOL    HW226097   6.156   6.955   6.535
 8400SOL     OW26098   2.338   2.199   4.337
 8400SOL    HW126099   2.344   2.282   4.284
 8400SOL    HW226100   2.385   2.212   4.425
 8401SOL     OW26101   2.465   1.735   5.371
 8401SOL    HW126102   2.514   1.663   5.420
 8401SOL    HW226103   2.457   1.815   5.431
 8402SOL     OW26104   5.272   1.775   6.647
 8402SOL    HW126105   5.315   1.691   6.681
 8402SOL    HW226106   5.245   1.832   6.724
 8403SOL     OW26107   0.376   3.523   4.231
 8403SOL    HW126108   0.336   3.602   4.186
 8403SOL    HW226109   0.445   3.481   4.172
 8404SOL     OW26110   3.444   7.010   5.953
 8404SOL    HW126111   3.395   6.960   5.881
 8404SOL    HW226112   3.379   0.034   6.011
 8405SOL     OW26113   2.827   1.484   5.514
 8405SOL    HW126114   2.821   1.385   5.524
 8405SOL    HW226115   2.762   1.528   5.576
 8406SOL     OW26116   4.078   0.679   0.458
 8406SOL    HW126117   4.075   0.581   0.440
 8406SOL    HW226118   4.048   0.729   0.376
 8407SOL     OW26119   4.176   6.342   3.801
 8407SOL    HW126120   4.130   6.427   3.775
 8407SOL    HW226121   4.116   6.289   3.860
 8408SOL     OW26122   5.404   4.590   1.080
 8408SOL    HW126123   5.451   4.504   1.061
 8408SOL    HW226124   5.309   4.584   1.049
 8409SOL     OW26125   4.796   2.445   3.050
 8409SOL    HW126126   4.759   2.474   2.962
 8409SOL    HW226127   4.737   2.374   3.089
 8410SOL     OW26128   6.228   1.216   1.735
 8410SOL    HW126129   6.313   1.268   1.727
 8410SOL    HW226130   6.235   1.151   1.811
 8411SOL     OW26131   0.258   6.093   0.863
 8411SOL    HW126132   0.198   6.160   0.818
 8411SOL    HW226133   0.309   6.138   0.936
 8412SOL     OW26134   3.372   2.626   1.285
 8412SOL    HW126135   3.302   2.567   1.326
 8412SOL    HW226136   3.431   2.663   1.357
 8413SOL     OW26137   5.138   6.049   6.396
 8413SOL    HW126138   5.079   6.124   6.368
 8413SOL    HW226139   5.218   6.045   6.337
 8414SOL     OW26140   2.426   0.144   3.488
 8414SOL    HW126141   2.508   0.157   3.433
 8414SOL    HW226142   2.452   0.122   3.582
 8415SOL     OW26143   0.841   6.203   4.415
 8415SOL    HW126144   0.793   6.237   4.495
 8415SOL    HW226145   0.891   6.119   4.439
 8416SOL     OW26146   6.673   1.587   4.225
 8416SOL    HW126147   6.637   1.541   4.144
 8416SOL    HW226148   6.630   1.550   4.307
 8417SOL     OW26149   0.978   3.354   5.185
 8417SOL    HW126150   0.984   3.295   5.104
 8417SOL    HW226151   1.032   3.315   5.259
 8418SOL     OW26152   0.234   5.808   1.705
 8418SOL    HW126153   0.187   5.770   1.625
 8418SOL    HW226154   0.222   5.907   1.707
 8419SOL     OW26155   5.256   0.896   2.678
 8419SOL    HW126156   5.301   0.877   2.591
 8419SOL    HW226157   5.246   0.811   2.730
 8420SOL     OW26158   3.646   6.745   1.336
 8420SOL    HW126159   3.589   6.762   1.255
 8420SOL    HW226160   3.626   6.813   1.405
 8421SOL     OW26161   3.056   4.513   0.082
 8421SOL    HW126162   3.111   4.438   0.044
 8421SOL    HW226163   3.046   4.585   0.013
 8422SOL     OW26164   4.200   1.087   2.287
 8422SOL    HW126165   4.165   1.123   2.373
 8422SOL    HW226166   4.290   1.048   2.302
 8423SOL     OW26167   4.331   4.196   6.134
 8423SOL    HW126168   4.309   4.240   6.047
 8423SOL    HW226169   4.255   4.138   6.162
 8424SOL     OW26170   1.875   2.034   2.618
 8424SOL    HW126171   1.922   1.968   2.560
 8424SOL    HW226172   1.871   2.123   2.572
 8425SOL     OW26173   4.222   3.875   5.458
 8425SOL    HW126174   4.155   3.944   5.431
 8425SOL    HW226175   4.307   3.919   5.484
 8426SOL     OW26176   3.258   3.197   2.827
 8426SOL    HW126177   3.248   3.099   2.812
 8426SOL    HW226178   3.208   3.224   2.909
 8427SOL     OW26179   3.008   3.881   3.576
 8427SOL    HW126180   3.022   3.968   3.527
 8427SOL    HW226181   2.968   3.814   3.513
 8428SOL     OW26182   0.256   6.205   1.372
 8428SOL    HW126183   0.344   6.243   1.345
 8428SOL    HW226184   0.196   6.279   1.402
 8429SOL     OW26185   1.565   5.317   5.772
 8429SOL    HW126186   1.524   5.248   5.712
 8429SOL    HW226187   1.609   5.271   5.849
 8430SOL     OW26188   3.862   4.871   4.082
 8430SOL    HW126189   3.947   4.825   4.057
 8430SOL    HW226190   3.864   4.892   4.180
 8431SOL     OW26191   4.222   3.857   0.337
 8431SOL    HW126192   4.302   3.912   0.314
 8431SOL    HW226193   4.144   3.887   0.283
 8432SOL     OW26194   6.204   5.181   5.728
 8432SOL    HW126195   6.108   5.202   5.707
 8432SOL    HW226196   6.249   5.263   5.762
 8433SOL     OW26197   4.297   2.923   0.429
 8433SOL    HW126198   4.344   2.862   0.492
 8433SOL    HW226199   4.363   2.983   0.383
 8434SOL     OW26200   2.584   6.962   4.367
 8434SOL    HW126201   2.640   6.914   4.300
 8434SOL    HW226202   2.590   0.036   4.351
 8435SOL     OW26203   5.451   0.238   2.324
 8435SOL    HW126204   5.384   0.242   2.250
 8435SOL    HW226205   5.425   0.166   2.389
 8436SOL     OW26206   3.416   6.473   3.904
 8436SOL    HW126207   3.380   6.396   3.851
 8436SOL    HW226208   3.357   6.488   3.984
 8437SOL     OW26209   2.263   2.330   2.647
 8437SOL    HW126210   2.361   2.326   2.663
 8437SOL    HW226211   2.223   2.240   2.664
 8438SOL     OW26212   2.334   4.679   2.978
 8438SOL    HW126213   2.325   4.713   3.071
 8438SOL    HW226214   2.259   4.714   2.922
 8439SOL     OW26215   6.135   4.789   2.563
 8439SOL    HW126216   6.212   4.806   2.624
 8439SOL    HW226217   6.161   4.723   2.493
 8440SOL     OW26218   2.881   1.992   3.029
 8440SOL    HW126219   2.864   1.990   2.930
 8440SOL    HW226220   2.838   1.912   3.071
 8441SOL     OW26221   5.875   6.390   6.570
 8441SOL    HW126222   5.897   6.455   6.642
 8441SOL    HW226223   5.864   6.299   6.609
 8442SOL     OW26224   3.689   1.427   4.937
 8442SOL    HW126225   3.784   1.422   4.907
 8442SOL    HW226226   3.646   1.510   4.899
 8443SOL     OW26227   2.491   5.240   3.681
 8443SOL    HW126228   2.529   5.292   3.606
 8443SOL    HW226229   2.446   5.302   3.746
 8444SOL     OW26230   3.438   0.152   3.812
 8444SOL    HW126231   3.349   0.118   3.842
 8444SOL    HW226232   3.495   0.076   3.784
 8445SOL     OW26233   2.595   0.272   0.705
 8445SOL    HW126234   2.589   0.310   0.613
 8445SOL    HW226235   2.682   0.224   0.716
 8446SOL     OW26236   6.579   5.050   5.331
 8446SOL    HW126237   6.624   5.101   5.404
 8446SOL    HW226238   6.479   5.061   5.339
 8447SOL     OW26239   4.238   1.508   1.511
 8447SOL    HW126240   4.320   1.467   1.549
 8447SOL    HW226241   4.255   1.605   1.491
 8448SOL     OW26242   4.543   6.265   3.408
 8448SOL    HW126243   4.624   6.277   3.465
 8448SOL    HW226244   4.461   6.289   3.460
 8449SOL     OW26245   6.807   3.123   3.221
 8449SOL    HW126246   6.818   3.057   3.146
 8449SOL    HW226247   6.863   3.204   3.204
 8450SOL     OW26248   1.022   0.799   1.533
 8450SOL    HW126249   0.928   0.833   1.544
 8450SOL    HW226250   1.027   0.744   1.450
 8451SOL     OW26251   3.310   1.073   0.233
 8451SOL    HW126252   3.330   1.002   0.300
 8451SOL    HW226253   3.310   1.035   0.141
 8452SOL     OW26254   6.288   3.022   4.424
 8452SOL    HW126255   6.242   3.072   4.351
 8452SOL    HW226256   6.224   2.956   4.464
 8453SOL     OW26257   0.410   5.371   0.489
 8453SOL    HW126258   0.343   5.441   0.512
 8453SOL    HW226259   0.465   5.402   0.412
 8454SOL     OW26260   0.140   4.826   0.729
 8454SOL    HW126261   0.227   4.875   0.732
 8454SOL    HW226262   0.075   4.869   0.791
 8455SOL     OW26263   0.411   1.506   2.862
 8455SOL    HW126264   0.453   1.417   2.879
 8455SOL    HW226265   0.475   1.579   2.888
 8456SOL     OW26266   4.663   6.775   3.449
 8456SOL    HW126267   4.658   6.740   3.356
 8456SOL    HW226268   4.742   6.736   3.495
 8457SOL     OW26269   6.328   5.791   4.172
 8457SOL    HW126270   6.366   5.752   4.088
 8457SOL    HW226271   6.234   5.821   4.155
 8458SOL     OW26272   2.571   0.388   0.122
 8458SOL    HW126273   2.502   0.434   0.177
 8458SOL    HW226274   2.561   0.416   0.026
 8459SOL     OW26275   2.470   5.622   2.924
 8459SOL    HW126276   2.388   5.570   2.948
 8459SOL    HW226277   2.551   5.563   2.934
 8460SOL     OW26278   4.751   4.184   5.237
 8460SOL    HW126279   4.703   4.097   5.230
 8460SOL    HW226280   4.827   4.185   5.171
 8461SOL     OW26281   0.558   2.829   4.740
 8461SOL    HW126282   0.485   2.896   4.748
 8461SOL    HW226283   0.559   2.771   4.821
 8462SOL     OW26284   3.006   1.752   6.674
 8462SOL    HW126285   3.102   1.781   6.684
 8462SOL    HW226286   3.003   1.661   6.633
 8463SOL     OW26287   6.804   0.073   1.910
 8463SOL    HW126288   6.877   0.114   1.964
 8463SOL    HW226289   6.844   0.024   1.833
 8464SOL     OW26290   5.302   4.475   4.239
 8464SOL    HW126291   5.293   4.508   4.334
 8464SOL    HW226292   5.382   4.517   4.197
 8465SOL     OW26293   1.102   2.723   0.332
 8465SOL    HW126294   1.163   2.645   0.340
 8465SOL    HW226295   1.007   2.693   0.343
 8466SOL     OW26296   0.345   6.516   4.054
 8466SOL    HW126297   0.364   6.544   4.148
 8466SOL    HW226298   0.306   6.592   4.004
 8467SOL     OW26299   2.981   5.796   0.624
 8467SOL    HW126300   3.039   5.799   0.705
 8467SOL    HW226301   3.020   5.734   0.557
 8468SOL     OW26302   3.389   1.335   0.210
 8468SOL    HW126303   3.404   1.365   0.304
 8468SOL    HW226304   3.339   1.249   0.209
 8469SOL     OW26305   3.216   2.689   0.082
 8469SOL    HW126306   3.284   2.747   0.038
 8469SOL    HW226307   3.205   2.604   0.029
 8470SOL     OW26308   2.437   3.331   0.827
 8470SOL    HW126309   2.379   3.330   0.908
 8470SOL    HW226310   2.385   3.364   0.748
 8471SOL     OW26311   2.820   1.135   3.313
 8471SOL    HW126312   2.828   1.090   3.402
 8471SOL    HW226313   2.727   1.168   3.300
 8472SOL     OW26314   0.418   0.257   3.914
 8472SOL    HW126315   0.401   0.231   3.819
 8472SOL    HW226316   0.502   0.311   3.919
 8473SOL     OW26317   0.024   5.809   6.950
 8473SOL    HW126318   6.974   5.802   7.016
 8473SOL    HW226319   7.022   5.765   6.864
 8474SOL     OW26320   3.149   2.859   1.882
 8474SOL    HW126321   3.155   2.954   1.852
 8474SOL    HW226322   3.232   2.833   1.931
 8475SOL     OW26323   0.168   1.197   3.246
 8475SOL    HW126324   0.259   1.226   3.219
 8475SOL    HW226325   0.108   1.277   3.255
 8476SOL     OW26326   6.275   0.841   1.571
 8476SOL    HW126327   6.195   0.857   1.514
 8476SOL    HW226328   6.347   0.906   1.547
 8477SOL     OW26329   3.523   6.120   1.252
 8477SOL    HW126330   3.555   6.040   1.202
 8477SOL    HW226331   3.435   6.150   1.213
 8478SOL     OW26332   1.096   0.383   5.996
 8478SOL    HW126333   1.037   0.457   6.028
 8478SOL    HW226334   1.086   0.303   6.055
 8479SOL     OW26335   6.365   1.957   0.715
 8479SOL    HW126336   6.315   1.883   0.760
 8479SOL    HW226337   6.462   1.933   0.709
 8480SOL     OW26338   3.092   0.751   0.944
 8480SOL    HW126339   3.095   0.816   1.021
 8480SOL    HW226340   3.076   0.802   0.859
 8481SOL     OW26341   4.610   1.386   3.725
 8481SOL    HW126342   4.707   1.395   3.749
 8481SOL    HW226343   4.557   1.362   3.807
 8482SOL     OW26344   2.633   0.364   2.227
 8482SOL    HW126345   2.592   0.337   2.139
 8482SOL    HW226346   2.643   0.463   2.230
 8483SOL     OW26347   3.863   5.828   1.895
 8483SOL    HW126348   3.858   5.728   1.887
 8483SOL    HW226349   3.791   5.870   1.841
 8484SOL     OW26350   6.773   4.990   3.067
 8484SOL    HW126351   6.752   5.061   2.999
 8484SOL    HW226352   6.705   4.992   3.139
 8485SOL     OW26353   2.693   3.556   6.503
 8485SOL    HW126354   2.751   3.620   6.553
 8485SOL    HW226355   2.654   3.601   6.422
 8486SOL     OW26356   4.850   1.191   3.175
 8486SOL    HW126357   4.775   1.163   3.234
 8486SOL    HW226358   4.845   1.290   3.160
 8487SOL     OW26359   6.063   0.277   0.955
 8487SOL    HW126360   6.091   0.338   0.881
 8487SOL    HW226361   6.122   0.291   1.034
 8488SOL     OW26362   5.644   5.069   4.926
 8488SOL    HW126363   5.710   4.998   4.951
 8488SOL    HW226364   5.582   5.034   4.856
 8489SOL     OW26365   6.201   0.187   1.440
 8489SOL    HW126366   6.274   0.241   1.482
 8489SOL    HW226367   6.122   0.186   1.502
 8490SOL     OW26368   4.406   6.267   3.937
 8490SOL    HW126369   4.326   6.326   3.923
 8490SOL    HW226370   4.401   6.189   3.875
 8491SOL     OW26371   2.203   0.361   1.504
 8491SOL    HW126372   2.233   0.452   1.477
 8491SOL    HW226373   2.121   0.368   1.560
 8492SOL     OW26374   4.703   3.888   6.257
 8492SOL    HW126375   4.780   3.934   6.301
 8492SOL    HW226376   4.675   3.810   6.312
 8493SOL     OW26377   3.484   1.938   6.454
 8493SOL    HW126378   3.544   1.993   6.396
 8493SOL    HW226379   3.395   1.984   6.463
 8494SOL     OW26380   1.705   4.784   7.000
 8494SOL    HW126381   1.664   4.873   6.984
 8494SOL    HW226382   1.730   4.775   0.072
 8495SOL     OW26383   0.071   3.505   0.347
 8495SOL    HW126384   7.013   3.473   0.300
 8495SOL    HW226385   0.143   3.522   0.280
 8496SOL     OW26386   0.527   2.085   2.524
 8496SOL    HW126387   0.572   2.047   2.443
 8496SOL    HW226388   0.591   2.082   2.602
 8497SOL     OW26389   6.476   0.248   4.170
 8497SOL    HW126390   6.413   0.212   4.240
 8497SOL    HW226391   6.436   0.331   4.130
 8498SOL     OW26392   0.423   6.216   2.391
 8498SOL    HW126393   0.469   6.297   2.355
 8498SOL    HW226394   0.389   6.160   2.315
 8499SOL     OW26395   2.806   5.516   6.276
 8499SOL    HW126396   2.744   5.440   6.256
 8499SOL    HW226397   2.790   5.548   6.369
 8500SOL     OW26398   1.878   0.906   5.810
 8500SOL    HW126399   1.967   0.893   5.765
 8500SOL    HW226400   1.864   1.003   5.828
 8501SOL     OW26401   1.478   2.910   0.548
 8501SOL    HW126402   1.437   2.902   0.639
 8501SOL    HW226403   1.406   2.932   0.481
 8502SOL     OW26404   1.833   4.784   1.088
 8502SOL    HW126405   1.744   4.804   1.046
 8502SOL    HW226406   1.874   4.705   1.044
 8503SOL     OW26407   1.160   5.578   3.240
 8503SOL    HW126408   1.128   5.522   3.316
 8503SOL    HW226409   1.084   5.598   3.178
 8504SOL     OW26410   1.918   6.548   3.697
 8504SOL    HW126411   1.880   6.528   3.787
 8504SOL    HW226412   1.982   6.624   3.703
 8505SOL     OW26413   5.138   3.791   3.807
 8505SOL    HW126414   5.183   3.737   3.736
 8505SOL    HW226415   5.045   3.757   3.820
 8506SOL     OW26416   0.861   0.205   0.998
 8506SOL    HW126417   0.852   0.107   1.016
 8506SOL    HW226418   0.914   0.247   1.072
 8507SOL     OW26419   2.879   0.728   5.513
 8507SOL    HW126420   2.908   0.643   5.470
 8507SOL    HW226421   2.839   0.709   5.603
 8508SOL     OW26422   0.283   2.585   4.890
 8508SOL    HW126423   0.283   2.492   4.925
 8508SOL    HW226424   0.236   2.588   4.802
 8509SOL     OW26425   5.573   1.460   4.136
 8509SOL    HW126426   5.491   1.517   4.142
 8509SOL    HW226427   5.618   1.457   4.225
 8510SOL     OW26428   5.655   4.356   3.058
 8510SOL    HW126429   5.750   4.387   3.058
 8510SOL    HW226430   5.610   4.384   2.973
 8511SOL     OW26431   5.557   3.950   1.782
 8511SOL    HW126432   5.656   3.936   1.773
 8511SOL    HW226433   5.529   4.023   1.720
 8512SOL     OW26434   3.522   2.261   6.910
 8512SOL    HW126435   3.546   2.211   6.827
 8512SOL    HW226436   3.586   2.238   6.982
 8513SOL     OW26437   4.614   3.965   1.388
 8513SOL    HW126438   4.579   3.934   1.476
 8513SOL    HW226439   4.688   3.905   1.358
 8514SOL     OW26440   2.547   2.433   3.444
 8514SOL    HW126441   2.520   2.488   3.523
 8514SOL    HW226442   2.624   2.375   3.469
 8515SOL     OW26443   6.639   0.884   6.897
 8515SOL    HW126444   6.649   0.983   6.883
 8515SOL    HW226445   6.543   0.858   6.887
 8516SOL     OW26446   6.193   2.495   1.791
 8516SOL    HW126447   6.210   2.441   1.708
 8516SOL    HW226448   6.115   2.556   1.776
 8517SOL     OW26449   1.902   2.223   5.713
 8517SOL    HW126450   1.931   2.317   5.697
 8517SOL    HW226451   1.913   2.200   5.810
 8518SOL     OW26452   5.264   4.283   5.932
 8518SOL    HW126453   5.175   4.327   5.916
 8518SOL    HW226454   5.255   4.184   5.922
 8519SOL     OW26455   1.021   5.259   0.907
 8519SOL    HW126456   1.008   5.281   1.004
 8519SOL    HW226457   0.936   5.271   0.858
 8520SOL     OW26458   2.984   2.776   6.916
 8520SOL    HW126459   2.930   2.848   6.960
 8520SOL    HW226460   2.932   2.691   6.917
 8521SOL     OW26461   2.355   4.908   5.728
 8521SOL    HW126462   2.294   4.901   5.807
 8521SOL    HW226463   2.334   4.834   5.663
 8522SOL     OW26464   0.769   6.866   1.408
 8522SOL    HW126465   0.691   6.809   1.385
 8522SOL    HW226466   0.788   6.861   1.506
 8523SOL     OW26467   2.086   6.170   6.985
 8523SOL    HW126468   1.988   6.191   6.979
 8523SOL    HW226469   2.109   6.100   6.917
 8524SOL     OW26470   0.775   3.192   4.883
 8524SOL    HW126471   0.685   3.189   4.926
 8524SOL    HW226472   0.806   3.099   4.865
 8525SOL     OW26473   6.012   4.675   1.814
 8525SOL    HW126474   5.966   4.761   1.834
 8525SOL    HW226475   6.019   4.664   1.715
 8526SOL     OW26476   3.824   6.224   0.821
 8526SOL    HW126477   3.920   6.231   0.850
 8526SOL    HW226478   3.814   6.266   0.731
 8527SOL     OW26479   3.476   0.530   0.097
 8527SOL    HW126480   3.449   0.478   0.015
 8527SOL    HW226481   3.464   0.628   0.080
 8528SOL     OW26482   3.883   1.247   0.372
 8528SOL    HW126483   3.913   1.178   0.438
 8528SOL    HW226484   3.823   1.205   0.305
 8529SOL     OW26485   1.098   0.261   0.801
 8529SOL    HW126486   1.152   0.317   0.864
 8529SOL    HW226487   1.012   0.234   0.845
 8530SOL     OW26488   3.811   3.656   5.036
 8530SOL    HW126489   3.716   3.664   5.005
 8530SOL    HW226490   3.853   3.574   4.997
 8531SOL     OW26491   0.248   5.518   2.557
 8531SOL    HW126492   0.217   5.443   2.616
 8531SOL    HW226493   0.178   5.589   2.554
 8532SOL     OW26494   4.017   5.774   4.716
 8532SOL    HW126495   3.968   5.688   4.732
 8532SOL    HW226496   4.072   5.767   4.634
 8533SOL     OW26497   2.106   5.654   0.133
 8533SOL    HW126498   2.032   5.709   0.092
 8533SOL    HW226499   2.172   5.629   0.062
 8534SOL     OW26500   4.657   2.629   4.169
 8534SOL    HW126501   4.566   2.622   4.128
 8534SOL    HW226502   4.726   2.621   4.098
 8535SOL     OW26503   6.045   1.515   3.562
 8535SOL    HW126504   5.977   1.500   3.491
 8535SOL    HW226505   6.049   1.612   3.586
 8536SOL     OW26506   0.548   1.785   4.601
 8536SOL    HW126507   0.608   1.861   4.625
 8536SOL    HW226508   0.454   1.807   4.628
 8537SOL     OW26509   5.233   0.946   3.663
 8537SOL    HW126510   5.319   0.958   3.713
 8537SOL    HW226511   5.169   1.020   3.687
 8538SOL     OW26512   1.906   0.992   0.140
 8538SOL    HW126513   1.887   1.073   0.195
 8538SOL    HW226514   1.819   0.950   0.113
 8539SOL     OW26515   6.630   1.494   2.654
 8539SOL    HW126516   6.581   1.568   2.701
 8539SOL    HW226517   6.568   1.418   2.638
 8540SOL     OW26518   6.027   0.423   6.155
 8540SOL    HW126519   6.104   0.472   6.196
 8540SOL    HW226520   6.055   0.329   6.136
 8541SOL     OW26521   3.567   2.026   4.013
 8541SOL    HW126522   3.592   2.084   3.936
 8541SOL    HW226523   3.644   2.017   4.075
 8542SOL     OW26524   4.165   5.268   6.320
 8542SOL    HW126525   4.255   5.241   6.353
 8542SOL    HW226526   4.164   5.265   6.220
 8543SOL     OW26527   2.227   2.109   1.408
 8543SOL    HW126528   2.260   2.068   1.493
 8543SOL    HW226529   2.251   2.050   1.331
 8544SOL     OW26530   5.533   3.664   4.332
 8544SOL    HW126531   5.467   3.714   4.388
 8544SOL    HW226532   5.626   3.691   4.356
 8545SOL     OW26533   4.122   0.116   5.707
 8545SOL    HW126534   4.217   0.085   5.701
 8545SOL    HW226535   4.097   0.163   5.622
 8546SOL     OW26536   5.669   1.782   4.353
 8546SOL    HW126537   5.701   1.793   4.259
 8546SOL    HW226538   5.623   1.865   4.382
 8547SOL     OW26539   0.342   6.601   5.602
 8547SOL    HW126540   0.335   6.685   5.657
 8547SOL    HW226541   0.406   6.539   5.645
 8548SOL     OW26542   5.959   2.886   5.387
 8548SOL    HW126543   5.916   2.887   5.477
 8548SOL    HW226544   5.968   2.980   5.354
 8549SOL     OW26545   0.596   3.420   4.039
 8549SOL    HW126546   0.598   3.327   4.003
 8549SOL    HW226547   0.598   3.485   3.963
 8550SOL     OW26548   1.724   4.634   6.483
 8550SOL    HW126549   1.809   4.631   6.430
 8550SOL    HW226550   1.745   4.617   6.580
 8551SOL     OW26551   3.993   3.549   5.941
 8551SOL    HW126552   3.971   3.458   5.906
 8551SOL    HW226553   3.984   3.616   5.867
 8552SOL     OW26554   2.575   6.282   4.035
 8552SOL    HW126555   2.579   6.308   4.131
 8552SOL    HW226556   2.513   6.344   3.986
 8553SOL     OW26557   4.895   5.217   6.003
 8553SOL    HW126558   4.891   5.305   5.956
 8553SOL    HW226559   4.849   5.223   6.091
 8554SOL     OW26560   0.929   4.694   0.004
 8554SOL    HW126561   0.982   4.684   0.088
 8554SOL    HW226562   0.968   4.768   6.974
 8555SOL     OW26563   0.610   7.010   3.065
 8555SOL    HW126564   0.681   0.038   3.113
 8555SOL    HW226565   0.567   6.947   3.129
 8556SOL     OW26566   0.802   6.725   3.859
 8556SOL    HW126567   0.815   6.680   3.947
 8556SOL    HW226568   0.888   6.766   3.830
 8557SOL     OW26569   6.420   1.092   2.373
 8557SOL    HW126570   6.453   1.174   2.420
 8557SOL    HW226571   6.498   1.041   2.336
 8558SOL     OW26572   2.858   6.132   3.224
 8558SOL    HW126573   2.862   6.034   3.243
 8558SOL    HW226574   2.833   6.181   3.308
 8559SOL     OW26575   5.776   0.785   2.213
 8559SOL    HW126576   5.705   0.804   2.147
 8559SOL    HW226577   5.839   0.862   2.218
 8560SOL     OW26578   0.106   0.302   1.492
 8560SOL    HW126579   0.080   0.283   1.587
 8560SOL    HW226580   0.109   0.400   1.477
 8561SOL     OW26581   3.261   6.077   1.777
 8561SOL    HW126582   3.281   6.053   1.683
 8561SOL    HW226583   3.342   6.059   1.834
 8562SOL     OW26584   5.059   6.309   4.762
 8562SOL    HW126585   5.054   6.322   4.861
 8562SOL    HW226586   5.111   6.384   4.721
 8563SOL     OW26587   2.752   3.677   0.051
 8563SOL    HW126588   2.748   3.744   7.002
 8563SOL    HW226589   2.743   3.585   0.014
 8564SOL     OW26590   2.502   1.074   3.586
 8564SOL    HW126591   2.464   1.073   3.679
 8564SOL    HW226592   2.437   1.034   3.523
 8565SOL     OW26593   4.795   6.627   1.651
 8565SOL    HW126594   4.819   6.704   1.709
 8565SOL    HW226595   4.773   6.547   1.708
 8566SOL     OW26596   1.286   0.699   2.204
 8566SOL    HW126597   1.284   0.755   2.122
 8566SOL    HW226598   1.340   0.746   2.275
 8567SOL     OW26599   0.138   1.752   2.338
 8567SOL    HW126600   0.188   1.792   2.261
 8567SOL    HW226601   0.058   1.703   2.304
 8568SOL     OW26602   4.643   0.779   5.857
 8568SOL    HW126603   4.739   0.763   5.833
 8568SOL    HW226604   4.626   0.877   5.868
 8569SOL     OW26605   5.160   1.550   5.678
 8569SOL    HW126606   5.195   1.502   5.758
 8569SOL    HW226607   5.122   1.484   5.613
 8570SOL     OW26608   0.765   2.320   5.565
 8570SOL    HW126609   0.750   2.272   5.478
 8570SOL    HW226610   0.834   2.270   5.618
 8571SOL     OW26611   0.289   5.406   6.108
 8571SOL    HW126612   0.267   5.496   6.145
 8571SOL    HW226613   0.350   5.358   6.171
 8572SOL     OW26614   3.279   5.131   6.767
 8572SOL    HW126615   3.259   5.227   6.751
 8572SOL    HW226616   3.370   5.122   6.809
 8573SOL     OW26617   3.597   6.569   6.463
 8573SOL    HW126618   3.553   6.579   6.552
 8573SOL    HW226619   3.530   6.578   6.390
 8574SOL     OW26620   0.129   5.225   5.992
 8574SOL    HW126621   0.073   5.267   5.920
 8574SOL    HW226622   0.181   5.296   6.039
 8575SOL     OW26623   3.568   2.441   6.515
 8575SOL    HW126624   3.475   2.404   6.520
 8575SOL    HW226625   3.569   2.532   6.557
 8576SOL     OW26626   0.801   6.372   0.838
 8576SOL    HW126627   0.725   6.359   0.773
 8576SOL    HW226628   0.871   6.303   0.820
 8577SOL     OW26629   6.434   5.235   4.373
 8577SOL    HW126630   6.453   5.270   4.281
 8577SOL    HW226631   6.345   5.268   4.403
 8578SOL     OW26632   4.619   0.581   4.485
 8578SOL    HW126633   4.633   0.621   4.394
 8578SOL    HW226634   4.705   0.587   4.537
 8579SOL     OW26635   1.503   6.420   3.904
 8579SOL    HW126636   1.417   6.451   3.864
 8579SOL    HW226637   1.497   6.323   3.927
 8580SOL     OW26638   2.321   0.003   2.014
 8580SOL    HW126639   2.400   0.016   2.073
 8580SOL    HW226640   2.258   0.080   2.025
 8581SOL     OW26641   3.417   2.662   1.734
 8581SOL    HW126642   3.480   2.605   1.786
 8581SOL    HW226643   3.364   2.720   1.796
 8582SOL     OW26644   4.254   4.625   1.948
 8582SOL    HW126645   4.260   4.545   1.890
 8582SOL    HW226646   4.203   4.697   1.901
 8583SOL     OW26647   5.699   0.980   6.251
 8583SOL    HW126648   5.603   0.964   6.229
 8583SOL    HW226649   5.730   1.064   6.207
 8584SOL     OW26650   0.674   3.708   6.295
 8584SOL    HW126651   0.702   3.748   6.382
 8584SOL    HW226652   0.603   3.766   6.253
 8585SOL     OW26653   6.949   6.948   6.705
 8585SOL    HW126654   0.005   6.986   6.660
 8585SOL    HW226655   6.917   7.013   6.775
 8586SOL     OW26656   2.761   6.892   3.677
 8586SOL    HW126657   2.766   6.872   3.579
 8586SOL    HW226658   2.731   6.987   3.691
 8587SOL     OW26659   1.800   0.261   2.635
 8587SOL    HW126660   1.749   0.314   2.567
 8587SOL    HW226661   1.748   0.180   2.660
 8588SOL     OW26662   2.565   0.781   6.562
 8588SOL    HW126663   2.584   0.830   6.647
 8588SOL    HW226664   2.534   0.688   6.583
 8589SOL     OW26665   4.649   2.685   4.599
 8589SOL    HW126666   4.574   2.674   4.665
 8589SOL    HW226667   4.653   2.604   4.540
 8590SOL     OW26668   6.522   6.160   4.432
 8590SOL    HW126669   6.583   6.205   4.366
 8590SOL    HW226670   6.570   6.152   4.520
 8591SOL     OW26671   1.088   5.257   6.316
 8591SOL    HW126672   1.071   5.318   6.238
 8591SOL    HW226673   1.078   5.308   6.401
 8592SOL     OW26674   6.651   4.145   0.141
 8592SOL    HW126675   6.729   4.209   0.137
 8592SOL    HW226676   6.614   4.132   0.050
 8593SOL     OW26677   1.089   7.023   2.745
 8593SOL    HW126678   1.072   6.925   2.733
 8593SOL    HW226679   1.037   0.049   2.676
 8594SOL     OW26680   3.583   3.436   5.138
 8594SOL    HW126681   3.575   3.532   5.113
 8594SOL    HW226682   3.492   3.395   5.144
 8595SOL     OW26683   2.098   1.354   2.861
 8595SOL    HW126684   2.019   1.395   2.907
 8595SOL    HW226685   2.102   1.257   2.883
 8596SOL     OW26686   6.031   5.844   2.548
 8596SOL    HW126687   6.000   5.782   2.476
 8596SOL    HW226688   6.058   5.931   2.508
 8597SOL     OW26689   3.961   2.249   1.356
 8597SOL    HW126690   3.898   2.326   1.352
 8597SOL    HW226691   3.911   2.164   1.340
 8598SOL     OW26692   0.383   5.545   1.379
 8598SOL    HW126693   0.368   5.539   1.280
 8598SOL    HW226694   0.425   5.633   1.401
 8599SOL     OW26695   1.101   2.912   3.933
 8599SOL    HW126696   1.102   2.945   3.838
 8599SOL    HW226697   1.084   2.989   3.995
 8600SOL     OW26698   5.516   5.227   6.537
 8600SOL    HW126699   5.501   5.135   6.499
 8600SOL    HW226700   5.429   5.275   6.544
 8601SOL     OW26701   1.042   0.564   4.987
 8601SOL    HW126702   1.094   0.621   4.924
 8601SOL    HW226703   0.990   0.622   5.049
 8602SOL     OW26704   2.516   6.285   2.712
 8602SOL    HW126705   2.447   6.225   2.752
 8602SOL    HW226706   2.599   6.233   2.692
 8603SOL     OW26707   3.339   4.347   0.207
 8603SOL    HW126708   3.297   4.351   0.117
 8603SOL    HW226709   3.267   4.346   0.277
 8604SOL     OW26710   6.823   2.785   3.215
 8604SOL    HW126711   6.774   2.817   3.134
 8604SOL    HW226712   6.818   2.685   3.220
 8605SOL     OW26713   3.094   4.887   4.371
 8605SOL    HW126714   3.018   4.846   4.422
 8605SOL    HW226715   3.180   4.870   4.419
 8606SOL     OW26716   2.157   4.289   5.716
 8606SOL    HW126717   2.157   4.213   5.651
 8606SOL    HW226718   2.066   4.299   5.756
 8607SOL     OW26719   3.153   4.891   1.120
 8607SOL    HW126720   3.148   4.795   1.092
 8607SOL    HW226721   3.209   4.899   1.202
 8608SOL     OW26722   4.505   5.335   2.975
 8608SOL    HW126723   4.445   5.414   2.990
 8608SOL    HW226724   4.449   5.253   2.962
 8609SOL     OW26725   4.300   0.339   4.050
 8609SOL    HW126726   4.220   0.306   4.100
 8609SOL    HW226727   4.381   0.331   4.108
 8610SOL     OW26728   1.438   0.640   2.729
 8610SOL    HW126729   1.528   0.597   2.737
 8610SOL    HW226730   1.373   0.573   2.694
 8611SOL     OW26731   1.934   2.486   3.697
 8611SOL    HW126732   1.912   2.495   3.795
 8611SOL    HW226733   1.997   2.559   3.670
 8612SOL     OW26734   2.966   3.456   0.055
 8612SOL    HW126735   2.915   3.453   6.994
 8612SOL    HW226736   2.925   3.392   0.120
 8613SOL     OW26737   2.570   2.380   1.881
 8613SOL    HW126738   2.521   2.460   1.845
 8613SOL    HW226739   2.584   2.391   1.979
 8614SOL     OW26740   0.908   3.182   2.917
 8614SOL    HW126741   0.908   3.173   2.818
 8614SOL    HW226742   0.920   3.092   2.959
 8615SOL     OW26743   5.027   1.854   5.074
 8615SOL    HW126744   4.986   1.771   5.113
 8615SOL    HW226745   5.116   1.832   5.035
 8616SOL     OW26746   1.843   5.246   1.324
 8616SOL    HW126747   1.786   5.259   1.405
 8616SOL    HW226748   1.906   5.170   1.339
 8617SOL     OW26749   6.266   1.449   0.092
 8617SOL    HW126750   6.262   1.518   0.164
 8617SOL    HW226751   6.361   1.423   0.075
 8618SOL     OW26752   5.269   6.819   0.993
 8618SOL    HW126753   5.202   6.821   1.067
 8618SOL    HW226754   5.317   6.907   0.990
 8619SOL     OW26755   3.258   5.313   1.263
 8619SOL    HW126756   3.181   5.338   1.321
 8619SOL    HW226757   3.253   5.364   1.177
 8620SOL     OW26758   6.358   6.939   3.270
 8620SOL    HW126759   6.370   0.012   3.258
 8620SOL    HW226760   6.448   6.894   3.272
 8621SOL     OW26761   5.615   2.017   3.460
 8621SOL    HW126762   5.574   1.964   3.534
 8621SOL    HW226763   5.577   2.109   3.460
 8622SOL     OW26764   4.903   4.545   0.424
 8622SOL    HW126765   4.941   4.459   0.455
 8622SOL    HW226766   4.977   4.608   0.401
 8623SOL     OW26767   0.157   4.521   3.155
 8623SOL    HW126768   0.073   4.480   3.119
 8623SOL    HW226769   0.207   4.565   3.080
 8624SOL     OW26770   0.752   4.064   3.486
 8624SOL    HW126771   0.783   4.156   3.461
 8624SOL    HW226772   0.655   4.055   3.466
 8625SOL     OW26773   4.815   0.266   4.857
 8625SOL    HW126774   4.819   0.295   4.953
 8625SOL    HW226775   4.793   0.345   4.799
 8626SOL     OW26776   3.417   2.900   4.615
 8626SOL    HW126777   3.400   2.889   4.517
 8626SOL    HW226778   3.330   2.915   4.663
 8627SOL     OW26779   0.816   0.456   3.380
 8627SOL    HW126780   0.721   0.428   3.397
 8627SOL    HW226781   0.856   0.490   3.464
 8628SOL     OW26782   6.172   6.993   1.862
 8628SOL    HW126783   6.237   0.030   1.818
 8628SOL    HW226784   6.189   6.899   1.831
 8629SOL     OW26785   1.940   5.641   4.514
 8629SOL    HW126786   1.919   5.627   4.611
 8629SOL    HW226787   1.919   5.558   4.463
 8630SOL     OW26788   6.045   4.195   4.233
 8630SOL    HW126789   5.974   4.239   4.178
 8630SOL    HW226790   6.131   4.195   4.182
 8631SOL     OW26791   3.622   5.507   6.665
 8631SOL    HW126792   3.694   5.542   6.605
 8631SOL    HW226793   3.541   5.485   6.610
 8632SOL     OW26794   3.588   6.203   3.808
 8632SOL    HW126795   3.612   6.283   3.753
 8632SOL    HW226796   3.492   6.210   3.837
 8633SOL     OW26797   5.326   0.984   4.720
 8633SOL    HW126798   5.375   1.036   4.650
 8633SOL    HW226799   5.357   0.889   4.718
 8634SOL     OW26800   6.035   3.172   0.974
 8634SOL    HW126801   5.989   3.222   1.048
 8634SOL    HW226802   5.975   3.170   0.894
 8635SOL     OW26803   6.047   4.339   5.862
 8635SOL    HW126804   6.019   4.243   5.868
 8635SOL    HW226805   6.119   4.349   5.794
 8636SOL     OW26806   5.564   5.373   0.239
 8636SOL    HW126807   5.602   5.457   0.200
 8636SOL    HW226808   5.492   5.338   0.179
 8637SOL     OW26809   2.288   0.867   0.327
 8637SOL    HW126810   2.210   0.844   0.386
 8637SOL    HW226811   2.349   0.929   0.376
 8638SOL     OW26812   1.864   3.300   6.851
 8638SOL    HW126813   1.900   3.333   6.764
 8638SOL    HW226814   1.886   3.365   6.923
 8639SOL     OW26815   6.045   2.494   2.052
 8639SOL    HW126816   6.110   2.462   1.983
 8639SOL    HW226817   5.958   2.517   2.008
 8640SOL     OW26818   4.539   4.032   0.473
 8640SOL    HW126819   4.556   4.094   0.396
 8640SOL    HW226820   4.611   3.963   0.477
 8641SOL     OW26821   6.895   4.450   4.411
 8641SOL    HW126822   6.802   4.418   4.429
 8641SOL    HW226823   6.936   4.393   4.340
 8642SOL     OW26824   4.232   0.400   2.432
 8642SOL    HW126825   4.236   0.498   2.413
 8642SOL    HW226826   4.307   0.353   2.385
 8643SOL     OW26827   4.442   7.019   7.011
 8643SOL    HW126828   4.357   0.045   7.021
 8643SOL    HW226829   4.426   6.922   0.007
 8644SOL     OW26830   4.522   2.573   5.832
 8644SOL    HW126831   4.509   2.532   5.742
 8644SOL    HW226832   4.548   2.669   5.822
 8645SOL     OW26833   5.264   4.563   1.328
 8645SOL    HW126834   5.302   4.618   1.402
 8645SOL    HW226835   5.302   4.592   1.241
 8646SOL     OW26836   6.464   1.505   1.278
 8646SOL    HW126837   6.483   1.434   1.210
 8646SOL    HW226838   6.438   1.461   1.365
 8647SOL     OW26839   3.300   5.000   6.164
 8647SOL    HW126840   3.326   5.018   6.259
 8647SOL    HW226841   3.230   4.929   6.162
 8648SOL     OW26842   6.063   1.131   4.568
 8648SOL    HW126843   6.066   1.222   4.610
 8648SOL    HW226844   5.967   1.102   4.558
 8649SOL     OW26845   5.749   5.307   6.039
 8649SOL    HW126846   5.703   5.256   6.112
 8649SOL    HW226847   5.698   5.295   5.953
 8650SOL     OW26848   1.889   4.449   5.132
 8650SOL    HW126849   1.873   4.351   5.121
 8650SOL    HW226850   1.986   4.469   5.114
 8651SOL     OW26851   3.569   0.925   0.649
 8651SOL    HW126852   3.610   0.839   0.679
 8651SOL    HW226853   3.551   0.921   0.551
 8652SOL     OW26854   1.174   3.809   2.745
 8652SOL    HW126855   1.264   3.846   2.721
 8652SOL    HW226856   1.172   3.786   2.842
 8653SOL     OW26857   5.553   1.637   5.740
 8653SOL    HW126858   5.650   1.616   5.725
 8653SOL    HW226859   5.501   1.614   5.659
 8654SOL     OW26860   1.309   5.978   1.844
 8654SOL    HW126861   1.322   6.073   1.872
 8654SOL    HW226862   1.230   5.971   1.784
 8655SOL     OW26863   6.356   0.738   4.037
 8655SOL    HW126864   6.266   0.757   4.076
 8655SOL    HW226865   6.384   0.816   3.981
 8656SOL     OW26866   6.883   1.005   0.576
 8656SOL    HW126867   6.934   0.932   0.622
 8656SOL    HW226868   6.811   0.966   0.520
 8657SOL     OW26869   4.423   4.966   6.772
 8657SOL    HW126870   4.484   5.017   6.833
 8657SOL    HW226871   4.367   5.031   6.719
 8658SOL     OW26872   4.960   6.098   0.124
 8658SOL    HW126873   5.040   6.060   0.077
 8658SOL    HW226874   4.923   6.031   0.188
 8659SOL     OW26875   4.175   1.024   3.103
 8659SOL    HW126876   4.238   1.092   3.139
 8659SOL    HW226877   4.224   0.938   3.087
 8660SOL     OW26878   5.408   3.213   0.611
 8660SOL    HW126879   5.437   3.306   0.632
 8660SOL    HW226880   5.439   3.151   0.683
 8661SOL     OW26881   5.679   4.120   1.042
 8661SOL    HW126882   5.692   4.150   1.136
 8661SOL    HW226883   5.638   4.029   1.041
 8662SOL     OW26884   4.919   5.961   1.491
 8662SOL    HW126885   4.832   5.986   1.532
 8662SOL    HW226886   4.945   6.029   1.422
 8663SOL     OW26887   2.649   6.031   1.029
 8663SOL    HW126888   2.731   6.061   1.077
 8663SOL    HW226889   2.573   6.093   1.052
 8664SOL     OW26890   3.487   5.832   0.897
 8664SOL    HW126891   3.544   5.801   0.821
 8664SOL    HW226892   3.526   5.915   0.936
 8665SOL     OW26893   5.729   5.881   5.450
 8665SOL    HW126894   5.822   5.907   5.474
 8665SOL    HW226895   5.676   5.863   5.533
 8666SOL     OW26896   5.552   2.116   5.057
 8666SOL    HW126897   5.486   2.180   5.019
 8666SOL    HW226898   5.548   2.029   5.007
 8667SOL     OW26899   4.472   2.362   2.925
 8667SOL    HW126900   4.498   2.266   2.915
 8667SOL    HW226901   4.416   2.390   2.847
 8668SOL     OW26902   5.436   3.429   3.139
 8668SOL    HW126903   5.389   3.477   3.065
 8668SOL    HW226904   5.510   3.486   3.174
 8669SOL     OW26905   2.563   6.768   6.597
 8669SOL    HW126906   2.508   6.791   6.517
 8669SOL    HW226907   2.651   6.730   6.568
 8670SOL     OW26908   3.546   4.552   5.988
 8670SOL    HW126909   3.480   4.488   6.028
 8670SOL    HW226910   3.638   4.514   5.995
 8671SOL     OW26911   5.581   1.860   3.233
 8671SOL    HW126912   5.482   1.850   3.232
 8671SOL    HW226913   5.610   1.894   3.322
 8672SOL     OW26914   2.400   5.405   3.326
 8672SOL    HW126915   2.493   5.388   3.359
 8672SOL    HW226916   2.399   5.398   3.226
 8673SOL     OW26917   6.862   1.620   6.715
 8673SOL    HW126918   6.812   1.653   6.635
 8673SOL    HW226919   6.900   1.698   6.765
 8674SOL     OW26920   6.266   5.639   1.548
 8674SOL    HW126921   6.254   5.648   1.646
 8674SOL    HW226922   6.243   5.726   1.504
 8675SOL     OW26923   3.800   1.752   4.879
 8675SOL    HW126924   3.811   1.852   4.878
 8675SOL    HW226925   3.706   1.729   4.855
 8676SOL     OW26926   4.086   6.484   3.050
 8676SOL    HW126927   4.149   6.434   3.109
 8676SOL    HW226928   4.098   6.583   3.065
 8677SOL     OW26929   2.517   6.498   5.467
 8677SOL    HW126930   2.601   6.521   5.516
 8677SOL    HW226931   2.528   6.408   5.424
 8678SOL     OW26932   0.196   0.405   1.048
 8678SOL    HW126933   0.096   0.403   1.050
 8678SOL    HW226934   0.227   0.456   0.968
 8679SOL     OW26935   6.585   3.266   4.763
 8679SOL    HW126936   6.638   3.195   4.716
 8679SOL    HW226937   6.504   3.288   4.709
 8680SOL     OW26938   0.234   3.977   1.922
 8680SOL    HW126939   0.209   4.028   2.004
 8680SOL    HW226940   0.173   4.002   1.847
 8681SOL     OW26941   4.514   5.175   0.198
 8681SOL    HW126942   4.451   5.227   0.140
 8681SOL    HW226943   4.498   5.198   0.294
 8682SOL     OW26944   4.490   6.640   1.768
 8682SOL    HW126945   4.507   6.669   1.674
 8682SOL    HW226946   4.568   6.587   1.801
 8683SOL     OW26947   1.440   2.719   2.224
 8683SOL    HW126948   1.507   2.786   2.193
 8683SOL    HW226949   1.424   2.731   2.322
 8684SOL     OW26950   0.385   2.830   4.987
 8684SOL    HW126951   0.475   2.822   5.028
 8684SOL    HW226952   0.360   2.745   4.941
 8685SOL     OW26953   1.359   2.827   5.678
 8685SOL    HW126954   1.304   2.747   5.702
 8685SOL    HW226955   1.448   2.821   5.724
 8686SOL     OW26956   0.166   1.660   1.716
 8686SOL    HW126957   0.132   1.614   1.798
 8686SOL    HW226958   0.089   1.692   1.661
 8687SOL     OW26959   3.412   5.778   2.778
 8687SOL    HW126960   3.441   5.867   2.814
 8687SOL    HW226961   3.388   5.787   2.682
 8688SOL     OW26962   3.047   6.500   0.282
 8688SOL    HW126963   3.061   6.463   0.190
 8688SOL    HW226964   2.962   6.553   0.284
 8689SOL     OW26965   3.698   4.841   0.445
 8689SOL    HW126966   3.698   4.864   0.348
 8689SOL    HW226967   3.717   4.743   0.456
 8690SOL     OW26968   2.030   2.662   3.217
 8690SOL    HW126969   2.067   2.602   3.287
 8690SOL    HW226970   2.103   2.722   3.182
 8691SOL     OW26971   3.888   2.758   6.607
 8691SOL    HW126972   3.972   2.708   6.629
 8691SOL    HW226973   3.905   2.856   6.618
 8692SOL     OW26974   3.842   2.169   3.037
 8692SOL    HW126975   3.850   2.105   2.960
 8692SOL    HW226976   3.899   2.249   3.020
 8693SOL     OW26977   5.888   1.473   0.828
 8693SOL    HW126978   5.794   1.485   0.860
 8693SOL    HW226979   5.914   1.551   0.770
 8694SOL     OW26980   3.837   1.263   5.367
 8694SOL    HW126981   3.829   1.200   5.445
 8694SOL    HW226982   3.889   1.219   5.294
 8695SOL     OW26983   4.590   3.300   6.242
 8695SOL    HW126984   4.512   3.353   6.208
 8695SOL    HW226985   4.661   3.362   6.274
 8696SOL     OW26986   2.788   5.524   0.491
 8696SOL    HW126987   2.783   5.484   0.400
 8696SOL    HW226988   2.864   5.588   0.496
 8697SOL     OW26989   6.111   3.561   0.261
 8697SOL    HW126990   6.179   3.496   0.295
 8697SOL    HW226991   6.156   3.630   0.205
 8698SOL     OW26992   6.011   5.876   4.209
 8698SOL    HW126993   5.957   5.937   4.151
 8698SOL    HW226994   5.949   5.816   4.260
 8699SOL     OW26995   1.872   2.864   5.658
 8699SOL    HW126996   1.797   2.929   5.669
 8699SOL    HW226997   1.860   2.787   5.721
 8700SOL     OW26998   1.473   1.019   4.469
 8700SOL    HW126999   1.428   1.098   4.511
 8700SOL    HW227000   1.502   1.042   4.376
 8701SOL     OW27001   1.629   0.240   6.594
 8701SOL    HW127002   1.530   0.253   6.601
 8701SOL    HW227003   1.663   0.285   6.511
 8702SOL     OW27004   5.327   4.970   0.292
 8702SOL    HW127005   5.423   4.970   0.320
 8702SOL    HW227006   5.322   4.957   0.193
 8703SOL     OW27007   2.657   5.596   1.257
 8703SOL    HW127008   2.655   5.628   1.162
 8703SOL    HW227009   2.726   5.525   1.266
 8704SOL     OW27010   6.502   3.709   2.671
 8704SOL    HW127011   6.456   3.763   2.741
 8704SOL    HW227012   6.444   3.632   2.644
 8705SOL     OW27013   5.128   0.825   0.823
 8705SOL    HW127014   5.216   0.846   0.780
 8705SOL    HW227015   5.117   0.726   0.831
 8706SOL     OW27016   4.738   1.766   6.389
 8706SOL    HW127017   4.796   1.847   6.386
 8706SOL    HW227018   4.738   1.728   6.482
 8707SOL     OW27019   5.637   1.898   0.076
 8707SOL    HW127020   5.539   1.915   0.086
 8707SOL    HW227021   5.652   1.827   0.007
 8708SOL     OW27022   4.121   2.239   2.290
 8708SOL    HW127023   4.048   2.176   2.263
 8708SOL    HW227024   4.158   2.283   2.208
 8709SOL     OW27025   6.776   5.990   6.434
 8709SOL    HW127026   6.853   6.032   6.385
 8709SOL    HW227027   6.798   5.982   6.531
 8710SOL     OW27028   2.079   3.528   3.102
 8710SOL    HW127029   2.093   3.613   3.053
 8710SOL    HW227030   2.109   3.451   3.045
 8711SOL     OW27031   0.364   5.690   2.733
 8711SOL    HW127032   0.357   5.783   2.697
 8711SOL    HW227033   0.343   5.625   2.659
 8712SOL     OW27034   4.316   2.114   4.602
 8712SOL    HW127035   4.369   2.056   4.540
 8712SOL    HW227036   4.347   2.209   4.593
 8713SOL     OW27037   0.423   4.200   3.611
 8713SOL    HW127038   0.329   4.166   3.614
 8713SOL    HW227039   0.424   4.293   3.572
 8714SOL     OW27040   0.106   1.444   6.274
 8714SOL    HW127041   0.105   1.513   6.346
 8714SOL    HW227042   0.106   1.353   6.314
 8715SOL     OW27043   5.550   6.911   0.868
 8715SOL    HW127044   5.611   6.979   0.827
 8715SOL    HW227045   5.502   6.953   0.946
 8716SOL     OW27046   0.804   0.249   1.375
 8716SOL    HW127047   0.773   0.245   1.469
 8716SOL    HW227048   0.727   0.269   1.315
 8717SOL     OW27049   3.503   3.349   3.040
 8717SOL    HW127050   3.534   3.289   2.966
 8717SOL    HW227051   3.574   3.353   3.110
 8718SOL     OW27052   0.325   3.474   5.107
 8718SOL    HW127053   0.275   3.387   5.109
 8718SOL    HW227054   0.286   3.536   5.176
 8719SOL     OW27055   1.988   6.962   6.279
 8719SOL    HW127056   2.019   6.964   6.184
 8719SOL    HW227057   1.888   6.951   6.282
 8720SOL     OW27058   0.048   4.806   5.553
 8720SOL    HW127059   0.094   4.783   5.639
 8720SOL    HW227060   0.083   4.747   5.480
 8721SOL     OW27061   5.978   2.213   3.925
 8721SOL    HW127062   5.946   2.176   4.013
 8721SOL    HW227063   5.943   2.155   3.851
 8722SOL     OW27064   3.886   0.769   0.636
 8722SOL    HW127065   3.966   0.739   0.585
 8722SOL    HW227066   3.813   0.700   0.628
 8723SOL     OW27067   4.936   5.347   1.139
 8723SOL    HW127068   4.869   5.277   1.160
 8723SOL    HW227069   5.023   5.303   1.116
 8724SOL     OW27070   6.009   6.397   5.686
 8724SOL    HW127071   5.958   6.447   5.616
 8724SOL    HW227072   5.972   6.416   5.776
 8725SOL     OW27073   2.389   0.215   6.557
 8725SOL    HW127074   2.397   0.221   6.656
 8725SOL    HW227075   2.303   0.259   6.527
 8726SOL     OW27076   6.548   0.954   2.035
 8726SOL    HW127077   6.601   0.943   2.119
 8726SOL    HW227078   6.546   0.867   1.986
 8727SOL     OW27079   0.267   6.082   1.626
 8727SOL    HW127080   0.171   6.112   1.633
 8727SOL    HW227081   0.308   6.122   1.544
 8728SOL     OW27082   4.144   0.296   4.513
 8728SOL    HW127083   4.202   0.218   4.534
 8728SOL    HW227084   4.156   0.367   4.582
 8729SOL     OW27085   4.928   6.104   3.318
 8729SOL    HW127086   4.934   6.169   3.242
 8729SOL    HW227087   4.921   6.154   3.405
 8730SOL     OW27088   6.750   4.357   2.127
 8730SOL    HW127089   6.753   4.283   2.195
 8730SOL    HW227090   6.709   4.438   2.167
 8731SOL     OW27091   2.344   1.904   2.557
 8731SOL    HW127092   2.315   1.857   2.641
 8731SOL    HW227093   2.438   1.934   2.567
 8732SOL     OW27094   5.215   4.122   1.557
 8732SOL    HW127095   5.138   4.159   1.505
 8732SOL    HW227096   5.209   4.023   1.560
 8733SOL     OW27097   1.702   5.715   2.854
 8733SOL    HW127098   1.656   5.702   2.942
 8733SOL    HW227099   1.635   5.712   2.780
 8734SOL     OW27100   1.194   4.604   1.728
 8734SOL    HW127101   1.202   4.567   1.635
 8734SOL    HW227102   1.116   4.667   1.732
 8735SOL     OW27103   0.595   1.677   6.935
 8735SOL    HW127104   0.597   1.677   6.835
 8735SOL    HW227105   0.515   1.627   6.966
 8736SOL     OW27106   0.554   6.802   6.592
 8736SOL    HW127107   0.492   6.744   6.643
 8736SOL    HW227108   0.512   6.828   6.505
 8737SOL     OW27109   2.614   0.114   5.637
 8737SOL    HW127110   2.703   0.070   5.623
 8737SOL    HW227111   2.600   0.130   5.734
 8738SOL     OW27112   2.225   4.845   3.668
 8738SOL    HW127113   2.310   4.895   3.688
 8738SOL    HW227114   2.161   4.907   3.623
 8739SOL     OW27115   6.531   5.256   5.950
 8739SOL    HW127116   6.613   5.228   5.900
 8739SOL    HW227117   6.494   5.178   5.999
 8740SOL     OW27118   4.801   0.928   5.193
 8740SOL    HW127119   4.834   0.981   5.271
 8740SOL    HW227120   4.706   0.952   5.174
 8741SOL     OW27121   2.366   0.568   1.830
 8741SOL    HW127122   2.455   0.586   1.789
 8741SOL    HW227123   2.335   0.476   1.805
 8742SOL     OW27124   5.780   6.447   1.498
 8742SOL    HW127125   5.814   6.535   1.466
 8742SOL    HW227126   5.734   6.399   1.424
 8743SOL     OW27127   1.701   0.022   2.696
 8743SOL    HW127128   1.787   6.998   2.682
 8743SOL    HW227129   1.628   7.000   2.646
 8744SOL     OW27130   3.656   2.407   5.660
 8744SOL    HW127131   3.591   2.482   5.649
 8744SOL    HW227132   3.607   2.320   5.654
 8745SOL     OW27133   6.043   2.641   5.621
 8745SOL    HW127134   6.064   2.563   5.680
 8745SOL    HW227135   5.990   2.610   5.542
 8746SOL     OW27136   4.849   4.038   4.956
 8746SOL    HW127137   4.759   4.079   4.971
 8746SOL    HW227138   4.840   3.940   4.944
 8747SOL     OW27139   0.298   2.889   2.818
 8747SOL    HW127140   0.276   2.849   2.907
 8747SOL    HW227141   0.397   2.886   2.804
 8748SOL     OW27142   0.049   1.816   6.110
 8748SOL    HW127143   0.090   1.744   6.054
 8748SOL    HW227144   0.038   1.783   6.204
 8749SOL     OW27145   3.059   0.236   6.426
 8749SOL    HW127146   2.988   0.258   6.358
 8749SOL    HW227147   3.147   0.269   6.394
 8750SOL     OW27148   3.312   3.377   5.204
 8750SOL    HW127149   3.290   3.422   5.118
 8750SOL    HW227150   3.270   3.426   5.280
 8751SOL     OW27151   6.163   0.288   3.026
 8751SOL    HW127152   6.226   0.213   3.045
 8751SOL    HW227153   6.187   0.367   3.081
 8752SOL     OW27154   2.934   4.741   6.622
 8752SOL    HW127155   2.874   4.666   6.591
 8752SOL    HW227156   2.880   4.806   6.676
 8753SOL     OW27157   4.963   1.631   5.191
 8753SOL    HW127158   4.907   1.593   5.265
 8753SOL    HW227159   5.056   1.594   5.198
 8754SOL     OW27160   1.243   1.956   5.493
 8754SOL    HW127161   1.329   1.938   5.444
 8754SOL    HW227162   1.249   1.919   5.585
 8755SOL     OW27163   2.300   1.250   6.260
 8755SOL    HW127164   2.272   1.176   6.199
 8755SOL    HW227165   2.289   1.338   6.212
 8756SOL     OW27166   2.143   3.721   2.902
 8756SOL    HW127167   2.062   3.779   2.894
 8756SOL    HW227168   2.224   3.775   2.881
 8757SOL     OW27169   5.588   6.897   5.721
 8757SOL    HW127170   5.673   6.947   5.707
 8757SOL    HW227171   5.552   6.866   5.633
 8758SOL     OW27172   4.807   6.233   1.823
 8758SOL    HW127173   4.905   6.255   1.826
 8758SOL    HW227174   4.764   6.286   1.749
 8759SOL     OW27175   4.110   2.590   6.735
 8759SOL    HW127176   4.174   2.514   6.747
 8759SOL    HW227177   4.068   2.613   6.823
 8760SOL     OW27178   1.903   1.879   5.001
 8760SOL    HW127179   1.943   1.909   5.087
 8760SOL    HW227180   1.966   1.816   4.956
 8761SOL     OW27181   4.361   0.653   1.444
 8761SOL    HW127182   4.451   0.692   1.422
 8761SOL    HW227183   4.373   0.575   1.505
 8762SOL     OW27184   0.342   3.627   2.770
 8762SOL    HW127185   0.284   3.708   2.780
 8762SOL    HW227186   0.435   3.656   2.748
 8763SOL     OW27187   6.111   5.496   5.546
 8763SOL    HW127188   6.079   5.590   5.556
 8763SOL    HW227189   6.060   5.436   5.608
 8764SOL     OW27190   4.733   0.725   4.255
 8764SOL    HW127191   4.783   0.721   4.169
 8764SOL    HW227192   4.775   0.792   4.316
 8765SOL     OW27193   6.089   6.819   5.179
 8765SOL    HW127194   6.152   6.744   5.197
 8765SOL    HW227195   6.101   6.852   5.085
 8766SOL     OW27196   4.099   5.241   2.883
 8766SOL    HW127197   4.094   5.339   2.905
 8766SOL    HW227198   4.013   5.212   2.841
 8767SOL     OW27199   3.904   0.420   2.843
 8767SOL    HW127200   3.979   0.441   2.906
 8767SOL    HW227201   3.920   0.468   2.756
 8768SOL     OW27202   1.206   2.964   0.409
 8768SOL    HW127203   1.166   2.875   0.389
 8768SOL    HW227204   1.272   2.989   0.338
 8769SOL     OW27205   1.301   6.789   3.973
 8769SOL    HW127206   1.295   6.697   4.011
 8769SOL    HW227207   1.223   6.806   3.912
 8770SOL     OW27208   5.085   4.312   2.168
 8770SOL    HW127209   5.130   4.235   2.214
 8770SOL    HW227210   5.025   4.278   2.096
 8771SOL     OW27211   1.002   0.244   5.732
 8771SOL    HW127212   1.000   0.277   5.826
 8771SOL    HW227213   0.978   0.147   5.730
 8772SOL     OW27214   5.997   6.618   0.260
 8772SOL    HW127215   6.087   6.584   0.234
 8772SOL    HW227216   6.004   6.713   0.291
 8773SOL     OW27217   4.598   1.984   3.559
 8773SOL    HW127218   4.621   1.887   3.574
 8773SOL    HW227219   4.510   2.004   3.600
 8774SOL     OW27220   2.273   1.620   0.493
 8774SOL    HW127221   2.360   1.577   0.467
 8774SOL    HW227222   2.289   1.685   0.568
 8775SOL     OW27223   6.138   0.651   5.418
 8775SOL    HW127224   6.136   0.683   5.323
 8775SOL    HW227225   6.183   0.720   5.475
 8776SOL     OW27226   2.937   3.531   4.621
 8776SOL    HW127227   2.942   3.521   4.720
 8776SOL    HW227228   2.893   3.617   4.598
 8777SOL     OW27229   6.913   4.041   1.105
 8777SOL    HW127230   6.957   4.021   1.192
 8777SOL    HW227231   6.956   4.122   1.064
 8778SOL     OW27232   6.087   2.312   4.278
 8778SOL    HW127233   6.041   2.304   4.190
 8778SOL    HW227234   6.064   2.400   4.320
 8779SOL     OW27235   2.622   5.665   1.984
 8779SOL    HW127236   2.600   5.586   2.041
 8779SOL    HW227237   2.717   5.691   1.998
 8780SOL     OW27238   1.074   5.364   3.704
 8780SOL    HW127239   1.138   5.346   3.778
 8780SOL    HW227240   0.995   5.415   3.739
 8781SOL     OW27241   6.157   1.813   3.863
 8781SOL    HW127242   6.085   1.814   3.793
 8781SOL    HW227243   6.118   1.785   3.951
 8782SOL     OW27244   5.625   0.588   2.063
 8782SOL    HW127245   5.654   0.500   2.100
 8782SOL    HW227246   5.563   0.632   2.128
 8783SOL     OW27247   6.257   3.414   3.684
 8783SOL    HW127248   6.233   3.317   3.673
 8783SOL    HW227249   6.355   3.421   3.700
 8784SOL     OW27250   5.285   3.743   5.123
 8784SOL    HW127251   5.247   3.759   5.214
 8784SOL    HW227252   5.300   3.645   5.109
 8785SOL     OW27253   6.382   3.421   6.667
 8785SOL    HW127254   6.402   3.517   6.650
 8785SOL    HW227255   6.350   3.409   6.761
 8786SOL     OW27256   2.770   6.358   0.169
 8786SOL    HW127257   2.771   6.457   0.182
 8786SOL    HW227258   2.796   6.313   0.255
 8787SOL     OW27259   1.588   2.953   2.205
 8787SOL    HW127260   1.517   3.023   2.216
 8787SOL    HW227261   1.678   2.993   2.224
 8788SOL     OW27262   6.622   2.272   5.728
 8788SOL    HW127263   6.523   2.275   5.742
 8788SOL    HW227264   6.654   2.359   5.690
 8789SOL     OW27265   5.896   6.485   6.035
 8789SOL    HW127266   5.955   6.412   6.071
 8789SOL    HW227267   5.939   6.574   6.051
 8790SOL     OW27268   0.141   1.587   0.522
 8790SOL    HW127269   0.227   1.537   0.518
 8790SOL    HW227270   0.120   1.624   0.431
 8791SOL     OW27271   5.287   6.988   4.616
 8791SOL    HW127272   5.248   0.030   4.553
 8791SOL    HW227273   5.281   6.897   4.576
 8792SOL     OW27274   3.772   6.058   3.108
 8792SOL    HW127275   3.718   6.054   3.024
 8792SOL    HW227276   3.715   6.088   3.184
 8793SOL     OW27277   1.907   5.470   3.673
 8793SOL    HW127278   1.991   5.418   3.662
 8793SOL    HW227279   1.843   5.447   3.599
 8794SOL     OW27280   4.096   6.279   1.977
 8794SOL    HW127281   4.032   6.335   1.924
 8794SOL    HW227282   4.106   6.190   1.933
 8795SOL     OW27283   1.536   6.531   5.006
 8795SOL    HW127284   1.519   6.450   4.950
 8795SOL    HW227285   1.500   6.515   5.098
 8796SOL     OW27286   3.850   0.312   5.164
 8796SOL    HW127287   3.837   0.376   5.240
 8796SOL    HW227288   3.770   0.253   5.156
 8797SOL     OW27289   1.278   6.976   5.329
 8797SOL    HW127290   1.212   6.932   5.269
 8797SOL    HW227291   1.360   6.919   5.336
 8798SOL     OW27292   4.923   4.899   5.068
 8798SOL    HW127293   4.830   4.932   5.088
 8798SOL    HW227294   4.982   4.915   5.147
 8799SOL     OW27295   1.850   4.726   3.528
 8799SOL    HW127296   1.763   4.686   3.498
 8799SOL    HW227297   1.901   4.658   3.580
 8800SOL     OW27298   5.599   3.611   5.014
 8800SOL    HW127299   5.697   3.620   4.998
 8800SOL    HW227300   5.584   3.563   5.101
 8801SOL     OW27301   1.453   1.341   4.777
 8801SOL    HW127302   1.434   1.336   4.679
 8801SOL    HW227303   1.537   1.394   4.792
 8802SOL     OW27304   1.363   0.662   0.369
 8802SOL    HW127305   1.458   0.634   0.356
 8802SOL    HW227306   1.341   0.663   0.466
 8803SOL     OW27307   1.275   5.391   5.874
 8803SOL    HW127308   1.217   5.310   5.884
 8803SOL    HW227309   1.347   5.372   5.807
 8804SOL     OW27310   3.249   0.445   1.871
 8804SOL    HW127311   3.289   0.525   1.917
 8804SOL    HW227312   3.248   0.368   1.934
 8805SOL     OW27313   2.633   0.211   4.383
 8805SOL    HW127314   2.574   0.206   4.463
 8805SOL    HW227315   2.603   0.287   4.325
 8806SOL     OW27316   1.667   4.926   1.788
 8806SOL    HW127317   1.647   4.978   1.872
 8806SOL    HW227318   1.588   4.872   1.762
 8807SOL     OW27319   6.457   6.311   6.298
 8807SOL    HW127320   6.507   6.339   6.217
 8807SOL    HW227321   6.439   6.213   6.293
 8808SOL     OW27322   5.313   1.997   1.234
 8808SOL    HW127323   5.325   2.003   1.333
 8808SOL    HW227324   5.301   2.089   1.196
 8809SOL     OW27325   5.420   4.462   2.833
 8809SOL    HW127326   5.368   4.479   2.917
 8809SOL    HW227327   5.410   4.367   2.806
 8810SOL     OW27328   5.718   1.611   6.101
 8810SOL    HW127329   5.729   1.597   6.003
 8810SOL    HW227330   5.755   1.700   6.127
 8811SOL     OW27331   3.092   1.695   3.549
 8811SOL    HW127332   3.107   1.761   3.476
 8811SOL    HW227333   3.064   1.607   3.509
 8812SOL     OW27334   1.611   0.636   0.712
 8812SOL    HW127335   1.661   0.554   0.687
 8812SOL    HW227336   1.621   0.705   0.640
 8813SOL     OW27337   1.210   4.512   1.477
 8813SOL    HW127338   1.292   4.519   1.421
 8813SOL    HW227339   1.130   4.497   1.418
 8814SOL     OW27340   6.664   0.706   0.974
 8814SOL    HW127341   6.623   0.792   1.005
 8814SOL    HW227342   6.694   0.653   1.053
 8815SOL     OW27343   6.263   6.565   0.498
 8815SOL    HW127344   6.232   6.483   0.546
 8815SOL    HW227345   6.253   6.552   0.399
 8816SOL     OW27346   2.089   0.527   0.157
 8816SOL    HW127347   2.005   0.551   0.206
 8816SOL    HW227348   2.097   0.585   0.075
 8817SOL     OW27349   0.421   5.920   5.788
 8817SOL    HW127350   0.379   6.000   5.745
 8817SOL    HW227351   0.493   5.884   5.728
 8818SOL     OW27352   0.359   3.208   3.789
 8818SOL    HW127353   0.363   3.118   3.832
 8818SOL    HW227354   0.333   3.277   3.856
 8819SOL     OW27355   4.256   5.319   4.068
 8819SOL    HW127356   4.244   5.289   3.974
 8819SOL    HW227357   4.179   5.287   4.123
 8820SOL     OW27358   2.287   1.699   4.320
 8820SOL    HW127359   2.314   1.751   4.401
 8820SOL    HW227360   2.368   1.672   4.269
 8821SOL     OW27361   2.901   5.923   0.363
 8821SOL    HW127362   2.867   5.900   0.455
 8821SOL    HW227363   2.942   5.842   0.322
 8822SOL     OW27364   1.057   0.213   3.600
 8822SOL    HW127365   1.089   0.297   3.643
 8822SOL    HW227366   1.134   0.167   3.555
 8823SOL     OW27367   2.022   0.838   0.502
 8823SOL    HW127368   1.954   0.784   0.453
 8823SOL    HW227369   2.008   0.827   0.601
 8824SOL     OW27370   1.490   3.618   1.336
 8824SOL    HW127371   1.402   3.571   1.330
 8824SOL    HW227372   1.490   3.680   1.414
 8825SOL     OW27373   1.718   0.279   3.708
 8825SOL    HW127374   1.651   0.205   3.717
 8825SOL    HW227375   1.809   0.244   3.732
 8826SOL     OW27376   6.366   2.475   0.361
 8826SOL    HW127377   6.436   2.470   0.432
 8826SOL    HW227378   6.351   2.571   0.336
 8827SOL     OW27379   3.306   1.597   3.031
 8827SOL    HW127380   3.221   1.622   3.077
 8827SOL    HW227381   3.342   1.677   2.983
 8828SOL     OW27382   4.771   5.430   4.840
 8828SOL    HW127383   4.756   5.333   4.860
 8828SOL    HW227384   4.699   5.463   4.779
 8829SOL     OW27385   0.469   2.447   6.915
 8829SOL    HW127386   0.509   2.401   6.835
 8829SOL    HW227387   0.383   2.490   6.888
 8830SOL     OW27388   0.562   1.283   1.338
 8830SOL    HW127389   0.613   1.286   1.424
 8830SOL    HW227390   0.619   1.243   1.267
 8831SOL     OW27391   5.438   1.019   3.878
 8831SOL    HW127392   5.507   0.950   3.898
 8831SOL    HW227393   5.372   1.023   3.953
 8832SOL     OW27394   6.343   6.243   2.546
 8832SOL    HW127395   6.408   6.221   2.474
 8832SOL    HW227396   6.261   6.284   2.505
 8833SOL     OW27397   2.108   6.403   5.740
 8833SOL    HW127398   2.208   6.400   5.732
 8833SOL    HW227399   2.067   6.401   5.649
 8834SOL     OW27400   5.389   3.820   4.525
 8834SOL    HW127401   5.408   3.779   4.614
 8834SOL    HW227402   5.355   3.913   4.537
 8835SOL     OW27403   6.150   1.162   5.993
 8835SOL    HW127404   6.168   1.075   5.947
 8835SOL    HW227405   6.141   1.235   5.925
 8836SOL     OW27406   4.465   1.031   6.910
 8836SOL    HW127407   4.467   0.992   7.002
 8836SOL    HW227408   4.470   1.131   6.917
 8837SOL     OW27409   0.314   6.614   2.687
 8837SOL    HW127410   0.397   6.621   2.743
 8837SOL    HW227411   0.316   6.528   2.636
 8838SOL     OW27412   3.147   4.915   2.975
 8838SOL    HW127413   3.072   4.881   3.031
 8838SOL    HW227414   3.113   4.982   2.909
 8839SOL     OW27415   5.279   5.727   2.077
 8839SOL    HW127416   5.296   5.667   2.155
 8839SOL    HW227417   5.300   5.678   1.992
 8840SOL     OW27418   6.402   1.963   2.107
 8840SOL    HW127419   6.411   2.036   2.038
 8840SOL    HW227420   6.341   1.892   2.073
 8841SOL     OW27421   1.450   0.642   4.687
 8841SOL    HW127422   1.540   0.670   4.653
 8841SOL    HW227423   1.383   0.646   4.612
 8842SOL     OW27424   3.165   3.228   0.851
 8842SOL    HW127425   3.142   3.137   0.885
 8842SOL    HW227426   3.260   3.229   0.819
 8843SOL     OW27427   1.720   3.308   4.815
 8843SOL    HW127428   1.736   3.308   4.914
 8843SOL    HW227429   1.800   3.269   4.769
 8844SOL     OW27430   5.427   1.581   0.410
 8844SOL    HW127431   5.421   1.602   0.313
 8844SOL    HW227432   5.352   1.626   0.459
 8845SOL     OW27433   4.719   4.036   6.733
 8845SOL    HW127434   4.647   4.007   6.796
 8845SOL    HW227435   4.737   4.134   6.747
 8846SOL     OW27436   2.267   5.544   3.543
 8846SOL    HW127437   2.294   5.509   3.454
 8846SOL    HW227438   2.300   5.638   3.553
 8847SOL     OW27439   2.594   0.902   2.692
 8847SOL    HW127440   2.682   0.878   2.650
 8847SOL    HW227441   2.529   0.929   2.621
 8848SOL     OW27442   2.556   0.334   1.956
 8848SOL    HW127443   2.469   0.351   2.001
 8848SOL    HW227444   2.540   0.290   1.868
 8849SOL     OW27445   2.989   6.623   2.674
 8849SOL    HW127446   3.037   6.583   2.596
 8849SOL    HW227447   2.892   6.598   2.670
 8850SOL     OW27448   1.586   1.821   0.127
 8850SOL    HW127449   1.509   1.759   0.143
 8850SOL    HW227450   1.572   1.870   0.041
 8851SOL     OW27451   1.854   4.411   2.364
 8851SOL    HW127452   1.896   4.498   2.390
 8851SOL    HW227453   1.920   4.357   2.312
 8852SOL     OW27454   1.142   1.940   4.978
 8852SOL    HW127455   1.201   1.903   5.050
 8852SOL    HW227456   1.074   1.871   4.952
 8853SOL     OW27457   2.650   0.614   1.986
 8853SOL    HW127458   2.651   0.657   1.896
 8853SOL    HW227459   2.648   0.515   1.975
 8854SOL     OW27460   2.025   3.028   4.361
 8854SOL    HW127461   2.105   2.980   4.397
 8854SOL    HW227462   1.968   3.058   4.438
 8855SOL     OW27463   6.572   5.232   1.436
 8855SOL    HW127464   6.487   5.240   1.384
 8855SOL    HW227465   6.649   5.225   1.373
 8856SOL     OW27466   0.444   5.992   6.812
 8856SOL    HW127467   0.444   6.087   6.779
 8856SOL    HW227468   0.426   5.931   6.735
 8857SOL     OW27469   6.795   1.743   4.948
 8857SOL    HW127470   6.867   1.690   4.903
 8857SOL    HW227471   6.816   1.751   5.046
 8858SOL     OW27472   0.114   4.470   4.517
 8858SOL    HW127473   0.177   4.463   4.440
 8858SOL    HW227474   0.020   4.473   4.483
 8859SOL     OW27475   1.072   0.995   4.039
 8859SOL    HW127476   0.978   1.024   4.059
 8859SOL    HW227477   1.136   1.065   4.071
 8860SOL     OW27478   6.506   2.141   1.675
 8860SOL    HW127479   6.590   2.174   1.632
 8860SOL    HW227480   6.464   2.072   1.616
 8861SOL     OW27481   4.158   1.249   6.997
 8861SOL    HW127482   4.146   1.302   0.056
 8861SOL    HW227483   4.255   1.251   6.970
 8862SOL     OW27484   5.320   6.811   3.516
 8862SOL    HW127485   5.406   6.835   3.471
 8862SOL    HW227486   5.323   6.715   3.545
 8863SOL     OW27487   2.052   5.210   3.092
 8863SOL    HW127488   1.979   5.277   3.074
 8863SOL    HW227489   2.065   5.152   3.012
 8864SOL     OW27490   4.273   4.057   6.700
 8864SOL    HW127491   4.176   4.058   6.724
 8864SOL    HW227492   4.282   4.045   6.601
 8865SOL     OW27493   3.590   0.847   5.280
 8865SOL    HW127494   3.532   0.894   5.213
 8865SOL    HW227495   3.550   0.758   5.302
 8866SOL     OW27496   5.235   6.826   2.651
 8866SOL    HW127497   5.314   6.788   2.699
 8866SOL    HW227498   5.157   6.764   2.662
 8867SOL     OW27499   5.941   3.703   3.623
 8867SOL    HW127500   6.023   3.758   3.608
 8867SOL    HW227501   5.861   3.755   3.594
 8868SOL     OW27502   6.789   3.728   2.302
 8868SOL    HW127503   6.799   3.678   2.388
 8868SOL    HW227504   6.871   3.782   2.285
 8869SOL     OW27505   4.220   5.799   5.246
 8869SOL    HW127506   4.205   5.820   5.149
 8869SOL    HW227507   4.215   5.700   5.260
 8870SOL     OW27508   1.696   6.050   1.680
 8870SOL    HW127509   1.726   6.108   1.603
 8870SOL    HW227510   1.735   6.086   1.765
 8871SOL     OW27511   1.874   0.702   3.480
 8871SOL    HW127512   1.835   0.616   3.514
 8871SOL    HW227513   1.815   0.740   3.409
 8872SOL     OW27514   1.330   4.939   6.166
 8872SOL    HW127515   1.328   4.840   6.151
 8872SOL    HW227516   1.240   4.977   6.144
 8873SOL     OW27517   1.521   6.727   1.800
 8873SOL    HW127518   1.461   6.665   1.750
 8873SOL    HW227519   1.488   6.821   1.790
 8874SOL     OW27520   1.356   5.646   2.138
 8874SOL    HW127521   1.306   5.580   2.082
 8874SOL    HW227522   1.379   5.726   2.083
 8875SOL     OW27523   0.253   3.032   4.317
 8875SOL    HW127524   0.191   3.107   4.342
 8875SOL    HW227525   0.339   3.042   4.366
 8876SOL     OW27526   2.603   1.026   6.426
 8876SOL    HW127527   2.657   1.092   6.478
 8876SOL    HW227528   2.602   0.939   6.474
 8877SOL     OW27529   1.698   3.412   3.088
 8877SOL    HW127530   1.670   3.483   3.153
 8877SOL    HW227531   1.778   3.443   3.037
 8878SOL     OW27532   3.441   5.161   0.699
 8878SOL    HW127533   3.341   5.158   0.696
 8878SOL    HW227534   3.478   5.068   0.700
 8879SOL     OW27535   6.048   4.885   2.154
 8879SOL    HW127536   6.038   4.803   2.209
 8879SOL    HW227537   5.991   4.878   2.073
 8880SOL     OW27538   4.198   6.117   4.732
 8880SOL    HW127539   4.208   6.184   4.659
 8880SOL    HW227540   4.107   6.127   4.773
 8881SOL     OW27541   5.299   5.578   4.316
 8881SOL    HW127542   5.291   5.558   4.414
 8881SOL    HW227543   5.241   5.515   4.264
 8882SOL     OW27544   3.971   0.859   0.872
 8882SOL    HW127545   3.952   0.957   0.875
 8882SOL    HW227546   3.924   0.818   0.793
 8883SOL     OW27547   0.890   6.477   5.706
 8883SOL    HW127548   0.977   6.491   5.659
 8883SOL    HW227549   0.874   6.379   5.718
 8884SOL     OW27550   6.150   3.805   4.908
 8884SOL    HW127551   6.064   3.856   4.915
 8884SOL    HW227552   6.131   3.708   4.898
 8885SOL     OW27553   5.313   5.030   0.973
 8885SOL    HW127554   5.407   5.004   0.949
 8885SOL    HW227555   5.258   5.037   0.890
 8886SOL     OW27556   4.036   5.967   6.231
 8886SOL    HW127557   4.133   5.987   6.214
 8886SOL    HW227558   3.983   5.986   6.148
 8887SOL     OW27559   3.704   1.810   0.602
 8887SOL    HW127560   3.731   1.726   0.649
 8887SOL    HW227561   3.642   1.862   0.660
 8888SOL     OW27562   2.260   2.579   4.433
 8888SOL    HW127563   2.182   2.553   4.490
 8888SOL    HW227564   2.250   2.538   4.343
 8889SOL     OW27565   6.987   6.143   6.312
 8889SOL    HW127566   6.949   6.211   6.249
 8889SOL    HW227567   0.031   6.088   6.265
 8890SOL     OW27568   0.547   6.211   6.672
 8890SOL    HW127569   0.488   6.181   6.597
 8890SOL    HW227570   0.630   6.154   6.674
 8891SOL     OW27571   4.092   4.330   6.918
 8891SOL    HW127572   4.157   4.261   6.948
 8891SOL    HW227573   4.141   4.415   6.896
 8892SOL     OW27574   3.863   5.096   3.677
 8892SOL    HW127575   3.788   5.076   3.740
 8892SOL    HW227576   3.948   5.107   3.729
 8893SOL     OW27577   1.804   5.656   5.322
 8893SOL    HW127578   1.855   5.632   5.239
 8893SOL    HW227579   1.869   5.681   5.394
 8894SOL     OW27580   3.739   1.696   6.753
 8894SOL    HW127581   3.833   1.728   6.739
 8894SOL    HW227582   3.687   1.768   6.800
 8895SOL     OW27583   0.727   2.329   0.999
 8895SOL    HW127584   0.667   2.378   0.936
 8895SOL    HW227585   0.690   2.238   1.017
 8896SOL     OW27586   1.726   2.985   4.783
 8896SOL    HW127587   1.777   3.036   4.853
 8896SOL    HW227588   1.714   2.890   4.813
 8897SOL     OW27589   2.124   3.703   3.324
 8897SOL    HW127590   2.135   3.801   3.304
 8897SOL    HW227591   2.086   3.657   3.244
 8898SOL     OW27592   6.102   3.595   2.021
 8898SOL    HW127593   6.069   3.657   2.092
 8898SOL    HW227594   6.185   3.549   2.052
 8899SOL     OW27595   0.640   4.525   6.774
 8899SOL    HW127596   0.580   4.511   6.695
 8899SOL    HW227597   0.709   4.594   6.751
 8900SOL     OW27598   5.828   2.621   3.292
 8900SOL    HW127599   5.778   2.701   3.326
 8900SOL    HW227600   5.769   2.540   3.300
 8901SOL     OW27601   0.969   1.472   4.175
 8901SOL    HW127602   0.881   1.432   4.200
 8901SOL    HW227603   0.969   1.493   4.077
 8902SOL     OW27604   1.748   5.689   6.749
 8902SOL    HW127605   1.653   5.669   6.773
 8902SOL    HW227606   1.768   5.651   6.658
 8903SOL     OW27607   0.981   2.545   4.472
 8903SOL    HW127608   0.911   2.476   4.455
 8903SOL    HW227609   0.957   2.630   4.424
 8904SOL     OW27610   0.976   1.527   3.892
 8904SOL    HW127611   0.881   1.559   3.892
 8904SOL    HW227612   0.982   1.438   3.848
 8905SOL     OW27613   1.797   3.340   2.511
 8905SOL    HW127614   1.790   3.411   2.442
 8905SOL    HW227615   1.714   3.284   2.509
 8906SOL     OW27616   1.487   5.973   1.022
 8906SOL    HW127617   1.430   5.978   1.104
 8906SOL    HW227618   1.535   5.885   1.020
 8907SOL     OW27619   2.887   2.822   5.337
 8907SOL    HW127620   2.916   2.918   5.330
 8907SOL    HW227621   2.963   2.763   5.311
 8908SOL     OW27622   1.989   5.028   6.781
 8908SOL    HW127623   1.974   5.019   6.879
 8908SOL    HW227624   1.954   5.116   6.750
 8909SOL     OW27625   2.896   1.264   6.383
 8909SOL    HW127626   2.907   1.327   6.306
 8909SOL    HW227627   2.905   1.170   6.351
 8910SOL     OW27628   0.208   3.029   4.946
 8910SOL    HW127629   0.254   2.942   4.963
 8910SOL    HW227630   0.228   3.060   4.853
 8911SOL     OW27631   5.599   2.897   5.046
 8911SOL    HW127632   5.504   2.893   5.016
 8911SOL    HW227633   5.644   2.975   5.002
 8912SOL     OW27634   3.070   3.261   6.208
 8912SOL    HW127635   3.036   3.326   6.276
 8912SOL    HW227636   3.069   3.169   6.248
 8913SOL     OW27637   4.761   5.363   6.808
 8913SOL    HW127638   4.726   5.307   6.884
 8913SOL    HW227639   4.836   5.420   6.840
 8914SOL     OW27640   4.762   6.616   4.519
 8914SOL    HW127641   4.804   6.588   4.432
 8914SOL    HW227642   4.756   6.536   4.579
 8915SOL     OW27643   1.212   2.172   4.496
 8915SOL    HW127644   1.172   2.143   4.583
 8915SOL    HW227645   1.200   2.271   4.485
 8916SOL     OW27646   6.340   2.511   6.682
 8916SOL    HW127647   6.347   2.471   6.591
 8916SOL    HW227648   6.282   2.593   6.678
 8917SOL     OW27649   5.691   2.246   1.060
 8917SOL    HW127650   5.725   2.200   0.978
 8917SOL    HW227651   5.741   2.212   1.140
 8918SOL     OW27652   1.257   5.466   0.748
 8918SOL    HW127653   1.291   5.473   0.842
 8918SOL    HW227654   1.240   5.558   0.713
 8919SOL     OW27655   4.958   4.572   6.499
 8919SOL    HW127656   4.981   4.617   6.412
 8919SOL    HW227657   4.982   4.475   6.494
 8920SOL     OW27658   0.547   2.282   6.732
 8920SOL    HW127659   0.593   2.212   6.786
 8920SOL    HW227660   0.582   2.280   6.638
 8921SOL     OW27661   1.390   3.123   1.631
 8921SOL    HW127662   1.299   3.104   1.594
 8921SOL    HW227663   1.440   3.038   1.643
 8922SOL     OW27664   4.174   5.950   2.142
 8922SOL    HW127665   4.268   5.935   2.110
 8922SOL    HW227666   4.176   5.994   2.231
 8923SOL     OW27667   1.337   1.200   5.202
 8923SOL    HW127668   1.399   1.139   5.252
 8923SOL    HW227669   1.267   1.145   5.155
 8924SOL     OW27670   5.069   5.527   5.261
 8924SOL    HW127671   5.164   5.496   5.269
 8924SOL    HW227672   5.008   5.448   5.262
 8925SOL     OW27673   6.897   0.528   2.444
 8925SOL    HW127674   6.850   0.466   2.382
 8925SOL    HW227675   6.838   0.549   2.522
 8926SOL     OW27676   6.301   3.382   4.926
 8926SOL    HW127677   6.343   3.338   4.847
 8926SOL    HW227678   6.359   3.368   5.006
 8927SOL     OW27679   6.336   1.672   4.990
 8927SOL    HW127680   6.270   1.738   4.955
 8927SOL    HW227681   6.427   1.695   4.956
 8928SOL     OW27682   1.495   7.011   6.052
 8928SOL    HW127683   1.399   7.008   6.026
 8928SOL    HW227684   1.546   6.944   5.997
 8929SOL     OW27685   6.474   1.969   4.918
 8929SOL    HW127686   6.559   2.022   4.911
 8929SOL    HW227687   6.402   2.017   4.868
 8930SOL     OW27688   0.630   3.063   3.355
 8930SOL    HW127689   0.608   3.079   3.258
 8930SOL    HW227690   0.611   2.968   3.379
 8931SOL     OW27691   2.981   3.123   1.611
 8931SOL    HW127692   2.915   3.067   1.560
 8931SOL    HW227693   2.940   3.151   1.698
 8932SOL     OW27694   0.160   2.219   2.753
 8932SOL    HW127695   0.070   2.174   2.754
 8932SOL    HW227696   0.229   2.155   2.786
 8933SOL     OW27697   3.032   2.833   6.499
 8933SOL    HW127698   3.071   2.886   6.574
 8933SOL    HW227699   2.973   2.762   6.536
 8934SOL     OW27700   3.641   4.954   5.207
 8934SOL    HW127701   3.651   4.865   5.251
 8934SOL    HW227702   3.647   5.026   5.276
 8935SOL     OW27703   0.515   4.445   7.002
 8935SOL    HW127704   0.566   4.459   6.917
 8935SOL    HW227705   0.420   4.471   6.988
 8936SOL     OW27706   1.459   4.117   0.547
 8936SOL    HW127707   1.461   4.193   0.481
 8936SOL    HW227708   1.511   4.040   0.510
 8937SOL     OW27709   0.415   0.565   5.116
 8937SOL    HW127710   0.404   0.635   5.187
 8937SOL    HW227711   0.349   0.582   5.043
 8938SOL     OW27712   0.665   5.534   0.633
 8938SOL    HW127713   0.673   5.542   0.534
 8938SOL    HW227714   0.585   5.584   0.665
 8939SOL     OW27715   4.731   2.818   4.371
 8939SOL    HW127716   4.712   2.755   4.296
 8939SOL    HW227717   4.700   2.778   4.457
 8940SOL     OW27718   0.249   0.898   3.696
 8940SOL    HW127719   0.177   0.956   3.734
 8940SOL    HW227720   0.252   0.911   3.597
 8941SOL     OW27721   5.941   2.457   5.195
 8941SOL    HW127722   5.901   2.444   5.285
 8941SOL    HW227723   5.999   2.538   5.194
 8942SOL     OW27724   0.453   4.387   5.139
 8942SOL    HW127725   0.513   4.361   5.215
 8942SOL    HW227726   0.409   4.306   5.102
 8943SOL     OW27727   3.694   3.981   0.154
 8943SOL    HW127728   3.603   3.963   0.192
 8943SOL    HW227729   3.714   4.079   0.161
 8944SOL     OW27730   4.984   4.588   4.777
 8944SOL    HW127731   4.982   4.617   4.873
 8944SOL    HW227732   5.077   4.565   4.751
 8945SOL     OW27733   2.043   0.832   3.846
 8945SOL    HW127734   2.074   0.872   3.760
 8945SOL    HW227735   2.029   0.734   3.835
 8946SOL     OW27736   2.916   1.365   4.884
 8946SOL    HW127737   2.870   1.318   4.959
 8946SOL    HW227738   2.932   1.460   4.910
 8947SOL     OW27739   1.671   3.942   4.906
 8947SOL    HW127740   1.726   3.961   4.826
 8947SOL    HW227741   1.718   3.875   4.964
 8948SOL     OW27742   6.380   6.174   4.160
 8948SOL    HW127743   6.437   6.145   4.237
 8948SOL    HW227744   6.357   6.271   4.171
 8949SOL     OW27745   2.361   0.226   0.315
 8949SOL    HW127746   2.356   0.139   0.365
 8949SOL    HW227747   2.287   0.286   0.346
 8950SOL     OW27748   4.876   3.041   5.834
 8950SOL    HW127749   4.821   3.109   5.882
 8950SOL    HW227750   4.922   3.083   5.756
 8951SOL     OW27751   0.716   2.235   5.065
 8951SOL    HW127752   0.626   2.272   5.086
 8951SOL    HW227753   0.706   2.145   5.022
 8952SOL     OW27754   1.362   0.143   2.471
 8952SOL    HW127755   1.412   0.081   2.531
 8952SOL    HW227756   1.307   0.091   2.406
 8953SOL     OW27757   1.039   3.703   6.398
 8953SOL    HW127758   1.012   3.764   6.323
 8953SOL    HW227759   1.062   3.613   6.361
 8954SOL     OW27760   0.728   6.323   6.385
 8954SOL    HW127761   0.718   6.423   6.383
 8954SOL    HW227762   0.729   6.288   6.292
 8955SOL     OW27763   0.436   4.465   2.531
 8955SOL    HW127764   0.489   4.547   2.551
 8955SOL    HW227765   0.497   4.386   2.522
 8956SOL     OW27766   0.071   1.909   0.075
 8956SOL    HW127767   0.046   1.991   0.126
 8956SOL    HW227768   0.164   1.918   0.041
 8957SOL     OW27769   3.116   4.395   1.663
 8957SOL    HW127770   3.071   4.457   1.727
 8957SOL    HW227771   3.054   4.320   1.640
 8958SOL     OW27772   0.948   0.241   4.514
 8958SOL    HW127773   0.997   0.326   4.495
 8958SOL    HW227774   0.930   0.235   4.613
 8959SOL     OW27775   1.454   4.585   1.273
 8959SOL    HW127776   1.528   4.520   1.292
 8959SOL    HW227777   1.488   4.678   1.284
 8960SOL     OW27778   4.944   5.865   2.283
 8960SOL    HW127779   4.867   5.895   2.339
 8960SOL    HW227780   4.947   5.765   2.281
 8961SOL     OW27781   2.410   2.601   4.791
 8961SOL    HW127782   2.357   2.516   4.797
 8961SOL    HW227783   2.425   2.624   4.695
 8962SOL     OW27784   6.474   6.614   2.860
 8962SOL    HW127785   6.410   6.689   2.842
 8962SOL    HW227786   6.459   6.541   2.793
 8963SOL     OW27787   4.995   6.654   3.859
 8963SOL    HW127788   4.914   6.642   3.915
 8963SOL    HW227789   5.055   6.722   3.901
 8964SOL     OW27790   5.751   3.799   3.429
 8964SOL    HW127791   5.756   3.859   3.350
 8964SOL    HW227792   5.660   3.757   3.434
 8965SOL     OW27793   2.077   4.985   0.281
 8965SOL    HW127794   2.149   5.053   0.297
 8965SOL    HW227795   2.068   4.927   0.362
 8966SOL     OW27796   1.366   4.104   5.262
 8966SOL    HW127797   1.432   4.097   5.187
 8966SOL    HW227798   1.287   4.046   5.242
 8967SOL     OW27799   3.541   6.217   2.126
 8967SOL    HW127800   3.454   6.260   2.102
 8967SOL    HW227801   3.601   6.285   2.168
 8968SOL     OW27802   5.110   4.681   2.535
 8968SOL    HW127803   5.064   4.763   2.501
 8968SOL    HW227804   5.175   4.707   2.607
 8969SOL     OW27805   6.736   0.193   4.056
 8969SOL    HW127806   6.652   0.228   4.098
 8969SOL    HW227807   6.726   0.095   4.039
 8970SOL     OW27808   3.015   2.883   0.178
 8970SOL    HW127809   3.113   2.864   0.174
 8970SOL    HW227810   2.991   2.909   0.272
 8971SOL     OW27811   4.441   5.325   2.066
 8971SOL    HW127812   4.408   5.364   2.152
 8971SOL    HW227813   4.364   5.316   2.003
 8972SOL     OW27814   4.779   5.288   6.238
 8972SOL    HW127815   4.709   5.358   6.229
 8972SOL    HW227816   4.827   5.300   6.325
 8973SOL     OW27817   0.690   3.215   2.083
 8973SOL    HW127818   0.660   3.184   2.173
 8973SOL    HW227819   0.751   3.148   2.042
 8974SOL     OW27820   1.468   4.364   5.566
 8974SOL    HW127821   1.509   4.386   5.655
 8974SOL    HW227822   1.537   4.372   5.494
 8975SOL     OW27823   2.301   6.973   6.448
 8975SOL    HW127824   2.232   6.935   6.509
 8975SOL    HW227825   2.342   0.029   6.490
 8976SOL     OW27826   0.869   5.078   5.357
 8976SOL    HW127827   0.819   5.141   5.297
 8976SOL    HW227828   0.888   4.993   5.308
 8977SOL     OW27829   5.723   1.602   0.002
 8977SOL    HW127830   5.670   1.524   6.995
 8977SOL    HW227831   5.797   1.571   0.062
 8978SOL     OW27832   5.724   6.852   6.367
 8978SOL    HW127833   5.730   6.864   6.466
 8978SOL    HW227834   5.641   6.802   6.345
 8979SOL     OW27835   1.206   3.115   4.403
 8979SOL    HW127836   1.214   3.196   4.461
 8979SOL    HW227837   1.284   3.055   4.419
 8980SOL     OW27838   2.377   3.258   5.288
 8980SOL    HW127839   2.278   3.244   5.296
 8980SOL    HW227840   2.421   3.170   5.266
 8981SOL     OW27841   3.516   1.238   4.856
 8981SOL    HW127842   3.573   1.303   4.906
 8981SOL    HW227843   3.573   1.161   4.827
 8982SOL     OW27844   1.662   2.379   0.476
 8982SOL    HW127845   1.700   2.468   0.503
 8982SOL    HW227846   1.674   2.367   0.377
 8983SOL     OW27847   2.460   6.519   6.415
 8983SOL    HW127848   2.539   6.467   6.383
 8983SOL    HW227849   2.468   6.614   6.385
 8984SOL     OW27850   0.818   6.924   4.182
 8984SOL    HW127851   0.883   6.971   4.242
 8984SOL    HW227852   0.776   6.990   4.119
 8985SOL     OW27853   3.217   3.146   0.463
 8985SOL    HW127854   3.192   3.142   0.366
 8985SOL    HW227855   3.151   3.202   0.513
 8986SOL     OW27856   4.494   5.364   2.673
 8986SOL    HW127857   4.458   5.456   2.661
 8986SOL    HW227858   4.487   5.336   2.769
 8987SOL     OW27859   4.252   6.760   1.881
 8987SOL    HW127860   4.177   6.707   1.843
 8987SOL    HW227861   4.337   6.737   1.834
 8988SOL     OW27862   1.669   4.313   4.642
 8988SOL    HW127863   1.686   4.412   4.636
 8988SOL    HW227864   1.756   4.265   4.655
 8989SOL     OW27865   5.089   3.669   0.168
 8989SOL    HW127866   5.177   3.718   0.163
 8989SOL    HW227867   5.058   3.648   0.075
 8990SOL     OW27868   1.834   5.896   4.375
 8990SOL    HW127869   1.739   5.923   4.361
 8990SOL    HW227870   1.838   5.798   4.393
 8991SOL     OW27871   1.420   2.592   4.799
 8991SOL    HW127872   1.511   2.572   4.833
 8991SOL    HW227873   1.363   2.510   4.804
 8992SOL     OW27874   4.185   1.139   0.617
 8992SOL    HW127875   4.239   1.220   0.593
 8992SOL    HW227876   4.223   1.059   0.572
 8993SOL     OW27877   4.943   2.569   1.588
 8993SOL    HW127878   4.928   2.498   1.519
 8993SOL    HW227879   4.919   2.658   1.549
 8994SOL     OW27880   1.040   3.787   5.004
 8994SOL    HW127881   0.989   3.790   5.090
 8994SOL    HW227882   0.990   3.839   4.934
 8995SOL     OW27883   1.196   2.562   7.008
 8995SOL    HW127884   1.156   2.485   0.032
 8995SOL    HW227885   1.283   2.587   0.026
 8996SOL     OW27886   5.078   4.440   6.813
 8996SOL    HW127887   5.002   4.491   6.853
 8996SOL    HW227888   5.143   4.415   6.884
 8997SOL     OW27889   5.264   2.076   6.201
 8997SOL    HW127890   5.349   2.053   6.248
 8997SOL    HW227891   5.202   1.997   6.205
 8998SOL     OW27892   6.528   3.756   4.029
 8998SOL    HW127893   6.535   3.735   4.127
 8998SOL    HW227894   6.463   3.693   3.986
 8999SOL     OW27895   5.170   6.884   6.266
 8999SOL    HW127896   5.163   6.978   6.235
 8999SOL    HW227897   5.100   6.828   6.221
 9000SOL     OW27898   1.402   3.374   1.548
 9000SOL    HW127899   1.378   3.283   1.583
 9000SOL    HW227900   1.465   3.363   1.470
 9001SOL     OW27901   1.128   4.668   2.246
 9001SOL    HW127902   1.041   4.709   2.217
 9001SOL    HW227903   1.178   4.636   2.166
 9002SOL     OW27904   1.606   5.340   5.148
 9002SOL    HW127905   1.534   5.274   5.169
 9002SOL    HW227906   1.575   5.401   5.075
 9003SOL     OW27907   5.842   3.955   1.714
 9003SOL    HW127908   5.847   4.039   1.659
 9003SOL    HW227909   5.935   3.925   1.737
 9004SOL     OW27910   4.233   5.961   0.859
 9004SOL    HW127911   4.274   6.017   0.931
 9004SOL    HW227912   4.237   6.011   0.772
 9005SOL     OW27913   6.355   2.622   4.882
 9005SOL    HW127914   6.376   2.532   4.920
 9005SOL    HW227915   6.407   2.692   4.931
 9006SOL     OW27916   2.210   5.535   1.072
 9006SOL    HW127917   2.129   5.555   1.016
 9006SOL    HW227918   2.233   5.438   1.063
 9007SOL     OW27919   3.437   0.726   3.672
 9007SOL    HW127920   3.387   0.803   3.710
 9007SOL    HW227921   3.521   0.758   3.629
 9008SOL     OW27922   0.886   5.186   3.371
 9008SOL    HW127923   0.824   5.153   3.442
 9008SOL    HW227924   0.980   5.183   3.405
 9009SOL     OW27925   2.664   5.867   0.611
 9009SOL    HW127926   2.704   5.886   0.701
 9009SOL    HW227927   2.666   5.769   0.594
 9010SOL     OW27928   1.213   6.531   4.315
 9010SOL    HW127929   1.135   6.475   4.342
 9010SOL    HW227930   1.207   6.553   4.218
 9011SOL     OW27931   4.917   1.367   1.552
 9011SOL    HW127932   4.926   1.448   1.495
 9011SOL    HW227933   4.864   1.297   1.503
 9012SOL     OW27934   1.774   4.396   0.206
 9012SOL    HW127935   1.844   4.456   0.167
 9012SOL    HW227936   1.737   4.337   0.135
 9013SOL     OW27937   0.158   6.736   6.424
 9013SOL    HW127938   0.104   6.689   6.353
 9013SOL    HW227939   0.134   6.833   6.425
 9014SOL     OW27940   0.077   2.168   1.051
 9014SOL    HW127941   0.087   2.264   1.026
 9014SOL    HW227942   0.096   2.156   1.148
 9015SOL     OW27943   4.553   2.102   1.868
 9015SOL    HW127944   4.466   2.091   1.820
 9015SOL    HW227945   4.554   2.191   1.914
 9016SOL     OW27946   6.943   6.283   6.546
 9016SOL    HW127947   6.899   6.366   6.512
 9016SOL    HW227948   6.953   6.218   6.470
 9017SOL     OW27949   4.901   1.402   3.789
 9017SOL    HW127950   4.982   1.374   3.840
 9017SOL    HW227951   4.928   1.445   3.703
 9018SOL     OW27952   2.967   3.119   6.740
 9018SOL    HW127953   2.915   3.067   6.807
 9018SOL    HW227954   2.904   3.159   6.673
 9019SOL     OW27955   1.367   5.182   2.202
 9019SOL    HW127956   1.372   5.209   2.299
 9019SOL    HW227957   1.272   5.171   2.175
 9020SOL     OW27958   0.119   4.021   0.474
 9020SOL    HW127959   0.130   3.953   0.546
 9020SOL    HW227960   0.041   3.995   0.416
 9021SOL     OW27961   0.221   0.422   3.896
 9021SOL    HW127962   0.247   0.443   3.802
 9021SOL    HW227963   0.298   0.378   3.943
 9022SOL     OW27964   2.987   0.929   0.050
 9022SOL    HW127965   2.975   1.021   0.089
 9022SOL    HW227966   3.078   0.922   0.010
 9023SOL     OW27967   3.485   2.887   2.378
 9023SOL    HW127968   3.400   2.938   2.369
 9023SOL    HW227969   3.563   2.949   2.366
 9024SOL     OW27970   1.185   3.901   5.340
 9024SOL    HW127971   1.089   3.878   5.360
 9024SOL    HW227972   1.245   3.833   5.382
 9025SOL     OW27973   0.749   5.302   0.770
 9025SOL    HW127974   0.666   5.254   0.800
 9025SOL    HW227975   0.723   5.376   0.708
 9026SOL     OW27976   3.538   3.306   1.084
 9026SOL    HW127977   3.465   3.355   1.131
 9026SOL    HW227978   3.562   3.224   1.136
 9027SOL     OW27979   1.341   2.763   2.975
 9027SOL    HW127980   1.390   2.815   3.046
 9027SOL    HW227981   1.261   2.815   2.946
 9028SOL     OW27982   2.990   3.065   5.318
 9028SOL    HW127983   3.045   3.085   5.236
 9028SOL    HW227984   3.020   3.122   5.393
 9029SOL     OW27985   3.945   6.786   4.478
 9029SOL    HW127986   3.855   6.773   4.519
 9029SOL    HW227987   3.941   6.861   4.412
 9030SOL     OW27988   2.563   1.969   3.289
 9030SOL    HW127989   2.475   1.993   3.329
 9030SOL    HW227990   2.621   1.925   3.358
 9031SOL     OW27991   3.975   6.022   4.512
 9031SOL    HW127992   3.993   5.931   4.551
 9031SOL    HW227993   3.993   6.092   4.582
 9032SOL     OW27994   4.343   3.817   0.781
 9032SOL    HW127995   4.284   3.898   0.791
 9032SOL    HW227996   4.286   3.735   0.774
 9033SOL     OW27997   0.238   4.237   2.846
 9033SOL    HW127998   0.286   4.324   2.856
 9033SOL    HW227999   0.248   4.204   2.752
 9034SOL     OW28000   2.959   6.280   4.553
 9034SOL    HW128001   2.868   6.281   4.597
 9034SOL    HW228002   2.959   6.344   4.476
 9035SOL     OW28003   2.480   4.396   0.100
 9035SOL    HW128004   2.475   4.334   0.022
 9035SOL    HW228005   2.419   4.364   0.172
 9036SOL     OW28006   1.823   3.087   5.307
 9036SOL    HW128007   1.724   3.092   5.299
 9036SOL    HW228008   1.855   2.999   5.274
 9037SOL     OW28009   1.463   4.171   4.562
 9037SOL    HW128010   1.549   4.221   4.572
 9037SOL    HW228011   1.453   4.106   4.637
 9038SOL     OW28012   4.605   1.184   6.538
 9038SOL    HW128013   4.512   1.187   6.573
 9038SOL    HW228014   4.611   1.113   6.467
 9039SOL     OW28015   2.526   5.031   5.946
 9039SOL    HW128016   2.568   4.955   5.997
 9039SOL    HW228017   2.493   4.997   5.858
 9040SOL     OW28018   2.698   2.242   2.689
 9040SOL    HW128019   2.660   2.272   2.777
 9040SOL    HW228020   2.706   2.320   2.628
 9041SOL     OW28021   1.098   1.776   1.420
 9041SOL    HW128022   1.127   1.761   1.325
 9041SOL    HW228023   1.015   1.723   1.438
 9042SOL     OW28024   4.197   6.802   4.639
 9042SOL    HW128025   4.101   6.813   4.613
 9042SOL    HW228026   4.205   6.804   4.739
 9043SOL     OW28027   1.651   0.881   6.404
 9043SOL    HW128028   1.636   0.841   6.314
 9043SOL    HW228029   1.667   0.808   6.471
 9044SOL     OW28030   6.748   0.349   0.942
 9044SOL    HW128031   6.650   0.339   0.925
 9044SOL    HW228032   6.798   0.278   0.893
 9045SOL     OW28033   3.139   1.188   2.738
 9045SOL    HW128034   3.220   1.222   2.691
 9045SOL    HW228035   3.162   1.165   2.833
 9046SOL     OW28036   3.351   4.119   3.134
 9046SOL    HW128037   3.340   4.200   3.076
 9046SOL    HW228038   3.265   4.069   3.139
 9047SOL     OW28039   1.780   3.593   4.817
 9047SOL    HW128040   1.744   3.500   4.808
 9047SOL    HW228041   1.806   3.628   4.727
 9048SOL     OW28042   6.206   3.334   6.248
 9048SOL    HW128043   6.291   3.363   6.292
 9048SOL    HW228044   6.163   3.262   6.302
 9049SOL     OW28045   4.154   6.433   5.788
 9049SOL    HW128046   4.150   6.513   5.848
 9049SOL    HW228047   4.248   6.400   5.783
 9050SOL     OW28048   0.677   3.425   0.934
 9050SOL    HW128049   0.663   3.328   0.913
 9050SOL    HW228050   0.606   3.457   0.997
 9051SOL     OW28051   3.370   6.983   1.557
 9051SOL    HW128052   3.367   0.018   1.637
 9051SOL    HW228053   3.465   6.955   1.540
 9052SOL     OW28054   2.392   2.336   3.903
 9052SOL    HW128055   2.381   2.237   3.906
 9052SOL    HW228056   2.460   2.364   3.971
 9053SOL     OW28057   1.536   1.278   2.405
 9053SOL    HW128058   1.529   1.321   2.315
 9053SOL    HW228059   1.452   1.293   2.456
 9054SOL     OW28060   3.299   6.045   4.042
 9054SOL    HW128061   3.309   6.015   3.947
 9054SOL    HW228062   3.201   6.049   4.065
 9055SOL     OW28063   5.648   2.656   4.452
 9055SOL    HW128064   5.635   2.735   4.512
 9055SOL    HW228065   5.648   2.685   4.357
 9056SOL     OW28066   1.178   2.795   1.728
 9056SOL    HW128067   1.182   2.748   1.640
 9056SOL    HW228068   1.093   2.848   1.734
 9057SOL     OW28069   4.737   2.815   5.515
 9057SOL    HW128070   4.806   2.762   5.466
 9057SOL    HW228071   4.693   2.879   5.451
 9058SOL     OW28072   1.795   0.654   1.592
 9058SOL    HW128073   1.828   0.583   1.654
 9058SOL    HW228074   1.695   0.657   1.595
 9059SOL     OW28075   1.409   1.975   2.849
 9059SOL    HW128076   1.505   2.001   2.847
 9059SOL    HW228077   1.361   2.017   2.772
 9060SOL     OW28078   6.370   3.125   4.120
 9060SOL    HW128079   6.332   3.216   4.101
 9060SOL    HW228080   6.295   3.059   4.131
 9061SOL     OW28081   2.650   5.591   2.415
 9061SOL    HW128082   2.568   5.534   2.423
 9061SOL    HW228083   2.724   5.551   2.470
 9062SOL     OW28084   1.226   6.492   2.799
 9062SOL    HW128085   1.259   6.541   2.880
 9062SOL    HW228086   1.272   6.403   2.794
 9063SOL     OW28087   3.105   0.428   4.080
 9063SOL    HW128088   3.170   0.478   4.138
 9063SOL    HW228089   3.017   0.420   4.128
 9064SOL     OW28090   6.114   2.426   5.961
 9064SOL    HW128091   6.062   2.355   6.006
 9064SOL    HW228092   6.130   2.502   6.024
 9065SOL     OW28093   4.000   0.641   6.805
 9065SOL    HW128094   4.091   0.602   6.817
 9065SOL    HW228095   3.932   0.578   6.844
 9066SOL     OW28096   5.482   6.441   0.800
 9066SOL    HW128097   5.557   6.403   0.854
 9066SOL    HW228098   5.448   6.523   0.846
 9067SOL     OW28099   1.335   0.716   4.048
 9067SOL    HW128100   1.415   0.659   4.066
 9067SOL    HW228101   1.294   0.744   4.135
 9068SOL     OW28102   1.676   6.500   4.507
 9068SOL    HW128103   1.622   6.578   4.478
 9068SOL    HW228104   1.616   6.422   4.525
 9069SOL     OW28105   1.788   2.663   1.195
 9069SOL    HW128106   1.778   2.699   1.288
 9069SOL    HW228107   1.744   2.574   1.189
 9070SOL     OW28108   1.610   3.515   5.221
 9070SOL    HW128109   1.550   3.477   5.291
 9070SOL    HW228110   1.661   3.592   5.260
 9071SOL     OW28111   6.606   6.418   1.759
 9071SOL    HW128112   6.512   6.430   1.788
 9071SOL    HW228113   6.610   6.353   1.683
 9072SOL     OW28114   0.571   2.140   0.738
 9072SOL    HW128115   0.537   2.183   0.822
 9072SOL    HW228116   0.665   2.109   0.752
 9073SOL     OW28117   2.343   6.830   2.513
 9073SOL    HW128118   2.316   6.828   2.417
 9073SOL    HW228119   2.392   6.915   2.532
 9074SOL     OW28120   1.302   0.421   2.568
 9074SOL    HW128121   1.229   0.414   2.636
 9074SOL    HW228122   1.323   0.331   2.531
 9075SOL     OW28123   0.336   1.608   2.624
 9075SOL    HW128124   0.362   1.563   2.709
 9075SOL    HW228125   0.253   1.662   2.638
 9076SOL     OW28126   6.865   1.299   6.470
 9076SOL    HW128127   6.766   1.287   6.458
 9076SOL    HW228128   6.913   1.227   6.420
 9077SOL     OW28129   4.268   0.115   1.399
 9077SOL    HW128130   4.361   0.087   1.378
 9077SOL    HW228131   4.255   0.118   1.498
 9078SOL     OW28132   3.537   3.694   5.038
 9078SOL    HW128133   3.470   3.724   4.970
 9078SOL    HW228134   3.510   3.728   5.128
 9079SOL     OW28135   2.596   0.706   4.847
 9079SOL    HW128136   2.510   0.678   4.890
 9079SOL    HW228137   2.630   0.790   4.889
 9080SOL     OW28138   4.828   2.747   6.824
 9080SOL    HW128139   4.778   2.720   6.906
 9080SOL    HW228140   4.863   2.665   6.778
 9081SOL     OW28141   4.901   6.762   2.323
 9081SOL    HW128142   4.899   6.824   2.244
 9081SOL    HW228143   4.808   6.754   2.361
 9082SOL     OW28144   1.987   0.405   5.065
 9082SOL    HW128145   2.015   0.438   5.155
 9082SOL    HW228146   1.972   0.483   5.004
 9083SOL     OW28147   4.072   4.847   5.878
 9083SOL    HW128148   4.142   4.901   5.833
 9083SOL    HW228149   4.086   4.848   5.977
 9084SOL     OW28150   3.152   3.954   2.902
 9084SOL    HW128151   3.081   3.931   2.835
 9084SOL    HW228152   3.111   3.964   2.992
 9085SOL     OW28153   2.368   0.184   0.869
 9085SOL    HW128154   2.452   0.222   0.829
 9085SOL    HW228155   2.306   0.259   0.894
 9086SOL     OW28156   0.897   4.162   0.326
 9086SOL    HW128157   0.866   4.185   0.234
 9086SOL    HW228158   0.900   4.062   0.337
 9087SOL     OW28159   4.626   2.992   1.606
 9087SOL    HW128160   4.542   2.938   1.606
 9087SOL    HW228161   4.652   3.013   1.701
 9088SOL     OW28162   6.739   6.999   0.977
 9088SOL    HW128163   6.741   6.959   0.885
 9088SOL    HW228164   6.676   6.947   1.035
 9089SOL     OW28165   5.382   6.627   5.299
 9089SOL    HW128166   5.342   6.569   5.228
 9089SOL    HW228167   5.317   6.699   5.324
 9090SOL     OW28168   5.835   1.183   5.656
 9090SOL    HW128169   5.835   1.124   5.736
 9090SOL    HW228170   5.759   1.158   5.596
 9091SOL     OW28171   2.924   3.547   6.702
 9091SOL    HW128172   2.842   3.513   6.748
 9091SOL    HW228173   2.904   3.636   6.661
 9092SOL     OW28174   6.747   0.733   0.371
 9092SOL    HW128175   6.758   0.819   0.321
 9092SOL    HW228176   6.835   0.687   0.380
 9093SOL     OW28177   1.843   6.150   5.279
 9093SOL    HW128178   1.889   6.121   5.363
 9093SOL    HW228179   1.911   6.181   5.213
 9094SOL     OW28180   6.373   4.448   2.444
 9094SOL    HW128181   6.277   4.474   2.443
 9094SOL    HW228182   6.381   4.349   2.443
 9095SOL     OW28183   4.805   4.533   5.994
 9095SOL    HW128184   4.719   4.489   6.020
 9095SOL    HW228185   4.786   4.608   5.930
 9096SOL     OW28186   6.380   5.470   2.912
 9096SOL    HW128187   6.309   5.440   2.975
 9096SOL    HW228188   6.408   5.563   2.935
 9097SOL     OW28189   2.317   1.896   0.076
 9097SOL    HW128190   2.357   1.929   0.162
 9097SOL    HW228191   2.365   1.814   0.046
 9098SOL     OW28192   2.711   2.039   5.352
 9098SOL    HW128193   2.625   2.022   5.304
 9098SOL    HW228194   2.775   2.084   5.290
 9099SOL     OW28195   2.590   2.917   6.722
 9099SOL    HW128196   2.505   2.873   6.695
 9099SOL    HW228197   2.651   2.923   6.643
 9100SOL     OW28198   0.773   3.545   2.414
 9100SOL    HW128199   0.791   3.623   2.473
 9100SOL    HW228200   0.845   3.477   2.426
 9101SOL     OW28201   2.427   1.371   2.141
 9101SOL    HW128202   2.386   1.376   2.232
 9101SOL    HW228203   2.394   1.447   2.085
 9102SOL     OW28204   3.620   6.375   1.733
 9102SOL    HW128205   3.600   6.284   1.697
 9102SOL    HW228206   3.578   6.445   1.674
 9103SOL     OW28207   5.194   1.595   0.118
 9103SOL    HW128208   5.164   1.510   0.160
 9103SOL    HW228209   5.291   1.587   0.093
 9104SOL     OW28210   6.744   6.293   1.983
 9104SOL    HW128211   6.664   6.353   1.985
 9104SOL    HW228212   6.819   6.339   1.934
 9105SOL     OW28213   1.382   0.170   5.016
 9105SOL    HW128214   1.316   0.113   4.967
 9105SOL    HW228215   1.431   0.229   4.952
 9106SOL     OW28216   0.502   3.363   0.084
 9106SOL    HW128217   0.527   3.423   0.009
 9106SOL    HW228218   0.573   3.368   0.155
 9107SOL     OW28219   1.938   1.225   6.920
 9107SOL    HW128220   1.959   1.149   6.982
 9107SOL    HW228221   1.871   1.195   6.853
 9108SOL     OW28222   4.348   4.113   5.829
 9108SOL    HW128223   4.284   4.039   5.808
 9108SOL    HW228224   4.426   4.076   5.880
 9109SOL     OW28225   5.022   2.802   2.984
 9109SOL    HW128226   5.063   2.715   3.014
 9109SOL    HW228227   5.066   2.877   3.033
 9110SOL     OW28228   1.148   5.503   4.414
 9110SOL    HW128229   1.195   5.544   4.492
 9110SOL    HW228230   1.111   5.575   4.355
 9111SOL     OW28231   4.285   2.922   6.454
 9111SOL    HW128232   4.353   2.990   6.426
 9111SOL    HW228233   4.331   2.840   6.486
 9112SOL     OW28234   1.404   4.958   2.869
 9112SOL    HW128235   1.416   4.996   2.777
 9112SOL    HW228236   1.454   4.872   2.877
 9113SOL     OW28237   5.455   2.307   3.856
 9113SOL    HW128238   5.428   2.366   3.932
 9113SOL    HW228239   5.426   2.348   3.770
 9114SOL     OW28240   0.927   6.055   3.943
 9114SOL    HW128241   0.897   6.046   3.848
 9114SOL    HW228242   0.893   6.142   3.980
 9115SOL     OW28243   6.150   5.438   3.910
 9115SOL    HW128244   6.098   5.523   3.914
 9115SOL    HW228245   6.228   5.449   3.848
 9116SOL     OW28246   0.150   0.310   3.140
 9116SOL    HW128247   0.160   0.351   3.049
 9116SOL    HW228248   0.053   0.305   3.163
 9117SOL     OW28249   4.063   1.917   6.181
 9117SOL    HW128250   4.056   1.817   6.184
 9117SOL    HW228251   3.971   1.956   6.171
 9118SOL     OW28252   6.289   3.778   0.222
 9118SOL    HW128253   6.320   3.861   0.175
 9118SOL    HW228254   6.366   3.716   0.234
 9119SOL     OW28255   4.093   6.685   1.502
 9119SOL    HW128256   4.167   6.619   1.492
 9119SOL    HW228257   4.086   6.740   1.418
 9120SOL     OW28258   6.468   3.057   5.966
 9120SOL    HW128259   6.420   2.995   5.904
 9120SOL    HW228260   6.459   3.151   5.932
 9121SOL     OW28261   4.018   6.896   5.628
 9121SOL    HW128262   4.038   6.991   5.653
 9121SOL    HW228263   3.969   6.852   5.704
 9122SOL     OW28264   2.111   3.933   2.134
 9122SOL    HW128265   2.166   3.932   2.051
 9122SOL    HW228266   2.088   3.840   2.160
 9123SOL     OW28267   1.474   0.777   3.649
 9123SOL    HW128268   1.557   0.764   3.703
 9123SOL    HW228269   1.398   0.728   3.693
 9124SOL     OW28270   3.852   5.389   2.141
 9124SOL    HW128271   3.774   5.332   2.115
 9124SOL    HW228272   3.835   5.483   2.112
 9125SOL     OW28273   3.580   4.918   0.698
 9125SOL    HW128274   3.664   4.891   0.746
 9125SOL    HW228275   3.586   4.892   0.602
 9126SOL     OW28276   4.870   4.286   0.511
 9126SOL    HW128277   4.926   4.221   0.459
 9126SOL    HW228278   4.816   4.236   0.579
 9127SOL     OW28279   6.603   2.711   4.983
 9127SOL    HW128280   6.601   2.698   5.083
 9127SOL    HW228281   6.606   2.809   4.962
 9128SOL     OW28282   6.348   3.127   4.694
 9128SOL    HW128283   6.284   3.083   4.757
 9128SOL    HW228284   6.329   3.097   4.600
 9129SOL     OW28285   1.656   2.441   0.800
 9129SOL    HW128286   1.617   2.425   0.710
 9129SOL    HW228287   1.685   2.354   0.841
 9130SOL     OW28288   0.819   4.094   5.604
 9130SOL    HW128289   0.910   4.092   5.564
 9130SOL    HW228290   0.781   4.001   5.605
 9131SOL     OW28291   5.289   2.805   0.048
 9131SOL    HW128292   5.329   2.718   0.076
 9131SOL    HW228293   5.346   2.880   0.083
 9132SOL     OW28294   1.046   4.553   4.187
 9132SOL    HW128295   1.037   4.565   4.286
 9132SOL    HW228296   1.099   4.471   4.167
 9133SOL     OW28297   2.918   0.299   1.016
 9133SOL    HW128298   2.941   0.389   0.979
 9133SOL    HW228299   2.830   0.270   0.980
 9134SOL     OW28300   4.127   5.427   0.493
 9134SOL    HW128301   4.096   5.500   0.432
 9134SOL    HW228302   4.113   5.455   0.588
 9135SOL     OW28303   1.005   6.178   1.772
 9135SOL    HW128304   1.027   6.086   1.740
 9135SOL    HW228305   1.080   6.240   1.748
 9136SOL     OW28306   4.659   5.117   5.801
 9136SOL    HW128307   4.677   5.070   5.715
 9136SOL    HW228308   4.737   5.105   5.863
 9137SOL     OW28309   4.775   6.407   6.031
 9137SOL    HW128310   4.815   6.421   5.940
 9137SOL    HW228311   4.805   6.318   6.067
 9138SOL     OW28312   2.204   3.068   0.745
 9138SOL    HW128313   2.177   3.161   0.723
 9138SOL    HW228314   2.201   3.011   0.663
 9139SOL     OW28315   0.397   0.932   1.161
 9139SOL    HW128316   0.483   0.927   1.213
 9139SOL    HW228317   0.412   0.892   1.070
 9140SOL     OW28318   0.344   4.472   1.432
 9140SOL    HW128319   0.348   4.535   1.509
 9140SOL    HW228320   0.436   4.456   1.397
 9141SOL     OW28321   0.200   5.646   6.209
 9141SOL    HW128322   0.266   5.711   6.172
 9141SOL    HW228323   0.110   5.662   6.169
 9142SOL     OW28324   0.637   3.147   3.000
 9142SOL    HW128325   0.619   3.071   2.936
 9142SOL    HW228326   0.729   3.182   2.985
 9143SOL     OW28327   0.013   3.560   1.261
 9143SOL    HW128328   6.966   3.570   1.329
 9143SOL    HW228329   0.017   3.642   1.204
 9144SOL     OW28330   3.116   5.198   4.735
 9144SOL    HW128331   3.182   5.202   4.660
 9144SOL    HW228332   3.023   5.201   4.698
 9145SOL     OW28333   1.583   7.010   6.473
 9145SOL    HW128334   1.605   0.082   6.486
 9145SOL    HW228335   1.642   6.973   6.400
 9146SOL     OW28336   6.295   2.992   3.575
 9146SOL    HW128337   6.348   3.033   3.649
 9146SOL    HW228338   6.199   3.016   3.585
 9147SOL     OW28339   5.785   0.030   4.667
 9147SOL    HW128340   5.819   6.991   4.737
 9147SOL    HW228341   5.697   0.067   4.696
 9148SOL     OW28342   6.238   0.503   1.704
 9148SOL    HW128343   6.244   0.572   1.776
 9148SOL    HW228344   6.215   0.546   1.617
 9149SOL     OW28345   5.528   2.842   1.199
 9149SOL    HW128346   5.470   2.894   1.136
 9149SOL    HW228347   5.580   2.905   1.257
 9150SOL     OW28348   2.580   4.256   0.403
 9150SOL    HW128349   2.553   4.329   0.341
 9150SOL    HW228350   2.531   4.172   0.380
 9151SOL     OW28351   2.170   3.640   3.586
 9151SOL    HW128352   2.179   3.657   3.488
 9151SOL    HW228353   2.117   3.715   3.628
 9152SOL     OW28354   1.982   3.601   4.063
 9152SOL    HW128355   2.032   3.581   3.979
 9152SOL    HW228356   1.897   3.549   4.065
 9153SOL     OW28357   0.643   2.749   6.460
 9153SOL    HW128358   0.664   2.844   6.434
 9153SOL    HW228359   0.713   2.714   6.521
 9154SOL     OW28360   5.690   5.287   3.240
 9154SOL    HW128361   5.712   5.288   3.143
 9154SOL    HW228362   5.657   5.377   3.268
 9155SOL     OW28363   1.846   5.300   2.006
 9155SOL    HW128364   1.747   5.314   2.003
 9155SOL    HW228365   1.887   5.345   1.927
 9156SOL     OW28366   6.814   2.774   0.950
 9156SOL    HW128367   6.745   2.762   1.021
 9156SOL    HW228368   6.846   2.684   0.920
 9157SOL     OW28369   3.746   4.211   6.604
 9157SOL    HW128370   3.729   4.214   6.702
 9157SOL    HW228371   3.778   4.300   6.573
 9158SOL     OW28372   6.669   4.201   3.853
 9158SOL    HW128373   6.741   4.176   3.788
 9158SOL    HW228374   6.584   4.153   3.829
 9159SOL     OW28375   2.756   0.433   3.050
 9159SOL    HW128376   2.746   0.499   2.976
 9159SOL    HW228377   2.853   0.419   3.070
 9160SOL     OW28378   0.430   4.828   6.690
 9160SOL    HW128379   0.353   4.786   6.738
 9160SOL    HW228380   0.421   4.928   6.693
 9161SOL     OW28381   5.824   4.265   1.968
 9161SOL    HW128382   5.822   4.174   2.008
 9161SOL    HW228383   5.766   4.326   2.022
 9162SOL     OW28384   4.045   1.732   2.440
 9162SOL    HW128385   4.123   1.708   2.382
 9162SOL    HW228386   4.050   1.829   2.464
 9163SOL     OW28387   0.501   1.923   1.982
 9163SOL    HW128388   0.590   1.911   2.026
 9163SOL    HW228389   0.499   2.010   1.934
 9164SOL     OW28390   2.420   0.238   6.825
 9164SOL    HW128391   2.375   0.250   6.913
 9164SOL    HW228392   2.491   0.168   6.834
 9165SOL     OW28393   4.517   2.482   5.566
 9165SOL    HW128394   4.615   2.499   5.564
 9165SOL    HW228395   4.497   2.394   5.523
 9166SOL     OW28396   4.407   5.732   1.453
 9166SOL    HW128397   4.377   5.825   1.475
 9166SOL    HW228398   4.446   5.731   1.361
 9167SOL     OW28399   0.726   2.067   6.309
 9167SOL    HW128400   0.782   1.988   6.283
 9167SOL    HW228401   0.640   2.065   6.257
 9168SOL     OW28402   6.309   4.889   5.005
 9168SOL    HW128403   6.300   4.911   5.102
 9168SOL    HW228404   6.277   4.795   4.989
 9169SOL     OW28405   6.447   6.346   6.717
 9169SOL    HW128406   6.502   6.377   6.639
 9169SOL    HW228407   6.493   6.270   6.762
 9170SOL     OW28408   1.180   1.969   6.306
 9170SOL    HW128409   1.271   1.943   6.273
 9170SOL    HW228410   1.188   2.008   6.398
 9171SOL     OW28411   2.861   4.719   0.893
 9171SOL    HW128412   2.859   4.688   0.988
 9171SOL    HW228413   2.768   4.721   0.856
 9172SOL     OW28414   4.806   1.380   4.699
 9172SOL    HW128415   4.805   1.310   4.771
 9172SOL    HW228416   4.893   1.430   4.702
 9173SOL     OW28417   6.676   2.620   3.849
 9173SOL    HW128418   6.717   2.628   3.758
 9173SOL    HW228419   6.598   2.682   3.857
 9174SOL     OW28420   0.770   6.041   0.171
 9174SOL    HW128421   0.848   6.103   0.168
 9174SOL    HW228422   0.718   6.048   0.086
 9175SOL     OW28423   1.839   6.811   0.025
 9175SOL    HW128424   1.745   6.778   0.022
 9175SOL    HW228425   1.838   6.910   0.042
 9176SOL     OW28426   2.025   1.066   2.914
 9176SOL    HW128427   2.010   1.007   2.994
 9176SOL    HW228428   2.047   1.009   2.835
 9177SOL     OW28429   0.829   3.775   3.508
 9177SOL    HW128430   0.835   3.864   3.463
 9177SOL    HW228431   0.892   3.773   3.585
 9178SOL     OW28432   2.626   6.233   6.702
 9178SOL    HW128433   2.557   6.290   6.658
 9178SOL    HW228434   2.635   6.260   6.798
 9179SOL     OW28435   3.800   6.294   5.520
 9179SOL    HW128436   3.826   6.327   5.429
 9179SOL    HW228437   3.717   6.340   5.550
 9180SOL     OW28438   6.852   1.816   4.389
 9180SOL    HW128439   6.844   1.815   4.289
 9180SOL    HW228440   6.760   1.818   4.429
 9181SOL     OW28441   4.340   1.991   3.664
 9181SOL    HW128442   4.336   1.907   3.610
 9181SOL    HW228443   4.252   2.039   3.656
 9182SOL     OW28444   1.695   0.997   3.030
 9182SOL    HW128445   1.597   0.978   3.039
 9182SOL    HW228446   1.711   1.063   2.957
 9183SOL     OW28447   5.124   2.547   6.952
 9183SOL    HW128448   5.211   2.589   6.976
 9183SOL    HW228449   5.068   2.536   0.009
 9184SOL     OW28450   3.441   3.231   0.810
 9184SOL    HW128451   3.470   3.152   0.865
 9184SOL    HW228452   3.500   3.309   0.831
 9185SOL     OW28453   0.542   0.451   6.758
 9185SOL    HW128454   0.486   0.407   6.829
 9185SOL    HW228455   0.609   0.385   6.724
 9186SOL     OW28456   5.032   0.103   6.033
 9186SOL    HW128457   5.084   0.185   6.059
 9186SOL    HW228458   4.939   0.130   6.008
 9187SOL     OW28459   4.900   1.959   6.757
 9187SOL    HW128460   4.901   1.865   6.793
 9187SOL    HW228461   4.963   1.965   6.680
 9188SOL     OW28462   1.118   0.304   1.159
 9188SOL    HW128463   1.204   0.262   1.131
 9188SOL    HW228464   1.089   0.266   1.246
 9189SOL     OW28465   2.917   1.332   3.164
 9189SOL    HW128466   2.832   1.385   3.157
 9189SOL    HW228467   2.902   1.255   3.226
 9190SOL     OW28468   5.878   3.448   5.212
 9190SOL    HW128469   5.860   3.358   5.173
 9190SOL    HW228470   5.824   3.460   5.295
 9191SOL     OW28471   5.564   6.573   6.711
 9191SOL    HW128472   5.592   6.651   6.765
 9191SOL    HW228473   5.528   6.604   6.623
 9192SOL     OW28474   6.960   4.377   5.931
 9192SOL    HW128475   0.003   4.424   5.989
 9192SOL    HW228476   7.004   4.301   5.884
 9193SOL     OW28477   3.518   3.403   4.099
 9193SOL    HW128478   3.547   3.354   4.017
 9193SOL    HW228479   3.419   3.395   4.110
 9194SOL     OW28480   3.315   5.847   2.519
 9194SOL    HW128481   3.397   5.891   2.483
 9194SOL    HW228482   3.234   5.897   2.488
 9195SOL     OW28483   0.422   3.216   3.451
 9195SOL    HW128484   0.439   3.282   3.525
 9195SOL    HW228485   0.508   3.171   3.426
 9196SOL     OW28486   3.067   0.789   3.756
 9196SOL    HW128487   3.140   0.849   3.723
 9196SOL    HW228488   3.076   0.699   3.714
 9197SOL     OW28489   2.689   3.468   6.872
 9197SOL    HW128490   2.622   3.478   6.797
 9197SOL    HW228491   2.668   3.385   6.924
 9198SOL     OW28492   5.431   4.019   5.604
 9198SOL    HW128493   5.510   4.022   5.543
 9198SOL    HW228494   5.348   4.008   5.550
 9199SOL     OW28495   1.323   3.651   6.068
 9199SOL    HW128496   1.324   3.553   6.048
 9199SOL    HW228497   1.293   3.701   5.987
 9200SOL     OW28498   0.251   6.768   0.878
 9200SOL    HW128499   0.226   6.858   0.842
 9200SOL    HW228500   0.212   6.697   0.821
 9201SOL     OW28501   0.082   4.238   1.658
 9201SOL    HW128502   0.107   4.238   1.561
 9201SOL    HW228503   0.061   4.145   1.687
 9202SOL     OW28504   2.081   4.983   4.229
 9202SOL    HW128505   2.004   5.007   4.171
 9202SOL    HW228506   2.047   4.932   4.309
 9203SOL     OW28507   5.299   1.322   6.487
 9203SOL    HW128508   5.284   1.419   6.469
 9203SOL    HW228509   5.385   1.293   6.444
 9204SOL     OW28510   5.808   3.997   3.243
 9204SOL    HW128511   5.726   4.024   3.193
 9204SOL    HW228512   5.876   4.070   3.240
 9205SOL     OW28513   5.750   3.160   2.722
 9205SOL    HW128514   5.838   3.156   2.769
 9205SOL    HW228515   5.691   3.226   2.768
 9206SOL     OW28516   2.413   6.153   3.749
 9206SOL    HW128517   2.360   6.140   3.665
 9206SOL    HW228518   2.387   6.083   3.816
 9207SOL     OW28519   4.339   6.338   6.219
 9207SOL    HW128520   4.300   6.420   6.177
 9207SOL    HW228521   4.333   6.345   6.318
 9208SOL     OW28522   4.902   3.523   2.381
 9208SOL    HW128523   4.866   3.469   2.304
 9208SOL    HW228524   4.874   3.480   2.467
 9209SOL     OW28525   4.141   1.258   2.846
 9209SOL    HW128526   4.093   1.213   2.772
 9209SOL    HW228527   4.166   1.191   2.916
 9210SOL     OW28528   2.132   6.789   1.578
 9210SOL    HW128529   2.140   6.689   1.573
 9210SOL    HW228530   2.079   6.821   1.499
 9211SOL     OW28531   5.184   1.793   6.119
 9211SOL    HW128532   5.148   1.720   6.177
 9211SOL    HW228533   5.279   1.773   6.095
 9212SOL     OW28534   4.694   4.503   4.410
 9212SOL    HW128535   4.670   4.481   4.316
 9212SOL    HW228536   4.617   4.549   4.454
 9213SOL     OW28537   5.671   0.371   4.363
 9213SOL    HW128538   5.746   0.306   4.350
 9213SOL    HW228539   5.631   0.393   4.275
 9214SOL     OW28540   1.990   2.686   4.539
 9214SOL    HW128541   2.027   2.741   4.464
 9214SOL    HW228542   1.983   2.742   4.621
 9215SOL     OW28543   0.360   3.371   2.874
 9215SOL    HW128544   0.350   3.457   2.824
 9215SOL    HW228545   0.418   3.386   2.955
 9216SOL     OW28546   2.648   5.965   5.042
 9216SOL    HW128547   2.734   5.917   5.028
 9216SOL    HW228548   2.663   6.063   5.031
 9217SOL     OW28549   5.282   1.395   6.169
 9217SOL    HW128550   5.234   1.471   6.212
 9217SOL    HW228551   5.218   1.320   6.150
 9218SOL     OW28552   5.925   6.559   6.772
 9218SOL    HW128553   6.020   6.578   6.747
 9218SOL    HW228554   5.918   6.549   6.872
 9219SOL     OW28555   3.406   2.752   5.367
 9219SOL    HW128556   3.505   2.768   5.372
 9219SOL    HW228557   3.379   2.741   5.271
 9220SOL     OW28558   2.005   6.314   3.095
 9220SOL    HW128559   2.001   6.255   3.015
 9220SOL    HW228560   1.915   6.354   3.112
 9221SOL     OW28561   2.786   0.553   6.272
 9221SOL    HW128562   2.759   0.530   6.366
 9221SOL    HW228563   2.704   0.572   6.218
 9222SOL     OW28564   1.945   4.532   3.738
 9222SOL    HW128565   1.993   4.461   3.686
 9222SOL    HW228566   2.009   4.575   3.801
 9223SOL     OW28567   1.797   3.954   4.671
 9223SOL    HW128568   1.846   4.038   4.695
 9223SOL    HW228569   1.825   3.923   4.581
 9224SOL     OW28570   1.728   4.318   3.771
 9224SOL    HW128571   1.664   4.318   3.848
 9224SOL    HW228572   1.710   4.398   3.713
 9225SOL     OW28573   3.979   6.604   6.246
 9225SOL    HW128574   4.005   6.681   6.189
 9225SOL    HW228575   3.890   6.569   6.218
 9226SOL     OW28576   1.398   6.503   0.687
 9226SOL    HW128577   1.386   6.412   0.648
 9226SOL    HW228578   1.402   6.571   0.614
 9227SOL     OW28579   2.232   5.104   0.738
 9227SOL    HW128580   2.319   5.120   0.691
 9227SOL    HW228581   2.248   5.096   0.836
 9228SOL     OW28582   1.928   2.514   5.640
 9228SOL    HW128583   1.835   2.516   5.602
 9228SOL    HW228584   1.990   2.562   5.577
 9229SOL     OW28585   0.484   4.266   0.188
 9229SOL    HW128586   0.439   4.176   0.186
 9229SOL    HW228587   0.506   4.294   0.095
 9230SOL     OW28588   4.998   2.522   4.168
 9230SOL    HW128589   4.923   2.578   4.131
 9230SOL    HW228590   5.012   2.545   4.264
 9231SOL     OW28591   0.937   5.272   5.673
 9231SOL    HW128592   0.908   5.368   5.682
 9231SOL    HW228593   0.993   5.262   5.591
 9232SOL     OW28594   1.835   5.400   1.716
 9232SOL    HW128595   1.923   5.436   1.744
 9232SOL    HW228596   1.762   5.459   1.749
 9233SOL     OW28597   0.897   6.634   0.862
 9233SOL    HW128598   0.845   6.548   0.855
 9233SOL    HW228599   0.855   6.703   0.803
 9234SOL     OW28600   2.420   4.971   1.336
 9234SOL    HW128601   2.365   5.047   1.301
 9234SOL    HW228602   2.375   4.885   1.313
 9235SOL     OW28603   2.507   2.349   3.185
 9235SOL    HW128604   2.583   2.297   3.148
 9235SOL    HW228605   2.531   2.386   3.275
 9236SOL     OW28606   1.989   3.449   6.640
 9236SOL    HW128607   2.023   3.406   6.556
 9236SOL    HW228608   2.005   3.548   6.635
 9237SOL     OW28609   6.159   5.596   3.357
 9237SOL    HW128610   6.198   5.687   3.373
 9237SOL    HW228611   6.224   5.527   3.389
 9238SOL     OW28612   1.808   3.385   5.065
 9238SOL    HW128613   1.850   3.466   5.025
 9238SOL    HW228614   1.723   3.411   5.112
 9239SOL     OW28615   0.227   4.686   0.096
 9239SOL    HW128616   0.246   4.669   7.024
 9239SOL    HW228617   0.192   4.602   0.138
 9240SOL     OW28618   4.928   3.129   3.224
 9240SOL    HW128619   4.991   3.084   3.160
 9240SOL    HW228620   4.950   3.226   3.230
 9241SOL     OW28621   7.010   6.327   0.424
 9241SOL    HW128622   6.936   6.268   0.455
 9241SOL    HW228623   0.047   6.275   0.364
 9242SOL     OW28624   1.701   2.373   1.993
 9242SOL    HW128625   1.701   2.463   1.949
 9242SOL    HW228626   1.628   2.369   2.061
 9243SOL     OW28627   0.330   0.124   1.783
 9243SOL    HW128628   0.419   0.115   1.829
 9243SOL    HW228629   0.343   0.118   1.684
 9244SOL     OW28630   3.676   6.419   5.134
 9244SOL    HW128631   3.701   6.506   5.092
 9244SOL    HW228632   3.634   6.359   5.066
 9245SOL     OW28633   0.998   4.030   2.979
 9245SOL    HW128634   0.966   3.936   2.969
 9245SOL    HW228635   1.096   4.034   2.958
 9246SOL     OW28636   6.259   0.132   4.306
 9246SOL    HW128637   6.201   0.209   4.279
 9246SOL    HW228638   6.209   0.046   4.294
 9247SOL     OW28639   3.760   5.660   2.925
 9247SOL    HW128640   3.759   5.660   2.825
 9247SOL    HW228641   3.831   5.722   2.958
 9248SOL     OW28642   2.947   1.637   4.937
 9248SOL    HW128643   2.884   1.711   4.959
 9248SOL    HW228644   3.041   1.669   4.948
 9249SOL     OW28645   3.916   4.593   1.725
 9249SOL    HW128646   3.822   4.622   1.744
 9249SOL    HW228647   3.980   4.650   1.776
 9250SOL     OW28648   6.627   4.410   4.466
 9250SOL    HW128649   6.567   4.331   4.479
 9250SOL    HW228650   6.609   4.477   4.538
 9251SOL     OW28651   4.253   2.857   1.066
 9251SOL    HW128652   4.217   2.895   0.981
 9251SOL    HW228653   4.252   2.758   1.061
 9252SOL     OW28654   4.168   0.370   4.953
 9252SOL    HW128655   4.164   0.454   5.007
 9252SOL    HW228656   4.121   0.297   5.001
 9253SOL     OW28657   0.260   4.698   5.307
 9253SOL    HW128658   0.333   4.690   5.239
 9253SOL    HW228659   0.180   4.646   5.277
 9254SOL     OW28660   5.850   4.565   2.591
 9254SOL    HW128661   5.860   4.657   2.628
 9254SOL    HW228662   5.755   4.551   2.562
 9255SOL     OW28663   6.648   3.748   6.758
 9255SOL    HW128664   6.554   3.729   6.728
 9255SOL    HW228665   6.653   3.743   6.858
 9256SOL     OW28666   1.770   6.724   1.695
 9256SOL    HW128667   1.678   6.710   1.733
 9256SOL    HW228668   1.764   6.775   1.610
 9257SOL     OW28669   6.564   5.620   3.513
 9257SOL    HW128670   6.516   5.660   3.592
 9257SOL    HW228671   6.515   5.643   3.429
 9258SOL     OW28672   3.430   3.423   0.174
 9258SOL    HW128673   3.482   3.500   0.211
 9258SOL    HW228674   3.481   3.382   0.098
 9259SOL     OW28675   1.717   1.629   6.344
 9259SOL    HW128676   1.732   1.531   6.334
 9259SOL    HW228677   1.781   1.666   6.411
 9260SOL     OW28678   6.008   3.266   5.757
 9260SOL    HW128679   6.084   3.219   5.712
 9260SOL    HW228680   6.036   3.296   5.848
 9261SOL     OW28681   4.317   1.339   1.150
 9261SOL    HW128682   4.246   1.357   1.082
 9261SOL    HW228683   4.351   1.425   1.187
 9262SOL     OW28684   6.951   6.791   4.926
 9262SOL    HW128685   0.016   6.835   4.920
 9262SOL    HW228686   6.895   6.817   4.848
 9263SOL     OW28687   2.891   5.114   2.783
 9263SOL    HW128688   2.808   5.136   2.733
 9263SOL    HW228689   2.970   5.158   2.739
 9264SOL     OW28690   5.494   3.344   6.480
 9264SOL    HW128691   5.457   3.402   6.408
 9264SOL    HW228692   5.535   3.262   6.440
 9265SOL     OW28693   4.179   2.084   6.369
 9265SOL    HW128694   4.224   2.173   6.358
 9265SOL    HW228695   4.152   2.049   6.280
 9266SOL     OW28696   0.273   5.057   1.731
 9266SOL    HW128697   0.260   5.154   1.753
 9266SOL    HW228698   0.214   5.002   1.790
 9267SOL     OW28699   0.502   1.401   3.843
 9267SOL    HW128700   0.498   1.466   3.767
 9267SOL    HW228701   0.426   1.418   3.905
 9268SOL     OW28702   0.590   6.597   1.784
 9268SOL    HW128703   0.510   6.604   1.844
 9268SOL    HW228704   0.563   6.615   1.690
 9269SOL     OW28705   5.221   0.267   0.092
 9269SOL    HW128706   5.186   0.232   0.005
 9269SOL    HW228707   5.281   0.346   0.074
 9270SOL     OW28708   3.409   1.213   6.102
 9270SOL    HW128709   3.399   1.130   6.047
 9270SOL    HW228710   3.465   1.279   6.052
 9271SOL     OW28711   1.410   0.494   6.827
 9271SOL    HW128712   1.402   0.526   6.921
 9271SOL    HW228713   1.343   0.540   6.769
 9272SOL     OW28714   6.583   6.608   6.040
 9272SOL    HW128715   6.487   6.628   6.059
 9272SOL    HW228716   6.641   6.682   6.075
 9273SOL     OW28717   5.451   5.866   3.703
 9273SOL    HW128718   5.469   5.768   3.715
 9273SOL    HW228719   5.526   5.919   3.741
 9274SOL     OW28720   0.453   3.057   0.287
 9274SOL    HW128721   0.423   3.095   0.199
 9274SOL    HW228722   0.380   3.068   0.354
 9275SOL     OW28723   1.090   6.585   1.054
 9275SOL    HW128724   1.017   6.563   0.990
 9275SOL    HW228725   1.063   6.559   1.147
 9276SOL     OW28726   3.456   4.628   0.238
 9276SOL    HW128727   3.370   4.580   0.257
 9276SOL    HW228728   3.454   4.664   0.145
 9277SOL     OW28729   4.607   4.934   2.690
 9277SOL    HW128730   4.639   4.844   2.659
 9277SOL    HW228731   4.552   4.976   2.618
 9278SOL     OW28732   0.265   0.565   4.472
 9278SOL    HW128733   0.213   0.636   4.424
 9278SOL    HW228734   0.221   0.477   4.459
 9279SOL     OW28735   3.560   5.677   1.634
 9279SOL    HW128736   3.655   5.649   1.623
 9279SOL    HW228737   3.500   5.606   1.598
 9280SOL     OW28738   1.178   1.466   2.788
 9280SOL    HW128739   1.144   1.554   2.754
 9280SOL    HW228740   1.262   1.480   2.840
 9281SOL     OW28741   3.612   3.753   6.144
 9281SOL    HW128742   3.577   3.709   6.061
 9281SOL    HW228743   3.712   3.751   6.143
 9282SOL     OW28744   3.346   0.213   4.503
 9282SOL    HW128745   3.248   0.230   4.501
 9282SOL    HW228746   3.395   0.297   4.482
 9283SOL     OW28747   5.690   0.113   6.422
 9283SOL    HW128748   5.696   0.031   6.365
 9283SOL    HW228749   5.603   0.159   6.404
 9284SOL     OW28750   3.415   3.764   5.317
 9284SOL    HW128751   3.340   3.760   5.252
 9284SOL    HW228752   3.384   3.728   5.406
 9285SOL     OW28753   5.664   3.038   2.242
 9285SOL    HW128754   5.635   3.131   2.220
 9285SOL    HW228755   5.594   2.973   2.212
 9286SOL     OW28756   5.256   6.276   0.694
 9286SOL    HW128757   5.307   6.192   0.678
 9286SOL    HW228758   5.296   6.351   0.640
 9287SOL     OW28759   2.503   4.481   5.923
 9287SOL    HW128760   2.497   4.384   5.904
 9287SOL    HW228761   2.509   4.495   6.022
 9288SOL     OW28762   4.456   2.420   4.377
 9288SOL    HW128763   4.398   2.448   4.301
 9288SOL    HW228764   4.406   2.431   4.463
 9289SOL     OW28765   4.553   6.871   5.948
 9289SOL    HW128766   4.564   6.923   6.032
 9289SOL    HW228767   4.573   6.774   5.966
 9290SOL     OW28768   5.225   0.646   5.088
 9290SOL    HW128769   5.209   0.588   5.008
 9290SOL    HW228770   5.191   0.600   5.170
 9291SOL     OW28771   1.249   6.304   5.311
 9291SOL    HW128772   1.181   6.351   5.368
 9291SOL    HW228773   1.217   6.211   5.292
 9292SOL     OW28774   1.267   1.428   5.674
 9292SOL    HW128775   1.313   1.360   5.618
 9292SOL    HW228776   1.303   1.424   5.768
 9293SOL     OW28777   4.707   2.833   5.803
 9293SOL    HW128778   4.762   2.916   5.814
 9293SOL    HW228779   4.715   2.801   5.708
 9294SOL     OW28780   4.906   0.876   0.653
 9294SOL    HW128781   4.826   0.824   0.682
 9294SOL    HW228782   4.977   0.871   0.724
 9295SOL     OW28783   0.483   0.702   5.390
 9295SOL    HW128784   0.490   0.788   5.338
 9295SOL    HW228785   0.520   0.715   5.482
 9296SOL     OW28786   2.947   3.862   0.978
 9296SOL    HW128787   3.026   3.818   0.935
 9296SOL    HW228788   2.903   3.924   0.912
 9297SOL     OW28789   0.028   5.526   3.512
 9297SOL    HW128790   0.089   5.594   3.471
 9297SOL    HW228791   6.958   5.544   3.483
 9298SOL     OW28792   1.298   6.618   5.977
 9298SOL    HW128793   1.273   6.524   6.002
 9298SOL    HW228794   1.368   6.651   6.039
 9299SOL     OW28795   1.682   2.091   3.706
 9299SOL    HW128796   1.624   2.117   3.783
 9299SOL    HW228797   1.772   2.133   3.716
 9300SOL     OW28798   1.649   6.268   5.128
 9300SOL    HW128799   1.620   6.354   5.168
 9300SOL    HW228800   1.726   6.230   5.180
 9301SOL     OW28801   0.502   3.922   4.414
 9301SOL    HW128802   0.516   3.839   4.360
 9301SOL    HW228803   0.452   3.900   4.498
 9302SOL     OW28804   2.287   2.853   4.864
 9302SOL    HW128805   2.333   2.898   4.941
 9302SOL    HW228806   2.341   2.774   4.835
 9303SOL     OW28807   3.139   4.070   6.972
 9303SOL    HW128808   3.088   4.032   0.025
 9303SOL    HW228809   3.180   3.996   6.920
 9304SOL     OW28810   4.827   4.846   0.655
 9304SOL    HW128811   4.729   4.830   0.669
 9304SOL    HW228812   4.873   4.758   0.641
 9305SOL     OW28813   2.537   1.527   0.676
 9305SOL    HW128814   2.517   1.614   0.721
 9305SOL    HW228815   2.583   1.466   0.741
 9306SOL     OW28816   0.025   4.127   4.440
 9306SOL    HW128817   0.086   4.076   4.501
 9306SOL    HW228818   0.077   4.201   4.397
 9307SOL     OW28819   2.167   3.622   0.469
 9307SOL    HW128820   2.095   3.586   0.410
 9307SOL    HW228821   2.232   3.549   0.491
 9308SOL     OW28822   1.633   4.377   1.373
 9308SOL    HW128823   1.602   4.352   1.465
 9308SOL    HW228824   1.716   4.433   1.380
 9309SOL     OW28825   5.179   5.773   5.675
 9309SOL    HW128826   5.234   5.856   5.667
 9309SOL    HW228827   5.123   5.761   5.592
 9310SOL     OW28828   4.463   5.858   5.820
 9310SOL    HW128829   4.508   5.817   5.741
 9310SOL    HW228830   4.425   5.786   5.878
 9311SOL     OW28831   4.569   3.624   1.383
 9311SOL    HW128832   4.484   3.673   1.403
 9311SOL    HW228833   4.575   3.542   1.440
 9312SOL     OW28834   1.494   2.131   0.793
 9312SOL    HW128835   1.483   2.051   0.733
 9312SOL    HW228836   1.433   2.123   0.871
 9313SOL     OW28837   1.499   0.525   1.629
 9313SOL    HW128838   1.422   0.589   1.625
 9313SOL    HW228839   1.504   0.485   1.720
 9314SOL     OW28840   5.152   2.801   1.050
 9314SOL    HW128841   5.160   2.785   0.952
 9314SOL    HW228842   5.217   2.742   1.098
 9315SOL     OW28843   5.734   0.933   6.714
 9315SOL    HW128844   5.688   0.885   6.639
 9315SOL    HW228845   5.669   0.995   6.759
 9316SOL     OW28846   5.466   0.353   5.858
 9316SOL    HW128847   5.414   0.271   5.837
 9316SOL    HW228848   5.560   0.343   5.824
 9317SOL     OW28849   3.178   5.372   3.899
 9317SOL    HW128850   3.080   5.390   3.889
 9317SOL    HW228851   3.192   5.291   3.955
 9318SOL     OW28852   5.367   5.967   0.368
 9318SOL    HW128853   5.272   5.961   0.399
 9318SOL    HW228854   5.374   6.038   0.298
 9319SOL     OW28855   2.856   4.079   1.109
 9319SOL    HW128856   2.869   3.991   1.062
 9319SOL    HW228857   2.871   4.068   1.207
 9320SOL     OW28858   5.498   0.421   6.128
 9320SOL    HW128859   5.458   0.373   6.050
 9320SOL    HW228860   5.597   0.407   6.128
 9321SOL     OW28861   0.066   2.710   5.577
 9321SOL    HW128862   0.111   2.690   5.664
 9321SOL    HW228863   0.023   2.800   5.581
 9322SOL     OW28864   6.463   4.539   5.521
 9322SOL    HW128865   6.504   4.466   5.467
 9322SOL    HW228866   6.535   4.603   5.551
 9323SOL     OW28867   1.494   3.413   3.628
 9323SOL    HW128868   1.414   3.356   3.610
 9323SOL    HW228869   1.468   3.492   3.682
 9324SOL     OW28870   1.069   3.678   0.869
 9324SOL    HW128871   1.168   3.669   0.872
 9324SOL    HW228872   1.026   3.589   0.881
 9325SOL     OW28873   2.281   5.369   1.756
 9325SOL    HW128874   2.381   5.364   1.763
 9325SOL    HW228875   2.247   5.287   1.710
 9326SOL     OW28876   4.046   4.232   0.342
 9326SOL    HW128877   4.023   4.291   0.265
 9326SOL    HW228878   4.027   4.137   0.318
 9327SOL     OW28879   4.566   0.402   3.354
 9327SOL    HW128880   4.478   0.381   3.310
 9327SOL    HW228881   4.566   0.365   3.447
 9328SOL     OW28882   3.120   6.795   4.997
 9328SOL    HW128883   3.153   6.708   4.961
 9328SOL    HW228884   3.046   6.829   4.940
 9329SOL     OW28885   0.193   5.936   6.232
 9329SOL    HW128886   0.278   5.985   6.251
 9329SOL    HW228887   0.160   5.893   6.316
 9330SOL     OW28888   6.967   0.299   6.802
 9330SOL    HW128889   7.002   0.313   6.709
 9330SOL    HW228890   0.000   0.349   6.867
 9331SOL     OW28891   1.371   3.289   4.914
 9331SOL    HW128892   1.273   3.270   4.903
 9331SOL    HW228893   1.384   3.385   4.936
 9332SOL     OW28894   3.928   5.799   0.689
 9332SOL    HW128895   3.936   5.806   0.789
 9332SOL    HW228896   3.894   5.886   0.653
 9333SOL     OW28897   3.516   5.151   0.403
 9333SOL    HW128898   3.536   5.249   0.397
 9333SOL    HW228899   3.498   5.127   0.499
 9334SOL     OW28900   4.809   6.273   4.312
 9334SOL    HW128901   4.725   6.229   4.343
 9334SOL    HW228902   4.875   6.274   4.387
 9335SOL     OW28903   2.218   2.056   1.121
 9335SOL    HW128904   2.214   1.979   1.058
 9335SOL    HW228905   2.202   2.141   1.072
 9336SOL     OW28906   6.205   1.068   5.360
 9336SOL    HW128907   6.222   1.084   5.263
 9336SOL    HW228908   6.139   1.136   5.394
 9337SOL     OW28909   4.269   6.805   6.660
 9337SOL    HW128910   4.248   6.769   6.570
 9337SOL    HW228911   4.240   6.900   6.666
 9338SOL     OW28912   0.025   6.508   0.622
 9338SOL    HW128913   0.055   6.603   0.626
 9338SOL    HW228914   0.051   6.469   0.533
 9339SOL     OW28915   5.436   4.975   6.775
 9339SOL    HW128916   5.516   5.034   6.785
 9339SOL    HW228917   5.365   5.023   6.723
 9340SOL     OW28918   3.603   6.058   2.546
 9340SOL    HW128919   3.569   6.152   2.541
 9340SOL    HW228920   3.636   6.030   2.455
 9341SOL     OW28921   5.813   4.619   6.535
 9341SOL    HW128922   5.777   4.610   6.442
 9341SOL    HW228923   5.741   4.595   6.601
 9342SOL     OW28924   3.034   0.248   4.571
 9342SOL    HW128925   3.007   0.345   4.577
 9342SOL    HW228926   2.988   0.206   4.493
 9343SOL     OW28927   4.665   4.253   1.692
 9343SOL    HW128928   4.591   4.224   1.752
 9343SOL    HW228929   4.637   4.243   1.596
 9344SOL     OW28930   5.661   4.878   6.115
 9344SOL    HW128931   5.639   4.975   6.105
 9344SOL    HW228932   5.728   4.866   6.189
 9345SOL     OW28933   6.628   5.998   0.087
 9345SOL    HW128934   6.724   6.025   0.094
 9345SOL    HW228935   6.572   6.057   0.146
 9346SOL     OW28936   5.131   6.462   2.721
 9346SOL    HW128937   5.123   6.370   2.682
 9346SOL    HW228938   5.097   6.529   2.655
 9347SOL     OW28939   3.731   5.806   1.354
 9347SOL    HW128940   3.699   5.810   1.449
 9347SOL    HW228941   3.741   5.710   1.327
 9348SOL     OW28942   2.429   6.447   3.080
 9348SOL    HW128943   2.519   6.492   3.073
 9348SOL    HW228944   2.368   6.485   3.011
 9349SOL     OW28945   6.411   5.864   2.428
 9349SOL    HW128946   6.364   5.783   2.462
 9349SOL    HW228947   6.476   5.838   2.357
 9350SOL     OW28948   6.972   1.575   4.774
 9350SOL    HW128949   7.008   1.585   4.682
 9350SOL    HW228950   0.019   1.596   4.840
 9351SOL     OW28951   2.240   1.501   5.483
 9351SOL    HW128952   2.332   1.490   5.445
 9351SOL    HW228953   2.242   1.570   5.555
 9352SOL     OW28954   1.473   2.473   5.336
 9352SOL    HW128955   1.378   2.469   5.367
 9352SOL    HW228956   1.501   2.568   5.323
 9353SOL     OW28957   1.565   4.113   1.818
 9353SOL    HW128958   1.625   4.128   1.896
 9353SOL    HW228959   1.470   4.107   1.850
 9354SOL     OW28960   6.373   1.921   1.135
 9354SOL    HW128961   6.302   1.990   1.127
 9354SOL    HW228962   6.346   1.839   1.085
 9355SOL     OW28963   6.292   1.045   4.822
 9355SOL    HW128964   6.376   1.018   4.775
 9355SOL    HW228965   6.224   1.074   4.754
 9356SOL     OW28966   4.439   4.972   2.122
 9356SOL    HW128967   4.496   5.053   2.136
 9356SOL    HW228968   4.343   4.999   2.117
 9357SOL     OW28969   2.607   3.433   0.355
 9357SOL    HW128970   2.550   3.433   0.273
 9357SOL    HW228971   2.701   3.410   0.330
 9358SOL     OW28972   6.119   3.933   2.119
 9358SOL    HW128973   6.122   3.853   2.179
 9358SOL    HW228974   6.049   3.997   2.152
 9359SOL     OW28975   0.032   3.826   5.870
 9359SOL    HW128976   7.021   3.858   5.958
 9359SOL    HW228977   0.121   3.868   5.854
 9360SOL     OW28978   1.659   0.291   5.606
 9360SOL    HW128979   1.622   0.349   5.533
 9360SOL    HW228980   1.687   0.203   5.567
 9361SOL     OW28981   3.078   6.580   3.008
 9361SOL    HW128982   3.042   6.492   3.040
 9361SOL    HW228983   3.049   6.595   2.913
 9362SOL     OW28984   1.952   0.990   2.033
 9362SOL    HW128985   1.973   0.992   1.936
 9362SOL    HW228986   2.007   0.918   2.077
 9363SOL     OW28987   3.826   5.569   1.907
 9363SOL    HW128988   3.730   5.567   1.934
 9363SOL    HW228989   3.854   5.478   1.875
 9364SOL     OW28990   3.987   2.725   6.250
 9364SOL    HW128991   4.032   2.685   6.330
 9364SOL    HW228992   4.035   2.695   6.167
 9365SOL     OW28993   2.880   2.288   5.285
 9365SOL    HW128994   2.787   2.310   5.254
 9365SOL    HW228995   2.923   2.227   5.219
 9366SOL     OW28996   3.221   1.660   6.954
 9366SOL    HW128997   3.309   1.633   6.915
 9366SOL    HW228998   3.149   1.646   6.885
 9367SOL     OW28999   0.603   5.817   4.084
 9367SOL    HW129000   0.559   5.732   4.113
 9367SOL    HW229001   0.536   5.874   4.035
 9368SOL     OW29002   3.629   2.132   2.539
 9368SOL    HW129003   3.600   2.131   2.443
 9368SOL    HW229004   3.687   2.212   2.555
 9369SOL     OW29005   6.728   1.638   6.086
 9369SOL    HW129006   6.780   1.604   6.164
 9369SOL    HW229007   6.723   1.568   6.015
 9370SOL     OW29008   5.598   1.034   3.128
 9370SOL    HW129009   5.630   0.985   3.048
 9370SOL    HW229010   5.498   1.028   3.133
 9371SOL     OW29011   1.653   5.494   6.986
 9371SOL    HW129012   1.579   5.512   6.922
 9371SOL    HW229013   1.709   5.419   6.952
 9372SOL     OW29014   5.720   6.701   3.170
 9372SOL    HW129015   5.792   6.700   3.100
 9372SOL    HW229016   5.637   6.741   3.132
 9373SOL     OW29017   4.394   2.091   3.005
 9373SOL    HW129018   4.440   2.018   3.056
 9373SOL    HW229019   4.386   2.065   2.909
 9374SOL     OW29020   5.732   2.559   6.926
 9374SOL    HW129021   5.820   2.549   6.879
 9374SOL    HW229022   5.691   2.647   6.902
 9375SOL     OW29023   6.738   1.432   3.461
 9375SOL    HW129024   6.662   1.408   3.521
 9375SOL    HW229025   6.791   1.505   3.503
 9376SOL     OW29026   3.000   4.063   0.741
 9376SOL    HW129027   3.014   4.160   0.759
 9376SOL    HW229028   2.966   4.051   0.648
 9377SOL     OW29029   0.398   5.184   3.856
 9377SOL    HW129030   0.306   5.164   3.823
 9377SOL    HW229031   0.458   5.202   3.778
 9378SOL     OW29032   1.952   0.390   5.578
 9378SOL    HW129033   2.040   0.360   5.540
 9378SOL    HW229034   1.878   0.337   5.538
 9379SOL     OW29035   4.702   4.738   4.758
 9379SOL    HW129036   4.797   4.712   4.777
 9379SOL    HW229037   4.644   4.657   4.765
 9380SOL     OW29038   6.119   5.979   5.159
 9380SOL    HW129039   6.176   5.984   5.077
 9380SOL    HW229040   6.169   5.931   5.231
 9381SOL     OW29041   2.832   3.149   5.630
 9381SOL    HW129042   2.786   3.226   5.674
 9381SOL    HW229043   2.923   3.178   5.599
 9382SOL     OW29044   3.432   1.778   2.831
 9382SOL    HW129045   3.495   1.825   2.893
 9382SOL    HW229046   3.380   1.845   2.779
 9383SOL     OW29047   3.962   5.963   4.897
 9383SOL    HW129048   3.871   5.940   4.933
 9383SOL    HW229049   3.987   5.899   4.825
 9384SOL     OW29050   4.645   6.339   1.625
 9384SOL    HW129051   4.566   6.366   1.680
 9384SOL    HW229052   4.624   6.350   1.528
 9385SOL     OW29053   3.802   1.616   2.361
 9385SOL    HW129054   3.894   1.652   2.371
 9385SOL    HW229055   3.753   1.624   2.448
 9386SOL     OW29056   3.150   6.091   4.412
 9386SOL    HW129057   3.114   6.161   4.474
 9386SOL    HW229058   3.174   6.134   4.325
 9387SOL     OW29059   4.387   0.135   0.778
 9387SOL    HW129060   4.382   0.049   0.829
 9387SOL    HW229061   4.321   0.133   0.703
 9388SOL     OW29062   1.726   6.151   2.759
 9388SOL    HW129063   1.713   6.245   2.791
 9388SOL    HW229064   1.747   6.093   2.837
 9389SOL     OW29065   2.669   0.377   5.241
 9389SOL    HW129066   2.601   0.431   5.193
 9389SOL    HW229067   2.736   0.438   5.284
 9390SOL     OW29068   3.740   6.048   3.968
 9390SOL    HW129069   3.679   6.102   3.911
 9390SOL    HW229070   3.749   6.092   4.058
 9391SOL     OW29071   2.432   1.100   5.298
 9391SOL    HW129072   2.360   1.163   5.269
 9391SOL    HW229073   2.425   1.084   5.396
 9392SOL     OW29074   0.144   0.179   4.796
 9392SOL    HW129075   0.237   0.181   4.759
 9392SOL    HW229076   0.142   0.226   4.884
 9393SOL     OW29077   3.702   1.634   4.424
 9393SOL    HW129078   3.714   1.615   4.326
 9393SOL    HW229079   3.789   1.666   4.462
 9394SOL     OW29080   6.214   2.205   3.219
 9394SOL    HW129081   6.218   2.107   3.198
 9394SOL    HW229082   6.200   2.257   3.135
 9395SOL     OW29083   2.561   2.175   0.448
 9395SOL    HW129084   2.619   2.242   0.401
 9395SOL    HW229085   2.481   2.154   0.392
 9396SOL     OW29086   0.470   6.419   4.732
 9396SOL    HW129087   0.508   6.408   4.640
 9396SOL    HW229088   0.490   6.512   4.765
 9397SOL     OW29089   2.624   6.799   0.118
 9397SOL    HW129090   2.580   6.855   0.188
 9397SOL    HW229091   2.678   6.858   0.058
 9398SOL     OW29092   1.669   0.560   6.049
 9398SOL    HW129093   1.633   0.473   6.015
 9398SOL    HW229094   1.741   0.593   5.987
 9399SOL     OW29095   0.375   2.018   6.879
 9399SOL    HW129096   0.464   2.038   6.920
 9399SOL    HW229097   0.389   1.981   6.787
 9400SOL     OW29098   5.354   3.462   1.689
 9400SOL    HW129099   5.263   3.442   1.652
 9400SOL    HW229100   5.378   3.557   1.669
 9401SOL     OW29101   3.294   6.253   3.479
 9401SOL    HW129102   3.327   6.216   3.392
 9401SOL    HW229103   3.272   6.350   3.468
 9402SOL     OW29104   1.408   4.663   5.382
 9402SOL    HW129105   1.415   4.620   5.292
 9402SOL    HW229106   1.320   4.639   5.424
 9403SOL     OW29107   4.993   1.608   2.831
 9403SOL    HW129108   5.063   1.539   2.814
 9403SOL    HW229109   4.997   1.635   2.927
 9404SOL     OW29110   0.925   4.184   6.292
 9404SOL    HW129111   0.900   4.276   6.261
 9404SOL    HW229112   0.972   4.191   6.380
 9405SOL     OW29113   6.957   0.127   2.603
 9405SOL    HW129114   6.918   0.074   2.528
 9405SOL    HW229115   6.911   0.102   2.689
 9406SOL     OW29116   6.767   1.910   6.128
 9406SOL    HW129117   6.768   1.812   6.110
 9406SOL    HW229118   6.745   1.959   6.043
 9407SOL     OW29119   2.569   5.971   2.449
 9407SOL    HW129120   2.621   5.904   2.396
 9407SOL    HW229121   2.611   5.982   2.539
 9408SOL     OW29122   3.898   1.571   5.794
 9408SOL    HW129123   3.908   1.526   5.882
 9408SOL    HW229124   3.828   1.642   5.800
 9409SOL     OW29125   5.064   4.618   5.674
 9409SOL    HW129126   5.135   4.684   5.700
 9409SOL    HW229127   5.058   4.614   5.574
 9410SOL     OW29128   4.112   5.699   1.741
 9410SOL    HW129129   4.043   5.759   1.781
 9410SOL    HW229130   4.155   5.744   1.663
 9411SOL     OW29131   3.614   4.252   0.905
 9411SOL    HW129132   3.630   4.347   0.879
 9411SOL    HW229133   3.516   4.232   0.905
 9412SOL     OW29134   0.074   3.309   1.488
 9412SOL    HW129135   0.123   3.394   1.469
 9412SOL    HW229136   0.126   3.231   1.452
 9413SOL     OW29137   4.421   5.441   5.064
 9413SOL    HW129138   4.515   5.434   5.099
 9413SOL    HW229139   4.415   5.389   4.978
 9414SOL     OW29140   3.442   1.614   3.614
 9414SOL    HW129141   3.389   1.565   3.683
 9414SOL    HW229142   3.389   1.622   3.530
 9415SOL     OW29143   2.065   6.679   2.545
 9415SOL    HW129144   2.158   6.643   2.554
 9415SOL    HW229145   2.030   6.661   2.453
 9416SOL     OW29146   0.649   1.501   1.708
 9416SOL    HW129147   0.639   1.496   1.807
 9416SOL    HW229148   0.587   1.570   1.671
 9417SOL     OW29149   3.507   0.575   5.726
 9417SOL    HW129150   3.584   0.536   5.777
 9417SOL    HW229151   3.524   0.672   5.710
 9418SOL     OW29152   3.234   6.555   0.707
 9418SOL    HW129153   3.137   6.542   0.689
 9418SOL    HW229154   3.250   6.650   0.736
 9419SOL     OW29155   3.597   6.086   5.272
 9419SOL    HW129156   3.538   6.057   5.196
 9419SOL    HW229157   3.541   6.126   5.344
 9420SOL     OW29158   0.271   2.082   4.411
 9420SOL    HW129159   0.249   1.989   4.441
 9420SOL    HW229160   0.355   2.080   4.357
 9421SOL     OW29161   2.240   6.289   5.325
 9421SOL    HW129162   2.199   6.229   5.394
 9421SOL    HW229163   2.339   6.277   5.325
 9422SOL     OW29164   5.270   6.922   2.277
 9422SOL    HW129165   5.301   6.981   2.351
 9422SOL    HW229166   5.271   6.827   2.307
 9423SOL     OW29167   3.537   0.383   3.233
 9423SOL    HW129168   3.547   0.422   3.141
 9423SOL    HW229169   3.567   0.449   3.301
 9424SOL     OW29170   4.460   0.623   4.967
 9424SOL    HW129171   4.437   0.552   4.900
 9424SOL    HW229172   4.477   0.580   5.056
 9425SOL     OW29173   6.984   3.830   6.191
 9425SOL    HW129174   6.917   3.762   6.220
 9425SOL    HW229175   6.940   3.919   6.182
 9426SOL     OW29176   3.142   1.453   0.099
 9426SOL    HW129177   3.150   1.548   0.070
 9426SOL    HW229178   3.233   1.417   0.121
 9427SOL     OW29179   2.928   5.087   5.163
 9427SOL    HW129180   2.832   5.078   5.135
 9427SOL    HW229181   2.970   4.996   5.163
 9428SOL     OW29182   4.987   0.770   1.744
 9428SOL    HW129183   5.050   0.728   1.679
 9428SOL    HW229184   4.893   0.753   1.715
 9429SOL     OW29185   1.600   4.483   1.809
 9429SOL    HW129186   1.601   4.408   1.742
 9429SOL    HW229187   1.693   4.520   1.819
 9430SOL     OW29188   0.048   6.147   2.438
 9430SOL    HW129189   0.030   6.149   2.340
 9430SOL    HW229190   0.104   6.067   2.460
 9431SOL     OW29191   6.118   4.844   0.538
 9431SOL    HW129192   6.074   4.803   0.458
 9431SOL    HW229193   6.068   4.925   0.566
 9432SOL     OW29194   6.881   0.681   3.235
 9432SOL    HW129195   6.883   0.780   3.250
 9432SOL    HW229196   6.787   0.652   3.217
 9433SOL     OW29197   3.559   5.048   4.189
 9433SOL    HW129198   3.470   5.013   4.159
 9433SOL    HW229199   3.614   5.074   4.109
 9434SOL     OW29200   5.829   4.852   3.843
 9434SOL    HW129201   5.904   4.788   3.860
 9434SOL    HW229202   5.835   4.885   3.749
 9435SOL     OW29203   0.717   1.618   3.905
 9435SOL    HW129204   0.757   1.680   3.838
 9435SOL    HW229205   0.629   1.584   3.871
 9436SOL     OW29206   0.808   4.184   1.943
 9436SOL    HW129207   0.779   4.195   2.038
 9436SOL    HW229208   0.745   4.234   1.884
 9437SOL     OW29209   0.912   6.408   3.511
 9437SOL    HW129210   0.942   6.488   3.459
 9437SOL    HW229211   0.882   6.437   3.602
 9438SOL     OW29212   1.403   6.562   1.614
 9438SOL    HW129213   1.363   6.604   1.533
 9438SOL    HW229214   1.468   6.491   1.587
 9439SOL     OW29215   0.077   2.888   1.946
 9439SOL    HW129216   0.003   2.924   2.003
 9439SOL    HW229217   0.112   2.960   1.886
 9440SOL     OW29218   4.745   6.024   4.000
 9440SOL    HW129219   4.704   6.001   4.088
 9440SOL    HW229220   4.679   6.009   3.927
 9441SOL     OW29221   1.520   5.055   4.848
 9441SOL    HW129222   1.616   5.076   4.869
 9441SOL    HW229223   1.512   4.960   4.818
 9442SOL     OW29224   5.968   2.922   0.131
 9442SOL    HW129225   5.880   2.960   0.158
 9442SOL    HW229226   5.981   2.935   0.033
 9443SOL     OW29227   2.641   4.767   1.250
 9443SOL    HW129228   2.599   4.814   1.327
 9443SOL    HW229229   2.597   4.796   1.165
 9444SOL     OW29230   0.951   3.920   6.235
 9444SOL    HW129231   0.976   3.905   6.139
 9444SOL    HW229232   0.938   4.018   6.251
 9445SOL     OW29233   5.433   3.495   2.177
 9445SOL    HW129234   5.385   3.419   2.221
 9445SOL    HW229235   5.465   3.558   2.248
 9446SOL     OW29236   6.623   6.773   3.859
 9446SOL    HW129237   6.688   6.703   3.830
 9446SOL    HW229238   6.612   6.841   3.786
 9447SOL     OW29239   6.130   3.190   3.410
 9447SOL    HW129240   6.127   3.158   3.315
 9447SOL    HW229241   6.218   3.233   3.428
 9448SOL     OW29242   5.881   6.092   5.864
 9448SOL    HW129243   5.870   6.188   5.889
 9448SOL    HW229244   5.905   6.086   5.767
 9449SOL     OW29245   6.952   5.939   6.673
 9449SOL    HW129246   6.982   5.995   6.750
 9449SOL    HW229247   6.923   5.849   6.706
 9450SOL     OW29248   3.310   4.938   4.555
 9450SOL    HW129249   3.393   4.891   4.585
 9450SOL    HW229250   3.245   4.942   4.631
 9451SOL     OW29251   3.905   6.173   6.748
 9451SOL    HW129252   3.960   6.109   6.802
 9451SOL    HW229253   3.808   6.153   6.760
 9452SOL     OW29254   1.047   2.762   1.012
 9452SOL    HW129255   0.992   2.845   1.014
 9452SOL    HW229256   0.992   2.685   1.044
 9453SOL     OW29257   2.164   4.614   3.528
 9453SOL    HW129258   2.170   4.695   3.586
 9453SOL    HW229259   2.241   4.553   3.548
 9454SOL     OW29260   1.822   3.378   5.840
 9454SOL    HW129261   1.869   3.421   5.762
 9454SOL    HW229262   1.867   3.291   5.861
 9455SOL     OW29263   3.505   1.522   2.765
 9455SOL    HW129264   3.464   1.609   2.792
 9455SOL    HW229265   3.518   1.465   2.846
 9456SOL     OW29266   0.476   4.174   6.781
 9456SOL    HW129267   0.483   4.144   6.876
 9456SOL    HW229268   0.538   4.120   6.724
 9457SOL     OW29269   1.868   3.714   5.969
 9457SOL    HW129270   1.768   3.725   5.969
 9457SOL    HW229271   1.911   3.801   5.995
 9458SOL     OW29272   1.194   3.585   5.661
 9458SOL    HW129273   1.292   3.593   5.675
 9458SOL    HW229274   1.172   3.605   5.566
 9459SOL     OW29275   5.701   4.248   2.713
 9459SOL    HW129276   5.670   4.304   2.636
 9459SOL    HW229277   5.797   4.266   2.731
 9460SOL     OW29278   0.163   1.574   4.302
 9460SOL    HW129279   0.263   1.571   4.296
 9460SOL    HW229280   0.130   1.488   4.342
 9461SOL     OW29281   6.559   1.812   3.759
 9461SOL    HW129282   6.632   1.872   3.792
 9461SOL    HW229283   6.492   1.865   3.708
 9462SOL     OW29284   2.245   4.097   3.039
 9462SOL    HW129285   2.278   4.164   2.973
 9462SOL    HW229286   2.205   4.020   2.991
 9463SOL     OW29287   0.266   0.955   1.781
 9463SOL    HW129288   0.223   0.937   1.692
 9463SOL    HW229289   0.327   1.034   1.774
 9464SOL     OW29290   5.924   6.499   0.500
 9464SOL    HW129291   5.862   6.424   0.475
 9464SOL    HW229292   5.969   6.534   0.417
 9465SOL     OW29293   0.221   6.512   3.363
 9465SOL    HW129294   0.156   6.551   3.298
 9465SOL    HW229295   0.173   6.454   3.428
 9466SOL     OW29296   3.809   3.756   5.372
 9466SOL    HW129297   3.779   3.801   5.287
 9466SOL    HW229298   3.832   3.826   5.439
 9467SOL     OW29299   1.009   2.794   2.060
 9467SOL    HW129300   0.938   2.762   1.997
 9467SOL    HW229301   1.055   2.714   2.099
 9468SOL     OW29302   5.727   2.235   6.552
 9468SOL    HW129303   5.737   2.266   6.457
 9468SOL    HW229304   5.634   2.201   6.566
 9469SOL     OW29305   6.133   5.424   1.414
 9469SOL    HW129306   6.085   5.371   1.483
 9469SOL    HW229307   6.173   5.506   1.456
 9470SOL     OW29308   5.476   2.978   6.090
 9470SOL    HW129309   5.480   3.045   6.016
 9470SOL    HW229310   5.561   2.981   6.144
 9471SOL     OW29311   6.023   2.016   4.766
 9471SOL    HW129312   6.016   2.116   4.767
 9471SOL    HW229313   5.951   1.978   4.707
 9472SOL     OW29314   6.892   3.960   4.006
 9472SOL    HW129315   6.936   4.046   3.979
 9472SOL    HW229316   6.830   3.931   3.934
 9473SOL     OW29317   3.663   6.027   5.774
 9473SOL    HW129318   3.697   5.966   5.845
 9473SOL    HW229319   3.714   6.012   5.690
 9474SOL     OW29320   6.318   3.536   0.661
 9474SOL    HW129321   6.354   3.449   0.696
 9474SOL    HW229322   6.261   3.518   0.581
 9475SOL     OW29323   2.849   3.303   0.315
 9475SOL    HW129324   2.852   3.339   0.408
 9475SOL    HW229325   2.922   3.235   0.303
 9476SOL     OW29326   3.670   3.948   5.168
 9476SOL    HW129327   3.671   4.048   5.170
 9476SOL    HW229328   3.608   3.916   5.097
 9477SOL     OW29329   6.967   3.081   2.381
 9477SOL    HW129330   0.031   3.053   2.418
 9477SOL    HW229331   6.962   3.057   2.285
 9478SOL     OW29332   5.702   3.339   6.664
 9478SOL    HW129333   5.629   3.352   6.596
 9478SOL    HW229334   5.740   3.247   6.654
 9479SOL     OW29335   5.913   6.249   6.242
 9479SOL    HW129336   5.866   6.160   6.237
 9479SOL    HW229337   5.977   6.248   6.318
 9480SOL     OW29338   4.207   4.580   6.892
 9480SOL    HW129339   4.246   4.589   6.800
 9480SOL    HW229340   4.170   4.669   6.921
 9481SOL     OW29341   5.857   3.849   1.112
 9481SOL    HW129342   5.876   3.835   1.210
 9481SOL    HW229343   5.862   3.761   1.065
 9482SOL     OW29344   5.808   1.546   3.428
 9482SOL    HW129345   5.764   1.466   3.387
 9482SOL    HW229346   5.819   1.617   3.359
 9483SOL     OW29347   1.278   1.916   0.843
 9483SOL    HW129348   1.206   1.854   0.809
 9483SOL    HW229349   1.322   1.874   0.922
 9484SOL     OW29350   4.448   1.047   3.357
 9484SOL    HW129351   4.451   0.947   3.357
 9484SOL    HW229352   4.426   1.080   3.449
 9485SOL     OW29353   1.051   6.988   2.225
 9485SOL    HW129354   1.150   6.986   2.211
 9485SOL    HW229355   1.025   0.051   2.265
 9486SOL     OW29356   2.503   5.037   1.603
 9486SOL    HW129357   2.493   5.078   1.694
 9486SOL    HW229358   2.423   5.059   1.548
 9487SOL     OW29359   2.915   3.659   3.092
 9487SOL    HW129360   2.899   3.617   3.003
 9487SOL    HW229361   3.012   3.678   3.103
 9488SOL     OW29362   2.870   6.333   1.032
 9488SOL    HW129363   2.864   6.334   0.933
 9488SOL    HW229364   2.901   6.243   1.063
 9489SOL     OW29365   3.706   4.105   1.570
 9489SOL    HW129366   3.617   4.125   1.611
 9489SOL    HW229367   3.779   4.137   1.631
 9490SOL     OW29368   6.560   6.246   0.188
 9490SOL    HW129369   6.480   6.279   0.138
 9490SOL    HW229370   6.641   6.298   0.161
 9491SOL     OW29371   0.616   4.857   3.729
 9491SOL    HW129372   0.657   4.942   3.698
 9491SOL    HW229373   0.562   4.816   3.655
 9492SOL     OW29374   3.239   3.635   2.776
 9492SOL    HW129375   3.253   3.689   2.693
 9492SOL    HW229376   3.166   3.676   2.830
 9493SOL     OW29377   3.994   5.131   3.957
 9493SOL    HW129378   3.947   5.053   3.996
 9493SOL    HW229379   4.091   5.110   3.947
 9494SOL     OW29380   4.364   4.329   0.894
 9494SOL    HW129381   4.291   4.318   0.827
 9494SOL    HW229382   4.386   4.426   0.903
 9495SOL     OW29383   6.116   1.810   4.160
 9495SOL    HW129384   6.081   1.804   4.253
 9495SOL    HW229385   6.210   1.778   4.157
 9496SOL     OW29386   5.853   4.639   0.733
 9496SOL    HW129387   5.832   4.660   0.638
 9496SOL    HW229388   5.873   4.723   0.782
 9497SOL     OW29389   5.099   4.615   0.116
 9497SOL    HW129390   5.171   4.636   0.050
 9497SOL    HW229391   5.013   4.602   0.068
 9498SOL     OW29392   5.633   0.818   6.453
 9498SOL    HW129393   5.667   0.869   6.374
 9498SOL    HW229394   5.638   0.720   6.434
 9499SOL     OW29395   2.253   3.356   5.856
 9499SOL    HW129396   2.229   3.419   5.782
 9499SOL    HW229397   2.199   3.273   5.849
 9500SOL     OW29398   3.658   6.943   1.524
 9500SOL    HW129399   3.725   6.967   1.453
 9500SOL    HW229400   3.702   6.947   1.613
 9501SOL     OW29401   2.997   1.362   4.412
 9501SOL    HW129402   2.951   1.354   4.324
 9501SOL    HW229403   3.087   1.405   4.399
 9502SOL     OW29404   0.723   1.987   4.491
 9502SOL    HW129405   0.822   1.976   4.478
 9502SOL    HW229406   0.675   1.965   4.407
 9503SOL     OW29407   0.719   1.256   1.579
 9503SOL    HW129408   0.701   1.327   1.647
 9503SOL    HW229409   0.810   1.270   1.540
 9504SOL     OW29410   0.735   2.295   1.322
 9504SOL    HW129411   0.774   2.327   1.236
 9504SOL    HW229412   0.760   2.200   1.337
 9505SOL     OW29413   5.386   4.166   3.327
 9505SOL    HW129414   5.376   4.091   3.393
 9505SOL    HW229415   5.300   4.179   3.278
 9506SOL     OW29416   0.058   3.337   6.437
 9506SOL    HW129417   0.113   3.256   6.457
 9506SOL    HW229418   0.068   3.361   6.341
 9507SOL     OW29419   1.626   1.102   3.725
 9507SOL    HW129420   1.681   1.186   3.731
 9507SOL    HW229421   1.685   1.025   3.703
 9508SOL     OW29422   6.357   3.041   0.536
 9508SOL    HW129423   6.395   2.963   0.587
 9508SOL    HW229424   6.260   3.024   0.517
 9509SOL     OW29425   1.126   6.902   5.609
 9509SOL    HW129426   1.186   6.829   5.640
 9509SOL    HW229427   1.158   6.935   5.520
 9510SOL     OW29428   0.875   4.073   1.525
 9510SOL    HW129429   0.927   4.032   1.450
 9510SOL    HW229430   0.844   4.001   1.587
 9511SOL     OW29431   0.997   1.343   0.043
 9511SOL    HW129432   1.088   1.349   0.083
 9511SOL    HW229433   1.002   1.365   6.970
 9512SOL     OW29434   5.636   1.876   2.942
 9512SOL    HW129435   5.608   1.906   3.033
 9512SOL    HW229436   5.658   1.956   2.886
 9513SOL     OW29437   1.174   2.990   5.312
 9513SOL    HW129438   1.246   2.998   5.379
 9513SOL    HW229439   1.139   2.896   5.312
 9514SOL     OW29440   1.510   3.775   6.567
 9514SOL    HW129441   1.581   3.839   6.536
 9514SOL    HW229442   1.483   3.716   6.492
 9515SOL     OW29443   1.701   5.783   0.424
 9515SOL    HW129444   1.714   5.801   0.326
 9515SOL    HW229445   1.764   5.710   0.452
 9516SOL     OW29446   5.190   3.630   4.665
 9516SOL    HW129447   5.238   3.696   4.723
 9516SOL    HW229448   5.092   3.649   4.666
 9517SOL     OW29449   1.420   5.283   0.138
 9517SOL    HW129450   1.465   5.340   0.069
 9517SOL    HW229451   1.417   5.189   0.107
 9518SOL     OW29452   0.961   2.109   6.796
 9518SOL    HW129453   0.893   2.036   6.809
 9518SOL    HW229454   0.990   2.143   6.885
 9519SOL     OW29455   3.998   3.582   3.531
 9519SOL    HW129456   4.027   3.494   3.493
 9519SOL    HW229457   3.963   3.640   3.458
 9520SOL     OW29458   6.957   1.419   3.227
 9520SOL    HW129459   6.923   1.417   3.133
 9520SOL    HW229460   6.881   1.433   3.290
 9521SOL     OW29461   3.465   3.730   1.296
 9521SOL    HW129462   3.377   3.703   1.335
 9521SOL    HW229463   3.529   3.750   1.371
 9522SOL     OW29464   4.035   5.784   3.002
 9522SOL    HW129465   4.038   5.795   3.102
 9522SOL    HW229466   4.032   5.874   2.959
 9523SOL     OW29467   2.671   5.078   5.091
 9523SOL    HW129468   2.632   5.170   5.093
 9523SOL    HW229469   2.648   5.034   5.004
 9524SOL     OW29470   1.663   2.826   0.782
 9524SOL    HW129471   1.602   2.847   0.705
 9524SOL    HW229472   1.624   2.863   0.866
 9525SOL     OW29473   1.308   2.330   4.837
 9525SOL    HW129474   1.232   2.284   4.792
 9525SOL    HW229475   1.322   2.290   4.928
 9526SOL     OW29476   6.023   4.490   1.563
 9526SOL    HW129477   5.960   4.487   1.484
 9526SOL    HW229478   6.110   4.530   1.535
 9527SOL     OW29479   2.941   0.718   5.156
 9527SOL    HW129480   2.848   0.719   5.192
 9527SOL    HW229481   2.939   0.735   5.058
 9528SOL     OW29482   6.004   1.288   0.969
 9528SOL    HW129483   5.972   1.361   0.908
 9528SOL    HW229484   5.928   1.258   1.027
 9529SOL     OW29485   6.030   3.667   6.980
 9529SOL    HW129486   5.990   3.598   6.920
 9529SOL    HW229487   5.961   3.700   0.019
 9530SOL     OW29488   0.797   4.258   3.997
 9530SOL    HW129489   0.837   4.203   4.070
 9530SOL    HW229490   0.869   4.284   3.932
 9531SOL     OW29491   4.612   4.303   2.622
 9531SOL    HW129492   4.646   4.215   2.588
 9531SOL    HW229493   4.561   4.350   2.550
 9532SOL     OW29494   0.157   5.264   0.986
 9532SOL    HW129495   0.241   5.266   0.932
 9532SOL    HW229496   0.175   5.217   1.072
 9533SOL     OW29497   0.893   5.478   3.851
 9533SOL    HW129498   0.859   5.571   3.838
 9533SOL    HW229499   0.826   5.424   3.903
 9534SOL     OW29500   5.934   4.197   4.774
 9534SOL    HW129501   5.848   4.154   4.745
 9534SOL    HW229502   6.009   4.160   4.719
 9535SOL     OW29503   1.819   1.145   6.079
 9535SOL    HW129504   1.827   1.107   5.987
 9535SOL    HW229505   1.758   1.224   6.077
 9536SOL     OW29506   3.092   3.867   5.468
 9536SOL    HW129507   3.155   3.919   5.525
 9536SOL    HW229508   3.081   3.914   5.380
 9537SOL     OW29509   2.499   1.176   4.942
 9537SOL    HW129510   2.499   1.262   4.993
 9537SOL    HW229511   2.564   1.181   4.867
 9538SOL     OW29512   4.888   0.496   4.588
 9538SOL    HW129513   4.912   0.512   4.684
 9538SOL    HW229514   4.823   0.420   4.583
 9539SOL     OW29515   2.927   3.816   4.547
 9539SOL    HW129516   2.916   3.891   4.612
 9539SOL    HW229517   2.980   3.847   4.469
 9540SOL     OW29518   5.646   4.950   4.383
 9540SOL    HW129519   5.732   4.949   4.333
 9540SOL    HW229520   5.605   4.859   4.383
 9541SOL     OW29521   2.523   0.980   6.172
 9541SOL    HW129522   2.533   1.009   6.267
 9541SOL    HW229523   2.428   0.951   6.156
 9542SOL     OW29524   5.228   4.741   4.465
 9542SOL    HW129525   5.242   4.788   4.553
 9542SOL    HW229526   5.135   4.704   4.462
 9543SOL     OW29527   4.087   1.010   6.547
 9543SOL    HW129528   4.052   1.104   6.547
 9543SOL    HW229529   4.096   0.977   6.641
 9544SOL     OW29530   5.825   2.967   4.216
 9544SOL    HW129531   5.748   3.024   4.246
 9544SOL    HW229532   5.795   2.872   4.208
 9545SOL     OW29533   5.806   5.547   2.665
 9545SOL    HW129534   5.729   5.563   2.603
 9545SOL    HW229535   5.777   5.561   2.759
 9546SOL     OW29536   4.004   1.092   6.132
 9546SOL    HW129537   4.095   1.092   6.092
 9546SOL    HW229538   3.936   1.117   6.063
 9547SOL     OW29539   2.394   5.427   4.115
 9547SOL    HW129540   2.358   5.339   4.083
 9547SOL    HW229541   2.472   5.412   4.176
 9548SOL     OW29542   7.013   4.920   4.611
 9548SOL    HW129543   6.952   4.980   4.662
 9548SOL    HW229544   6.961   4.842   4.574
 9549SOL     OW29545   2.979   1.203   1.615
 9549SOL    HW129546   3.004   1.114   1.579
 9549SOL    HW229547   2.959   1.196   1.713
 9550SOL     OW29548   0.097   1.075   0.284
 9550SOL    HW129549   0.190   1.084   0.250
 9550SOL    HW229550   0.094   1.006   0.357
 9551SOL     OW29551   5.532   3.120   5.839
 9551SOL    HW129552   5.549   3.215   5.813
 9551SOL    HW229553   5.566   3.060   5.767
 9552SOL     OW29554   2.345   5.720   5.608
 9552SOL    HW129555   2.409   5.647   5.585
 9552SOL    HW229556   2.365   5.801   5.553
 9553SOL     OW29557   5.613   2.257   0.279
 9553SOL    HW129558   5.552   2.204   0.337
 9553SOL    HW229559   5.694   2.284   0.331
 9554SOL     OW29560   1.579   6.442   3.543
 9554SOL    HW129561   1.524   6.508   3.594
 9554SOL    HW229562   1.656   6.412   3.600
 9555SOL     OW29563   0.006   0.988   3.011
 9555SOL    HW129564   0.038   0.894   3.020
 9555SOL    HW229565   0.067   1.049   3.062
 9556SOL     OW29566   1.341   3.805   1.059
 9556SOL    HW129567   1.392   3.867   1.119
 9556SOL    HW229568   1.260   3.851   1.024
 9557SOL     OW29569   5.907   6.933   1.515
 9557SOL    HW129570   5.819   6.913   1.557
 9557SOL    HW229571   5.967   6.854   1.524
 9558SOL     OW29572   5.610   5.827   5.678
 9558SOL    HW129573   5.632   5.733   5.703
 9558SOL    HW229574   5.620   5.886   5.759
 9559SOL     OW29575   0.741   4.856   0.527
 9559SOL    HW129576   0.680   4.878   0.450
 9559SOL    HW229577   0.695   4.793   0.589
 9560SOL     OW29578   2.346   1.169   2.714
 9560SOL    HW129579   2.420   1.200   2.775
 9560SOL    HW229580   2.302   1.249   2.672
 9561SOL     OW29581   0.633   0.902   1.288
 9561SOL    HW129582   0.633   0.819   1.343
 9561SOL    HW229583   0.707   0.962   1.318
 9562SOL     OW29584   2.843   0.349   5.009
 9562SOL    HW129585   2.907   0.277   5.038
 9562SOL    HW229586   2.797   0.387   5.089
 9563SOL     OW29587   6.844   0.051   0.293
 9563SOL    HW129588   6.783   0.087   0.222
 9563SOL    HW229589   6.804   0.066   0.383
 9564SOL     OW29590   2.701   0.828   0.081
 9564SOL    HW129591   2.800   0.833   0.070
 9564SOL    HW229592   2.670   0.905   0.138
 9565SOL     OW29593   3.842   0.657   5.125
 9565SOL    HW129594   3.778   0.670   5.050
 9565SOL    HW229595   3.795   0.614   5.202
 9566SOL     OW29596   2.980   5.746   6.615
 9566SOL    HW129597   3.076   5.732   6.640
 9566SOL    HW229598   2.958   5.843   6.619
 9567SOL     OW29599   5.135   4.519   1.022
 9567SOL    HW129600   5.099   4.440   0.973
 9567SOL    HW229601   5.065   4.590   1.028
 9568SOL     OW29602   4.460   2.039   6.613
 9568SOL    HW129603   4.411   1.977   6.552
 9568SOL    HW229604   4.547   2.066   6.572
 9569SOL     OW29605   6.946   1.585   2.362
 9569SOL    HW129606   6.927   1.641   2.443
 9569SOL    HW229607   6.976   1.494   2.391
 9570SOL     OW29608   0.469   3.390   1.518
 9570SOL    HW129609   0.387   3.441   1.543
 9570SOL    HW229610   0.525   3.445   1.456
 9571SOL     OW29611   3.421   3.112   5.825
 9571SOL    HW129612   3.405   3.097   5.728
 9571SOL    HW229613   3.470   3.199   5.838
 9572SOL     OW29614   2.152   5.117   1.974
 9572SOL    HW129615   2.065   5.166   1.972
 9572SOL    HW229616   2.174   5.083   1.883
 9573SOL     OW29617   0.832   2.434   0.036
 9573SOL    HW129618   0.797   2.363   0.097
 9573SOL    HW229619   0.769   2.512   0.037
 9574SOL     OW29620   3.903   2.994   2.956
 9574SOL    HW129621   3.967   3.041   2.895
 9574SOL    HW229622   3.832   2.949   2.902
 9575SOL     OW29623   0.760   0.843   1.565
 9575SOL    HW129624   0.744   0.774   1.636
 9575SOL    HW229625   0.752   0.934   1.606
 9576SOL     OW29626   2.099   1.433   0.376
 9576SOL    HW129627   2.142   1.518   0.405
 9576SOL    HW229628   2.108   1.364   0.448
 9577SOL     OW29629   0.678   0.777   5.971
 9577SOL    HW129630   0.731   0.717   5.911
 9577SOL    HW229631   0.589   0.796   5.930
 9578SOL     OW29632   0.973   3.742   2.577
 9578SOL    HW129633   1.025   3.698   2.503
 9578SOL    HW229634   1.037   3.786   2.640
 9579SOL     OW29635   0.489   4.985   4.065
 9579SOL    HW129636   0.585   4.957   4.061
 9579SOL    HW229637   0.474   5.061   4.003
 9580SOL     OW29638   4.218   3.452   0.977
 9580SOL    HW129639   4.140   3.402   0.940
 9580SOL    HW229640   4.268   3.497   0.903
 9581SOL     OW29641   0.331   0.069   6.285
 9581SOL    HW129642   0.268   0.030   6.218
 9581SOL    HW229643   0.395   0.130   6.238
 9582SOL     OW29644   4.777   5.087   5.266
 9582SOL    HW129645   4.705   5.022   5.241
 9582SOL    HW229646   4.815   5.062   5.355
 9583SOL     OW29647   3.144   3.857   1.544
 9583SOL    HW129648   3.223   3.893   1.594
 9583SOL    HW229649   3.171   3.776   1.492
 9584SOL     OW29650   0.447   5.039   6.253
 9584SOL    HW129651   0.359   5.085   6.261
 9584SOL    HW229652   0.484   5.024   6.345
 9585SOL     OW29653   6.279   6.523   3.773
 9585SOL    HW129654   6.305   6.569   3.858
 9585SOL    HW229655   6.284   6.588   3.697
 9586SOL     OW29656   4.930   5.113   2.208
 9586SOL    HW129657   4.944   5.016   2.189
 9586SOL    HW229658   4.979   5.167   2.140
 9587SOL     OW29659   1.060   0.172   1.398
 9587SOL    HW129660   1.065   0.076   1.370
 9587SOL    HW229661   0.971   0.210   1.375
 9588SOL     OW29662   6.716   6.848   2.030
 9588SOL    HW129663   6.725   6.943   2.002
 9588SOL    HW229664   6.718   6.789   1.950
 9589SOL     OW29665   2.261   5.143   6.898
 9589SOL    HW129666   2.260   5.236   6.862
 9589SOL    HW229667   2.179   5.094   6.869
 9590SOL     OW29668   6.046   2.916   1.872
 9590SOL    HW129669   6.141   2.885   1.881
 9590SOL    HW229670   6.024   2.978   1.947
 9591SOL     OW29671   2.844   5.419   5.639
 9591SOL    HW129672   2.902   5.353   5.685
 9591SOL    HW229673   2.748   5.396   5.653
 9592SOL     OW29674   2.861   4.481   0.382
 9592SOL    HW129675   2.816   4.466   0.294
 9592SOL    HW229676   2.794   4.512   0.449
 9593SOL     OW29677   0.288   1.044   6.006
 9593SOL    HW129678   0.246   1.000   6.086
 9593SOL    HW229679   0.387   1.030   6.009
 9594SOL     OW29680   1.547   5.294   3.296
 9594SOL    HW129681   1.486   5.341   3.232
 9594SOL    HW229682   1.551   5.197   3.273
 9595SOL     OW29683   0.626   2.705   4.502
 9595SOL    HW129684   0.656   2.610   4.510
 9595SOL    HW229685   0.607   2.742   4.594
 9596SOL     OW29686   0.818   5.156   6.332
 9596SOL    HW129687   0.806   5.059   6.351
 9596SOL    HW229688   0.916   5.177   6.327
 9597SOL     OW29689   0.233   4.292   0.974
 9597SOL    HW129690   0.253   4.330   0.883
 9597SOL    HW229691   0.141   4.319   1.002
 9598SOL     OW29692   1.558   4.576   3.421
 9598SOL    HW129693   1.507   4.593   3.505
 9598SOL    HW229694   1.514   4.623   3.345
 9599SOL     OW29695   2.896   0.482   4.554
 9599SOL    HW129696   2.890   0.578   4.526
 9599SOL    HW229697   2.819   0.462   4.616
 9600SOL     OW29698   2.841   6.729   6.808
 9600SOL    HW129699   2.840   6.786   6.890
 9600SOL    HW229700   2.764   6.665   6.810
 9601SOL     OW29701   4.604   3.882   0.743
 9601SOL    HW129702   4.567   3.973   0.724
 9601SOL    HW229703   4.533   3.825   0.784
 9602SOL     OW29704   6.202   4.391   5.568
 9602SOL    HW129705   6.210   4.299   5.529
 9602SOL    HW229706   6.293   4.432   5.577
 9603SOL     OW29707   4.492   1.400   5.021
 9603SOL    HW129708   4.558   1.365   5.087
 9603SOL    HW229709   4.510   1.359   4.931
 9604SOL     OW29710   4.701   0.237   0.226
 9604SOL    HW129711   4.605   0.219   0.251
 9604SOL    HW229712   4.705   0.268   0.131
 9605SOL     OW29713   1.169   5.807   3.455
 9605SOL    HW129714   1.078   5.806   3.414
 9605SOL    HW229715   1.233   5.758   3.396
 9606SOL     OW29716   2.278   5.757   6.952
 9606SOL    HW129717   2.310   5.805   0.009
 9606SOL    HW229718   2.254   5.823   6.882
 9607SOL     OW29719   1.769   1.543   6.886
 9607SOL    HW129720   1.811   1.595   6.811
 9607SOL    HW229721   1.783   1.593   6.972
 9608SOL     OW29722   6.663   5.465   2.328
 9608SOL    HW129723   6.651   5.389   2.264
 9608SOL    HW229724   6.636   5.435   2.419
 9609SOL     OW29725   1.980   3.910   6.887
 9609SOL    HW129726   1.975   3.925   6.789
 9609SOL    HW229727   2.071   3.934   6.920
 9610SOL     OW29728   1.831   4.994   3.645
 9610SOL    HW129729   1.920   5.040   3.641
 9610SOL    HW229730   1.836   4.907   3.598
 9611SOL     OW29731   0.885   6.609   6.648
 9611SOL    HW129732   0.901   6.706   6.671
 9611SOL    HW229733   0.892   6.554   6.731
 9612SOL     OW29734   0.274   4.092   1.140
 9612SOL    HW129735   0.368   4.078   1.169
 9612SOL    HW229736   0.271   4.163   1.069
 9613SOL     OW29737   5.301   0.483   3.651
 9613SOL    HW129738   5.233   0.537   3.602
 9613SOL    HW229739   5.393   0.512   3.624
 9614SOL     OW29740   3.540   2.194   1.316
 9614SOL    HW129741   3.465   2.216   1.378
 9614SOL    HW229742   3.506   2.192   1.222
 9615SOL     OW29743   2.479   6.596   7.020
 9615SOL    HW129744   2.390   6.567   0.032
 9615SOL    HW229745   2.517   6.668   0.053
 9616SOL     OW29746   4.187   4.028   0.871
 9616SOL    HW129747   4.150   4.051   0.961
 9616SOL    HW229748   4.182   4.108   0.811
 9617SOL     OW29749   1.310   3.150   3.042
 9617SOL    HW129750   1.399   3.188   3.068
 9617SOL    HW229751   1.253   3.141   3.124
 9618SOL     OW29752   3.792   6.905   6.386
 9618SOL    HW129753   3.800   6.805   6.383
 9618SOL    HW229754   3.696   6.932   6.377
 9619SOL     OW29755   1.255   6.848   6.843
 9619SOL    HW129756   1.318   6.895   6.781
 9619SOL    HW229757   1.286   6.860   6.938
 9620SOL     OW29758   4.457   1.037   6.265
 9620SOL    HW129759   4.466   0.973   6.342
 9620SOL    HW229760   4.546   1.078   6.246
 9621SOL     OW29761   0.923   1.116   1.920
 9621SOL    HW129762   0.831   1.131   1.955
 9621SOL    HW229763   0.974   1.202   1.922
 9622SOL     OW29764   0.432   1.064   0.575
 9622SOL    HW129765   0.424   1.131   0.501
 9622SOL    HW229766   0.417   1.109   0.663
 9623SOL     OW29767   2.845   3.950   5.610
 9623SOL    HW129768   2.801   3.987   5.528
 9623SOL    HW229769   2.920   3.889   5.583
 9624SOL     OW29770   0.019   4.102   2.349
 9624SOL    HW129771   0.067   4.087   2.435
 9624SOL    HW229772   0.003   4.014   2.304
 9625SOL     OW29773   4.990   5.523   6.916
 9625SOL    HW129774   4.996   5.622   6.933
 9625SOL    HW229775   5.007   5.474   7.002
 9626SOL     OW29776   3.720   4.540   6.851
 9626SOL    HW129777   3.654   4.607   6.818
 9626SOL    HW229778   3.674   4.475   6.912
 9627SOL     OW29779   6.984   5.834   4.415
 9627SOL    HW129780   6.947   5.914   4.462
 9627SOL    HW229781   0.008   5.863   4.333
 9628SOL     OW29782   4.889   4.565   6.937
 9628SOL    HW129783   4.817   4.565   7.006
 9628SOL    HW229784   4.854   4.603   6.852
 9629SOL     OW29785   0.084   6.955   2.081
 9629SOL    HW129786   0.093   6.945   2.181
 9629SOL    HW229787   0.100   6.867   2.038
 9630SOL     OW29788   6.557   0.383   5.313
 9630SOL    HW129789   6.648   0.349   5.290
 9630SOL    HW229790   6.488   0.330   5.264
 9631SOL     OW29791   6.970   6.679   6.685
 9631SOL    HW129792   6.947   6.776   6.681
 9631SOL    HW229793   0.045   6.669   6.691
 9632SOL     OW29794   0.974   6.914   3.055
 9632SOL    HW129795   0.897   6.967   3.093
 9632SOL    HW229796   1.059   6.963   3.072
 9633SOL     OW29797   5.324   4.753   5.809
 9633SOL    HW129798   5.344   4.846   5.839
 9633SOL    HW229799   5.393   4.724   5.742
 9634SOL     OW29800   1.117   5.576   3.975
 9634SOL    HW129801   1.147   5.648   3.913
 9634SOL    HW229802   1.037   5.530   3.936
 9635SOL     OW29803   1.905   4.651   5.588
 9635SOL    HW129804   1.886   4.585   5.514
 9635SOL    HW229805   1.818   4.687   5.623
 9636SOL     OW29806   4.297   1.754   5.966
 9636SOL    HW129807   4.341   1.682   6.020
 9636SOL    HW229808   4.313   1.737   5.869
 9637SOL     OW29809   2.547   2.164   6.304
 9637SOL    HW129810   2.638   2.145   6.267
 9637SOL    HW229811   2.515   2.085   6.356
 9638SOL     OW29812   6.630   3.347   6.783
 9638SOL    HW129813   6.723   3.338   6.748
 9638SOL    HW229814   6.589   3.431   6.749
 9639SOL     OW29815   3.517   1.556   2.223
 9639SOL    HW129816   3.516   1.547   2.123
 9639SOL    HW229817   3.611   1.550   2.255
 9640SOL     OW29818   2.262   2.695   3.373
 9640SOL    HW129819   2.295   2.608   3.337
 9640SOL    HW229820   2.313   2.770   3.330
 9641SOL     OW29821   4.066   6.304   0.952
 9641SOL    HW129822   4.161   6.295   0.983
 9641SOL    HW229823   4.010   6.341   1.026
 9642SOL     OW29824   3.769   6.625   4.974
 9642SOL    HW129825   3.799   6.689   5.045
 9642SOL    HW229826   3.693   6.665   4.923
 9643SOL     OW29827   5.175   5.226   3.911
 9643SOL    HW129828   5.076   5.222   3.929
 9643SOL    HW229829   5.211   5.314   3.943
 9644SOL     OW29830   1.368   4.391   5.285
 9644SOL    HW129831   1.399   4.297   5.304
 9644SOL    HW229832   1.389   4.449   5.363
 9645SOL     OW29833   3.673   5.417   3.437
 9645SOL    HW129834   3.655   5.457   3.527
 9645SOL    HW229835   3.674   5.317   3.444
 9646SOL     OW29836   2.931   4.779   2.087
 9646SOL    HW129837   2.880   4.705   2.042
 9646SOL    HW229838   2.941   4.757   2.185
 9647SOL     OW29839   5.880   5.299   1.235
 9647SOL    HW129840   5.967   5.254   1.253
 9647SOL    HW229841   5.837   5.324   1.321
 9648SOL     OW29842   4.273   1.713   6.976
 9648SOL    HW129843   4.285   1.699   6.878
 9648SOL    HW229844   4.191   1.768   6.992
 9649SOL     OW29845   2.670   6.500   6.833
 9649SOL    HW129846   2.624   6.524   6.918
 9649SOL    HW229847   2.601   6.476   6.764
 9650SOL     OW29848   5.787   5.221   2.487
 9650SOL    HW129849   5.735   5.268   2.416
 9650SOL    HW229850   5.880   5.206   2.456
 9651SOL     OW29851   6.863   1.033   6.260
 9651SOL    HW129852   6.907   0.977   6.191
 9651SOL    HW229853   6.822   1.114   6.216
 9652SOL     OW29854   2.412   4.800   0.831
 9652SOL    HW129855   2.456   4.857   0.900
 9652SOL    HW229856   2.313   4.812   0.835
 9653SOL     OW29857   4.097   5.417   4.667
 9653SOL    HW129858   4.085   5.436   4.570
 9653SOL    HW229859   4.013   5.439   4.716
 9654SOL     OW29860   3.333   3.290   1.401
 9654SOL    HW129861   3.432   3.287   1.412
 9654SOL    HW229862   3.292   3.332   1.482
 9655SOL     OW29863   6.955   1.866   6.869
 9655SOL    HW129864   7.010   1.863   6.953
 9655SOL    HW229865   6.864   1.830   6.888
 9656SOL     OW29866   2.903   2.204   0.887
 9656SOL    HW129867   2.815   2.158   0.896
 9656SOL    HW229868   2.891   2.303   0.888
 9657SOL     OW29869   6.399   0.632   4.309
 9657SOL    HW129870   6.492   0.631   4.347
 9657SOL    HW229871   6.400   0.682   4.222
 9658SOL     OW29872   6.278   2.341   2.767
 9658SOL    HW129873   6.322   2.276   2.705
 9658SOL    HW229874   6.330   2.427   2.767
 9659SOL     OW29875   6.494   4.189   0.361
 9659SOL    HW129876   6.568   4.195   0.293
 9659SOL    HW229877   6.409   4.165   0.315
 9660SOL     OW29878   0.594   5.801   0.433
 9660SOL    HW129879   0.545   5.866   0.376
 9660SOL    HW229880   0.530   5.759   0.498
 9661SOL     OW29881   3.546   6.491   2.306
 9661SOL    HW129882   3.516   6.524   2.217
 9661SOL    HW229883   3.619   6.550   2.341
 9662SOL     OW29884   5.810   2.193   5.086
 9662SOL    HW129885   5.848   2.246   5.010
 9662SOL    HW229886   5.714   2.171   5.067
 9663SOL     OW29887   0.811   5.787   4.248
 9663SOL    HW129888   0.826   5.693   4.280
 9663SOL    HW229889   0.746   5.786   4.172
 9664SOL     OW29890   6.389   6.751   3.590
 9664SOL    HW129891   6.393   6.845   3.622
 9664SOL    HW229892   6.481   6.719   3.569
 9665SOL     OW29893   5.330   5.784   5.955
 9665SOL    HW129894   5.291   5.797   5.864
 9665SOL    HW229895   5.423   5.749   5.948
 9666SOL     OW29896   5.383   4.228   2.294
 9666SOL    HW129897   5.359   4.251   2.389
 9666SOL    HW229898   5.453   4.157   2.293
 9667SOL     OW29899   3.184   3.128   4.384
 9667SOL    HW129900   3.104   3.187   4.391
 9667SOL    HW229901   3.180   3.075   4.300
 9668SOL     OW29902   6.103   1.008   6.996
 9668SOL    HW129903   6.055   0.991   0.057
 9668SOL    HW229904   6.196   1.040   7.016
 9669SOL     OW29905   1.118   0.343   1.925
 9669SOL    HW129906   1.169   0.300   1.850
 9669SOL    HW229907   1.054   0.276   1.964
 9670SOL     OW29908   5.131   4.850   6.081
 9670SOL    HW129909   5.064   4.782   6.112
 9670SOL    HW229910   5.109   4.876   5.987
 9671SOL     OW29911   0.589   5.563   6.387
 9671SOL    HW129912   0.551   5.548   6.296
 9671SOL    HW229913   0.519   5.604   6.446
 9672SOL     OW29914   1.102   6.195   4.759
 9672SOL    HW129915   1.143   6.181   4.668
 9672SOL    HW229916   1.149   6.138   4.826
 9673SOL     OW29917   5.246   4.284   6.948
 9673SOL    HW129918   5.322   4.277   7.013
 9673SOL    HW229919   5.264   4.224   6.870
 9674SOL     OW29920   2.782   6.523   3.506
 9674SOL    HW129921   2.701   6.510   3.564
 9674SOL    HW229922   2.774   6.610   3.458
 9675SOL     OW29923   5.746   1.610   1.248
 9675SOL    HW129924   5.719   1.704   1.223
 9675SOL    HW229925   5.832   1.587   1.202
 9676SOL     OW29926   1.489   3.566   5.670
 9676SOL    HW129927   1.507   3.485   5.615
 9676SOL    HW229928   1.524   3.552   5.763
 9677SOL     OW29929   2.633   5.271   5.699
 9677SOL    HW129930   2.558   5.227   5.651
 9677SOL    HW229931   2.670   5.208   5.768
 9678SOL     OW29932   3.276   3.794   2.538
 9678SOL    HW129933   3.326   3.800   2.451
 9678SOL    HW229934   3.224   3.878   2.551
 9679SOL     OW29935   1.662   1.493   2.520
 9679SOL    HW129936   1.610   1.412   2.494
 9679SOL    HW229937   1.742   1.502   2.461
 9680SOL     OW29938   6.421   0.472   4.011
 9680SOL    HW129939   6.371   0.433   3.934
 9680SOL    HW229940   6.398   0.568   4.022
 9681SOL     OW29941   2.863   1.174   0.655
 9681SOL    HW129942   2.788   1.223   0.699
 9681SOL    HW229943   2.827   1.099   0.600
 9682SOL     OW29944   4.893   5.019   3.852
 9682SOL    HW129945   4.846   5.083   3.912
 9682SOL    HW229946   4.878   5.046   3.757
 9683SOL     OW29947   3.236   4.824   0.677
 9683SOL    HW129948   3.263   4.841   0.582
 9683SOL    HW229949   3.138   4.805   0.681
 9684SOL     OW29950   6.968   2.329   5.171
 9684SOL    HW129951   6.940   2.423   5.190
 9684SOL    HW229952   6.889   2.268   5.181
 9685SOL     OW29953   1.984   3.243   0.699
 9685SOL    HW129954   1.895   3.206   0.726
 9685SOL    HW229955   2.012   3.312   0.766
 9686SOL     OW29956   5.782   2.025   0.913
 9686SOL    HW129957   5.719   1.951   0.892
 9686SOL    HW229958   5.839   2.000   0.991
 9687SOL     OW29959   2.287   0.583   4.086
 9687SOL    HW129960   2.297   0.676   4.050
 9687SOL    HW229961   2.360   0.525   4.049
 9688SOL     OW29962   0.045   2.263   3.641
 9688SOL    HW129963   7.000   2.330   3.615
 9688SOL    HW229964   0.093   2.294   3.723
 9689SOL     OW29965   2.026   6.226   0.996
 9689SOL    HW129966   2.116   6.242   0.956
 9689SOL    HW229967   1.994   6.134   0.970
 9690SOL     OW29968   5.810   5.454   6.423
 9690SOL    HW129969   5.731   5.400   6.449
 9690SOL    HW229970   5.885   5.393   6.396
 9691SOL     OW29971   2.569   4.441   1.587
 9691SOL    HW129972   2.560   4.539   1.568
 9691SOL    HW229973   2.573   4.391   1.500
 9692SOL     OW29974   2.829   4.831   2.817
 9692SOL    HW129975   2.823   4.930   2.812
 9692SOL    HW229976   2.851   4.803   2.911
 9693SOL     OW29977   6.102   5.219   1.631
 9693SOL    HW129978   6.201   5.206   1.630
 9693SOL    HW229979   6.056   5.135   1.603
 9694SOL     OW29980   2.209   1.296   5.900
 9694SOL    HW129981   2.125   1.349   5.885
 9694SOL    HW229982   2.274   1.314   5.827
 9695SOL     OW29983   6.822   3.916   1.475
 9695SOL    HW129984   6.759   3.971   1.530
 9695SOL    HW229985   6.854   3.838   1.529
 9696SOL     OW29986   5.232   2.284   1.080
 9696SOL    HW129987   5.245   2.320   0.987
 9696SOL    HW229988   5.135   2.286   1.103
 9697SOL     OW29989   6.928   5.669   6.754
 9697SOL    HW129990   6.998   5.599   6.767
 9697SOL    HW229991   6.841   5.626   6.730
 9698SOL     OW29992   5.472   1.247   6.296
 9698SOL    HW129993   5.401   1.291   6.240
 9698SOL    HW229994   5.558   1.298   6.287
 9699SOL     OW29995   0.404   4.436   6.656
 9699SOL    HW129996   0.444   4.378   6.726
 9699SOL    HW229997   0.378   4.380   6.577
 9700SOL     OW29998   4.193   5.513   5.212
 9700SOL    HW129999   4.212   5.465   5.298
 9700SOL    HW230000   4.258   5.482   5.142
 9701SOL     OW30001   3.489   5.281   4.682
 9701SOL    HW130002   3.487   5.308   4.779
 9701SOL    HW230003   3.579   5.242   4.661
 9702SOL     OW30004   5.421   0.251   0.465
 9702SOL    HW130005   5.365   0.329   0.438
 9702SOL    HW230006   5.457   0.266   0.558
 9703SOL     OW30007   3.927   5.738   3.566
 9703SOL    HW130008   3.912   5.795   3.486
 9703SOL    HW230009   3.889   5.782   3.647
 9704SOL     OW30010   3.201   1.266   1.988
 9704SOL    HW130011   3.238   1.198   2.052
 9704SOL    HW230012   3.187   1.352   2.035
 9705SOL     OW30013   5.151   5.873   0.503
 9705SOL    HW130014   5.194   5.934   0.570
 9705SOL    HW230015   5.130   5.786   0.546
 9706SOL     OW30016   1.319   2.560   0.641
 9706SOL    HW130017   1.267   2.536   0.559
 9706SOL    HW230018   1.316   2.485   0.706
 9707SOL     OW30019   6.684   4.131   1.601
 9707SOL    HW130020   6.714   4.165   1.691
 9707SOL    HW230021   6.728   4.185   1.529
 9708SOL     OW30022   1.286   1.995   3.101
 9708SOL    HW130023   1.283   2.089   3.137
 9708SOL    HW230024   1.336   1.994   3.015
 9709SOL     OW30025   6.198   5.731   2.939
 9709SOL    HW130026   6.170   5.657   2.879
 9709SOL    HW230027   6.295   5.753   2.923
 9710SOL     OW30028   0.651   1.504   2.375
 9710SOL    HW130029   0.629   1.598   2.402
 9710SOL    HW230030   0.745   1.501   2.342
 9711SOL     OW30031   1.634   3.018   5.655
 9711SOL    HW130032   1.578   3.007   5.573
 9711SOL    HW230033   1.574   3.026   5.735
 9712SOL     OW30034   5.762   3.857   5.592
 9712SOL    HW130035   5.734   3.940   5.543
 9712SOL    HW230036   5.739   3.867   5.689
 9713SOL     OW30037   1.251   4.506   3.568
 9713SOL    HW130038   1.171   4.521   3.511
 9713SOL    HW230039   1.224   4.465   3.655
 9714SOL     OW30040   2.263   1.689   1.496
 9714SOL    HW130041   2.303   1.683   1.405
 9714SOL    HW230042   2.281   1.779   1.535
 9715SOL     OW30043   5.828   4.758   5.423
 9715SOL    HW130044   5.876   4.682   5.467
 9715SOL    HW230045   5.790   4.728   5.336
 9716SOL     OW30046   3.980   2.691   6.982
 9716SOL    HW130047   3.956   2.715   0.051
 9716SOL    HW230048   4.030   2.766   6.940
 9717SOL     OW30049   5.923   5.546   5.807
 9717SOL    HW130050   5.955   5.641   5.805
 9717SOL    HW230051   5.929   5.510   5.900
 9718SOL     OW30052   4.941   3.105   1.882
 9718SOL    HW130053   4.863   3.072   1.935
 9718SOL    HW230054   5.011   3.140   1.945
 9719SOL     OW30055   0.678   2.110   6.897
 9719SOL    HW130056   0.741   2.173   6.943
 9719SOL    HW230057   0.655   2.035   6.958
 9720SOL     OW30058   0.464   5.659   1.772
 9720SOL    HW130059   0.534   5.721   1.806
 9720SOL    HW230060   0.377   5.708   1.764
 9721SOL     OW30061   0.759   2.848   1.403
 9721SOL    HW130062   0.763   2.933   1.350
 9721SOL    HW230063   0.672   2.803   1.386
 9722SOL     OW30064   0.302   0.007   3.525
 9722SOL    HW130065   0.301   0.046   3.433
 9722SOL    HW230066   0.271   6.937   3.522
 9723SOL     OW30067   2.157   6.060   3.609
 9723SOL    HW130068   2.151   6.131   3.539
 9723SOL    HW230069   2.147   5.970   3.567
 9724SOL     OW30070   2.827   3.089   0.689
 9724SOL    HW130071   2.738   3.101   0.733
 9724SOL    HW230072   2.856   3.176   0.649
 9725SOL     OW30073   4.025   3.774   6.653
 9725SOL    HW130074   4.109   3.743   6.698
 9725SOL    HW230075   4.035   3.762   6.554
 9726SOL     OW30076   4.437   6.695   4.143
 9726SOL    HW130077   4.342   6.723   4.133
 9726SOL    HW230078   4.441   6.601   4.176
 9727SOL     OW30079   0.636   3.730   5.201
 9727SOL    HW130080   0.708   3.797   5.183
 9727SOL    HW230081   0.613   3.732   5.299
 9728SOL     OW30082   0.666   0.107   6.510
 9728SOL    HW130083   0.685   0.019   6.553
 9728SOL    HW230084   0.731   0.123   6.436
 9729SOL     OW30085   0.723   4.667   2.275
 9729SOL    HW130086   0.720   4.620   2.363
 9729SOL    HW230087   0.806   4.722   2.269
 9730SOL     OW30088   0.338   3.140   2.716
 9730SOL    HW130089   0.359   3.224   2.766
 9730SOL    HW230090   0.306   3.070   2.780
 9731SOL     OW30091   4.500   4.389   0.608
 9731SOL    HW130092   4.410   4.347   0.591
 9731SOL    HW230093   4.522   4.382   0.705
 9732SOL     OW30094   5.272   5.714   3.209
 9732SOL    HW130095   5.186   5.667   3.230
 9732SOL    HW230096   5.259   5.812   3.217
 9733SOL     OW30097   5.339   4.961   6.214
 9733SOL    HW130098   5.332   5.052   6.174
 9733SOL    HW230099   5.279   4.898   6.163
 9734SOL     OW30100   4.905   2.089   3.772
 9734SOL    HW130101   4.857   2.051   3.851
 9734SOL    HW230102   4.876   2.184   3.759
 9735SOL     OW30103   1.745   4.592   2.631
 9735SOL    HW130104   1.804   4.621   2.556
 9735SOL    HW230105   1.752   4.493   2.643
 9736SOL     OW30106   6.249   1.490   6.085
 9736SOL    HW130107   6.346   1.507   6.068
 9736SOL    HW230108   6.195   1.564   6.044
 9737SOL     OW30109   6.472   3.208   5.140
 9737SOL    HW130110   6.403   3.136   5.142
 9737SOL    HW230111   6.554   3.178   5.188
 9738SOL     OW30112   1.858   0.228   2.928
 9738SOL    HW130113   1.848   0.297   2.857
 9738SOL    HW230114   1.773   0.176   2.936
 9739SOL     OW30115   6.613   5.421   1.847
 9739SOL    HW130116   6.658   5.387   1.929
 9739SOL    HW230117   6.525   5.375   1.835
 9740SOL     OW30118   6.837   3.229   3.556
 9740SOL    HW130119   6.879   3.269   3.474
 9740SOL    HW230120   6.763   3.167   3.529
 9741SOL     OW30121   4.454   1.362   2.442
 9741SOL    HW130122   4.448   1.330   2.347
 9741SOL    HW230123   4.400   1.445   2.453
 9742SOL     OW30124   4.314   6.933   2.724
 9742SOL    HW130125   4.285   6.986   2.803
 9742SOL    HW230126   4.358   6.993   2.657
 9743SOL     OW30127   1.701   1.933   4.802
 9743SOL    HW130128   1.791   1.909   4.840
 9743SOL    HW230129   1.650   1.849   4.783
 9744SOL     OW30130   0.125   6.798   2.649
 9744SOL    HW130131   0.053   6.783   2.581
 9744SOL    HW230132   0.188   6.721   2.649
 9745SOL     OW30133   6.889   2.643   6.175
 9745SOL    HW130134   6.869   2.705   6.100
 9745SOL    HW230135   6.954   2.573   6.145
 9746SOL     OW30136   5.999   1.625   6.419
 9746SOL    HW130137   5.948   1.657   6.499
 9746SOL    HW230138   5.963   1.670   6.337
 9747SOL     OW30139   1.867   0.904   1.539
 9747SOL    HW130140   1.922   0.928   1.619
 9747SOL    HW230141   1.838   0.809   1.545
 9748SOL     OW30142   1.283   1.108   4.219
 9748SOL    HW130143   1.377   1.102   4.184
 9748SOL    HW230144   1.271   1.040   4.291
 9749SOL     OW30145   2.286   1.896   5.097
 9749SOL    HW130146   2.206   1.840   5.118
 9749SOL    HW230147   2.261   1.963   5.027
 9750SOL     OW30148   4.836   5.113   3.599
 9750SOL    HW130149   4.754   5.169   3.608
 9750SOL    HW230150   4.867   5.115   3.504
 9751SOL     OW30151   1.814   1.558   0.485
 9751SOL    HW130152   1.747   1.619   0.442
 9751SOL    HW230153   1.886   1.613   0.527
 9752SOL     OW30154   4.596   0.808   0.277
 9752SOL    HW130155   4.551   0.786   0.364
 9752SOL    HW230156   4.529   0.845   0.213
 9753SOL     OW30157   5.836   5.571   5.065
 9753SOL    HW130158   5.845   5.473   5.080
 9753SOL    HW230159   5.788   5.588   4.979
 9754SOL     OW30160   0.912   1.747   0.162
 9754SOL    HW130161   0.862   1.666   0.132
 9754SOL    HW230162   0.855   1.800   0.224
 9755SOL     OW30163   4.269   3.212   5.326
 9755SOL    HW130164   4.172   3.227   5.346
 9755SOL    HW230165   4.319   3.298   5.340
 9756SOL     OW30166   6.382   3.410   0.263
 9756SOL    HW130167   6.428   3.377   0.345
 9756SOL    HW230168   6.449   3.453   0.202
 9757SOL     OW30169   5.526   3.185   3.076
 9757SOL    HW130170   5.460   3.155   3.007
 9757SOL    HW230171   5.495   3.271   3.117
 9758SOL     OW30172   2.066   6.771   6.519
 9758SOL    HW130173   2.023   6.820   6.443
 9758SOL    HW230174   2.125   6.699   6.482
 9759SOL     OW30175   2.228   6.630   0.117
 9759SOL    HW130176   2.217   6.700   0.187
 9759SOL    HW230177   2.168   6.649   0.040
 9760SOL     OW30178   4.785   3.673   5.434
 9760SOL    HW130179   4.777   3.666   5.334
 9760SOL    HW230180   4.826   3.761   5.457
 9761SOL     OW30181   6.136   6.367   2.055
 9761SOL    HW130182   6.167   6.397   1.965
 9761SOL    HW230183   6.059   6.303   2.044
 9762SOL     OW30184   2.341   2.269   5.121
 9762SOL    HW130185   2.259   2.243   5.173
 9762SOL    HW230186   2.361   2.366   5.136
 9763SOL     OW30187   4.213   2.371   1.815
 9763SOL    HW130188   4.204   2.308   1.739
 9763SOL    HW230189   4.148   2.347   1.887
 9764SOL     OW30190   0.925   2.392   2.889
 9764SOL    HW130191   0.905   2.471   2.946
 9764SOL    HW230192   1.021   2.395   2.860
 9765SOL     OW30193   6.245   2.063   3.973
 9765SOL    HW130194   6.226   2.003   3.895
 9765SOL    HW230195   6.230   2.012   4.058
 9766SOL     OW30196   2.338   0.706   2.843
 9766SOL    HW130197   2.380   0.619   2.815
 9766SOL    HW230198   2.338   0.712   2.943
 9767SOL     OW30199   5.072   1.924   5.343
 9767SOL    HW130200   4.993   1.960   5.393
 9767SOL    HW230201   5.047   1.911   5.247
 9768SOL     OW30202   4.490   1.735   2.048
 9768SOL    HW130203   4.558   1.807   2.034
 9768SOL    HW230204   4.526   1.667   2.112
 9769SOL     OW30205   1.795   1.546   2.085
 9769SOL    HW130206   1.782   1.514   1.992
 9769SOL    HW230207   1.808   1.645   2.085
 9770SOL     OW30208   5.844   7.004   6.849
 9770SOL    HW130209   5.821   0.058   6.906
 9770SOL    HW230210   5.798   6.922   6.882
 9771SOL     OW30211   4.013   4.606   1.456
 9771SOL    HW130212   3.987   4.603   1.552
 9771SOL    HW230213   4.016   4.701   1.425
 9772SOL     OW30214   0.778   6.176   1.946
 9772SOL    HW130215   0.734   6.264   1.964
 9772SOL    HW230216   0.813   6.173   1.853
 9773SOL     OW30217   5.314   6.700   4.179
 9773SOL    HW130218   5.412   6.688   4.168
 9773SOL    HW230219   5.272   6.722   4.091
 9774SOL     OW30220   5.987   5.109   2.332
 9774SOL    HW130221   5.949   5.163   2.257
 9774SOL    HW230222   5.995   5.014   2.305
 9775SOL     OW30223   2.867   1.401   4.169
 9775SOL    HW130224   2.807   1.334   4.125
 9775SOL    HW230225   2.834   1.493   4.150
 9776SOL     OW30226   6.884   5.574   4.416
 9776SOL    HW130227   6.912   5.670   4.423
 9776SOL    HW230228   6.852   5.542   4.505
 9777SOL     OW30229   5.494   4.968   6.449
 9777SOL    HW130230   5.557   4.901   6.487
 9777SOL    HW230231   5.455   4.933   6.364
 9778SOL     OW30232   6.499   0.740   3.739
 9778SOL    HW130233   6.431   0.685   3.691
 9778SOL    HW230234   6.566   0.776   3.673
 9779SOL     OW30235   2.596   1.992   4.766
 9779SOL    HW130236   2.533   2.052   4.814
 9779SOL    HW230237   2.660   1.952   4.831
 9780SOL     OW30238   2.201   1.980   0.852
 9780SOL    HW130239   2.190   2.075   0.824
 9780SOL    HW230240   2.115   1.931   0.840
 9781SOL     OW30241   1.989   3.834   3.688
 9781SOL    HW130242   1.914   3.812   3.751
 9781SOL    HW230243   1.959   3.821   3.594
 9782SOL     OW30244   7.013   0.783   1.705
 9782SOL    HW130245   0.013   0.823   1.617
 9782SOL    HW230246   0.063   0.726   1.738
 9783SOL     OW30247   4.697   1.554   1.847
 9783SOL    HW130248   4.631   1.602   1.905
 9783SOL    HW230249   4.667   1.559   1.752
 9784SOL     OW30250   4.970   1.097   3.985
 9784SOL    HW130251   5.057   1.050   3.974
 9784SOL    HW230252   4.901   1.054   3.926
 9785SOL     OW30253   0.167   4.055   4.699
 9785SOL    HW130254   0.173   3.955   4.702
 9785SOL    HW230255   0.073   4.083   4.718
 9786SOL     OW30256   1.964   4.974   6.194
 9786SOL    HW130257   1.883   4.915   6.197
 9786SOL    HW230258   2.036   4.934   6.251
 9787SOL     OW30259   5.407   3.886   1.038
 9787SOL    HW130260   5.435   3.936   1.120
 9787SOL    HW230261   5.314   3.914   1.012
 9788SOL     OW30262   0.502   0.592   3.862
 9788SOL    HW130263   0.487   0.599   3.763
 9788SOL    HW230264   0.594   0.557   3.880
 9789SOL     OW30265   2.330   5.902   6.624
 9789SOL    HW130266   2.423   5.929   6.647
 9789SOL    HW230267   2.331   5.813   6.580
 9790SOL     OW30268   5.580   3.515   5.300
 9790SOL    HW130269   5.578   3.462   5.384
 9790SOL    HW230270   5.636   3.597   5.312
 9791SOL     OW30271   0.782   0.674   2.932
 9791SOL    HW130272   0.779   0.603   3.002
 9791SOL    HW230273   0.719   0.651   2.858
 9792SOL     OW30274   5.036   5.160   1.541
 9792SOL    HW130275   5.029   5.137   1.638
 9792SOL    HW230276   4.967   5.229   1.518
 9793SOL     OW30277   5.888   5.921   2.991
 9793SOL    HW130278   5.961   5.913   2.922
 9793SOL    HW230279   5.913   5.868   3.072
 9794SOL     OW30280   6.134   3.739   6.599
 9794SOL    HW130281   6.037   3.755   6.617
 9794SOL    HW230282   6.144   3.698   6.508
 9795SOL     OW30283   1.269   2.399   3.879
 9795SOL    HW130284   1.244   2.449   3.797
 9795SOL    HW230285   1.318   2.460   3.941
 9796SOL     OW30286   3.249   3.926   0.722
 9796SOL    HW130287   3.169   3.982   0.745
 9796SOL    HW230288   3.232   3.832   0.752
 9797SOL     OW30289   3.769   3.948   6.925
 9797SOL    HW130290   3.794   4.044   6.915
 9797SOL    HW230291   3.725   3.934   7.014
 9798SOL     OW30292   2.261   0.593   0.590
 9798SOL    HW130293   2.241   0.539   0.508
 9798SOL    HW230294   2.204   0.560   0.666
 9799SOL     OW30295   3.124   3.426   2.672
 9799SOL    HW130296   3.173   3.502   2.715
 9799SOL    HW230297   3.175   3.341   2.686
 9800SOL     OW30298   4.020   5.988   5.846
 9800SOL    HW130299   3.938   5.998   5.902
 9800SOL    HW230300   4.040   6.074   5.800
 9801SOL     OW30301   4.162   5.058   0.062
 9801SOL    HW130302   4.243   5.102   0.024
 9801SOL    HW230303   4.189   4.990   0.129
 9802SOL     OW30304   6.939   2.727   2.211
 9802SOL    HW130305   6.879   2.800   2.244
 9802SOL    HW230306   6.887   2.641   2.207
 9803SOL     OW30307   6.340   0.799   6.872
 9803SOL    HW130308   6.307   0.807   6.778
 9803SOL    HW230309   6.348   0.702   6.896
 9804SOL     OW30310   0.289   5.487   3.671
 9804SOL    HW130311   0.297   5.441   3.760
 9804SOL    HW230312   0.267   5.420   3.601
 9805SOL     OW30313   1.235   5.647   6.956
 9805SOL    HW130314   1.266   5.725   6.902
 9805SOL    HW230315   1.181   5.679   0.009
 9806SOL     OW30316   0.839   2.023   1.362
 9806SOL    HW130317   0.897   2.060   1.434
 9806SOL    HW230318   0.798   1.937   1.393
 9807SOL     OW30319   2.842   2.658   0.167
 9807SOL    HW130320   2.910   2.721   0.127
 9807SOL    HW230321   2.886   2.571   0.188
 9808SOL     OW30322   5.577   0.637   5.750
 9808SOL    HW130323   5.501   0.621   5.813
 9808SOL    HW230324   5.613   0.549   5.718
 9809SOL     OW30325   0.394   1.832   6.140
 9809SOL    HW130326   0.365   1.821   6.045
 9809SOL    HW230327   0.471   1.772   6.159
 9810SOL     OW30328   2.752   2.261   3.098
 9810SOL    HW130329   2.766   2.168   3.064
 9810SOL    HW230330   2.822   2.283   3.166
 9811SOL     OW30331   5.672   5.920   3.875
 9811SOL    HW130332   5.755   5.956   3.917
 9811SOL    HW230333   5.691   5.833   3.830
 9812SOL     OW30334   3.890   2.413   6.395
 9812SOL    HW130335   3.803   2.454   6.367
 9812SOL    HW230336   3.873   2.342   6.463
 9813SOL     OW30337   5.846   5.845   6.908
 9813SOL    HW130338   5.920   5.787   6.943
 9813SOL    HW230339   5.877   5.895   6.828
 9814SOL     OW30340   0.302   0.654   5.966
 9814SOL    HW130341   0.338   0.748   5.972
 9814SOL    HW230342   0.221   0.653   5.909
 9815SOL     OW30343   6.768   1.899   1.397
 9815SOL    HW130344   6.718   1.986   1.400
 9815SOL    HW230345   6.721   1.836   1.335
 9816SOL     OW30346   6.672   1.196   6.892
 9816SOL    HW130347   6.654   1.175   6.795
 9816SOL    HW230348   6.699   1.292   6.900
 9817SOL     OW30349   2.965   5.785   1.786
 9817SOL    HW130350   2.957   5.884   1.781
 9817SOL    HW230351   3.023   5.752   1.712
 9818SOL     OW30352   1.831   1.312   3.694
 9818SOL    HW130353   1.826   1.412   3.690
 9818SOL    HW230354   1.887   1.279   3.618
 9819SOL     OW30355   5.308   3.843   4.850
 9819SOL    HW130356   5.288   3.829   4.947
 9819SOL    HW230357   5.392   3.796   4.825
 9820SOL     OW30358   3.038   2.346   6.613
 9820SOL    HW130359   3.037   2.322   6.711
 9820SOL    HW230360   2.944   2.349   6.579
 9821SOL     OW30361   4.322   2.365   1.165
 9821SOL    HW130362   4.222   2.358   1.162
 9821SOL    HW230363   4.353   2.348   1.259
 9822SOL     OW30364   3.807   6.379   4.280
 9822SOL    HW130365   3.747   6.385   4.360
 9822SOL    HW230366   3.865   6.460   4.277
 9823SOL     OW30367   1.480   0.879   2.322
 9823SOL    HW130368   1.558   0.918   2.274
 9823SOL    HW230369   1.483   0.905   2.418
 9824SOL     OW30370   2.756   5.720   5.630
 9824SOL    HW130371   2.721   5.813   5.640
 9824SOL    HW230372   2.687   5.664   5.584
 9825SOL     OW30373   5.529   5.802   4.925
 9825SOL    HW130374   5.626   5.778   4.931
 9825SOL    HW230375   5.483   5.776   5.010
 9826SOL     OW30376   3.532   6.536   5.575
 9826SOL    HW130377   3.533   6.462   5.642
 9826SOL    HW230378   3.504   6.500   5.486
 9827SOL     OW30379   2.213   5.248   2.775
 9827SOL    HW130380   2.167   5.178   2.829
 9827SOL    HW230381   2.275   5.205   2.709
 9828SOL     OW30382   3.677   2.115   4.673
 9828SOL    HW130383   3.577   2.119   4.676
 9828SOL    HW230384   3.715   2.207   4.674
 9829SOL     OW30385   5.287   6.658   6.096
 9829SOL    HW130386   5.232   6.719   6.153
 9829SOL    HW230387   5.228   6.586   6.059
 9830SOL     OW30388   5.545   1.268   2.448
 9830SOL    HW130389   5.549   1.252   2.546
 9830SOL    HW230390   5.581   1.188   2.400
 9831SOL     OW30391   0.343   4.263   1.815
 9831SOL    HW130392   0.279   4.248   1.740
 9831SOL    HW230393   0.347   4.181   1.872
 9832SOL     OW30394   4.857   5.090   4.435
 9832SOL    HW130395   4.816   5.022   4.496
 9832SOL    HW230396   4.944   5.054   4.399
 9833SOL     OW30397   3.193   4.049   3.486
 9833SOL    HW130398   3.190   3.950   3.499
 9833SOL    HW230399   3.288   4.079   3.481
 9834SOL     OW30400   2.432   5.135   5.606
 9834SOL    HW130401   2.416   5.038   5.625
 9834SOL    HW230402   2.442   5.148   5.507
 9835SOL     OW30403   3.775   3.935   4.062
 9835SOL    HW130404   3.857   3.878   4.060
 9835SOL    HW230405   3.789   4.011   4.126
 9836SOL     OW30406   0.888   4.468   5.555
 9836SOL    HW130407   0.955   4.401   5.522
 9836SOL    HW230408   0.930   4.525   5.626
 9837SOL     OW30409   5.618   2.022   2.186
 9837SOL    HW130410   5.676   2.069   2.253
 9837SOL    HW230411   5.552   2.086   2.148
 9838SOL     OW30412   1.478   6.491   0.947
 9838SOL    HW130413   1.573   6.467   0.930
 9838SOL    HW230414   1.434   6.515   0.860
 9839SOL     OW30415   4.799   0.961   3.820
 9839SOL    HW130416   4.739   0.996   3.748
 9839SOL    HW230417   4.754   0.884   3.866
 9840SOL     OW30418   4.910   1.430   0.098
 9840SOL    HW130419   4.982   1.399   0.161
 9840SOL    HW230420   4.870   1.515   0.133
 9841SOL     OW30421   0.270   5.252   3.502
 9841SOL    HW130422   0.365   5.264   3.472
 9841SOL    HW230423   0.264   5.172   3.562
 9842SOL     OW30424   3.717   3.390   0.381
 9842SOL    HW130425   3.745   3.427   0.470
 9842SOL    HW230426   3.630   3.341   0.392
 9843SOL     OW30427   6.334   0.177   1.783
 9843SOL    HW130428   6.434   0.181   1.787
 9843SOL    HW230429   6.301   0.247   1.720
 9844SOL     OW30430   5.801   0.432   4.597
 9844SOL    HW130431   5.795   0.336   4.621
 9844SOL    HW230432   5.762   0.446   4.506
 9845SOL     OW30433   1.284   2.308   2.478
 9845SOL    HW130434   1.355   2.369   2.443
 9845SOL    HW230435   1.194   2.347   2.460
 9846SOL     OW30436   4.895   1.742   1.047
 9846SOL    HW130437   4.900   1.740   1.147
 9846SOL    HW230438   4.933   1.829   1.014
 9847SOL     OW30439   3.906   3.068   2.013
 9847SOL    HW130440   3.993   3.091   1.969
 9847SOL    HW230441   3.839   3.044   1.942
 9848SOL     OW30442   3.299   4.178   5.546
 9848SOL    HW130443   3.248   4.185   5.460
 9848SOL    HW230444   3.389   4.140   5.528
 9849SOL     OW30445   0.989   0.436   6.582
 9849SOL    HW130446   0.931   0.391   6.649
 9849SOL    HW230447   0.935   0.503   6.530
 9850SOL     OW30448   0.465   0.309   4.421
 9850SOL    HW130449   0.542   0.291   4.360
 9850SOL    HW230450   0.386   0.338   4.367
 9851SOL     OW30451   2.898   5.507   4.762
 9851SOL    HW130452   2.888   5.606   4.749
 9851SOL    HW230453   2.969   5.489   4.831
 9852SOL     OW30454   1.058   2.103   6.096
 9852SOL    HW130455   1.049   2.200   6.116
 9852SOL    HW230456   1.121   2.061   6.161
 9853SOL     OW30457   7.014   4.078   5.084
 9853SOL    HW130458   0.028   4.017   5.015
 9853SOL    HW230459   6.971   4.025   5.157
 9854SOL     OW30460   0.942   5.789   5.614
 9854SOL    HW130461   1.018   5.732   5.646
 9854SOL    HW230462   0.978   5.873   5.572
 9855SOL     OW30463   0.926   3.452   0.959
 9855SOL    HW130464   0.947   3.423   1.052
 9855SOL    HW230465   0.830   3.434   0.938
 9856SOL     OW30466   5.577   5.166   4.032
 9856SOL    HW130467   5.499   5.152   4.094
 9856SOL    HW230468   5.662   5.153   4.082
 9857SOL     OW30469   5.550   2.914   3.097
 9857SOL    HW130470   5.583   2.912   3.002
 9857SOL    HW230471   5.508   3.003   3.115
 9858SOL     OW30472   1.337   6.679   2.309
 9858SOL    HW130473   1.431   6.671   2.343
 9858SOL    HW230474   1.306   6.590   2.276
 9859SOL     OW30475   6.842   5.084   4.820
 9859SOL    HW130476   6.881   5.148   4.886
 9859SOL    HW230477   6.771   5.030   4.863
 9860SOL     OW30478   1.880   2.399   5.127
 9860SOL    HW130479   1.782   2.383   5.137
 9860SOL    HW230480   1.916   2.437   5.212
 9861SOL     OW30481   3.369   1.266   3.671
 9861SOL    HW130482   3.439   1.235   3.735
 9861SOL    HW230483   3.294   1.307   3.722
 9862SOL     OW30484   2.610   4.267   1.371
 9862SOL    HW130485   2.609   4.174   1.407
 9862SOL    HW230486   2.518   4.293   1.341
 9863SOL     OW30487   3.228   5.795   0.796
 9863SOL    HW130488   3.311   5.796   0.851
 9863SOL    HW230489   3.227   5.713   0.738
 9864SOL     OW30490   2.920   6.858   5.381
 9864SOL    HW130491   2.979   6.918   5.327
 9864SOL    HW230492   2.933   6.763   5.353
 9865SOL     OW30493   0.423   0.052   5.237
 9865SOL    HW130494   0.427   7.022   5.320
 9865SOL    HW230495   0.337   0.102   5.233
 9866SOL     OW30496   5.987   4.504   4.808
 9866SOL    HW130497   5.940   4.416   4.800
 9866SOL    HW230498   6.056   4.498   4.881
 9867SOL     OW30499   4.719   2.305   2.667
 9867SOL    HW130500   4.783   2.320   2.591
 9867SOL    HW230501   4.712   2.389   2.721
 9868SOL     OW30502   1.050   4.110   3.504
 9868SOL    HW130503   1.027   4.099   3.407
 9868SOL    HW230504   1.124   4.047   3.527
 9869SOL     OW30505   0.553   2.499   1.358
 9869SOL    HW130506   0.545   2.524   1.454
 9869SOL    HW230507   0.623   2.429   1.347
 9870SOL     OW30508   4.115   1.276   1.969
 9870SOL    HW130509   4.056   1.230   2.035
 9870SOL    HW230510   4.118   1.224   1.884
 9871SOL     OW30511   6.586   2.901   5.515
 9871SOL    HW130512   6.547   2.814   5.546
 9871SOL    HW230513   6.664   2.926   5.573
 9872SOL     OW30514   2.328   5.600   5.142
 9872SOL    HW130515   2.312   5.505   5.167
 9872SOL    HW230516   2.280   5.660   5.206
 9873SOL     OW30517   1.552   2.249   5.503
 9873SOL    HW130518   1.530   2.290   5.415
 9873SOL    HW230519   1.563   2.150   5.492
 9874SOL     OW30520   1.117   2.828   4.389
 9874SOL    HW130521   1.018   2.819   4.377
 9874SOL    HW230522   1.142   2.925   4.387
 9875SOL     OW30523   0.673   6.294   1.116
 9875SOL    HW130524   0.636   6.360   1.050
 9875SOL    HW230525   0.694   6.208   1.069
 9876SOL     OW30526   3.372   0.356   3.534
 9876SOL    HW130527   3.453   0.303   3.506
 9876SOL    HW230528   3.347   0.330   3.627
 9877SOL     OW30529   7.005   4.310   4.199
 9877SOL    HW130530   0.077   4.335   4.202
 9877SOL    HW230531   6.988   4.253   4.118
 9878SOL     OW30532   1.872   2.800   6.793
 9878SOL    HW130533   1.873   2.760   6.884
 9878SOL    HW230534   1.897   2.897   6.798
 9879SOL     OW30535   1.207   4.380   5.590
 9879SOL    HW130536   1.300   4.351   5.569
 9879SOL    HW230537   1.210   4.456   5.655
 9880SOL     OW30538   2.800   1.085   6.754
 9880SOL    HW130539   2.752   1.139   6.685
 9880SOL    HW230540   2.898   1.105   6.749
 9881SOL     OW30541   5.359   0.668   4.701
 9881SOL    HW130542   5.305   0.587   4.683
 9881SOL    HW230543   5.453   0.642   4.724
 9882SOL     OW30544   4.095   3.236   4.634
 9882SOL    HW130545   4.137   3.199   4.550
 9882SOL    HW230546   4.047   3.163   4.682
 9883SOL     OW30547   1.844   5.754   1.863
 9883SOL    HW130548   1.794   5.830   1.906
 9883SOL    HW230549   1.921   5.727   1.921
 9884SOL     OW30550   1.592   3.084   6.972
 9884SOL    HW130551   1.509   3.131   6.940
 9884SOL    HW230552   1.657   3.152   7.007
 9885SOL     OW30553   0.060   2.669   3.758
 9885SOL    HW130554   0.020   2.705   3.842
 9885SOL    HW230555   0.144   2.719   3.737
 9886SOL     OW30556   5.610   6.033   1.719
 9886SOL    HW130557   5.697   6.005   1.677
 9886SOL    HW230558   5.535   5.987   1.672
 9887SOL     OW30559   4.364   6.674   0.301
 9887SOL    HW130560   4.409   6.735   0.367
 9887SOL    HW230561   4.335   6.590   0.348
 9888SOL     OW30562   5.728   5.820   2.723
 9888SOL    HW130563   5.794   5.744   2.727
 9888SOL    HW230564   5.676   5.824   2.808
 9889SOL     OW30565   0.010   4.898   3.049
 9889SOL    HW130566   0.022   4.799   3.040
 9889SOL    HW230567   6.938   4.918   3.067
 9890SOL     OW30568   6.539   2.565   0.671
 9890SOL    HW130569   6.600   2.508   0.617
 9890SOL    HW230570   6.469   2.509   0.714
 9891SOL     OW30571   5.134   4.827   1.160
 9891SOL    HW130572   5.094   4.914   1.187
 9891SOL    HW230573   5.169   4.833   1.066
 9892SOL     OW30574   2.462   4.968   3.657
 9892SOL    HW130575   2.557   4.942   3.672
 9892SOL    HW230576   2.453   5.067   3.665
 9893SOL     OW30577   5.829   6.190   2.678
 9893SOL    HW130578   5.787   6.251   2.611
 9893SOL    HW230579   5.878   6.117   2.630
 9894SOL     OW30580   3.678   1.626   6.081
 9894SOL    HW130581   3.700   1.663   6.171
 9894SOL    HW230582   3.685   1.699   6.012
 9895SOL     OW30583   5.441   2.098   6.573
 9895SOL    HW130584   5.355   2.149   6.568
 9895SOL    HW230585   5.459   2.072   6.667
 9896SOL     OW30586   3.963   3.342   0.850
 9896SOL    HW130587   3.875   3.381   0.878
 9896SOL    HW230588   3.973   3.251   0.890
 9897SOL     OW30589   4.976   1.653   3.096
 9897SOL    HW130590   4.877   1.650   3.103
 9897SOL    HW230591   5.014   1.568   3.133
 9898SOL     OW30592   1.124   4.707   5.494
 9898SOL    HW130593   1.094   4.641   5.426
 9898SOL    HW230594   1.086   4.682   5.584
 9899SOL     OW30595   5.569   4.636   2.197
 9899SOL    HW130596   5.554   4.687   2.282
 9899SOL    HW230597   5.502   4.562   2.191
 9900SOL     OW30598   1.508   2.067   3.488
 9900SOL    HW130599   1.473   1.977   3.461
 9900SOL    HW230600   1.587   2.056   3.549
 9901SOL     OW30601   1.887   1.974   6.178
 9901SOL    HW130602   1.856   2.067   6.200
 9901SOL    HW230603   1.976   1.958   6.220
 9902SOL     OW30604   3.720   3.505   0.674
 9902SOL    HW130605   3.800   3.556   0.706
 9902SOL    HW230606   3.638   3.561   0.687
 9903SOL     OW30607   4.719   1.107   2.348
 9903SOL    HW130608   4.760   1.157   2.424
 9903SOL    HW230609   4.645   1.049   2.383
 9904SOL     OW30610   6.574   3.139   7.011
 9904SOL    HW130611   6.588   3.191   6.926
 9904SOL    HW230612   6.541   3.200   0.058
 9905SOL     OW30613   1.100   6.210   6.882
 9905SOL    HW130614   1.096   6.162   6.794
 9905SOL    HW230615   1.044   6.293   6.879
 9906SOL     OW30616   1.676   2.952   6.281
 9906SOL    HW130617   1.655   3.034   6.227
 9906SOL    HW230618   1.593   2.918   6.325
 9907SOL     OW30619   2.872   5.872   3.290
 9907SOL    HW130620   2.799   5.804   3.302
 9907SOL    HW230621   2.921   5.884   3.376
 9908SOL     OW30622   0.865   3.552   6.166
 9908SOL    HW130623   0.852   3.601   6.079
 9908SOL    HW230624   0.802   3.589   6.234
 9909SOL     OW30625   2.365   1.458   2.925
 9909SOL    HW130626   2.435   1.394   2.892
 9909SOL    HW230627   2.275   1.413   2.922
 9910SOL     OW30628   0.290   4.890   1.023
 9910SOL    HW130629   0.215   4.950   1.052
 9910SOL    HW230630   0.324   4.920   0.934
 9911SOL     OW30631   5.093   5.269   2.404
 9911SOL    HW130632   5.049   5.189   2.363
 9911SOL    HW230633   5.029   5.315   2.464
 9912SOL     OW30634   4.107   0.655   2.345
 9912SOL    HW130635   4.108   0.650   2.245
 9912SOL    HW230636   4.039   0.591   2.381
 9913SOL     OW30637   5.499   2.788   2.267
 9913SOL    HW130638   5.571   2.750   2.324
 9913SOL    HW230639   5.412   2.784   2.317
 9914SOL     OW30640   1.655   0.774   5.539
 9914SOL    HW130641   1.611   0.727   5.462
 9914SOL    HW230642   1.708   0.852   5.504
 9915SOL     OW30643   5.526   3.314   3.886
 9915SOL    HW130644   5.592   3.261   3.833
 9915SOL    HW230645   5.574   3.370   3.954
 9916SOL     OW30646   2.170   3.244   2.759
 9916SOL    HW130647   2.166   3.219   2.856
 9916SOL    HW230648   2.133   3.336   2.747
 9917SOL     OW30649   3.325   3.840   4.946
 9917SOL    HW130650   3.285   3.814   4.858
 9917SOL    HW230651   3.257   3.831   5.018
 9918SOL     OW30652   2.060   1.503   6.245
 9918SOL    HW130653   2.105   1.575   6.297
 9918SOL    HW230654   1.986   1.464   6.300
 9919SOL     OW30655   1.457   5.600   2.642
 9919SOL    HW130656   1.379   5.629   2.586
 9919SOL    HW230657   1.542   5.626   2.596
 9920SOL     OW30658   3.825   6.784   1.865
 9920SOL    HW130659   3.814   6.881   1.847
 9920SOL    HW230660   3.922   6.760   1.858
 9921SOL     OW30661   5.801   0.007   3.216
 9921SOL    HW130662   5.860   0.031   3.139
 9921SOL    HW230663   5.850   0.019   3.302
 9922SOL     OW30664   4.655   4.796   1.208
 9922SOL    HW130665   4.611   4.709   1.186
 9922SOL    HW230666   4.632   4.864   1.138
 9923SOL     OW30667   6.332   2.336   6.453
 9923SOL    HW130668   6.346   2.350   6.355
 9923SOL    HW230669   6.244   2.291   6.468
 9924SOL     OW30670   5.743   1.487   2.384
 9924SOL    HW130671   5.734   1.587   2.386
 9924SOL    HW230672   5.652   1.446   2.383
 9925SOL     OW30673   2.240   3.553   5.662
 9925SOL    HW130674   2.299   3.615   5.714
 9925SOL    HW230675   2.151   3.596   5.648
 9926SOL     OW30676   2.418   1.788   1.037
 9926SOL    HW130677   2.491   1.851   1.011
 9926SOL    HW230678   2.359   1.770   0.958
 9927SOL     OW30679   1.048   1.822   2.376
 9927SOL    HW130680   1.099   1.737   2.391
 9927SOL    HW230681   0.981   1.833   2.450
 9928SOL     OW30682   0.019   4.712   1.557
 9928SOL    HW130683   0.108   4.754   1.574
 9928SOL    HW230684   6.978   4.747   1.624
 9929SOL     OW30685   3.343   4.344   5.282
 9929SOL    HW130686   3.276   4.272   5.303
 9929SOL    HW230687   3.300   4.434   5.293
 9930SOL     OW30688   0.045   0.446   5.868
 9930SOL    HW130689   6.975   0.437   5.839
 9930SOL    HW230690   0.074   0.541   5.857
 9931SOL     OW30691   0.907   6.553   4.681
 9931SOL    HW130692   0.911   6.649   4.651
 9931SOL    HW230693   0.975   6.538   4.753
 9932SOL     OW30694   1.742   2.128   0.502
 9932SOL    HW130695   1.729   2.227   0.502
 9932SOL    HW230696   1.780   2.099   0.415
 9933SOL     OW30697   2.463   0.372   3.944
 9933SOL    HW130698   2.413   0.348   3.860
 9933SOL    HW230699   2.539   0.433   3.921
 9934SOL     OW30700   6.196   1.228   6.686
 9934SOL    HW130701   6.169   1.251   6.779
 9934SOL    HW230702   6.116   1.197   6.635
 9935SOL     OW30703   2.840   2.406   0.398
 9935SOL    HW130704   2.939   2.420   0.405
 9935SOL    HW230705   2.798   2.424   0.487
 9936SOL     OW30706   5.353   5.023   5.867
 9936SOL    HW130707   5.312   5.089   5.929
 9936SOL    HW230708   5.335   5.050   5.772
 9937SOL     OW30709   0.171   0.233   2.659
 9937SOL    HW130710   0.084   0.188   2.642
 9937SOL    HW230711   0.246   0.174   2.629
 9938SOL     OW30712   6.039   1.358   4.704
 9938SOL    HW130713   6.081   1.445   4.729
 9938SOL    HW230714   5.991   1.320   4.783
 9939SOL     OW30715   1.777   3.462   0.970
 9939SOL    HW130716   1.727   3.540   1.007
 9939SOL    HW230717   1.872   3.464   1.003
 9940SOL     OW30718   6.931   0.204   2.950
 9940SOL    HW130719   6.941   0.121   3.004
 9940SOL    HW230720   6.935   0.284   3.011
 9941SOL     OW30721   3.922   5.526   5.789
 9941SOL    HW130722   3.991   5.453   5.788
 9941SOL    HW230723   3.860   5.511   5.866
 9942SOL     OW30724   5.208   5.263   2.722
 9942SOL    HW130725   5.168   5.251   2.632
 9942SOL    HW230726   5.147   5.227   2.792
 9943SOL     OW30727   1.575   3.780   6.124
 9943SOL    HW130728   1.630   3.704   6.158
 9943SOL    HW230729   1.481   3.748   6.107
 9944SOL     OW30730   1.675   5.410   6.418
 9944SOL    HW130731   1.690   5.336   6.352
 9944SOL    HW230732   1.588   5.396   6.465
 9945SOL     OW30733   6.420   3.677   6.611
 9945SOL    HW130734   6.324   3.706   6.611
 9945SOL    HW230735   6.458   3.688   6.520
 9946SOL     OW30736   5.955   0.905   3.217
 9946SOL    HW130737   5.890   0.829   3.228
 9946SOL    HW230738   5.928   0.981   3.276
 9947SOL     OW30739   0.869   2.173   4.210
 9947SOL    HW130740   0.955   2.222   4.192
 9947SOL    HW230741   0.889   2.084   4.250
 9948SOL     OW30742   6.807   6.880   4.695
 9948SOL    HW130743   6.821   6.876   4.596
 9948SOL    HW230744   6.710   6.892   4.715
 9949SOL     OW30745   6.790   4.405   4.802
 9949SOL    HW130746   6.731   4.379   4.727
 9949SOL    HW230747   6.743   4.470   4.862
 9950SOL     OW30748   6.356   4.501   6.518
 9950SOL    HW130749   6.435   4.528   6.573
 9950SOL    HW230750   6.340   4.571   6.447
 9951SOL     OW30751   1.614   3.103   2.524
 9951SOL    HW130752   1.524   3.078   2.488
 9951SOL    HW230753   1.625   3.063   2.615
 9952SOL     OW30754   0.549   3.788   1.472
 9952SOL    HW130755   0.584   3.705   1.516
 9952SOL    HW230756   0.516   3.851   1.543
 9953SOL     OW30757   6.378   2.740   3.515
 9953SOL    HW130758   6.348   2.829   3.548
 9953SOL    HW230759   6.457   2.752   3.454
 9954SOL     OW30760   3.005   1.525   5.250
 9954SOL    HW130761   3.060   1.560   5.174
 9954SOL    HW230762   2.969   1.602   5.303
 9955SOL     OW30763   4.378   3.409   0.527
 9955SOL    HW130764   4.475   3.385   0.524
 9955SOL    HW230765   4.334   3.381   0.442
 9956SOL     OW30766   0.778   4.023   2.531
 9956SOL    HW130767   0.848   4.036   2.602
 9956SOL    HW230768   0.792   3.935   2.487
 9957SOL     OW30769   5.770   0.195   1.507
 9957SOL    HW130770   5.755   0.123   1.574
 9957SOL    HW230771   5.836   0.165   1.438
 9958SOL     OW30772   3.931   5.016   6.339
 9958SOL    HW130773   3.866   4.961   6.391
 9958SOL    HW230774   3.897   5.110   6.330
 9959SOL     OW30775   4.771   3.719   1.561
 9959SOL    HW130776   4.720   3.647   1.608
 9959SOL    HW230777   4.742   3.724   1.466
 9960SOL     OW30778   6.345   6.798   1.591
 9960SOL    HW130779   6.336   6.878   1.532
 9960SOL    HW230780   6.401   6.820   1.670
 9961SOL     OW30781   1.268   4.254   1.499
 9961SOL    HW130782   1.232   4.346   1.512
 9961SOL    HW230783   1.250   4.224   1.405
 9962SOL     OW30784   3.695   6.440   1.987
 9962SOL    HW130785   3.607   6.482   2.011
 9962SOL    HW230786   3.695   6.420   1.889
 9963SOL     OW30787   2.790   2.304   0.155
 9963SOL    HW130788   2.777   2.207   0.173
 9963SOL    HW230789   2.792   2.354   0.241
 9964SOL     OW30790   4.558   4.433   5.322
 9964SOL    HW130791   4.541   4.336   5.308
 9964SOL    HW230792   4.625   4.445   5.396
 9965SOL     OW30793   3.456   5.950   5.068
 9965SOL    HW130794   3.405   5.868   5.092
 9965SOL    HW230795   3.552   5.926   5.051
 9966SOL     OW30796   2.915   4.842   2.382
 9966SOL    HW130797   2.821   4.848   2.418
 9966SOL    HW230798   2.979   4.865   2.455
 9967SOL     OW30799   6.210   6.411   2.365
 9967SOL    HW130800   6.249   6.435   2.276
 9967SOL    HW230801   6.128   6.466   2.381
 9968SOL     OW30802   4.368   5.708   6.918
 9968SOL    HW130803   4.319   5.714   7.005
 9968SOL    HW230804   4.449   5.767   6.922
 9969SOL     OW30805   1.299   4.233   4.351
 9969SOL    HW130806   1.370   4.205   4.416
 9969SOL    HW230807   1.333   4.220   4.258
 9970SOL     OW30808   5.318   5.218   1.523
 9970SOL    HW130809   5.229   5.174   1.532
 9970SOL    HW230810   5.366   5.180   1.444
 9971SOL     OW30811   1.415   2.960   1.352
 9971SOL    HW130812   1.429   2.924   1.444
 9971SOL    HW230813   1.497   3.010   1.323
 9972SOL     OW30814   3.252   4.067   1.255
 9972SOL    HW130815   3.285   4.034   1.167
 9972SOL    HW230816   3.158   4.102   1.244
 9973SOL     OW30817   4.606   2.632   4.876
 9973SOL    HW130818   4.530   2.567   4.881
 9973SOL    HW230819   4.690   2.583   4.853
 9974SOL     OW30820   6.608   2.401   3.370
 9974SOL    HW130821   6.510   2.421   3.361
 9974SOL    HW230822   6.620   2.323   3.432
 9975SOL     OW30823   1.039   5.275   6.620
 9975SOL    HW130824   0.957   5.330   6.608
 9975SOL    HW230825   1.119   5.334   6.625
 9976SOL     OW30826   1.092   5.169   5.867
 9976SOL    HW130827   1.122   5.077   5.842
 9976SOL    HW230828   1.030   5.204   5.797
 9977SOL     OW30829   5.303   5.397   5.239
 9977SOL    HW130830   5.274   5.390   5.144
 9977SOL    HW230831   5.395   5.358   5.248
 9978SOL     OW30832   0.316   2.188   5.973
 9978SOL    HW130833   0.400   2.237   5.996
 9978SOL    HW230834   0.279   2.223   5.887
 9979SOL     OW30835   5.366   3.854   6.011
 9979SOL    HW130836   5.422   3.927   6.049
 9979SOL    HW230837   5.412   3.767   6.023
 9980SOL     OW30838   1.524   1.001   0.389
 9980SOL    HW130839   1.446   1.056   0.420
 9980SOL    HW230840   1.544   1.024   0.294
 9981SOL     OW30841   1.742   2.187   0.913
 9981SOL    HW130842   1.677   2.138   0.855
 9981SOL    HW230843   1.785   2.122   0.977
 9982SOL     OW30844   2.089   1.266   4.383
 9982SOL    HW130845   2.003   1.308   4.410
 9982SOL    HW230846   2.165   1.315   4.425
 9983SOL     OW30847   6.383   2.955   2.482
 9983SOL    HW130848   6.312   2.906   2.432
 9983SOL    HW230849   6.415   3.032   2.426
 9984SOL     OW30850   0.153   5.702   0.956
 9984SOL    HW130851   0.095   5.770   0.910
 9984SOL    HW230852   0.249   5.729   0.948
 9985SOL     OW30853   3.220   5.412   0.975
 9985SOL    HW130854   3.146   5.478   0.960
 9985SOL    HW230855   3.299   5.439   0.920
 9986SOL     OW30856   6.031   4.427   0.806
 9986SOL    HW130857   6.010   4.337   0.767
 9986SOL    HW230858   5.991   4.499   0.749
 9987SOL     OW30859   5.275   3.382   1.993
 9987SOL    HW130860   5.338   3.398   2.068
 9987SOL    HW230861   5.323   3.393   1.906
 9988SOL     OW30862   0.140   5.528   4.421
 9988SOL    HW130863   0.042   5.520   4.444
 9988SOL    HW230864   0.177   5.611   4.462
 9989SOL     OW30865   6.331   3.438   2.104
 9989SOL    HW130866   6.322   3.346   2.065
 9989SOL    HW230867   6.427   3.465   2.101
 9990SOL     OW30868   1.021   6.169   3.487
 9990SOL    HW130869   1.078   6.135   3.413
 9990SOL    HW230870   0.973   6.252   3.458
 9991SOL     OW30871   1.731   3.616   3.729
 9991SOL    HW130872   1.764   3.553   3.800
 9991SOL    HW230873   1.783   3.601   3.645
 9992SOL     OW30874   3.377   3.920   1.072
 9992SOL    HW130875   3.350   3.840   1.126
 9992SOL    HW230876   3.421   3.889   0.987
 9993SOL     OW30877   3.015   6.094   4.038
 9993SOL    HW130878   3.014   6.191   4.016
 9993SOL    HW230879   2.938   6.049   3.992
 9994SOL     OW30880   6.712   4.127   3.380
 9994SOL    HW130881   6.772   4.047   3.387
 9994SOL    HW230882   6.634   4.116   3.441
 9995SOL     OW30883   3.203   1.093   3.490
 9995SOL    HW130884   3.139   1.169   3.478
 9995SOL    HW230885   3.262   1.111   3.570
 9996SOL     OW30886   3.189   3.670   0.831
 9996SOL    HW130887   3.112   3.606   0.827
 9996SOL    HW230888   3.244   3.652   0.913
 9997SOL     OW30889   4.725   1.476   3.388
 9997SOL    HW130890   4.751   1.517   3.301
 9997SOL    HW230891   4.680   1.388   3.371
 9998SOL     OW30892   4.865   3.873   2.724
 9998SOL    HW130893   4.916   3.934   2.785
 9998SOL    HW230894   4.927   3.837   2.655
 9999SOL     OW30895   0.258   6.935   4.175
 9999SOL    HW130896   0.220   0.000   4.196
 9999SOL    HW230897   0.301   6.897   4.257
10000SOL     OW30898   5.830   1.339   1.529
10000SOL    HW130899   5.875   1.423   1.558
10000SOL    HW230900   5.738   1.336   1.568
10001SOL     OW30901   3.464   6.320   2.532
10001SOL    HW130902   3.535   6.348   2.597
10001SOL    HW230903   3.467   6.380   2.452
10002SOL     OW30904   2.470   1.449   1.372
10002SOL    HW130905   2.560   1.470   1.334
10002SOL    HW230906   2.400   1.501   1.323
10003SOL     OW30907   3.103   1.899   2.290
10003SOL    HW130908   3.085   1.959   2.368
10003SOL    HW230909   3.153   1.950   2.220
10004SOL     OW30910   5.282   4.605   4.791
10004SOL    HW130911   5.361   4.624   4.733
10004SOL    HW230912   5.269   4.506   4.798
10005SOL     OW30913   3.308   5.177   2.676
10005SOL    HW130914   3.318   5.080   2.699
10005SOL    HW230915   3.396   5.223   2.684
10006SOL     OW30916   5.189   0.486   5.305
10006SOL    HW130917   5.285   0.466   5.324
10006SOL    HW230918   5.135   0.471   5.388
10007SOL     OW30919   0.388   3.494   4.485
10007SOL    HW130920   0.435   3.574   4.522
10007SOL    HW230921   0.406   3.487   4.387
10008SOL     OW30922   4.886   1.707   3.521
10008SOL    HW130923   4.797   1.699   3.567
10008SOL    HW230924   4.885   1.787   3.461
10009SOL     OW30925   1.988   4.362   1.175
10009SOL    HW130926   2.005   4.263   1.182
10009SOL    HW230927   1.941   4.394   1.257
10010SOL     OW30928   2.721   5.792   6.870
10010SOL    HW130929   2.652   5.728   6.902
10010SOL    HW230930   2.792   5.743   6.819
10011SOL     OW30931   0.145   4.121   6.850
10011SOL    HW130932   0.184   4.035   6.817
10011SOL    HW230933   0.143   4.187   6.775
10012SOL     OW30934   4.683   0.535   2.445
10012SOL    HW130935   4.633   0.618   2.419
10012SOL    HW230936   4.742   0.555   2.522
10013SOL     OW30937   1.039   4.227   3.849
10013SOL    HW130938   1.057   4.227   3.750
10013SOL    HW230939   1.064   4.138   3.887
10014SOL     OW30940   1.596   6.720   2.323
10014SOL    HW130941   1.653   6.802   2.331
10014SOL    HW230942   1.578   6.702   2.227
10015SOL     OW30943   3.934   5.189   0.420
10015SOL    HW130944   3.928   5.189   0.320
10015SOL    HW230945   4.017   5.236   0.448
10016SOL     OW30946   2.622   1.510   4.980
10016SOL    HW130947   2.660   1.545   4.894
10016SOL    HW230948   2.683   1.440   5.017
10017SOL     OW30949   1.700   1.090   3.402
10017SOL    HW130950   1.674   1.098   3.306
10017SOL    HW230951   1.623   1.052   3.454
10018SOL     OW30952   6.463   4.225   5.323
10018SOL    HW130953   6.384   4.191   5.374
10018SOL    HW230954   6.547   4.193   5.366
10019SOL     OW30955   0.445   0.978   3.290
10019SOL    HW130956   0.366   1.010   3.239
10019SOL    HW230957   0.528   0.997   3.238
10020SOL     OW30958   0.478   0.832   2.395
10020SOL    HW130959   0.485   0.825   2.295
10020SOL    HW230960   0.386   0.809   2.424
10021SOL     OW30961   0.601   3.069   2.283
10021SOL    HW130962   0.575   3.095   2.377
10021SOL    HW230963   0.680   3.008   2.287
10022SOL     OW30964   2.387   5.365   0.214
10022SOL    HW130965   2.423   5.308   0.141
10022SOL    HW230966   2.448   5.360   0.293
10023SOL     OW30967   2.912   5.598   5.424
10023SOL    HW130968   2.870   5.545   5.351
10023SOL    HW230969   2.899   5.552   5.512
10024SOL     OW30970   0.799   5.171   3.115
10024SOL    HW130971   0.828   5.182   3.210
10024SOL    HW230972   0.703   5.197   3.106
10025SOL     OW30973   1.349   2.675   2.487
10025SOL    HW130974   1.397   2.642   2.568
10025SOL    HW230975   1.257   2.638   2.484
10026SOL     OW30976   4.984   0.169   3.658
10026SOL    HW130977   4.985   0.269   3.666
10026SOL    HW230978   4.889   0.138   3.649
10027SOL     OW30979   0.742   2.577   5.311
10027SOL    HW130980   0.692   2.511   5.255
10027SOL    HW230981   0.790   2.642   5.252
10028SOL     OW30982   2.402   1.329   0.858
10028SOL    HW130983   2.366   1.238   0.879
10028SOL    HW230984   2.346   1.399   0.901
10029SOL     OW30985   1.283   3.220   3.640
10029SOL    HW130986   1.244   3.272   3.715
10029SOL    HW230987   1.241   3.130   3.636
10030SOL     OW30988   3.449   0.392   4.996
10030SOL    HW130989   3.422   0.419   4.904
10030SOL    HW230990   3.520   0.454   5.030
10031SOL     OW30991   4.604   5.121   4.747
10031SOL    HW130992   4.639   5.068   4.669
10031SOL    HW230993   4.504   5.114   4.749
10032SOL     OW30994   3.755   0.167   6.023
10032SOL    HW130995   3.853   0.148   6.027
10032SOL    HW230996   3.712   0.107   5.956
10033SOL     OW30997   4.696   2.093   4.730
10033SOL    HW130998   4.648   2.124   4.812
10033SOL    HW230999   4.685   1.994   4.720
10034SOL     OW31000   2.314   1.050   3.844
10034SOL    HW131001   2.344   1.140   3.876
10034SOL    HW231002   2.215   1.043   3.854
10035SOL     OW31003   5.901   4.188   0.244
10035SOL    HW131004   5.833   4.181   0.171
10035SOL    HW231005   5.880   4.120   0.315
10036SOL     OW31006   6.659   0.987   1.109
10036SOL    HW131007   6.647   1.074   1.061
10036SOL    HW231008   6.756   0.973   1.130
10037SOL     OW31009   6.110   6.906   6.730
10037SOL    HW131010   6.164   6.943   6.806
10037SOL    HW231011   6.015   6.935   6.740
10038SOL     OW31012   4.406   0.096   5.839
10038SOL    HW131013   4.404   7.022   5.855
10038SOL    HW231014   4.436   0.114   5.745
10039SOL     OW31015   5.640   6.733   5.264
10039SOL    HW131016   5.544   6.711   5.246
10039SOL    HW231017   5.645   6.821   5.312
10040SOL     OW31018   4.597   6.118   5.691
10040SOL    HW131019   4.508   6.083   5.663
10040SOL    HW231020   4.589   6.166   5.779
10041SOL     OW31021   5.558   5.290   6.243
10041SOL    HW131022   5.590   5.242   6.325
10041SOL    HW231023   5.497   5.364   6.269
10042SOL     OW31024   0.336   1.039   5.414
10042SOL    HW131025   0.287   1.111   5.365
10042SOL    HW231026   0.357   0.964   5.351
10043SOL     OW31027   0.829   0.748   4.035
10043SOL    HW131028   0.889   0.750   3.955
10043SOL    HW231029   0.734   0.762   4.006
10044SOL     OW31030   2.774   2.345   3.563
10044SOL    HW131031   2.853   2.301   3.521
10044SOL    HW231032   2.805   2.411   3.632
10045SOL     OW31033   5.291   0.403   4.135
10045SOL    HW131034   5.219   0.410   4.204
10045SOL    HW231035   5.332   0.312   4.138
10046SOL     OW31036   1.706   2.405   1.238
10046SOL    HW131037   1.656   2.368   1.160
10046SOL    HW231038   1.702   2.340   1.314
10047SOL     OW31039   5.869   3.620   5.007
10047SOL    HW131040   5.888   3.581   5.097
10047SOL    HW231041   5.944   3.600   4.945
10048SOL     OW31042   3.728   1.937   2.669
10048SOL    HW131043   3.825   1.931   2.645
10048SOL    HW231044   3.684   2.005   2.610
10049SOL     OW31045   0.338   1.022   0.153
10049SOL    HW131046   0.396   1.103   0.169
10049SOL    HW231047   0.321   1.012   0.055
10050SOL     OW31048   6.164   2.680   5.290
10050SOL    HW131049   6.068   2.708   5.287
10050SOL    HW231050   6.213   2.741   5.352
10051SOL     OW31051   6.159   2.222   5.026
10051SOL    HW131052   6.246   2.259   4.996
10051SOL    HW231053   6.087   2.248   4.962
10052SOL     OW31054   1.889   2.273   2.497
10052SOL    HW131055   1.917   2.268   2.401
10052SOL    HW231056   1.863   2.367   2.519
10053SOL     OW31057   3.411   5.355   1.818
10053SOL    HW131058   3.495   5.383   1.865
10053SOL    HW231059   3.334   5.407   1.855
10054SOL     OW31060   4.542   5.994   6.050
10054SOL    HW131061   4.502   5.945   5.973
10054SOL    HW231062   4.470   6.023   6.113
10055SOL     OW31063   5.775   1.835   5.888
10055SOL    HW131064   5.693   1.832   5.832
10055SOL    HW231065   5.854   1.806   5.834
10056SOL     OW31066   6.674   5.164   0.670
10056SOL    HW131067   6.595   5.225   0.659
10056SOL    HW231068   6.758   5.214   0.652
10057SOL     OW31069   3.921   1.294   4.226
10057SOL    HW131070   3.951   1.378   4.272
10057SOL    HW231071   3.976   1.281   4.143
10058SOL     OW31072   0.217   3.786   4.673
10058SOL    HW131073   0.279   3.715   4.707
10058SOL    HW231074   0.222   3.790   4.573
10059SOL     OW31075   5.635   6.379   0.348
10059SOL    HW131076   5.570   6.395   0.423
10059SOL    HW231077   5.633   6.457   0.286
10060SOL     OW31078   2.118   1.490   2.090
10060SOL    HW131079   2.202   1.507   2.040
10060SOL    HW231080   2.099   1.392   2.092
10061SOL     OW31081   5.514   0.846   4.540
10061SOL    HW131082   5.596   0.790   4.552
10061SOL    HW231083   5.433   0.787   4.543
10062SOL     OW31084   6.366   6.664   4.723
10062SOL    HW131085   6.371   6.565   4.715
10062SOL    HW231086   6.444   6.697   4.776
10063SOL     OW31087   1.419   1.805   3.496
10063SOL    HW131088   1.379   1.727   3.544
10063SOL    HW231089   1.400   1.797   3.398
10064SOL     OW31090   5.496   6.369   6.928
10064SOL    HW131091   5.469   6.278   6.897
10064SOL    HW231092   5.511   6.428   6.848
10065SOL     OW31093   2.023   0.987   1.764
10065SOL    HW131094   2.043   0.889   1.770
10065SOL    HW231095   2.096   1.032   1.713
10066SOL     OW31096   1.871   1.203   3.925
10066SOL    HW131097   1.906   1.273   3.988
10066SOL    HW231098   1.861   1.243   3.834
10067SOL     OW31099   6.222   4.047   5.034
10067SOL    HW131100   6.319   4.056   5.055
10067SOL    HW231101   6.205   3.954   5.000
10068SOL     OW31102   5.892   3.372   3.732
10068SOL    HW131103   5.930   3.358   3.641
10068SOL    HW231104   5.943   3.443   3.779
10069SOL     OW31105   2.141   5.080   3.524
10069SOL    HW131106   2.070   5.087   3.453
10069SOL    HW231107   2.230   5.095   3.482
10070SOL     OW31108   6.858   0.251   5.540
10070SOL    HW131109   6.823   0.279   5.451
10070SOL    HW231110   6.949   0.210   5.529
10071SOL     OW31111   5.230   5.692   3.751
10071SOL    HW131112   5.171   5.725   3.826
10071SOL    HW231113   5.272   5.771   3.705
10072SOL     OW31114   0.436   5.998   3.920
10072SOL    HW131115   0.455   6.094   3.942
10072SOL    HW231116   0.346   5.992   3.877
10073SOL     OW31117   6.137   4.442   4.513
10073SOL    HW131118   6.174   4.425   4.605
10073SOL    HW231119   6.054   4.497   4.520
10074SOL     OW31120   1.522   1.001   5.259
10074SOL    HW131121   1.529   0.927   5.326
10074SOL    HW231122   1.603   1.001   5.200
10075SOL     OW31123   1.474   2.369   2.725
10075SOL    HW131124   1.455   2.467   2.717
10075SOL    HW231125   1.475   2.343   2.821
10076SOL     OW31126   6.153   0.034   4.012
10076SOL    HW131127   6.249   0.060   4.020
10076SOL    HW231128   6.144   6.960   4.021
10077SOL     OW31129   3.452   2.619   6.161
10077SOL    HW131130   3.375   2.617   6.225
10077SOL    HW231131   3.535   2.641   6.211
10078SOL     OW31132   0.354   6.218   4.067
10078SOL    HW131133   0.362   6.317   4.050
10078SOL    HW231134   0.260   6.196   4.093
10079SOL     OW31135   0.432   3.351   2.209
10079SOL    HW131136   0.425   3.314   2.301
10079SOL    HW231137   0.528   3.365   2.186
10080SOL     OW31138   3.531   1.243   5.589
10080SOL    HW131139   3.595   1.311   5.623
10080SOL    HW231140   3.447   1.246   5.643
10081SOL     OW31141   0.863   0.708   0.679
10081SOL    HW131142   0.921   0.787   0.698
10081SOL    HW231143   0.779   0.739   0.634
10082SOL     OW31144   6.971   4.409   2.492
10082SOL    HW131145   0.023   4.378   2.436
10082SOL    HW231146   6.964   4.352   2.574
10083SOL     OW31147   5.036   0.473   3.119
10083SOL    HW131148   5.119   0.431   3.154
10083SOL    HW231149   4.957   0.415   3.142
10084SOL     OW31150   3.186   1.325   5.949
10084SOL    HW131151   3.217   1.319   5.854
10084SOL    HW231152   3.257   1.290   6.009
10085SOL     OW31153   1.096   6.250   2.457
10085SOL    HW131154   1.073   6.322   2.522
10085SOL    HW231155   1.052   6.164   2.486
10086SOL     OW31156   5.601   5.032   1.555
10086SOL    HW131157   5.602   5.121   1.601
10086SOL    HW231158   5.524   4.978   1.588
10087SOL     OW31159   0.105   6.838   3.949
10087SOL    HW131160   0.161   6.877   4.022
10087SOL    HW231161   0.071   6.910   3.889
10088SOL     OW31162   6.850   0.353   0.298
10088SOL    HW131163   6.790   0.276   0.277
10088SOL    HW231164   6.840   0.423   0.226
10089SOL     OW31165   2.538   2.361   2.885
10089SOL    HW131166   2.601   2.346   2.962
10089SOL    HW231167   2.453   2.402   2.919
10090SOL     OW31168   1.296   4.754   0.854
10090SOL    HW131169   1.285   4.749   0.755
10090SOL    HW231170   1.356   4.681   0.886
10091SOL     OW31171   1.552   3.116   5.326
10091SOL    HW131172   1.486   3.051   5.364
10091SOL    HW231173   1.540   3.120   5.226
10092SOL     OW31174   2.076   3.454   4.910
10092SOL    HW131175   2.175   3.443   4.905
10092SOL    HW231176   2.031   3.378   4.863
10093SOL     OW31177   0.527   4.426   4.600
10093SOL    HW131178   0.469   4.495   4.557
10093SOL    HW231179   0.528   4.343   4.543
10094SOL     OW31180   1.739   5.942   2.072
10094SOL    HW131181   1.782   5.954   2.161
10094SOL    HW231182   1.758   6.022   2.015
10095SOL     OW31183   6.089   1.920   5.547
10095SOL    HW131184   6.158   1.873   5.492
10095SOL    HW231185   6.034   1.979   5.487
10096SOL     OW31186   5.396   5.195   2.162
10096SOL    HW131187   5.403   5.261   2.237
10096SOL    HW231188   5.433   5.107   2.191
10097SOL     OW31189   1.087   1.023   6.828
10097SOL    HW131190   1.124   1.006   6.919
10097SOL    HW231191   1.065   0.935   6.785
10098SOL     OW31192   2.683   0.686   5.258
10098SOL    HW131193   2.709   0.670   5.353
10098SOL    HW231194   2.592   0.727   5.255
10099SOL     OW31195   0.202   4.832   0.427
10099SOL    HW131196   0.176   4.877   0.512
10099SOL    HW231197   0.131   4.767   0.401
10100SOL     OW31198   4.841   0.219   4.582
10100SOL    HW131199   4.854   0.138   4.525
10100SOL    HW231200   4.826   0.191   4.676
10101SOL     OW31201   5.902   3.877   1.389
10101SOL    HW131202   5.806   3.855   1.408
10101SOL    HW231203   5.952   3.885   1.475
10102SOL     OW31204   1.453   0.934   2.586
10102SOL    HW131205   1.447   0.859   2.653
10102SOL    HW231206   1.539   0.983   2.598
10103SOL     OW31207   2.294   1.946   6.164
10103SOL    HW131208   2.306   2.042   6.139
10103SOL    HW231209   2.375   1.894   6.135
10104SOL     OW31210   1.307   2.666   4.273
10104SOL    HW131211   1.367   2.636   4.348
10104SOL    HW231212   1.236   2.727   4.310
10105SOL     OW31213   1.309   0.720   6.972
10105SOL    HW131214   1.252   0.721   0.029
10105SOL    HW231215   1.256   0.687   6.894
10106SOL     OW31216   4.442   6.280   0.793
10106SOL    HW131217   4.416   6.220   0.869
10106SOL    HW231218   4.504   6.351   0.827
10107SOL     OW31219   0.277   1.693   6.844
10107SOL    HW131220   0.281   1.767   6.777
10107SOL    HW231221   0.314   1.724   6.931
10108SOL     OW31222   6.679   6.446   0.041
10108SOL    HW131223   6.675   6.538   0.082
10108SOL    HW231224   6.669   6.454   6.967
10109SOL     OW31225   4.114   6.875   1.292
10109SOL    HW131226   4.036   6.876   1.229
10109SOL    HW231227   4.146   6.969   1.305
10110SOL     OW31228   4.696   6.170   4.601
10110SOL    HW131229   4.783   6.123   4.592
10110SOL    HW231230   4.666   6.167   4.696
10111SOL     OW31231   5.627   3.521   3.500
10111SOL    HW131232   5.685   3.530   3.580
10111SOL    HW231233   5.595   3.427   3.492
10112SOL     OW31234   5.850   3.824   4.012
10112SOL    HW131235   5.919   3.892   3.989
10112SOL    HW231236   5.792   3.807   3.932
10113SOL     OW31237   4.387   6.920   5.003
10113SOL    HW131238   4.357   6.917   5.098
10113SOL    HW231239   4.350   6.842   4.953
10114SOL     OW31240   5.770   0.986   0.924
10114SOL    HW131241   5.671   0.970   0.928
10114SOL    HW231242   5.817   0.901   0.900
10115SOL     OW31243   3.476   1.780   4.154
10115SOL    HW131244   3.376   1.772   4.144
10115SOL    HW231245   3.508   1.860   4.103
10116SOL     OW31246   6.848   5.993   0.322
10116SOL    HW131247   6.810   6.080   0.355
10116SOL    HW231248   6.873   5.936   0.400
10117SOL     OW31249   0.230   6.872   5.241
10117SOL    HW131250   0.198   6.963   5.267
10117SOL    HW231251   0.263   6.874   5.146
10118SOL     OW31252   1.329   5.385   3.113
10118SOL    HW131253   1.323   5.433   3.025
10118SOL    HW231254   1.268   5.429   3.179
10119SOL     OW31255   0.385   6.402   4.322
10119SOL    HW131256   0.417   6.326   4.379
10119SOL    HW231257   0.322   6.459   4.375
10120SOL     OW31258   2.014   3.844   4.767
10120SOL    HW131259   1.917   3.859   4.749
10120SOL    HW231260   2.043   3.759   4.721
10121SOL     OW31261   6.104   4.413   6.154
10121SOL    HW131262   6.104   4.371   6.063
10121SOL    HW231263   6.055   4.353   6.218
10122SOL     OW31264   6.024   3.074   0.579
10122SOL    HW131265   5.990   3.001   0.520
10122SOL    HW231266   5.967   3.079   0.661
10123SOL     OW31267   6.217   0.252   6.813
10123SOL    HW131268   6.146   0.294   6.757
10123SOL    HW231269   6.303   0.250   6.763
10124SOL     OW31270   2.182   3.523   6.865
10124SOL    HW131271   2.267   3.533   6.813
10124SOL    HW231272   2.107   3.499   6.804
10125SOL     OW31273   1.929   0.834   2.400
10125SOL    HW131274   1.999   0.818   2.330
10125SOL    HW231275   1.881   0.919   2.381
10126SOL     OW31276   0.481   6.873   6.301
10126SOL    HW131277   0.421   6.951   6.283
10126SOL    HW231278   0.475   6.808   6.225
10127SOL     OW31279   2.311   4.298   6.205
10127SOL    HW131280   2.285   4.279   6.111
10127SOL    HW231281   2.282   4.222   6.264
10128SOL     OW31282   1.704   0.877   1.288
10128SOL    HW131283   1.631   0.843   1.346
10128SOL    HW231284   1.764   0.937   1.341
10129SOL     OW31285   5.925   2.773   3.594
10129SOL    HW131286   5.874   2.716   3.659
10129SOL    HW231287   5.873   2.855   3.574
10130SOL     OW31288   1.720   4.224   2.084
10130SOL    HW131289   1.782   4.146   2.081
10130SOL    HW231290   1.773   4.308   2.098
10131SOL     OW31291   0.711   0.082   4.007
10131SOL    HW131292   0.629   0.035   3.976
10131SOL    HW231293   0.772   0.098   3.929
10132SOL     OW31294   3.224   6.893   4.560
10132SOL    HW131295   3.257   6.967   4.501
10132SOL    HW231296   3.298   6.865   4.621
10133SOL     OW31297   4.810   6.619   1.154
10133SOL    HW131298   4.804   6.519   1.151
10133SOL    HW231299   4.771   6.652   1.240
10134SOL     OW31300   0.101   6.157   4.147
10134SOL    HW131301   0.004   6.179   4.145
10134SOL    HW231302   0.113   6.059   4.167
10135SOL     OW31303   4.827   3.338   3.529
10135SOL    HW131304   4.839   3.430   3.565
10135SOL    HW231305   4.880   3.328   3.445
10136SOL     OW31306   5.138   0.883   3.410
10136SOL    HW131307   5.172   0.889   3.504
10136SOL    HW231308   5.162   0.966   3.361
10137SOL     OW31309   5.698   4.387   4.148
10137SOL    HW131310   5.750   4.391   4.233
10137SOL    HW231311   5.686   4.292   4.120
10138SOL     OW31312   5.303   2.378   0.818
10138SOL    HW131313   5.390   2.419   0.847
10138SOL    HW231314   5.248   2.448   0.773
10139SOL     OW31315   3.691   4.105   3.579
10139SOL    HW131316   3.681   4.192   3.628
10139SOL    HW231317   3.723   4.035   3.643
10140SOL     OW31318   6.551   6.092   6.019
10140SOL    HW131319   6.502   6.071   6.104
10140SOL    HW231320   6.579   6.188   6.020
10141SOL     OW31321   3.898   1.976   4.587
10141SOL    HW131322   3.961   2.031   4.642
10141SOL    HW231323   3.808   1.975   4.629
10142SOL     OW31324   6.208   6.733   4.527
10142SOL    HW131325   6.279   6.718   4.596
10142SOL    HW231326   6.240   6.799   4.460
10143SOL     OW31327   4.030   0.801   0.226
10143SOL    HW131328   3.973   0.881   0.206
10143SOL    HW231329   4.079   0.774   0.144
10144SOL     OW31330   3.857   0.161   6.555
10144SOL    HW131331   3.875   0.170   6.457
10144SOL    HW231332   3.906   0.082   6.592
10145SOL     OW31333   3.146   5.434   5.495
10145SOL    HW131334   3.161   5.340   5.463
10145SOL    HW231335   3.065   5.472   5.451
10146SOL     OW31336   3.915   5.456   4.418
10146SOL    HW131337   3.931   5.528   4.351
10146SOL    HW231338   3.872   5.378   4.373
10147SOL     OW31339   5.512   3.862   5.161
10147SOL    HW131340   5.415   3.836   5.154
10147SOL    HW231341   5.565   3.811   5.094
10148SOL     OW31342   4.629   5.561   0.052
10148SOL    HW131343   4.550   5.592   7.024
10148SOL    HW231344   4.702   5.629   0.045
10149SOL     OW31345   6.165   2.969   0.299
10149SOL    HW131346   6.221   2.886   0.310
10149SOL    HW231347   6.084   2.948   0.245
10150SOL     OW31348   4.101   3.829   0.579
10150SOL    HW131349   4.157   3.849   0.498
10150SOL    HW231350   4.021   3.889   0.580
10151SOL     OW31351   0.834   6.689   0.012
10151SOL    HW131352   0.761   6.681   6.969
10151SOL    HW231353   0.858   6.598   0.047
10152SOL     OW31354   0.342   6.227   4.874
10152SOL    HW131355   0.402   6.165   4.925
10152SOL    HW231356   0.395   6.277   4.806
10153SOL     OW31357   4.617   6.420   3.896
10153SOL    HW131358   4.545   6.355   3.873
10153SOL    HW231359   4.675   6.382   3.968
10154SOL     OW31360   5.699   0.062   4.955
10154SOL    HW131361   5.764   7.012   4.966
10154SOL    HW231362   5.715   0.131   5.026
10155SOL     OW31363   3.719   1.929   5.498
10155SOL    HW131364   3.688   1.933   5.593
10155SOL    HW231365   3.792   1.996   5.484
10156SOL     OW31366   6.126   1.404   3.073
10156SOL    HW131367   6.056   1.337   3.099
10156SOL    HW231368   6.098   1.449   2.988
10157SOL     OW31369   6.482   2.498   0.103
10157SOL    HW131370   6.582   2.502   0.103
10157SOL    HW231371   6.450   2.459   0.190
10158SOL     OW31372   6.188   3.622   1.409
10158SOL    HW131373   6.173   3.592   1.315
10158SOL    HW231374   6.146   3.712   1.421
10159SOL     OW31375   2.763   3.012   6.906
10159SOL    HW131376   2.703   2.977   6.834
10159SOL    HW231377   2.722   2.996   6.995
10160SOL     OW31378   1.866   2.950   2.064
10160SOL    HW131379   1.876   3.020   2.135
10160SOL    HW231380   1.955   2.935   2.020
10161SOL     OW31381   3.160   2.919   6.728
10161SOL    HW131382   3.142   2.854   6.802
10161SOL    HW231383   3.098   2.996   6.734
10162SOL     OW31384   3.594   4.580   0.945
10162SOL    HW131385   3.680   4.600   0.899
10162SOL    HW231386   3.517   4.604   0.885
10163SOL     OW31387   5.844   4.704   5.747
10163SOL    HW131388   5.906   4.689   5.669
10163SOL    HW231389   5.873   4.645   5.823
10164SOL     OW31390   5.904   3.746   4.617
10164SOL    HW131391   5.878   3.649   4.609
10164SOL    HW231392   5.887   3.792   4.531
10165SOL     OW31393   0.453   2.256   3.143
10165SOL    HW131394   0.366   2.242   3.094
10165SOL    HW231395   0.492   2.344   3.117
10166SOL     OW31396   3.479   1.946   1.563
10166SOL    HW131397   3.417   1.997   1.623
10166SOL    HW231398   3.520   2.007   1.496
10167SOL     OW31399   2.501   3.484   6.685
10167SOL    HW131400   2.572   3.500   6.616
10167SOL    HW231401   2.432   3.422   6.649
10168SOL     OW31402   6.044   3.800   5.662
10168SOL    HW131403   6.133   3.795   5.617
10168SOL    HW231404   5.973   3.814   5.594
10169SOL     OW31405   6.925   4.141   3.713
10169SOL    HW131406   6.981   4.143   3.796
10169SOL    HW231407   6.918   4.234   3.676
10170SOL     OW31408   1.095   5.189   5.451
10170SOL    HW131409   1.011   5.142   5.421
10170SOL    HW231410   1.157   5.123   5.494
10171SOL     OW31411   6.746   2.554   5.199
10171SOL    HW131412   6.813   2.621   5.230
10171SOL    HW231413   6.760   2.535   5.102
10172SOL     OW31414   6.965   6.874   5.193
10172SOL    HW131415   6.937   6.811   5.121
10172SOL    HW231416   0.035   6.853   5.220
10173SOL     OW31417   0.859   3.080   1.631
10173SOL    HW131418   0.867   3.175   1.662
10173SOL    HW231419   0.802   3.029   1.695
10174SOL     OW31420   5.543   5.564   2.574
10174SOL    HW131421   5.535   5.469   2.606
10174SOL    HW231422   5.480   5.622   2.626
10175SOL     OW31423   4.923   1.825   4.109
10175SOL    HW131424   4.864   1.906   4.099
10175SOL    HW231425   5.015   1.854   4.135
10176SOL     OW31426   0.874   3.777   5.455
10176SOL    HW131427   0.900   3.680   5.447
10176SOL    HW231428   0.813   3.788   5.533
10177SOL     OW31429   2.530   0.604   0.527
10177SOL    HW131430   2.547   0.508   0.505
10177SOL    HW231431   2.433   0.617   0.546
10178SOL     OW31432   6.976   0.572   6.111
10178SOL    HW131433   7.004   0.539   6.021
10178SOL    HW231434   6.967   0.494   6.174
10179SOL     OW31435   0.863   1.785   6.754
10179SOL    HW131436   0.808   1.772   6.836
10179SOL    HW231437   0.958   1.760   6.773
10180SOL     OW31438   4.357   0.293   6.022
10180SOL    HW131439   4.373   0.222   5.954
10180SOL    HW231440   4.443   0.316   6.067
10181SOL     OW31441   5.989   2.675   1.745
10181SOL    HW131442   6.020   2.749   1.804
10181SOL    HW231443   5.906   2.703   1.697
10182SOL     OW31444   4.444   1.059   1.578
10182SOL    HW131445   4.440   1.107   1.491
10182SOL    HW231446   4.370   0.991   1.583
10183SOL     OW31447   6.989   2.393   6.850
10183SOL    HW131448   0.009   2.307   6.827
10183SOL    HW231449   6.937   2.426   6.772
10184SOL     OW31450   4.720   0.929   6.373
10184SOL    HW131451   4.737   0.845   6.424
10184SOL    HW231452   4.772   0.928   6.288
10185SOL     OW31453   5.893   6.217   2.045
10185SOL    HW131454   5.895   6.145   2.115
10185SOL    HW231455   5.812   6.274   2.059
10186SOL     OW31456   5.626   3.755   3.814
10186SOL    HW131457   5.621   3.728   3.718
10186SOL    HW231458   5.592   3.848   3.824
10187SOL     OW31459   0.401   3.356   0.586
10187SOL    HW131460   0.471   3.407   0.535
10187SOL    HW231461   0.317   3.351   0.532
10188SOL     OW31462   3.467   5.679   0.445
10188SOL    HW131463   3.492   5.733   0.525
10188SOL    HW231464   3.395   5.725   0.394
10189SOL     OW31465   0.823   1.482   6.288
10189SOL    HW131466   0.800   1.455   6.382
10189SOL    HW231467   0.891   1.556   6.291
10190SOL     OW31468   4.909   3.135   2.213
10190SOL    HW131469   4.840   3.097   2.151
10190SOL    HW231470   4.937   3.225   2.180
10191SOL     OW31471   5.636   5.096   5.476
10191SOL    HW131472   5.690   5.071   5.556
10191SOL    HW231473   5.661   5.039   5.399
10192SOL     OW31474   4.088   1.003   5.457
10192SOL    HW131475   4.029   0.962   5.387
10192SOL    HW231476   4.163   1.052   5.412
10193SOL     OW31477   4.032   3.375   2.020
10193SOL    HW131478   4.032   3.312   1.942
10193SOL    HW231479   4.030   3.322   2.105
10194SOL     OW31480   5.354   5.964   5.686
10194SOL    HW131481   5.434   5.907   5.668
10194SOL    HW231482   5.380   6.060   5.683
10195SOL     OW31483   6.425   5.641   0.536
10195SOL    HW131484   6.442   5.604   0.628
10195SOL    HW231485   6.328   5.633   0.514
10196SOL     OW31486   4.951   1.421   3.515
10196SOL    HW131487   4.861   1.433   3.474
10196SOL    HW231488   5.017   1.479   3.467
10197SOL     OW31489   5.457   1.583   5.480
10197SOL    HW131490   5.503   1.649   5.420
10197SOL    HW231491   5.360   1.581   5.459
10198SOL     OW31492   2.533   6.904   2.215
10198SOL    HW131493   2.581   6.965   2.279
10198SOL    HW231494   2.597   6.838   2.177
10199SOL     OW31495   2.417   2.830   0.164
10199SOL    HW131496   2.427   2.774   0.247
10199SOL    HW231497   2.325   2.869   0.162
10200SOL     OW31498   4.747   2.175   6.873
10200SOL    HW131499   4.803   2.112   6.821
10200SOL    HW231500   4.755   2.155   6.970
10201SOL     OW31501   1.500   4.604   0.642
10201SOL    HW131502   1.600   4.600   0.647
10201SOL    HW231503   1.461   4.545   0.713
10202SOL     OW31504   3.561   3.612   0.348
10202SOL    HW131505   3.631   3.545   0.371
10202SOL    HW231506   3.560   3.684   0.418
10203SOL     OW31507   6.363   3.066   2.738
10203SOL    HW131508   6.288   3.132   2.738
10203SOL    HW231509   6.352   3.004   2.661
10204SOL     OW31510   5.526   6.155   0.219
10204SOL    HW131511   5.612   6.114   0.188
10204SOL    HW231512   5.545   6.239   0.269
10205SOL     OW31513   1.591   0.221   1.243
10205SOL    HW131514   1.541   0.248   1.161
10205SOL    HW231515   1.591   0.296   1.309
10206SOL     OW31516   0.099   0.855   0.431
10206SOL    HW131517   0.044   0.774   0.450
10206SOL    HW231518   0.169   0.866   0.502
10207SOL     OW31519   1.218   2.067   6.706
10207SOL    HW131520   1.131   2.094   6.749
10207SOL    HW231521   1.230   2.119   6.622
10208SOL     OW31522   6.298   4.361   4.280
10208SOL    HW131523   6.248   4.368   4.367
10208SOL    HW231524   6.370   4.430   4.278
10209SOL     OW31525   0.322   0.186   0.250
10209SOL    HW131526   0.247   0.241   0.212
10209SOL    HW231527   0.393   0.173   0.181
10210SOL     OW31528   4.707   6.690   2.063
10210SOL    HW131529   4.704   6.591   2.051
10210SOL    HW231530   4.799   6.717   2.092
10211SOL     OW31531   3.964   6.489   4.840
10211SOL    HW131532   3.995   6.531   4.755
10211SOL    HW231533   3.875   6.527   4.866
10212SOL     OW31534   0.883   0.177   5.167
10212SOL    HW131535   0.834   0.223   5.094
10212SOL    HW231536   0.877   0.078   5.155
10213SOL     OW31537   5.676   2.984   1.375
10213SOL    HW131538   5.772   2.957   1.366
10213SOL    HW231539   5.644   2.965   1.468
10214SOL     OW31540   1.770   1.812   2.016
10214SOL    HW131541   1.829   1.834   1.939
10214SOL    HW231542   1.674   1.816   1.987
10215SOL     OW31543   3.954   3.762   3.333
10215SOL    HW131544   3.861   3.750   3.297
10215SOL    HW231545   3.960   3.850   3.381
10216SOL     OW31546   0.262   1.273   1.655
10216SOL    HW131547   0.162   1.279   1.658
10216SOL    HW231548   0.299   1.290   1.746
10217SOL     OW31549   3.069   2.090   3.179
10217SOL    HW131550   3.153   2.110   3.128
10217SOL    HW231551   3.006   2.038   3.122
10218SOL     OW31552   1.982   1.569   1.144
10218SOL    HW131553   1.919   1.492   1.135
10218SOL    HW231554   2.053   1.563   1.073
10219SOL     OW31555   0.246   1.913   2.547
10219SOL    HW131556   0.211   1.839   2.488
10219SOL    HW231557   0.275   1.990   2.491
10220SOL     OW31558   4.956   2.100   1.212
10220SOL    HW131559   4.866   2.141   1.195
10220SOL    HW231560   4.978   2.107   1.309
10221SOL     OW31561   0.777   5.063   3.588
10221SOL    HW131562   0.815   5.054   3.680
10221SOL    HW231563   0.802   4.983   3.534
10222SOL     OW31564   2.678   3.677   5.948
10222SOL    HW131565   2.711   3.670   5.854
10222SOL    HW231566   2.661   3.585   5.984
10223SOL     OW31567   1.056   4.947   1.234
10223SOL    HW131568   1.086   4.961   1.139
10223SOL    HW231569   1.066   4.851   1.259
10224SOL     OW31570   6.773   3.219   4.465
10224SOL    HW131571   6.823   3.255   4.544
10224SOL    HW231572   6.814   3.254   4.381
10225SOL     OW31573   1.454   4.920   5.692
10225SOL    HW131574   1.422   4.957   5.778
10225SOL    HW231575   1.554   4.914   5.693
10226SOL     OW31576   2.638   1.238   6.061
10226SOL    HW131577   2.589   1.160   6.101
10226SOL    HW231578   2.671   1.298   6.134
10227SOL     OW31579   5.774   4.943   0.708
10227SOL    HW131580   5.819   4.950   0.619
10227SOL    HW231581   5.822   5.001   0.774
10228SOL     OW31582   0.336   6.651   1.894
10228SOL    HW131583   0.246   6.609   1.885
10228SOL    HW231584   0.339   6.703   1.980
10229SOL     OW31585   0.858   3.395   4.755
10229SOL    HW131586   0.816   3.463   4.816
10229SOL    HW231587   0.848   3.304   4.796
10230SOL     OW31588   5.656   6.280   2.935
10230SOL    HW131589   5.636   6.254   3.030
10230SOL    HW231590   5.715   6.210   2.894
10231SOL     OW31591   6.574   5.817   5.381
10231SOL    HW131592   6.581   5.741   5.445
10231SOL    HW231593   6.608   5.901   5.424
10232SOL     OW31594   3.005   1.280   3.640
10232SOL    HW131595   3.019   1.306   3.545
10232SOL    HW231596   2.945   1.200   3.644
10233SOL     OW31597   3.910   4.008   4.789
10233SOL    HW131598   3.940   4.028   4.882
10233SOL    HW231599   3.952   3.922   4.759
10234SOL     OW31600   5.961   1.276   1.844
10234SOL    HW131601   5.941   1.369   1.815
10234SOL    HW231602   6.054   1.251   1.817
10235SOL     OW31603   2.183   2.836   1.888
10235SOL    HW131604   2.204   2.932   1.871
10235SOL    HW231605   2.267   2.782   1.883
10236SOL     OW31606   3.091   0.002   6.938
10236SOL    HW131607   3.181   7.018   6.982
10236SOL    HW231608   3.103   7.018   6.839
10237SOL     OW31609   0.176   3.508   6.703
10237SOL    HW131610   0.233   3.564   6.642
10237SOL    HW231611   0.170   3.415   6.667
10238SOL     OW31612   3.855   4.146   1.812
10238SOL    HW131613   3.762   4.155   1.848
10238SOL    HW231614   3.910   4.090   1.874
10239SOL     OW31615   1.402   2.934   4.467
10239SOL    HW131616   1.423   2.837   4.478
10239SOL    HW231617   1.420   2.982   4.553
10240SOL     OW31618   2.549   5.086   2.337
10240SOL    HW131619   2.588   5.177   2.353
10240SOL    HW231620   2.500   5.085   2.250
10241SOL     OW31621   5.989   0.158   2.293
10241SOL    HW131622   5.908   0.149   2.352
10241SOL    HW231623   6.018   0.253   2.291
10242SOL     OW31624   0.346   1.551   0.830
10242SOL    HW131625   0.301   1.634   0.799
10242SOL    HW231626   0.287   1.472   0.812
10243SOL     OW31627   2.391   4.604   2.065
10243SOL    HW131628   2.455   4.592   1.989
10243SOL    HW231629   2.332   4.682   2.047
10244SOL     OW31630   1.777   4.210   0.409
10244SOL    HW131631   1.714   4.149   0.360
10244SOL    HW231632   1.784   4.297   0.360
10245SOL     OW31633   3.804   3.912   0.902
10245SOL    HW131634   3.857   3.982   0.949
10245SOL    HW231635   3.866   3.845   0.861
10246SOL     OW31636   3.200   3.974   4.084
10246SOL    HW131637   3.188   4.026   3.999
10246SOL    HW231638   3.255   4.028   4.148
10247SOL     OW31639   6.267   4.056   5.729
10247SOL    HW131640   6.168   4.059   5.743
10247SOL    HW231641   6.312   4.116   5.795
10248SOL     OW31642   1.377   6.608   3.043
10248SOL    HW131643   1.430   6.664   2.980
10248SOL    HW231644   1.434   6.582   3.121
10249SOL     OW31645   3.217   5.852   6.516
10249SOL    HW131646   3.232   5.792   6.437
10249SOL    HW231647   3.140   5.913   6.496
10250SOL     OW31648   6.278   2.957   1.291
10250SOL    HW131649   6.277   2.929   1.195
10250SOL    HW231650   6.248   2.881   1.348
10251SOL     OW31651   2.298   1.446   4.462
10251SOL    HW131652   2.316   1.465   4.558
10251SOL    HW231653   2.265   1.529   4.417
10252SOL     OW31654   4.226   3.926   6.441
10252SOL    HW131655   4.132   3.929   6.407
10252SOL    HW231656   4.258   3.832   6.443
10253SOL     OW31657   3.092   5.361   0.542
10253SOL    HW131658   3.168   5.300   0.564
10253SOL    HW231659   3.024   5.311   0.488
10254SOL     OW31660   5.095   1.339   5.269
10254SOL    HW131661   5.109   1.393   5.186
10254SOL    HW231662   5.087   1.242   5.244
10255SOL     OW31663   2.451   6.740   1.105
10255SOL    HW131664   2.467   6.788   1.018
10255SOL    HW231665   2.539   6.719   1.148
10256SOL     OW31666   3.709   1.859   2.244
10256SOL    HW131667   3.725   1.776   2.297
10256SOL    HW231668   3.705   1.835   2.147
10257SOL     OW31669   2.218   5.520   3.895
10257SOL    HW131670   2.168   5.454   3.839
10257SOL    HW231671   2.284   5.472   3.953
10258SOL     OW31672   3.898   2.123   3.433
10258SOL    HW131673   3.945   2.132   3.521
10258SOL    HW231674   3.954   2.162   3.361
10259SOL     OW31675   0.587   4.184   2.890
10259SOL    HW131676   0.538   4.156   2.808
10259SOL    HW231677   0.547   4.268   2.926
10260SOL     OW31678   0.951   1.246   3.314
10260SOL    HW131679   0.966   1.198   3.228
10260SOL    HW231680   0.975   1.186   3.390
10261SOL     OW31681   6.747   5.153   1.259
10261SOL    HW131682   6.789   5.204   1.184
10261SOL    HW231683   6.665   5.108   1.226
10262SOL     OW31684   2.936   0.166   5.923
10262SOL    HW131685   3.019   0.215   5.895
10262SOL    HW231686   2.858   0.228   5.921
10263SOL     OW31687   5.990   6.934   1.078
10263SOL    HW131688   5.996   6.944   0.978
10263SOL    HW231689   5.901   6.969   1.109
10264SOL     OW31690   0.186   6.345   6.657
10264SOL    HW131691   0.103   6.327   6.605
10264SOL    HW231692   0.226   6.431   6.627
10265SOL     OW31693   3.231   2.519   0.970
10265SOL    HW131694   3.313   2.470   1.000
10265SOL    HW231695   3.152   2.458   0.972
10266SOL     OW31696   3.728   2.888   3.713
10266SOL    HW131697   3.649   2.863   3.769
10266SOL    HW231698   3.805   2.830   3.737
10267SOL     OW31699   5.300   1.822   0.525
10267SOL    HW131700   5.286   1.825   0.623
10267SOL    HW231701   5.244   1.892   0.481
10268SOL     OW31702   6.246   6.746   2.112
10268SOL    HW131703   6.341   6.716   2.102
10268SOL    HW231704   6.245   6.842   2.143
10269SOL     OW31705   0.845   3.598   5.894
10269SOL    HW131706   0.909   3.523   5.913
10269SOL    HW231707   0.792   3.576   5.812
10270SOL     OW31708   3.204   5.151   2.365
10270SOL    HW131709   3.189   5.175   2.461
10270SOL    HW231710   3.283   5.090   2.358
10271SOL     OW31711   3.834   2.818   0.182
10271SOL    HW131712   3.742   2.818   0.222
10271SOL    HW231713   3.871   2.910   0.182
10272SOL     OW31714   1.183   1.034   5.445
10272SOL    HW131715   1.248   0.959   5.459
10272SOL    HW231716   1.169   1.083   5.532
10273SOL     OW31717   2.927   5.677   2.948
10273SOL    HW131718   2.856   5.741   2.978
10273SOL    HW231719   2.961   5.704   2.858
10274SOL     OW31720   0.348   4.620   5.979
10274SOL    HW131721   0.446   4.609   5.962
10274SOL    HW231722   0.331   4.706   6.025
10275SOL     OW31723   0.658   0.159   2.103
10275SOL    HW131724   0.591   0.179   2.031
10275SOL    HW231725   0.624   0.194   2.191
10276SOL     OW31726   5.399   6.143   5.196
10276SOL    HW131727   5.492   6.106   5.187
10276SOL    HW231728   5.333   6.068   5.190
10277SOL     OW31729   1.858   6.010   4.998
10277SOL    HW131730   1.944   5.960   5.003
10277SOL    HW231731   1.872   6.097   4.951
10278SOL     OW31732   1.736   1.577   3.345
10278SOL    HW131733   1.666   1.524   3.391
10278SOL    HW231734   1.826   1.547   3.376
10279SOL     OW31735   1.345   4.586   4.298
10279SOL    HW131736   1.253   4.572   4.336
10279SOL    HW231737   1.412   4.540   4.356
10280SOL     OW31738   6.320   2.349   6.190
10280SOL    HW131739   6.395   2.299   6.147
10280SOL    HW231740   6.233   2.323   6.147
10281SOL     OW31741   5.872   1.949   3.429
10281SOL    HW131742   5.916   2.031   3.392
10281SOL    HW231743   5.773   1.960   3.426
10282SOL     OW31744   5.458   3.547   4.096
10282SOL    HW131745   5.374   3.593   4.069
10282SOL    HW231746   5.484   3.576   4.188
10283SOL     OW31747   1.444   3.018   1.024
10283SOL    HW131748   1.491   3.017   1.112
10283SOL    HW231749   1.347   3.034   1.038
10284SOL     OW31750   5.227   1.692   5.384
10284SOL    HW131751   5.288   1.717   5.309
10284SOL    HW231752   5.151   1.756   5.387
10285SOL     OW31753   5.227   6.377   3.287
10285SOL    HW131754   5.259   6.469   3.305
10285SOL    HW231755   5.244   6.353   3.191
10286SOL     OW31756   3.878   0.968   3.690
10286SOL    HW131757   3.963   0.996   3.646
10286SOL    HW231758   3.825   1.048   3.715
10287SOL     OW31759   3.153   5.461   1.861
10287SOL    HW131760   3.128   5.373   1.902
10287SOL    HW231761   3.111   5.470   1.771
10288SOL     OW31762   4.523   6.133   2.977
10288SOL    HW131763   4.437   6.092   3.008
10288SOL    HW231764   4.512   6.233   2.975
10289SOL     OW31765   2.952   6.416   6.765
10289SOL    HW131766   3.012   6.496   6.763
10289SOL    HW231767   2.861   6.443   6.796
10290SOL     OW31768   2.894   3.477   2.897
10290SOL    HW131769   2.910   3.462   2.799
10290SOL    HW231770   2.887   3.389   2.943
10291SOL     OW31771   3.672   1.661   2.601
10291SOL    HW131772   3.674   1.761   2.609
10291SOL    HW231773   3.609   1.624   2.669
10292SOL     OW31774   1.613   2.065   5.054
10292SOL    HW131775   1.676   2.035   4.983
10292SOL    HW231776   1.659   2.060   5.143
10293SOL     OW31777   1.541   3.857   2.348
10293SOL    HW131778   1.605   3.830   2.276
10293SOL    HW231779   1.496   3.776   2.385
10294SOL     OW31780   4.348   1.768   3.488
10294SOL    HW131781   4.434   1.718   3.495
10294SOL    HW231782   4.282   1.713   3.437
10295SOL     OW31783   0.499   3.163   6.031
10295SOL    HW131784   0.474   3.072   5.999
10295SOL    HW231785   0.470   3.231   5.963
10296SOL     OW31786   5.137   1.167   0.086
10296SOL    HW131787   5.102   1.164   0.180
10296SOL    HW231788   5.223   1.217   0.084
10297SOL     OW31789   1.840   1.192   5.803
10297SOL    HW131790   1.903   1.265   5.781
10297SOL    HW231791   1.781   1.173   5.725
10298SOL     OW31792   3.106   4.191   1.021
10298SOL    HW131793   3.084   4.289   1.017
10298SOL    HW231794   3.023   4.138   1.036
10299SOL     OW31795   3.782   4.944   3.121
10299SOL    HW131796   3.851   4.877   3.148
10299SOL    HW231797   3.773   4.945   3.021
10300SOL     OW31798   1.459   4.472   2.037
10300SOL    HW131799   1.506   4.472   1.949
10300SOL    HW231800   1.486   4.391   2.089
10301SOL     OW31801   4.942   2.293   5.223
10301SOL    HW131802   4.949   2.332   5.315
10301SOL    HW231803   4.875   2.219   5.223
10302SOL     OW31804   2.488   6.521   4.590
10302SOL    HW131805   2.406   6.469   4.565
10302SOL    HW231806   2.471   6.619   4.579
10303SOL     OW31807   1.624   5.654   3.128
10303SOL    HW131808   1.527   5.656   3.153
10303SOL    HW231809   1.680   5.667   3.210
10304SOL     OW31810   5.681   0.004   1.696
10304SOL    HW131811   5.583   7.006   1.700
10304SOL    HW231812   5.721   7.022   1.787
10305SOL     OW31813   1.350   4.153   5.928
10305SOL    HW131814   1.434   4.098   5.933
10305SOL    HW231815   1.296   4.124   5.849
10306SOL     OW31816   5.176   5.972   6.993
10306SOL    HW131817   5.218   5.963   6.903
10306SOL    HW231818   5.236   6.026   0.028
10307SOL     OW31819   3.073   2.240   5.497
10307SOL    HW131820   3.161   2.218   5.454
10307SOL    HW231821   3.009   2.271   5.427
10308SOL     OW31822   1.893   3.869   2.894
10308SOL    HW131823   1.832   3.830   2.825
10308SOL    HW231824   1.892   3.968   2.888
10309SOL     OW31825   6.762   2.458   0.217
10309SOL    HW131826   6.788   2.524   0.146
10309SOL    HW231827   6.835   2.454   0.286
10310SOL     OW31828   3.540   3.924   0.836
10310SOL    HW131829   3.534   3.954   0.741
10310SOL    HW231830   3.635   3.933   0.867
10311SOL     OW31831   6.701   5.611   0.691
10311SOL    HW131832   6.793   5.590   0.658
10311SOL    HW231833   6.673   5.542   0.757
10312SOL     OW31834   3.938   6.202   2.379
10312SOL    HW131835   3.911   6.268   2.309
10312SOL    HW231836   3.886   6.117   2.367
10313SOL     OW31837   4.345   5.813   1.938
10313SOL    HW131838   4.408   5.737   1.952
10313SOL    HW231839   4.252   5.778   1.927
10314SOL     OW31840   6.605   0.381   1.341
10314SOL    HW131841   6.677   0.324   1.379
10314SOL    HW231842   6.531   0.389   1.408
10315SOL     OW31843   5.652   5.599   4.661
10315SOL    HW131844   5.722   5.671   4.657
10315SOL    HW231845   5.592   5.615   4.739
10316SOL     OW31846   6.044   2.232   5.470
10316SOL    HW131847   6.128   2.272   5.434
10316SOL    HW231848   6.038   2.251   5.568
10317SOL     OW31849   5.071   6.299   6.224
10317SOL    HW131850   5.169   6.300   6.243
10317SOL    HW231851   5.022   6.347   6.297
10318SOL     OW31852   4.933   0.381   6.963
10318SOL    HW131853   4.985   0.435   0.004
10318SOL    HW231854   4.993   0.311   6.923
10319SOL     OW31855   0.364   3.083   5.374
10319SOL    HW131856   0.376   3.150   5.447
10319SOL    HW231857   0.414   3.000   5.396
10320SOL     OW31858   1.049   6.829   2.478
10320SOL    HW131859   0.973   6.766   2.492
10320SOL    HW231860   1.043   6.868   2.386
10321SOL     OW31861   4.145   2.052   2.040
10321SOL    HW131862   4.085   1.987   2.085
10321SOL    HW231863   4.240   2.033   2.066
10322SOL     OW31864   5.527   5.660   5.326
10322SOL    HW131865   5.531   5.566   5.291
10322SOL    HW231866   5.612   5.681   5.374
10323SOL     OW31867   5.916   3.929   4.919
10323SOL    HW131868   5.885   3.869   4.846
10323SOL    HW231869   5.929   4.022   4.884
10324SOL     OW31870   3.306   3.019   2.190
10324SOL    HW131871   3.242   2.944   2.177
10324SOL    HW231872   3.278   3.098   2.134
10325SOL     OW31873   6.775   4.157   2.304
10325SOL    HW131874   6.765   4.070   2.255
10325SOL    HW231875   6.870   4.168   2.332
10326SOL     OW31876   3.808   4.640   0.066
10326SOL    HW131877   3.776   4.732   0.090
10326SOL    HW231878   3.797   4.627   6.992
10327SOL     OW31879   1.999   1.735   0.555
10327SOL    HW131880   2.025   1.826   0.589
10327SOL    HW231881   2.075   1.671   0.570
10328SOL     OW31882   6.450   2.251   0.980
10328SOL    HW131883   6.361   2.209   1.002
10328SOL    HW231884   6.507   2.252   1.062
10329SOL     OW31885   3.172   1.305   3.851
10329SOL    HW131886   3.142   1.266   3.939
10329SOL    HW231887   3.113   1.271   3.778
10330SOL     OW31888   4.087   1.162   2.560
10330SOL    HW131889   3.998   1.120   2.576
10330SOL    HW231890   4.076   1.261   2.549
10331SOL     OW31891   6.415   0.972   6.199
10331SOL    HW131892   6.369   1.060   6.214
10331SOL    HW231893   6.400   0.912   6.277
10332SOL     OW31894   0.381   0.425   1.241
10332SOL    HW131895   0.330   0.403   1.157
10332SOL    HW231896   0.320   0.418   1.319
10333SOL     OW31897   0.636   4.491   4.867
10333SOL    HW131898   0.578   4.556   4.915
10333SOL    HW231899   0.605   4.483   4.772
10334SOL     OW31900   3.467   0.659   3.953
10334SOL    HW131901   3.459   0.649   3.854
10334SOL    HW231902   3.550   0.710   3.975
10335SOL     OW31903   3.156   4.399   6.291
10335SOL    HW131904   3.081   4.461   6.265
10335SOL    HW231905   3.146   4.313   6.241
10336SOL     OW31906   6.954   0.092   1.622
10336SOL    HW131907   6.900   0.008   1.611
10336SOL    HW231908   7.014   0.082   1.701
10337SOL     OW31909   0.363   6.332   6.137
10337SOL    HW131910   0.395   6.306   6.227
10337SOL    HW231911   0.435   6.314   6.069
10338SOL     OW31912   1.884   6.030   2.297
10338SOL    HW131913   1.983   6.038   2.284
10338SOL    HW231914   1.858   6.074   2.383
10339SOL     OW31915   4.579   3.671   6.451
10339SOL    HW131916   4.489   3.674   6.408
10339SOL    HW231917   4.574   3.714   6.541
10340SOL     OW31918   0.947   3.892   1.298
10340SOL    HW131919   0.854   3.902   1.334
10340SOL    HW231920   1.003   3.842   1.364
10341SOL     OW31921   2.094   3.360   2.475
10341SOL    HW131922   2.059   3.451   2.498
10341SOL    HW231923   2.168   3.336   2.537
10342SOL     OW31924   1.793   0.228   4.967
10342SOL    HW131925   1.834   0.179   4.889
10342SOL    HW231926   1.856   0.298   4.999
10343SOL     OW31927   3.812   5.408   6.869
10343SOL    HW131928   3.755   5.448   6.797
10343SOL    HW231929   3.891   5.466   6.886
10344SOL     OW31930   4.421   3.219   0.996
10344SOL    HW131931   4.368   3.303   1.009
10344SOL    HW231932   4.413   3.162   1.077
10345SOL     OW31933   1.457   1.732   6.313
10345SOL    HW131934   1.444   1.792   6.392
10345SOL    HW231935   1.544   1.683   6.323
10346SOL     OW31936   0.514   5.423   1.614
10346SOL    HW131937   0.515   5.499   1.679
10346SOL    HW231938   0.446   5.442   1.543
10347SOL     OW31939   4.071   1.853   3.632
10347SOL    HW131940   3.991   1.861   3.691
10347SOL    HW231941   4.107   1.944   3.612
10348SOL     OW31942   6.735   1.992   0.429
10348SOL    HW131943   6.776   2.051   0.360
10348SOL    HW231944   6.636   2.001   0.427
10349SOL     OW31945   1.173   0.692   0.196
10349SOL    HW131946   1.256   0.696   0.252
10349SOL    HW231947   1.141   0.597   0.190
10350SOL     OW31948   2.543   6.760   5.215
10350SOL    HW131949   2.630   6.735   5.173
10350SOL    HW231950   2.557   6.783   5.311
10351SOL     OW31951   4.417   4.570   5.832
10351SOL    HW131952   4.475   4.616   5.764
10351SOL    HW231953   4.362   4.501   5.786
10352SOL     OW31954   3.552   1.404   5.961
10352SOL    HW131955   3.603   1.401   5.875
10352SOL    HW231956   3.574   1.488   6.010
10353SOL     OW31957   6.575   2.910   5.229
10353SOL    HW131958   6.533   2.888   5.317
10353SOL    HW231959   6.505   2.912   5.158
10354SOL     OW31960   5.745   2.708   2.400
10354SOL    HW131961   5.814   2.773   2.432
10354SOL    HW231962   5.790   2.623   2.370
10355SOL     OW31963   1.910   6.914   1.856
10355SOL    HW131964   1.995   6.956   1.827
10355SOL    HW231965   1.886   6.840   1.793
10356SOL     OW31966   1.114   4.730   5.100
10356SOL    HW131967   1.075   4.822   5.110
10356SOL    HW231968   1.194   4.734   5.039
10357SOL     OW31969   1.790   3.001   6.525
10357SOL    HW131970   1.887   2.979   6.530
10357SOL    HW231971   1.757   2.992   6.431
10358SOL     OW31972   6.626   3.397   3.110
10358SOL    HW131973   6.686   3.332   3.061
10358SOL    HW231974   6.552   3.346   3.154
10359SOL     OW31975   1.145   1.479   1.641
10359SOL    HW131976   1.186   1.390   1.620
10359SOL    HW231977   1.207   1.552   1.614
10360SOL     OW31978   5.522   4.894   2.681
10360SOL    HW131979   5.502   4.933   2.771
10360SOL    HW231980   5.604   4.936   2.643
10361SOL     OW31981   2.820   6.778   3.413
10361SOL    HW131982   2.775   6.837   3.346
10361SOL    HW231983   2.903   6.740   3.372
10362SOL     OW31984   0.874   5.059   4.857
10362SOL    HW131985   0.847   4.994   4.928
10362SOL    HW231986   0.899   5.008   4.774
10363SOL     OW31987   4.687   0.949   1.575
10363SOL    HW131988   4.592   0.979   1.580
10363SOL    HW231989   4.690   0.849   1.573
10364SOL     OW31990   2.950   3.331   1.422
10364SOL    HW131991   2.971   3.253   1.480
10364SOL    HW231992   2.889   3.302   1.348
10365SOL     OW31993   4.417   4.468   6.280
10365SOL    HW131994   4.470   4.511   6.353
10365SOL    HW231995   4.371   4.387   6.316
10366SOL     OW31996   3.023   0.746   4.126
10366SOL    HW131997   3.009   0.699   4.038
10366SOL    HW231998   3.100   0.809   4.119
10367SOL     OW31999   6.579   2.117   2.771
10367SOL    HW132000   6.637   2.198   2.773
10367SOL    HW232001   6.627   2.044   2.722
10368SOL     OW32002   1.951   1.307   1.542
10368SOL    HW132003   1.936   1.400   1.509
10368SOL    HW232004   2.027   1.306   1.607
10369SOL     OW32005   4.053   0.536   5.515
10369SOL    HW132006   4.021   0.535   5.610
10369SOL    HW232007   4.130   0.599   5.508
10370SOL     OW32008   5.406   1.248   4.854
10370SOL    HW132009   5.370   1.319   4.794
10370SOL    HW232010   5.353   1.164   4.841
10371SOL     OW32011   2.890   6.157   4.848
10371SOL    HW132012   2.858   6.139   4.755
10371SOL    HW232013   2.965   6.094   4.870
10372SOL     OW32014   1.036   1.660   6.254
10372SOL    HW132015   1.075   1.664   6.346
10372SOL    HW232016   1.106   1.685   6.187
10373SOL     OW32017   2.181   6.069   4.789
10373SOL    HW132018   2.126   6.011   4.728
10373SOL    HW232019   2.170   6.039   4.883
10374SOL     OW32020   3.841   1.065   2.598
10374SOL    HW132021   3.769   1.065   2.667
10374SOL    HW232022   3.807   1.020   2.515
10375SOL     OW32023   3.683   1.779   6.304
10375SOL    HW132024   3.601   1.779   6.362
10375SOL    HW232025   3.722   1.871   6.303
10376SOL     OW32026   0.855   6.294   4.026
10376SOL    HW132027   0.801   6.328   3.949
10376SOL    HW232028   0.800   6.295   4.109
10377SOL     OW32029   6.683   0.631   4.076
10377SOL    HW132030   6.603   0.591   4.032
10377SOL    HW232031   6.721   0.566   4.142
10378SOL     OW32032   6.837   0.672   5.615
10378SOL    HW132033   6.812   0.610   5.689
10378SOL    HW232034   6.796   0.762   5.632
10379SOL     OW32035   3.884   6.962   5.059
10379SOL    HW132036   3.890   6.953   4.960
10379SOL    HW232037   3.801   7.013   5.083
10380SOL     OW32038   6.629   1.315   3.137
10380SOL    HW132039   6.671   1.337   3.225
10380SOL    HW232040   6.530   1.314   3.147
10381SOL     OW32041   4.393   5.617   6.176
10381SOL    HW132042   4.487   5.649   6.177
10381SOL    HW232043   4.365   5.597   6.082
10382SOL     OW32044   2.344   4.524   6.702
10382SOL    HW132045   2.432   4.566   6.682
10382SOL    HW232046   2.314   4.551   6.793
10383SOL     OW32047   0.332   3.285   0.843
10383SOL    HW132048   0.418   3.247   0.877
10383SOL    HW232049   0.340   3.302   0.744
10384SOL     OW32050   0.673   0.091   0.760
10384SOL    HW132051   0.691   0.062   0.666
10384SOL    HW232052   0.591   0.046   0.794
10385SOL     OW32053   4.742   0.159   6.624
10385SOL    HW132054   4.806   0.235   6.618
10385SOL    HW232055   4.714   0.147   6.720
10386SOL     OW32056   6.692   3.530   4.793
10386SOL    HW132057   6.684   3.435   4.823
10386SOL    HW232058   6.781   3.566   4.821
10387SOL     OW32059   3.958   2.172   2.563
10387SOL    HW132060   3.969   2.271   2.562
10387SOL    HW232061   3.940   2.139   2.470
10388SOL     OW32062   0.907   5.762   3.384
10388SOL    HW132063   0.827   5.757   3.324
10388SOL    HW232064   0.926   5.672   3.421
10389SOL     OW32065   0.443   6.092   2.125
10389SOL    HW132066   0.435   6.134   2.034
10389SOL    HW232067   0.527   6.039   2.130
10390SOL     OW32068   1.629   4.003   1.568
10390SOL    HW132069   1.588   3.912   1.564
10390SOL    HW232070   1.593   4.052   1.648
10391SOL     OW32071   1.344   5.581   5.283
10391SOL    HW132072   1.308   5.488   5.284
10391SOL    HW232073   1.418   5.589   5.350
10392SOL     OW32074   6.543   3.829   0.422
10392SOL    HW132075   6.612   3.772   0.466
10392SOL    HW232076   6.586   3.886   0.353
10393SOL     OW32077   1.506   1.510   2.899
10393SOL    HW132078   1.477   1.528   2.993
10393SOL    HW232079   1.468   1.580   2.839
10394SOL     OW32080   2.458   6.774   6.334
10394SOL    HW132081   2.498   6.790   6.243
10394SOL    HW232082   2.394   6.848   6.355
10395SOL     OW32083   6.194   0.679   4.815
10395SOL    HW132084   6.110   0.627   4.828
10395SOL    HW232085   6.195   0.719   4.723
10396SOL     OW32086   1.379   0.251   3.907
10396SOL    HW132087   1.435   0.227   3.986
10396SOL    HW232088   1.418   0.210   3.825
10397SOL     OW32089   3.870   1.521   3.669
10397SOL    HW132090   3.845   1.526   3.573
10397SOL    HW232091   3.970   1.522   3.678
10398SOL     OW32092   6.116   2.281   0.438
10398SOL    HW132093   6.134   2.185   0.461
10398SOL    HW232094   6.194   2.319   0.388
10399SOL     OW32095   4.341   1.307   5.467
10399SOL    HW132096   4.284   1.333   5.545
10399SOL    HW232097   4.368   1.389   5.416
10400SOL     OW32098   3.553   5.567   1.919
10400SOL    HW132099   3.499   5.631   1.975
10400SOL    HW232100   3.541   5.589   1.823
10401SOL     OW32101   6.819   0.348   2.253
10401SOL    HW132102   6.899   0.315   2.204
10401SOL    HW232103   6.737   0.331   2.199
10402SOL     OW32104   0.432   2.936   5.932
10402SOL    HW132105   0.472   2.936   5.841
10402SOL    HW232106   0.433   2.843   5.969
10403SOL     OW32107   5.505   1.753   2.483
10403SOL    HW132108   5.559   1.735   2.401
10403SOL    HW232109   5.430   1.687   2.488
10404SOL     OW32110   0.725   6.505   3.681
10404SOL    HW132111   0.677   6.446   3.746
10404SOL    HW232112   0.745   6.593   3.724
10405SOL     OW32113   1.808   5.351   5.336
10405SOL    HW132114   1.731   5.335   5.274
10405SOL    HW232115   1.845   5.442   5.322
10406SOL     OW32116   2.024   4.176   4.988
10406SOL    HW132117   2.110   4.176   5.039
10406SOL    HW232118   2.041   4.148   4.893
10407SOL     OW32119   1.508   1.118   6.454
10407SOL    HW132120   1.580   1.050   6.438
10407SOL    HW232121   1.459   1.135   6.368
10408SOL     OW32122   4.075   6.242   2.928
10408SOL    HW132123   4.103   6.336   2.906
10408SOL    HW232124   4.034   6.240   3.019
10409SOL     OW32125   0.489   4.994   1.227
10409SOL    HW132126   0.586   4.997   1.204
10409SOL    HW232127   0.440   4.939   1.160
10410SOL     OW32128   5.404   0.983   1.277
10410SOL    HW132129   5.336   0.910   1.285
10410SOL    HW232130   5.478   0.965   1.343
10411SOL     OW32131   2.269   4.938   4.056
10411SOL    HW132132   2.254   4.854   4.003
10411SOL    HW232133   2.206   4.939   4.134
10412SOL     OW32134   0.592   1.508   0.944
10412SOL    HW132135   0.500   1.525   0.907
10412SOL    HW232136   0.622   1.417   0.915
10413SOL     OW32137   1.214   2.391   0.840
10413SOL    HW132138   1.240   2.307   0.887
10413SOL    HW232139   1.160   2.449   0.902
10414SOL     OW32140   4.869   6.661   6.456
10414SOL    HW132141   4.816   6.576   6.460
10414SOL    HW232142   4.935   6.662   6.531
10415SOL     OW32143   1.789   4.843   3.883
10415SOL    HW132144   1.810   4.916   3.818
10415SOL    HW232145   1.726   4.778   3.842
10416SOL     OW32146   6.453   1.680   6.001
10416SOL    HW132147   6.469   1.745   5.926
10416SOL    HW232148   6.540   1.642   6.031
10417SOL     OW32149   4.438   4.767   3.328
10417SOL    HW132150   4.431   4.818   3.242
10417SOL    HW232151   4.433   4.669   3.309
10418SOL     OW32152   6.499   4.337   5.042
10418SOL    HW132153   6.474   4.310   5.135
10418SOL    HW232154   6.462   4.270   4.977
10419SOL     OW32155   2.812   1.346   5.147
10419SOL    HW132156   2.855   1.419   5.201
10419SOL    HW232157   2.829   1.258   5.191
10420SOL     OW32158   6.984   3.939   2.699
10420SOL    HW132159   6.885   3.925   2.700
10420SOL    HW232160   7.025   3.901   2.782
10421SOL     OW32161   1.343   3.810   3.871
10421SOL    HW132162   1.381   3.818   3.779
10421SOL    HW232163   1.330   3.902   3.910
10422SOL     OW32164   6.774   4.277   5.040
10422SOL    HW132165   6.836   4.305   4.967
10422SOL    HW232166   6.682   4.311   5.021
10423SOL     OW32167   3.971   4.862   4.424
10423SOL    HW132168   3.879   4.899   4.424
10423SOL    HW232169   3.994   4.830   4.516
10424SOL     OW32170   4.432   1.347   0.243
10424SOL    HW132171   4.507   1.281   0.246
10424SOL    HW232172   4.461   1.428   0.191
10425SOL     OW32173   1.004   6.604   1.538
10425SOL    HW132174   1.009   6.561   1.628
10425SOL    HW232175   1.077   6.672   1.530
10426SOL     OW32176   4.716   3.206   5.458
10426SOL    HW132177   4.669   3.146   5.393
10426SOL    HW232178   4.800   3.241   5.417
10427SOL     OW32179   5.627   5.443   5.504
10427SOL    HW132180   5.630   5.483   5.595
10427SOL    HW232181   5.707   5.473   5.451
10428SOL     OW32182   1.277   1.636   3.637
10428SOL    HW132183   1.311   1.665   3.727
10428SOL    HW232184   1.255   1.538   3.639
10429SOL     OW32185   1.131   3.677   2.371
10429SOL    HW132186   1.109   3.771   2.348
10429SOL    HW232187   1.227   3.659   2.351
10430SOL     OW32188   3.548   5.987   4.468
10430SOL    HW132189   3.641   5.973   4.434
10430SOL    HW232190   3.489   6.015   4.392
10431SOL     OW32191   2.740   1.519   4.709
10431SOL    HW132192   2.796   1.462   4.770
10431SOL    HW232193   2.799   1.565   4.643
10432SOL     OW32194   0.703   0.619   5.192
10432SOL    HW132195   0.632   0.642   5.258
10432SOL    HW232196   0.667   0.552   5.126
10433SOL     OW32197   1.529   6.385   2.012
10433SOL    HW132198   1.612   6.330   2.010
10433SOL    HW232199   1.551   6.478   2.041
10434SOL     OW32200   5.117   6.635   5.049
10434SOL    HW132201   5.121   6.536   5.049
10434SOL    HW232202   5.079   6.666   4.962
10435SOL     OW32203   0.996   2.386   6.167
10435SOL    HW132204   0.897   2.374   6.163
10435SOL    HW232205   1.023   2.457   6.102
10436SOL     OW32206   6.480   3.679   4.686
10436SOL    HW132207   6.559   3.626   4.715
10436SOL    HW232208   6.509   3.752   4.624
10437SOL     OW32209   5.083   4.889   5.294
10437SOL    HW132210   5.112   4.793   5.300
10437SOL    HW232211   5.163   4.948   5.292
10438SOL     OW32212   6.933   6.778   5.553
10438SOL    HW132213   6.953   6.865   5.598
10438SOL    HW232214   7.018   6.736   5.521
10439SOL     OW32215   6.653   1.027   4.916
10439SOL    HW132216   6.681   1.123   4.915
10439SOL    HW232217   6.596   1.008   4.835
10440SOL     OW32218   6.802   1.405   0.069
10440SOL    HW132219   6.778   1.452   7.008
10440SOL    HW232220   6.742   1.438   0.142
10441SOL     OW32221   3.804   1.411   1.148
10441SOL    HW132222   3.705   1.427   1.137
10441SOL    HW232223   3.821   1.313   1.154
10442SOL     OW32224   3.275   0.792   5.558
10442SOL    HW132225   3.299   0.704   5.599
10442SOL    HW232226   3.334   0.864   5.595
10443SOL     OW32227   0.147   2.060   3.018
10443SOL    HW132228   0.207   1.999   2.966
10443SOL    HW232229   0.054   2.023   3.018
10444SOL     OW32230   3.674   4.967   3.916
10444SOL    HW132231   3.580   4.934   3.928
10444SOL    HW232232   3.736   4.908   3.967
10445SOL     OW32233   0.145   3.651   2.207
10445SOL    HW132234   0.241   3.658   2.181
10445SOL    HW232235   0.133   3.576   2.272
10446SOL     OW32236   1.854   4.125   5.411
10446SOL    HW132237   1.833   4.105   5.315
10446SOL    HW232238   1.949   4.155   5.418
10447SOL     OW32239   6.071   2.029   2.841
10447SOL    HW132240   6.164   2.020   2.879
10447SOL    HW232241   6.077   2.051   2.744
10448SOL     OW32242   2.821   0.872   3.752
10448SOL    HW132243   2.920   0.855   3.756
10448SOL    HW232244   2.790   0.908   3.840
10449SOL     OW32245   3.535   5.063   6.864
10449SOL    HW132246   3.575   5.124   6.932
10449SOL    HW232247   3.598   5.051   6.787
10450SOL     OW32248   6.423   0.780   6.550
10450SOL    HW132249   6.324   0.782   6.566
10450SOL    HW232250   6.457   0.687   6.560
10451SOL     OW32251   2.696   0.525   3.813
10451SOL    HW132252   2.728   0.503   3.905
10451SOL    HW232253   2.735   0.613   3.785
10452SOL     OW32254   0.063   2.582   2.939
10452SOL    HW132255   0.115   2.504   2.902
10452SOL    HW232256   0.119   2.629   3.007
10453SOL     OW32257   4.429   6.173   2.508
10453SOL    HW132258   4.452   6.126   2.593
10453SOL    HW232259   4.334   6.152   2.483
10454SOL     OW32260   6.372   1.150   6.943
10454SOL    HW132261   6.449   1.193   6.990
10454SOL    HW232262   6.394   1.140   6.846
10455SOL     OW32263   6.186   6.041   4.363
10455SOL    HW132264   6.262   6.037   4.298
10455SOL    HW232265   6.112   5.982   4.332
10456SOL     OW32266   0.010   5.463   0.188
10456SOL    HW132267   7.016   5.368   0.214
10456SOL    HW232268   0.047   5.465   0.096
10457SOL     OW32269   4.742   3.591   6.960
10457SOL    HW132270   4.825   3.569   6.909
10457SOL    HW232271   4.700   3.506   6.993
10458SOL     OW32272   6.677   0.333   6.087
10458SOL    HW132273   6.610   0.308   6.017
10458SOL    HW232274   6.635   0.396   6.152
10459SOL     OW32275   6.449   5.200   0.905
10459SOL    HW132276   6.403   5.222   0.819
10459SOL    HW232277   6.494   5.111   0.898
10460SOL     OW32278   6.758   4.215   1.875
10460SOL    HW132279   6.811   4.297   1.897
10460SOL    HW232280   6.663   4.227   1.903
10461SOL     OW32281   6.411   4.708   5.312
10461SOL    HW132282   6.387   4.655   5.394
10461SOL    HW232283   6.510   4.705   5.297
10462SOL     OW32284   4.351   1.697   1.792
10462SOL    HW132285   4.349   1.598   1.781
10462SOL    HW232286   4.393   1.720   1.880
10463SOL     OW32287   4.605   1.474   6.228
10463SOL    HW132288   4.611   1.507   6.322
10463SOL    HW232289   4.529   1.411   6.219
10464SOL     OW32290   5.616   5.690   2.215
10464SOL    HW132291   5.568   5.646   2.140
10464SOL    HW232292   5.558   5.762   2.255
10465SOL     OW32293   5.142   4.225   3.202
10465SOL    HW132294   5.053   4.240   3.245
10465SOL    HW232295   5.130   4.178   3.114
10466SOL     OW32296   5.300   4.527   6.164
10466SOL    HW132297   5.285   4.451   6.101
10466SOL    HW232298   5.307   4.613   6.112
10467SOL     OW32299   1.840   2.597   6.575
10467SOL    HW132300   1.747   2.610   6.539
10467SOL    HW232301   1.867   2.677   6.628
10468SOL     OW32302   3.573   5.221   3.870
10468SOL    HW132303   3.538   5.226   3.777
10468SOL    HW232304   3.621   5.135   3.883
10469SOL     OW32305   5.185   3.956   5.838
10469SOL    HW132306   5.120   3.891   5.800
10469SOL    HW232307   5.240   3.911   5.908
10470SOL     OW32308   2.391   1.901   3.662
10470SOL    HW132309   2.448   1.983   3.669
10470SOL    HW232310   2.393   1.867   3.568
10471SOL     OW32311   2.859   0.806   6.841
10471SOL    HW132312   2.863   0.855   6.929
10471SOL    HW232313   2.771   0.760   6.832
10472SOL     OW32314   2.919   5.097   0.724
10472SOL    HW132315   2.879   5.187   0.708
10472SOL    HW232316   2.886   5.033   0.654
10473SOL     OW32317   5.503   5.808   6.338
10473SOL    HW132318   5.423   5.831   6.282
10473SOL    HW232319   5.472   5.774   6.427
10474SOL     OW32320   5.223   0.994   4.053
10474SOL    HW132321   5.254   0.977   4.146
10474SOL    HW232322   5.200   0.907   4.009
10475SOL     OW32323   2.464   6.107   1.554
10475SOL    HW132324   2.529   6.141   1.621
10475SOL    HW232325   2.511   6.086   1.468
10476SOL     OW32326   5.140   6.448   6.003
10476SOL    HW132327   5.183   6.374   5.952
10476SOL    HW232328   5.102   6.413   6.089
10477SOL     OW32329   6.972   6.866   4.226
10477SOL    HW132330   6.977   6.937   4.155
10477SOL    HW232331   0.021   6.880   4.292
10478SOL     OW32332   6.635   6.710   0.148
10478SOL    HW132333   6.581   6.793   0.164
10478SOL    HW232334   6.681   6.684   0.233
10479SOL     OW32335   6.771   2.094   2.320
10479SOL    HW132336   6.695   2.030   2.333
10479SOL    HW232337   6.857   2.044   2.312
10480SOL     OW32338   1.808   0.278   2.005
10480SOL    HW132339   1.796   0.366   1.959
10480SOL    HW232340   1.743   0.212   1.968
10481SOL     OW32341   0.859   6.264   2.915
10481SOL    HW132342   0.837   6.361   2.909
10481SOL    HW232343   0.911   6.247   2.999
10482SOL     OW32344   5.893   4.631   4.467
10482SOL    HW132345   5.931   4.716   4.504
10482SOL    HW232346   5.839   4.652   4.386
10483SOL     OW32347   5.382   5.651   0.544
10483SOL    HW132348   5.317   5.621   0.474
10483SOL    HW232349   5.447   5.577   0.563
10484SOL     OW32350   4.772   1.212   1.160
10484SOL    HW132351   4.859   1.254   1.185
10484SOL    HW232352   4.722   1.273   1.098
10485SOL     OW32353   3.490   4.144   6.846
10485SOL    HW132354   3.418   4.164   6.779
10485SOL    HW232355   3.480   4.050   6.878
10486SOL     OW32356   6.925   1.443   0.988
10486SOL    HW132357   6.961   1.536   0.976
10486SOL    HW232358   6.907   1.426   1.085
10487SOL     OW32359   4.945   6.531   2.169
10487SOL    HW132360   5.043   6.511   2.177
10487SOL    HW232361   4.921   6.607   2.229
10488SOL     OW32362   3.007   3.032   6.304
10488SOL    HW132363   3.052   2.971   6.370
10488SOL    HW232364   2.918   2.993   6.278
10489SOL     OW32365   0.653   0.045   5.782
10489SOL    HW132366   0.690   0.127   5.826
10489SOL    HW232367   0.706   0.024   5.700
10490SOL     OW32368   6.268   1.809   2.605
10490SOL    HW132369   6.347   1.782   2.550
10490SOL    HW232370   6.257   1.908   2.602
10491SOL     OW32371   1.644   3.648   6.779
10491SOL    HW132372   1.595   3.699   6.708
10491SOL    HW232373   1.683   3.565   6.739
10492SOL     OW32374   5.788   3.672   5.393
10492SOL    HW132375   5.835   3.611   5.457
10492SOL    HW232376   5.770   3.760   5.438
10493SOL     OW32377   3.229   1.051   1.543
10493SOL    HW132378   3.178   1.115   1.487
10493SOL    HW232379   3.307   1.016   1.490
10494SOL     OW32380   5.191   2.461   5.452
10494SOL    HW132381   5.231   2.534   5.506
10494SOL    HW232382   5.107   2.429   5.495
10495SOL     OW32383   2.357   6.960   0.384
10495SOL    HW132384   2.274   6.950   0.328
10495SOL    HW232385   2.360   6.887   0.453
10496SOL     OW32386   0.717   6.668   1.102
10496SOL    HW132387   0.649   6.618   1.048
10496SOL    HW232388   0.806   6.661   1.056
10497SOL     OW32389   2.249   6.833   2.237
10497SOL    HW132390   2.333   6.876   2.205
10497SOL    HW232391   2.172   6.895   2.223
10498SOL     OW32392   2.903   6.315   1.768
10498SOL    HW132393   2.813   6.320   1.811
10498SOL    HW232394   2.899   6.353   1.675
10499SOL     OW32395   2.975   6.176   2.508
10499SOL    HW132396   2.899   6.232   2.476
10499SOL    HW232397   2.981   6.182   2.608
10500SOL     OW32398   0.281   1.276   5.875
10500SOL    HW132399   0.283   1.186   5.919
10500SOL    HW232400   0.302   1.265   5.778
10501SOL     OW32401   1.703   5.674   3.392
10501SOL    HW132402   1.625   5.717   3.437
10501SOL    HW232403   1.787   5.695   3.442
10502SOL     OW32404   3.520   0.381   0.576
10502SOL    HW132405   3.460   0.354   0.651
10502SOL    HW232406   3.611   0.402   0.611
10503SOL     OW32407   4.182   2.746   0.195
10503SOL    HW132408   4.132   2.698   0.268
10503SOL    HW232409   4.141   2.835   0.180
10504SOL     OW32410   1.685   2.420   0.193
10504SOL    HW132411   1.635   2.334   0.204
10504SOL    HW232412   1.652   2.467   0.111
10505SOL     OW32413   6.126   5.588   0.521
10505SOL    HW132414   6.092   5.610   0.613
10505SOL    HW232415   6.114   5.667   0.461
10506SOL     OW32416   0.620   5.526   6.108
10506SOL    HW132417   0.614   5.426   6.110
10506SOL    HW232418   0.707   5.553   6.066
10507SOL     OW32419   2.563   6.239   6.978
10507SOL    HW132420   2.637   6.269   0.013
10507SOL    HW232421   2.478   6.235   0.005
10508SOL     OW32422   5.562   5.887   4.505
10508SOL    HW132423   5.532   5.864   4.413
10508SOL    HW232424   5.515   5.969   4.537
10509SOL     OW32425   0.456   6.725   6.074
10509SOL    HW132426   0.495   6.741   5.983
10509SOL    HW232427   0.376   6.666   6.066
10510SOL     OW32428   5.499   5.245   5.665
10510SOL    HW132429   5.559   5.267   5.588
10510SOL    HW232430   5.414   5.296   5.656
10511SOL     OW32431   4.559   2.849   1.148
10511SOL    HW132432   4.481   2.814   1.097
10511SOL    HW232433   4.547   2.947   1.164
10512SOL     OW32434   3.676   0.702   6.154
10512SOL    HW132435   3.589   0.744   6.127
10512SOL    HW232436   3.675   0.685   6.253
10513SOL     OW32437   6.922   2.983   5.503
10513SOL    HW132438   6.892   2.985   5.408
10513SOL    HW232439   6.966   3.070   5.526
10514SOL     OW32440   0.265   3.733   6.888
10514SOL    HW132441   0.260   3.804   6.818
10514SOL    HW232442   0.209   3.655   6.861
10515SOL     OW32443   6.065   2.909   2.783
10515SOL    HW132444   6.150   2.860   2.765
10515SOL    HW232445   6.001   2.849   2.831
10516SOL     OW32446   4.762   1.015   6.833
10516SOL    HW132447   4.664   0.996   6.831
10516SOL    HW232448   4.786   1.052   6.923
10517SOL     OW32449   0.615   1.954   2.779
10517SOL    HW132450   0.663   1.867   2.771
10517SOL    HW232451   0.672   2.019   2.829
10518SOL     OW32452   0.720   4.857   6.691
10518SOL    HW132453   0.759   4.904   6.770
10518SOL    HW232454   0.622   4.876   6.685
10519SOL     OW32455   2.820   2.665   6.525
10519SOL    HW132456   2.793   2.569   6.519
10519SOL    HW232457   2.757   2.721   6.471
10520SOL     OW32458   1.863   2.395   6.381
10520SOL    HW132459   1.820   2.458   6.315
10520SOL    HW232460   1.859   2.435   6.472
10521SOL     OW32461   5.904   5.019   1.585
10521SOL    HW132462   5.816   5.050   1.550
10521SOL    HW232463   5.919   4.924   1.558
10522SOL     OW32464   6.225   0.562   0.838
10522SOL    HW132465   6.281   0.645   0.832
10522SOL    HW232466   6.277   0.485   0.802
10523SOL     OW32467   0.393   6.581   5.059
10523SOL    HW132468   0.293   6.588   5.053
10523SOL    HW232469   0.432   6.584   4.967
10524SOL     OW32470   2.025   1.935   5.238
10524SOL    HW132471   1.933   1.962   5.266
10524SOL    HW232472   2.043   1.842   5.272
10525SOL     OW32473   3.009   6.941   5.836
10525SOL    HW132474   3.029   6.888   5.918
10525SOL    HW232475   3.004   0.014   5.860
10526SOL     OW32476   6.954   0.038   3.493
10526SOL    HW132477   6.997   0.128   3.499
10526SOL    HW232478   6.856   0.047   3.511
10527SOL     OW32479   0.119   2.481   4.336
10527SOL    HW132480   0.187   2.544   4.372
10527SOL    HW232481   0.028   2.510   4.366
10528SOL     OW32482   0.414   3.837   5.070
10528SOL    HW132483   0.498   3.805   5.114
10528SOL    HW232484   0.407   3.937   5.079
10529SOL     OW32485   1.465   6.148   3.373
10529SOL    HW132486   1.500   6.228   3.423
10529SOL    HW232487   1.468   6.068   3.433
10530SOL     OW32488   1.827   1.345   6.364
10530SOL    HW132489   1.805   1.265   6.421
10530SOL    HW232490   1.811   1.322   6.268
10531SOL     OW32491   1.113   3.202   4.844
10531SOL    HW132492   1.044   3.174   4.777
10531SOL    HW232493   1.118   3.134   4.917
10532SOL     OW32494   2.394   3.681   0.303
10532SOL    HW132495   2.407   3.584   0.285
10532SOL    HW232496   2.313   3.694   0.360
10533SOL     OW32497   3.207   1.687   4.092
10533SOL    HW132498   3.254   1.640   4.018
10533SOL    HW232499   3.134   1.744   4.053
10534SOL     OW32500   6.336   5.526   0.787
10534SOL    HW132501   6.299   5.475   0.709
10534SOL    HW232502   6.279   5.510   0.867
10535SOL     OW32503   0.208   2.516   1.741
10535SOL    HW132504   0.224   2.510   1.839
10535SOL    HW232505   0.209   2.612   1.712
10536SOL     OW32506   3.583   0.695   2.877
10536SOL    HW132507   3.576   0.711   2.779
10536SOL    HW232508   3.643   0.763   2.918
10537SOL     OW32509   3.381   5.908   3.174
10537SOL    HW132510   3.449   5.842   3.143
10537SOL    HW232511   3.290   5.867   3.171
10538SOL     OW32512   4.668   3.049   6.734
10538SOL    HW132513   4.753   3.040   6.786
10538SOL    HW232514   4.594   3.003   6.783
10539SOL     OW32515   0.650   4.093   6.436
10539SOL    HW132516   0.561   4.135   6.449
10539SOL    HW232517   0.694   4.131   6.355
10540SOL     OW32518   1.704   1.527   5.550
10540SOL    HW132519   1.799   1.559   5.544
10540SOL    HW232520   1.648   1.598   5.593
10541SOL     OW32521   3.609   3.692   1.947
10541SOL    HW132522   3.634   3.788   1.951
10541SOL    HW232523   3.514   3.683   1.916
10542SOL     OW32524   6.807   2.174   0.238
10542SOL    HW132525   6.762   2.123   0.165
10542SOL    HW232526   6.770   2.267   0.241
10543SOL     OW32527   0.865   1.326   4.904
10543SOL    HW132528   0.835   1.417   4.874
10543SOL    HW232529   0.964   1.322   4.903
10544SOL     OW32530   1.367   7.012   2.790
10544SOL    HW132531   1.271   0.015   2.790
10544SOL    HW232532   1.398   6.999   2.696
10545SOL     OW32533   5.942   0.989   2.787
10545SOL    HW132534   5.918   0.972   2.691
10545SOL    HW232535   6.040   0.973   2.799
10546SOL     OW32536   0.553   0.962   6.117
10546SOL    HW132537   0.601   1.041   6.155
10546SOL    HW232538   0.615   0.908   6.061
10547SOL     OW32539   4.710   2.262   1.218
10547SOL    HW132540   4.652   2.228   1.292
10547SOL    HW232541   4.653   2.284   1.138
10548SOL     OW32542   5.011   3.403   5.034
10548SOL    HW132543   4.957   3.487   5.029
10548SOL    HW232544   4.969   3.333   4.976
10549SOL     OW32545   6.518   0.553   1.997
10549SOL    HW132546   6.477   0.609   1.924
10549SOL    HW232547   6.499   0.596   2.086
10550SOL     OW32548   4.260   6.701   4.902
10550SOL    HW132549   4.211   6.627   4.947
10550SOL    HW232550   4.348   6.666   4.868
10551SOL     OW32551   1.656   2.495   5.572
10551SOL    HW132552   1.649   2.399   5.546
10551SOL    HW232553   1.610   2.552   5.503
10552SOL     OW32554   4.065   2.098   5.752
10552SOL    HW132555   3.977   2.079   5.794
10552SOL    HW232556   4.136   2.099   5.821
10553SOL     OW32557   1.451   4.729   1.765
10553SOL    HW132558   1.514   4.652   1.778
10553SOL    HW232559   1.362   4.693   1.736
10554SOL     OW32560   5.052   5.174   6.264
10554SOL    HW132561   5.117   5.099   6.271
10554SOL    HW232562   5.042   5.201   6.168
10555SOL     OW32563   2.799   2.767   1.035
10555SOL    HW132564   2.830   2.839   1.097
10555SOL    HW232565   2.859   2.763   0.956
10556SOL     OW32566   1.804   3.118   5.009
10556SOL    HW132567   1.836   3.200   5.057
10556SOL    HW232568   1.812   3.039   5.070
10557SOL     OW32569   1.223   2.581   3.166
10557SOL    HW132570   1.202   2.650   3.237
10557SOL    HW232571   1.270   2.625   3.090
10558SOL     OW32572   3.875   6.978   4.274
10558SOL    HW132573   3.874   6.943   4.180
10558SOL    HW232574   3.784   7.010   4.298
10559SOL     OW32575   3.900   1.190   0.875
10559SOL    HW132576   3.890   1.187   0.974
10559SOL    HW232577   3.811   1.179   0.832
10560SOL     OW32578   2.261   5.777   4.421
10560SOL    HW132579   2.339   5.768   4.359
10560SOL    HW232580   2.177   5.785   4.367
10561SOL     OW32581   2.578   4.747   0.384
10561SOL    HW132582   2.614   4.734   0.292
10561SOL    HW232583   2.588   4.662   0.436
10562SOL     OW32584   5.451   6.416   0.536
10562SOL    HW132585   5.478   6.406   0.632
10562SOL    HW232586   5.410   6.506   0.522
10563SOL     OW32587   1.527   0.514   4.116
10563SOL    HW132588   1.603   0.509   4.051
10563SOL    HW232589   1.561   0.542   4.205
10564SOL     OW32590   5.832   6.491   2.150
10564SOL    HW132591   5.846   6.477   2.248
10564SOL    HW232592   5.920   6.478   2.103
10565SOL     OW32593   0.377   0.868   5.758
10565SOL    HW132594   0.435   0.932   5.709
10565SOL    HW232595   0.285   0.870   5.720
10566SOL     OW32596   4.205   3.098   0.002
10566SOL    HW132597   4.193   3.070   0.097
10566SOL    HW232598   4.243   3.190   7.023
10567SOL     OW32599   2.427   2.746   3.865
10567SOL    HW132600   2.340   2.727   3.820
10567SOL    HW232601   2.472   2.823   3.820
10568SOL     OW32602   5.601   1.335   1.737
10568SOL    HW132603   5.521   1.276   1.725
10568SOL    HW232604   5.616   1.349   1.835
10569SOL     OW32605   6.366   2.647   1.405
10569SOL    HW132606   6.448   2.659   1.461
10569SOL    HW232607   6.390   2.660   1.309
10570SOL     OW32608   1.769   4.888   2.788
10570SOL    HW132609   1.819   4.805   2.811
10570SOL    HW232610   1.678   4.864   2.755
10571SOL     OW32611   0.394   4.942   4.630
10571SOL    HW132612   0.454   5.016   4.599
10571SOL    HW232613   0.301   4.977   4.640
10572SOL     OW32614   6.529   3.365   3.632
10572SOL    HW132615   6.556   3.461   3.620
10572SOL    HW232616   6.585   3.324   3.704
10573SOL     OW32617   5.407   6.112   4.173
10573SOL    HW132618   5.358   6.064   4.100
10573SOL    HW232619   5.505   6.096   4.163
10574SOL     OW32620   1.986   2.002   4.706
10574SOL    HW132621   1.932   1.919   4.716
10574SOL    HW232622   2.013   2.014   4.611
10575SOL     OW32623   0.223   0.614   3.649
10575SOL    HW132624   0.313   0.573   3.631
10575SOL    HW232625   0.231   0.713   3.648
10576SOL     OW32626   0.194   6.330   5.475
10576SOL    HW132627   0.124   6.313   5.545
10576SOL    HW232628   0.228   6.424   5.483
10577SOL     OW32629   1.188   2.491   6.515
10577SOL    HW132630   1.143   2.572   6.553
10577SOL    HW232631   1.252   2.519   6.443
10578SOL     OW32632   6.563   0.372   3.678
10578SOL    HW132633   6.584   0.434   3.602
10578SOL    HW232634   6.628   0.387   3.752
10579SOL     OW32635   3.598   2.151   0.298
10579SOL    HW132636   3.540   2.080   0.340
10579SOL    HW232637   3.621   2.219   0.367
10580SOL     OW32638   6.417   0.592   0.309
10580SOL    HW132639   6.356   0.658   0.265
10580SOL    HW232640   6.511   0.610   0.281
10581SOL     OW32641   5.829   0.156   2.710
10581SOL    HW132642   5.825   0.237   2.769
10581SOL    HW232643   5.924   0.131   2.694
10582SOL     OW32644   4.188   5.092   6.654
10582SOL    HW132645   4.135   5.139   6.725
10582SOL    HW232646   4.153   5.000   6.641
10583SOL     OW32647   4.092   0.880   5.705
10583SOL    HW132648   4.105   0.916   5.613
10583SOL    HW232649   4.126   0.785   5.708
10584SOL     OW32650   6.372   6.641   1.080
10584SOL    HW132651   6.273   6.655   1.075
10584SOL    HW232652   6.400   6.632   1.176
10585SOL     OW32653   1.625   3.325   5.640
10585SOL    HW132654   1.705   3.367   5.683
10585SOL    HW232655   1.630   3.226   5.649
10586SOL     OW32656   1.818   5.744   5.618
10586SOL    HW132657   1.915   5.731   5.639
10586SOL    HW232658   1.762   5.689   5.682
10587SOL     OW32659   5.864   4.410   6.927
10587SOL    HW132660   5.942   4.420   6.989
10587SOL    HW232661   5.806   4.491   6.933
10588SOL     OW32662   0.935   4.320   1.621
10588SOL    HW132663   0.979   4.300   1.708
10588SOL    HW232664   0.924   4.236   1.569
10589SOL     OW32665   5.424   1.402   4.445
10589SOL    HW132666   5.512   1.443   4.422
10589SOL    HW232667   5.411   1.318   4.393
10590SOL     OW32668   0.895   0.430   1.630
10590SOL    HW132669   0.964   0.404   1.562
10590SOL    HW232670   0.856   0.348   1.672
10591SOL     OW32671   1.279   1.657   6.082
10591SOL    HW132672   1.314   1.657   6.176
10591SOL    HW232673   1.340   1.710   6.024
10592SOL     OW32674   5.676   2.630   0.462
10592SOL    HW132675   5.749   2.574   0.501
10592SOL    HW232676   5.686   2.635   0.363
10593SOL     OW32677   2.895   5.268   0.388
10593SOL    HW132678   2.914   5.192   0.326
10593SOL    HW232679   2.867   5.348   0.336
10594SOL     OW32680   5.419   1.502   3.681
10594SOL    HW132681   5.389   1.521   3.775
10594SOL    HW232682   5.468   1.415   3.679
10595SOL     OW32683   3.567   0.379   6.494
10595SOL    HW132684   3.640   0.382   6.563
10595SOL    HW232685   3.605   0.351   6.407
10596SOL     OW32686   4.204   6.911   1.617
10596SOL    HW132687   4.216   6.872   1.708
10596SOL    HW232688   4.175   6.840   1.554
10597SOL     OW32689   2.655   1.115   4.719
10597SOL    HW132690   2.569   1.085   4.676
10597SOL    HW232691   2.711   1.164   4.653
10598SOL     OW32692   2.588   2.463   0.087
10598SOL    HW132693   2.635   2.551   0.095
10598SOL    HW232694   2.650   2.390   0.113
10599SOL     OW32695   5.396   1.981   0.192
10599SOL    HW132696   5.301   1.951   0.198
10599SOL    HW232697   5.420   2.032   0.275
10600SOL     OW32698   1.956   3.539   0.354
10600SOL    HW132699   1.926   3.446   0.377
10600SOL    HW232700   1.908   3.570   0.272
10601SOL     OW32701   2.125   5.049   5.945
10601SOL    HW132702   2.176   4.963   5.936
10601SOL    HW232703   2.065   5.044   6.025
10602SOL     OW32704   5.178   1.437   3.127
10602SOL    HW132705   5.267   1.413   3.165
10602SOL    HW232706   5.185   1.441   3.027
10603SOL     OW32707   2.488   5.935   3.340
10603SOL    HW132708   2.515   6.022   3.381
10603SOL    HW232709   2.465   5.948   3.243
10604SOL     OW32710   5.702   4.068   4.692
10604SOL    HW132711   5.651   4.050   4.775
10604SOL    HW232712   5.639   4.074   4.614
10605SOL     OW32713   1.314   4.775   0.538
10605SOL    HW132714   1.365   4.689   0.532
10605SOL    HW232715   1.216   4.755   0.548
10606SOL     OW32716   5.767   0.569   2.352
10606SOL    HW132717   5.683   0.552   2.404
10606SOL    HW232718   5.757   0.655   2.301
10607SOL     OW32719   4.293   3.733   5.755
10607SOL    HW132720   4.205   3.769   5.725
10607SOL    HW232721   4.310   3.762   5.850
10608SOL     OW32722   6.076   1.876   5.024
10608SOL    HW132723   6.064   1.937   4.945
10608SOL    HW232724   6.117   1.927   5.100
10609SOL     OW32725   2.979   6.057   1.773
10609SOL    HW132726   3.078   6.067   1.772
10609SOL    HW232727   2.936   6.147   1.760
10610SOL     OW32728   0.359   4.223   6.490
10610SOL    HW132729   0.280   4.256   6.438
10610SOL    HW232730   0.327   4.181   6.575
10611SOL     OW32731   5.121   3.318   6.697
10611SOL    HW132732   5.130   3.219   6.686
10611SOL    HW232733   5.064   3.355   6.624
10612SOL     OW32734   2.445   0.202   5.450
10612SOL    HW132735   2.513   0.165   5.513
10612SOL    HW232736   2.481   0.284   5.407
10613SOL     OW32737   0.244   6.826   5.730
10613SOL    HW132738   0.167   6.816   5.793
10613SOL    HW232739   0.302   6.903   5.760
10614SOL     OW32740   0.099   1.821   4.418
10614SOL    HW132741   0.121   1.729   4.386
10614SOL    HW232742   0.001   1.837   4.409
10615SOL     OW32743   4.225   5.548   5.626
10615SOL    HW132744   4.319   5.567   5.598
10615SOL    HW232745   4.171   5.632   5.621
10616SOL     OW32746   3.517   6.283   0.499
10616SOL    HW132747   3.504   6.338   0.582
10616SOL    HW232748   3.521   6.343   0.419
10617SOL     OW32749   2.350   2.622   0.636
10617SOL    HW132750   2.409   2.692   0.676
10617SOL    HW232751   2.291   2.584   0.707
10618SOL     OW32752   5.724   3.375   6.995
10618SOL    HW132753   5.688   3.418   6.912
10618SOL    HW232754   5.660   3.305   0.001
10619SOL     OW32755   0.230   3.639   1.723
10619SOL    HW132756   0.266   3.724   1.685
10619SOL    HW232757   0.166   3.660   1.797
10620SOL     OW32758   1.134   6.052   5.305
10620SOL    HW132759   1.169   6.018   5.392
10620SOL    HW232760   1.150   5.984   5.234
10621SOL     OW32761   1.582   5.707   0.883
10621SOL    HW132762   1.655   5.770   0.911
10621SOL    HW232763   1.517   5.756   0.825
10622SOL     OW32764   4.605   0.987   1.218
10622SOL    HW132765   4.653   1.063   1.173
10622SOL    HW232766   4.547   0.940   1.150
10623SOL     OW32767   5.949   3.364   3.482
10623SOL    HW132768   6.032   3.311   3.467
10623SOL    HW232769   5.954   3.449   3.430
10624SOL     OW32770   0.947   1.028   4.506
10624SOL    HW132771   0.899   0.963   4.447
10624SOL    HW232772   0.902   1.117   4.502
10625SOL     OW32773   0.802   4.301   0.116
10625SOL    HW132774   0.850   4.343   0.039
10625SOL    HW232775   0.716   4.260   0.084
10626SOL     OW32776   0.900   2.556   1.659
10626SOL    HW132777   0.950   2.491   1.601
10626SOL    HW232778   0.805   2.563   1.627
10627SOL     OW32779   5.437   6.229   2.241
10627SOL    HW132780   5.479   6.295   2.179
10627SOL    HW232781   5.500   6.208   2.316
10628SOL     OW32782   5.580   5.128   5.891
10628SOL    HW132783   5.570   5.169   5.800
10628SOL    HW232784   5.499   5.073   5.912
10629SOL     OW32785   2.781   4.688   5.338
10629SOL    HW132786   2.826   4.620   5.280
10629SOL    HW232787   2.700   4.723   5.291
10630SOL     OW32788   6.367   0.837   3.495
10630SOL    HW132789   6.433   0.911   3.488
10630SOL    HW232790   6.363   0.804   3.589
10631SOL     OW32791   1.655   5.566   4.316
10631SOL    HW132792   1.726   5.509   4.358
10631SOL    HW232793   1.685   5.597   4.226
10632SOL     OW32794   5.481   2.298   4.179
10632SOL    HW132795   5.414   2.266   4.246
10632SOL    HW232796   5.478   2.239   4.099
10633SOL     OW32797   2.985   4.065   1.377
10633SOL    HW132798   3.057   4.019   1.429
10633SOL    HW232799   2.953   4.145   1.427
10634SOL     OW32800   3.448   5.437   0.770
10634SOL    HW132801   3.468   5.339   0.765
10634SOL    HW232802   3.519   5.489   0.722
10635SOL     OW32803   2.678   1.602   1.720
10635SOL    HW132804   2.744   1.542   1.674
10635SOL    HW232805   2.700   1.607   1.818
10636SOL     OW32806   1.169   2.583   2.191
10636SOL    HW132807   1.149   2.486   2.176
10636SOL    HW232808   1.268   2.597   2.191
10637SOL     OW32809   3.609   4.131   5.731
10637SOL    HW132810   3.536   4.064   5.720
10637SOL    HW232811   3.666   4.132   5.649
10638SOL     OW32812   6.751   5.952   2.769
10638SOL    HW132813   6.781   5.936   2.675
10638SOL    HW232814   6.651   5.945   2.774
10639SOL     OW32815   0.711   1.662   3.481
10639SOL    HW132816   0.755   1.748   3.455
10639SOL    HW232817   0.617   1.680   3.509
10640SOL     OW32818   4.155   0.282   6.812
10640SOL    HW132819   4.180   0.253   6.719
10640SOL    HW232820   4.077   0.229   6.843
10641SOL     OW32821   3.709   2.177   0.055
10641SOL    HW132822   3.644   2.166   0.130
10641SOL    HW232823   3.802   2.173   0.092
10642SOL     OW32824   0.305   2.802   1.626
10642SOL    HW132825   0.356   2.756   1.553
10642SOL    HW232826   0.288   2.897   1.600
10643SOL     OW32827   1.761   4.505   6.144
10643SOL    HW132828   1.703   4.429   6.173
10643SOL    HW232829   1.704   4.580   6.113
10644SOL     OW32830   4.821   2.346   3.769
10644SOL    HW132831   4.836   2.371   3.865
10644SOL    HW232832   4.808   2.429   3.715
10645SOL     OW32833   0.785   0.905   4.274
10645SOL    HW132834   0.786   1.000   4.242
10645SOL    HW232835   0.809   0.844   4.198
10646SOL     OW32836   0.889   1.795   4.990
10646SOL    HW132837   0.880   1.714   4.932
10646SOL    HW232838   0.805   1.849   4.987
10647SOL     OW32839   5.180   5.972   6.680
10647SOL    HW132840   5.193   5.993   6.583
10647SOL    HW232841   5.090   5.931   6.694
10648SOL     OW32842   5.304   3.067   6.281
10648SOL    HW132843   5.296   3.001   6.355
10648SOL    HW232844   5.368   3.033   6.212
10649SOL     OW32845   0.405   4.492   3.537
10649SOL    HW132846   0.323   4.462   3.489
10649SOL    HW232847   0.385   4.576   3.588
10650SOL     OW32848   1.246   6.448   3.335
10650SOL    HW132849   1.254   6.414   3.429
10650SOL    HW232850   1.337   6.459   3.296
10651SOL     OW32851   4.879   6.697   5.737
10651SOL    HW132852   4.890   6.597   5.740
10651SOL    HW232853   4.784   6.719   5.716
10652SOL     OW32854   3.559   0.264   6.867
10652SOL    HW132855   3.522   0.355   6.885
10652SOL    HW232856   3.644   0.272   6.816
10653SOL     OW32857   5.156   4.761   4.034
10653SOL    HW132858   5.130   4.788   4.127
10653SOL    HW232859   5.182   4.842   3.982
10654SOL     OW32860   3.946   0.460   1.490
10654SOL    HW132861   3.932   0.363   1.473
10654SOL    HW232862   4.007   0.472   1.569
10655SOL     OW32863   3.390   5.419   1.521
10655SOL    HW132864   3.437   5.358   1.457
10655SOL    HW232865   3.408   5.391   1.615
10656SOL     OW32866   6.172   2.036   0.519
10656SOL    HW132867   6.088   2.023   0.572
10656SOL    HW232868   6.249   1.997   0.569
10657SOL     OW32869   6.485   6.932   0.149
10657SOL    HW132870   6.442   6.972   0.230
10657SOL    HW232871   6.417   6.920   0.077
10658SOL     OW32872   0.389   4.185   4.748
10658SOL    HW132873   0.391   4.284   4.735
10658SOL    HW232874   0.302   4.148   4.717
10659SOL     OW32875   0.129   6.766   1.136
10659SOL    HW132876   0.057   6.835   1.132
10659SOL    HW232877   0.174   6.760   1.047
10660SOL     OW32878   5.283   4.227   6.455
10660SOL    HW132879   5.363   4.288   6.456
10660SOL    HW232880   5.313   4.132   6.452
10661SOL     OW32881   6.946   6.337   2.791
10661SOL    HW132882   6.927   6.390   2.874
10661SOL    HW232883   7.018   6.270   2.809
10662SOL     OW32884   5.927   1.034   2.198
10662SOL    HW132885   5.891   1.124   2.176
10662SOL    HW232886   6.025   1.041   2.219
10663SOL     OW32887   0.796   6.962   1.121
10663SOL    HW132888   0.833   6.870   1.134
10663SOL    HW232889   0.737   6.985   1.198
10664SOL     OW32890   1.989   4.120   6.264
10664SOL    HW132891   1.950   4.195   6.211
10664SOL    HW232892   2.086   4.108   6.239
10665SOL     OW32893   0.971   0.753   6.776
10665SOL    HW132894   1.009   0.665   6.804
10665SOL    HW232895   0.871   0.749   6.778
10666SOL     OW32896   4.011   3.978   0.183
10666SOL    HW132897   4.068   3.965   0.101
10666SOL    HW232898   3.917   3.997   0.155
10667SOL     OW32899   3.993   1.449   5.479
10667SOL    HW132900   3.942   1.367   5.454
10667SOL    HW232901   3.951   1.529   5.436
10668SOL     OW32902   1.218   1.865   5.751
10668SOL    HW132903   1.177   1.804   5.819
10668SOL    HW232904   1.204   1.960   5.778
10669SOL     OW32905   0.057   6.784   0.665
10669SOL    HW132906   0.076   6.856   0.598
10669SOL    HW232907   7.010   6.815   0.728
10670SOL     OW32908   5.050   4.403   5.844
10670SOL    HW132909   5.067   4.479   5.782
10670SOL    HW232910   4.966   4.420   5.895
10671SOL     OW32911   2.098   3.498   2.750
10671SOL    HW132912   2.133   3.578   2.798
10671SOL    HW232913   1.999   3.494   2.759
10672SOL     OW32914   6.851   2.806   0.570
10672SOL    HW132915   6.887   2.740   0.636
10672SOL    HW232916   6.884   2.898   0.593
10673SOL     OW32917   2.601   2.425   5.818
10673SOL    HW132918   2.623   2.362   5.744
10673SOL    HW232919   2.633   2.387   5.905
10674SOL     OW32920   3.965   3.316   0.567
10674SOL    HW132921   3.961   3.358   0.658
10674SOL    HW232922   3.972   3.387   0.498
10675SOL     OW32923   0.800   0.669   5.745
10675SOL    HW132924   0.856   0.586   5.741
10675SOL    HW232925   0.851   0.746   5.706
10676SOL     OW32926   6.077   0.176   6.054
10676SOL    HW132927   6.036   0.190   5.964
10676SOL    HW232928   6.155   0.114   6.046
10677SOL     OW32929   0.956   0.906   2.204
10677SOL    HW132930   0.936   0.882   2.109
10677SOL    HW232931   0.883   0.964   2.239
10678SOL     OW32932   3.742   5.381   2.968
10678SOL    HW132933   3.768   5.342   3.056
10678SOL    HW232934   3.770   5.477   2.965
10679SOL     OW32935   5.579   5.365   5.244
10679SOL    HW132936   5.641   5.313   5.185
10679SOL    HW232937   5.609   5.358   5.339
10680SOL     OW32938   1.567   3.186   3.148
10680SOL    HW132939   1.604   3.276   3.126
10680SOL    HW232940   1.633   3.136   3.205
10681SOL     OW32941   6.610   4.142   6.529
10681SOL    HW132942   6.689   4.117   6.585
10681SOL    HW232943   6.553   4.207   6.579
10682SOL     OW32944   1.796   1.797   2.847
10682SOL    HW132945   1.766   1.756   2.934
10682SOL    HW232946   1.746   1.755   2.772
10683SOL     OW32947   2.711   2.354   3.849
10683SOL    HW132948   2.810   2.342   3.855
10683SOL    HW232949   2.671   2.355   3.941
10684SOL     OW32950   5.202   3.865   0.391
10684SOL    HW132951   5.131   3.851   0.322
10684SOL    HW232952   5.265   3.788   0.390
10685SOL     OW32953   0.815   3.802   3.101
10685SOL    HW132954   0.823   3.771   3.006
10685SOL    HW232955   0.734   3.860   3.111
10686SOL     OW32956   4.011   5.944   6.893
10686SOL    HW132957   3.934   5.902   6.845
10686SOL    HW232958   4.097   5.915   6.851
10687SOL     OW32959   6.923   5.444   2.156
10687SOL    HW132960   7.018   5.450   2.186
10687SOL    HW232961   6.863   5.435   2.236
10688SOL     OW32962   5.984   4.366   2.233
10688SOL    HW132963   6.080   4.346   2.213
10688SOL    HW232964   5.945   4.419   2.157
10689SOL     OW32965   7.000   0.039   3.204
10689SOL    HW132966   6.980   0.041   3.302
10689SOL    HW232967   0.074   0.030   3.190
10690SOL     OW32968   4.633   5.728   3.088
10690SOL    HW132969   4.584   5.677   3.157
10690SOL    HW232970   4.694   5.794   3.132
10691SOL     OW32971   6.384   1.382   1.508
10691SOL    HW132972   6.341   1.466   1.539
10691SOL    HW232973   6.465   1.363   1.564
10692SOL     OW32974   3.037   5.944   3.490
10692SOL    HW132975   3.055   5.866   3.550
10692SOL    HW232976   3.107   5.948   3.419
10693SOL     OW32977   1.600   1.226   1.354
10693SOL    HW132978   1.678   1.258   1.300
10693SOL    HW232979   1.601   1.126   1.360
10694SOL     OW32980   3.239   6.323   1.451
10694SOL    HW132981   3.329   6.364   1.438
10694SOL    HW232982   3.182   6.340   1.371
10695SOL     OW32983   6.530   2.385   3.830
10695SOL    HW132984   6.593   2.462   3.836
10695SOL    HW232985   6.445   2.414   3.787
10696SOL     OW32986   6.934   5.517   1.489
10696SOL    HW132987   6.929   5.474   1.398
10696SOL    HW232988   6.856   5.487   1.544
10697SOL     OW32989   0.047   6.170   3.316
10697SOL    HW132990   7.001   6.196   3.251
10697SOL    HW232991   0.050   6.237   3.391
10698SOL     OW32992   2.662   0.368   3.561
10698SOL    HW132993   2.735   0.420   3.517
10698SOL    HW232994   2.610   0.429   3.620
10699SOL     OW32995   4.461   1.329   3.106
10699SOL    HW132996   4.529   1.352   3.036
10699SOL    HW232997   4.390   1.399   3.108
10700SOL     OW32998   0.879   0.136   0.403
10700SOL    HW132999   0.850   0.120   0.308
10700SOL    HW233000   0.905   0.232   0.415
10701SOL     OW33001   4.423   6.105   6.740
10701SOL    HW133002   4.379   6.193   6.761
10701SOL    HW233003   4.355   6.032   6.744
10702SOL     OW33004   5.749   2.213   1.549
10702SOL    HW133005   5.794   2.266   1.477
10702SOL    HW233006   5.729   2.273   1.627
10703SOL     OW33007   3.452   3.893   2.906
10703SOL    HW133008   3.506   3.822   2.952
10703SOL    HW233009   3.354   3.874   2.920
10704SOL     OW33010   5.023   6.539   1.902
10704SOL    HW133011   4.975   6.530   1.989
10704SOL    HW233012   5.089   6.464   1.893
10705SOL     OW33013   1.312   3.557   6.687
10705SOL    HW133014   1.277   3.638   6.640
10705SOL    HW233015   1.411   3.552   6.677
10706SOL     OW33016   4.375   0.727   2.402
10706SOL    HW133017   4.281   0.711   2.373
10706SOL    HW233018   4.391   0.681   2.489
10707SOL     OW33019   0.083   6.717   5.958
10707SOL    HW133020   7.016   6.677   5.962
10707SOL    HW233021   0.151   6.644   5.963
10708SOL     OW33022   4.863   0.690   1.319
10708SOL    HW133023   4.844   0.607   1.372
10708SOL    HW233024   4.949   0.730   1.349
10709SOL     OW33025   6.331   0.637   5.641
10709SOL    HW133026   6.430   0.631   5.626
10709SOL    HW233027   6.300   0.730   5.625
10710SOL     OW33028   6.580   6.028   3.958
10710SOL    HW133029   6.508   6.030   4.027
10710SOL    HW233030   6.659   6.079   3.990
10711SOL     OW33031   2.058   0.413   3.968
10711SOL    HW133032   2.028   0.321   3.995
10711SOL    HW233033   2.139   0.438   4.022
10712SOL     OW33034   3.601   1.065   4.526
10712SOL    HW133035   3.639   1.158   4.523
10712SOL    HW233036   3.638   1.017   4.605
10713SOL     OW33037   2.045   5.455   1.868
10713SOL    HW133038   2.131   5.418   1.835
10713SOL    HW233039   2.063   5.534   1.927
10714SOL     OW33040   0.372   4.879   4.959
10714SOL    HW133041   0.389   4.916   4.867
10714SOL    HW233042   0.379   4.780   4.957
10715SOL     OW33043   4.905   1.973   4.404
10715SOL    HW133044   4.918   1.972   4.503
10715SOL    HW233045   4.888   1.881   4.371
10716SOL     OW33046   6.461   1.197   3.988
10716SOL    HW133047   6.538   1.196   4.052
10716SOL    HW233048   6.396   1.126   4.013
10717SOL     OW33049   0.509   1.556   1.370
10717SOL    HW133050   0.450   1.543   1.450
10717SOL    HW233051   0.540   1.467   1.337
10718SOL     OW33052   6.531   5.401   0.462
10718SOL    HW133053   6.621   5.382   0.423
10718SOL    HW233054   6.516   5.499   0.468
10719SOL     OW33055   4.980   0.479   2.835
10719SOL    HW133056   4.988   0.385   2.800
10719SOL    HW233057   5.000   0.480   2.933
10720SOL     OW33058   6.869   3.636   5.760
10720SOL    HW133059   6.911   3.700   5.825
10720SOL    HW233060   6.927   3.556   5.748
10721SOL     OW33061   6.042   2.131   4.466
10721SOL    HW133062   6.068   2.188   4.388
10721SOL    HW233063   6.092   2.045   4.463
10722SOL     OW33064   6.704   3.737   7.016
10722SOL    HW133065   6.797   3.749   6.982
10722SOL    HW233066   6.693   3.787   0.077
10723SOL     OW33067   5.261   4.059   6.787
10723SOL    HW133068   5.355   4.049   6.754
10723SOL    HW233069   5.213   3.972   6.779
10724SOL     OW33070   4.573   6.612   6.015
10724SOL    HW133071   4.485   6.582   6.053
10724SOL    HW233072   4.639   6.536   6.022
10725SOL     OW33073   0.446   6.181   4.479
10725SOL    HW133074   0.423   6.136   4.393
10725SOL    HW233075   0.520   6.129   4.524
10726SOL     OW33076   5.492   0.682   5.163
10726SOL    HW133077   5.398   0.682   5.129
10726SOL    HW233078   5.498   0.739   5.245
10727SOL     OW33079   2.257   4.790   5.125
10727SOL    HW133080   2.210   4.759   5.042
10727SOL    HW233081   2.191   4.796   5.200
10728SOL     OW33082   4.914   6.951   2.750
10728SOL    HW133083   4.976   6.965   2.673
10728SOL    HW233084   4.832   6.903   2.718
10729SOL     OW33085   6.093   2.344   2.998
10729SOL    HW133086   6.123   2.294   2.918
10729SOL    HW233087   6.136   2.434   2.999
10730SOL     OW33088   2.288   5.936   2.479
10730SOL    HW133089   2.386   5.952   2.468
10730SOL    HW233090   2.241   5.953   2.392
10731SOL     OW33091   3.249   5.415   0.117
10731SOL    HW133092   3.296   5.449   0.035
10731SOL    HW233093   3.285   5.325   0.140
10732SOL     OW33094   5.407   6.630   2.831
10732SOL    HW133095   5.353   6.589   2.905
10732SOL    HW233096   5.499   6.592   2.831
10733SOL     OW33097   5.522   1.252   0.338
10733SOL    HW133098   5.547   1.172   0.283
10733SOL    HW233099   5.604   1.289   0.382
10734SOL     OW33100   0.402   0.169   6.537
10734SOL    HW133101   0.496   0.137   6.550
10734SOL    HW233102   0.372   0.149   6.444
10735SOL     OW33103   0.860   5.360   2.453
10735SOL    HW133104   0.850   5.306   2.536
10735SOL    HW233105   0.899   5.449   2.475
10736SOL     OW33106   7.003   0.946   4.152
10736SOL    HW133107   6.927   0.906   4.101
10736SOL    HW233108   6.998   0.919   4.248
10737SOL     OW33109   0.367   1.831   1.392
10737SOL    HW133110   0.403   1.740   1.411
10737SOL    HW233111   0.269   1.833   1.407
10738SOL     OW33112   2.684   1.156   2.336
10738SOL    HW133113   2.655   1.251   2.338
10738SOL    HW233114   2.770   1.146   2.387
10739SOL     OW33115   5.924   1.906   3.030
10739SOL    HW133116   5.857   1.943   3.093
10739SOL    HW233117   5.938   1.970   2.954
10740SOL     OW33118   1.538   6.593   5.513
10740SOL    HW133119   1.623   6.619   5.559
10740SOL    HW233120   1.493   6.520   5.563
10741SOL     OW33121   1.474   2.937   3.168
10741SOL    HW133122   1.503   2.889   3.250
10741SOL    HW233123   1.437   3.027   3.193
10742SOL     OW33124   6.376   5.778   1.832
10742SOL    HW133125   6.446   5.768   1.761
10742SOL    HW233126   6.366   5.874   1.855
10743SOL     OW33127   3.511   1.161   5.326
10743SOL    HW133128   3.526   1.197   5.418
10743SOL    HW233129   3.433   1.099   5.326
10744SOL     OW33130   3.220   0.667   1.384
10744SOL    HW133131   3.227   0.651   1.285
10744SOL    HW233132   3.248   0.585   1.433
10745SOL     OW33133   2.296   4.714   1.315
10745SOL    HW133134   2.201   4.704   1.289
10745SOL    HW233135   2.354   4.664   1.251
10746SOL     OW33136   2.510   5.600   0.452
10746SOL    HW133137   2.451   5.520   0.455
10746SOL    HW233138   2.605   5.573   0.467
10747SOL     OW33139   5.755   2.362   4.222
10747SOL    HW133140   5.775   2.264   4.220
10747SOL    HW233141   5.657   2.376   4.214
10748SOL     OW33142   4.652   5.615   1.280
10748SOL    HW133143   4.628   5.522   1.305
10748SOL    HW233144   4.724   5.648   1.341
10749SOL     OW33145   5.877   4.909   3.534
10749SOL    HW133146   5.973   4.939   3.543
10749SOL    HW233147   5.822   4.985   3.500
10750SOL     OW33148   4.861   3.760   3.840
10750SOL    HW133149   4.863   3.791   3.935
10750SOL    HW233150   4.832   3.836   3.781
10751SOL     OW33151   1.402   3.559   4.964
10751SOL    HW133152   1.489   3.557   5.014
10751SOL    HW233153   1.327   3.549   5.029
10752SOL     OW33154   6.441   4.869   6.712
10752SOL    HW133155   6.417   4.953   6.662
10752SOL    HW233156   6.385   4.862   6.794
10753SOL     OW33157   4.267   6.282   4.512
10753SOL    HW133158   4.203   6.262   4.438
10753SOL    HW233159   4.333   6.350   4.481
10754SOL     OW33160   0.356   3.011   2.184
10754SOL    HW133161   0.291   3.071   2.137
10754SOL    HW233162   0.440   3.062   2.203
10755SOL     OW33163   6.993   2.047   1.758
10755SOL    HW133164   6.942   1.978   1.809
10755SOL    HW233165   7.009   2.127   1.816
10756SOL     OW33166   5.965   2.581   0.319
10756SOL    HW133167   5.995   2.555   0.227
10756SOL    HW233168   6.044   2.580   0.381
10757SOL     OW33169   6.845   3.968   0.468
10757SOL    HW133170   6.819   3.904   0.540
10757SOL    HW233171   6.875   4.054   0.509
10758SOL     OW33172   1.390   5.566   6.490
10758SOL    HW133173   1.305   5.616   6.508
10758SOL    HW233174   1.372   5.468   6.489
10759SOL     OW33175   1.211   2.626   6.014
10759SOL    HW133176   1.244   2.619   5.920
10759SOL    HW233177   1.112   2.609   6.015
10760SOL     OW33178   1.236   6.138   0.347
10760SOL    HW133179   1.254   6.184   0.434
10760SOL    HW233180   1.311   6.074   0.327
10761SOL     OW33181   0.692   2.323   6.490
10761SOL    HW133182   0.773   2.334   6.547
10761SOL    HW233183   0.696   2.235   6.442
10762SOL     OW33184   3.900   0.629   6.026
10762SOL    HW133185   3.976   0.597   6.083
10762SOL    HW233186   3.826   0.661   6.085
10763SOL     OW33187   5.610   0.938   2.621
10763SOL    HW133188   5.694   0.976   2.582
10763SOL    HW233189   5.556   0.895   2.549
10764SOL     OW33190   4.281   0.821   4.898
10764SOL    HW133191   4.205   0.853   4.955
10764SOL    HW233192   4.342   0.764   4.954
10765SOL     OW33193   5.658   1.687   2.729
10765SOL    HW133194   5.606   1.730   2.656
10765SOL    HW233195   5.645   1.738   2.814
10766SOL     OW33196   1.835   5.254   7.008
10766SOL    HW133197   1.777   5.181   0.020
10766SOL    HW233198   1.927   5.246   0.021
10767SOL     OW33199   2.074   6.546   0.383
10767SOL    HW133200   2.034   6.475   0.326
10767SOL    HW233201   2.017   6.629   0.378
10768SOL     OW33202   5.263   5.349   0.599
10768SOL    HW133203   5.220   5.307   0.520
10768SOL    HW233204   5.357   5.376   0.576
10769SOL     OW33205   2.793   4.061   5.383
10769SOL    HW133206   2.855   4.139   5.377
10769SOL    HW233207   2.699   4.093   5.389
10770SOL     OW33208   5.279   6.744   4.443
10770SOL    HW133209   5.316   6.652   4.458
10770SOL    HW233210   5.288   6.769   4.347
10771SOL     OW33211   4.509   0.500   5.218
10771SOL    HW133212   4.567   0.420   5.202
10771SOL    HW233213   4.424   0.471   5.262
10772SOL     OW33214   5.964   6.605   4.011
10772SOL    HW133215   5.926   6.620   3.920
10772SOL    HW233216   5.890   6.604   4.079
10773SOL     OW33217   6.707   4.485   0.298
10773SOL    HW133218   6.682   4.426   0.222
10773SOL    HW233219   6.728   4.429   0.379
10774SOL     OW33220   1.307   2.519   1.128
10774SOL    HW133221   1.381   2.553   1.070
10774SOL    HW233222   1.303   2.419   1.122
10775SOL     OW33223   1.741   4.400   0.953
10775SOL    HW133224   1.819   4.409   1.015
10775SOL    HW233225   1.739   4.308   0.914
10776SOL     OW33226   6.083   0.687   3.058
10776SOL    HW133227   6.013   0.649   3.117
10776SOL    HW233228   6.158   0.621   3.048
10777SOL     OW33229   2.823   1.076   3.972
10777SOL    HW133230   2.783   1.031   4.052
10777SOL    HW233231   2.915   1.109   3.995
10778SOL     OW33232   6.852   6.449   4.816
10778SOL    HW133233   6.788   6.467   4.891
10778SOL    HW233234   6.838   6.357   4.781
10779SOL     OW33235   5.554   4.527   3.248
10779SOL    HW133236   5.546   4.608   3.191
10779SOL    HW233237   5.610   4.458   3.201
10780SOL     OW33238   0.582   6.003   4.680
10780SOL    HW133239   0.653   6.063   4.717
10780SOL    HW233240   0.605   5.907   4.701
10781SOL     OW33241   6.227   1.506   5.204
10781SOL    HW133242   6.180   1.437   5.150
10781SOL    HW233243   6.300   1.547   5.149
10782SOL     OW33244   6.806   3.526   5.143
10782SOL    HW133245   6.711   3.547   5.123
10782SOL    HW233246   6.811   3.469   5.225
10783SOL     OW33247   1.510   2.441   2.163
10783SOL    HW133248   1.462   2.528   2.160
10783SOL    HW233249   1.538   2.421   2.257
10784SOL     OW33250   2.937   6.037   2.035
10784SOL    HW133251   3.026   6.028   2.080
10784SOL    HW233252   2.949   6.029   1.936
10785SOL     OW33253   1.513   5.266   1.765
10785SOL    HW133254   1.529   5.351   1.816
10785SOL    HW233255   1.491   5.193   1.829
10786SOL     OW33256   4.362   2.432   2.690
10786SOL    HW133257   4.312   2.368   2.631
10786SOL    HW233258   4.458   2.433   2.664
10787SOL     OW33259   3.215   1.524   4.341
10787SOL    HW133260   3.217   1.580   4.258
10787SOL    HW233261   3.306   1.525   4.383
10788SOL     OW33262   0.931   4.559   0.382
10788SOL    HW133263   0.867   4.589   0.311
10788SOL    HW233264   0.980   4.478   0.351
10789SOL     OW33265   6.344   0.987   0.529
10789SOL    HW133266   6.388   1.075   0.550
10789SOL    HW233267   6.409   0.913   0.545
10790SOL     OW33268   0.788   2.196   5.331
10790SOL    HW133269   0.853   2.122   5.348
10790SOL    HW233270   0.791   2.222   5.235
10791SOL     OW33271   2.395   1.960   2.233
10791SOL    HW133272   2.360   1.890   2.294
10791SOL    HW233273   2.495   1.963   2.240
10792SOL     OW33274   3.301   2.261   1.429
10792SOL    HW133275   3.286   2.356   1.454
10792SOL    HW233276   3.214   2.212   1.431
10793SOL     OW33277   5.187   1.779   4.823
10793SOL    HW133278   5.238   1.828   4.894
10793SOL    HW233279   5.194   1.830   4.737
10794SOL     OW33280   4.425   3.159   1.725
10794SOL    HW133281   4.483   3.121   1.797
10794SOL    HW233282   4.449   3.118   1.637
10795SOL     OW33283   0.155   3.801   2.514
10795SOL    HW133284   0.126   3.883   2.565
10795SOL    HW233285   0.114   3.803   2.423
10796SOL     OW33286   6.006   6.746   6.342
10796SOL    HW133287   6.071   6.818   6.366
10796SOL    HW233288   5.921   6.787   6.311
10797SOL     OW33289   3.665   2.913   0.585
10797SOL    HW133290   3.750   2.958   0.611
10797SOL    HW233291   3.587   2.968   0.616
10798SOL     OW33292   2.753   0.057   6.287
10798SOL    HW133293   2.796   0.131   6.235
10798SOL    HW233294   2.770   6.995   6.240
10799SOL     OW33295   3.233   1.715   2.456
10799SOL    HW133296   3.187   1.761   2.380
10799SOL    HW233297   3.234   1.776   2.536
10800SOL     OW33298   1.498   0.158   0.549
10800SOL    HW133299   1.520   0.122   0.639
10800SOL    HW233300   1.438   0.237   0.557
10801SOL     OW33301   2.125   6.160   5.552
10801SOL    HW133302   2.057   6.155   5.626
10801SOL    HW233303   2.210   6.198   5.589
10802SOL     OW33304   1.516   3.630   4.019
10802SOL    HW133305   1.451   3.696   3.981
10802SOL    HW233306   1.541   3.657   4.112
10803SOL     OW33307   5.293   4.682   5.240
10803SOL    HW133308   5.304   4.739   5.158
10803SOL    HW233309   5.362   4.709   5.307
10804SOL     OW33310   6.119   3.851   1.828
10804SOL    HW133311   6.124   3.850   1.928
10804SOL    HW233312   6.167   3.772   1.791
10805SOL     OW33313   4.104   6.594   0.806
10805SOL    HW133314   4.112   6.508   0.857
10805SOL    HW233315   4.013   6.600   0.764
10806SOL     OW33316   5.657   3.314   0.326
10806SOL    HW133317   5.690   3.238   0.382
10806SOL    HW233318   5.561   3.331   0.346
10807SOL     OW33319   3.510   6.063   3.550
10807SOL    HW133320   3.434   6.125   3.566
10807SOL    HW233321   3.506   5.988   3.617
10808SOL     OW33322   0.859   3.199   6.606
10808SOL    HW133323   0.897   3.291   6.620
10808SOL    HW233324   0.917   3.132   6.653
10809SOL     OW33325   2.952   1.619   4.525
10809SOL    HW133326   2.967   1.705   4.477
10809SOL    HW233327   2.971   1.543   4.464
10810SOL     OW33328   0.290   1.591   5.396
10810SOL    HW133329   0.248   1.509   5.433
10810SOL    HW233330   0.258   1.671   5.446
10811SOL     OW33331   4.420   5.182   5.215
10811SOL    HW133332   4.376   5.235   5.288
10811SOL    HW233333   4.504   5.228   5.186
10812SOL     OW33334   6.779   3.195   2.937
10812SOL    HW133335   6.844   3.119   2.941
10812SOL    HW233336   6.686   3.160   2.937
10813SOL     OW33337   2.694   5.871   1.706
10813SOL    HW133338   2.613   5.814   1.718
10813SOL    HW233339   2.772   5.828   1.752
10814SOL     OW33340   2.405   0.547   5.204
10814SOL    HW133341   2.307   0.540   5.185
10814SOL    HW233342   2.419   0.568   5.301
10815SOL     OW33343   5.235   4.076   2.960
10815SOL    HW133344   5.314   4.117   2.914
10815SOL    HW233345   5.260   3.985   2.993
10816SOL     OW33346   1.804   1.081   2.419
10816SOL    HW133347   1.885   1.140   2.421
10816SOL    HW233348   1.722   1.137   2.415
10817SOL     OW33349   5.247   0.445   2.626
10817SOL    HW133350   5.267   0.364   2.682
10817SOL    HW233351   5.259   0.527   2.681
10818SOL     OW33352   5.437   3.047   6.811
10818SOL    HW133353   5.535   3.032   6.827
10818SOL    HW233354   5.394   2.961   6.785
10819SOL     OW33355   0.417   4.381   6.167
10819SOL    HW133356   0.332   4.391   6.218
10819SOL    HW233357   0.439   4.467   6.120
10820SOL     OW33358   0.440   7.000   3.978
10820SOL    HW133359   0.366   6.955   4.028
10820SOL    HW233360   0.405   0.056   3.931
10821SOL     OW33361   0.086   0.110   1.851
10821SOL    HW133362   0.081   0.061   1.938
10821SOL    HW233363   0.181   0.119   1.822
10822SOL     OW33364   0.918   3.153   2.379
10822SOL    HW133365   0.881   3.218   2.313
10822SOL    HW233366   0.864   3.069   2.377
10823SOL     OW33367   2.603   5.986   1.326
10823SOL    HW133368   2.574   5.896   1.358
10823SOL    HW233369   2.587   5.993   1.228
10824SOL     OW33370   5.103   0.554   3.457
10824SOL    HW133371   5.158   0.508   3.387
10824SOL    HW233372   5.023   0.595   3.415
10825SOL     OW33373   2.972   1.407   1.298
10825SOL    HW133374   2.885   1.436   1.337
10825SOL    HW233375   3.015   1.484   1.251
10826SOL     OW33376   6.957   3.722   1.679
10826SOL    HW133377   6.920   3.634   1.646
10826SOL    HW233378   7.023   3.705   1.752
10827SOL     OW33379   6.946   3.613   4.360
10827SOL    HW133380   6.875   3.616   4.430
10827SOL    HW233381   6.963   3.706   4.326
10828SOL     OW33382   1.158   5.815   1.439
10828SOL    HW133383   1.243   5.829   1.389
10828SOL    HW233384   1.132   5.719   1.434
10829SOL     OW33385   2.914   3.834   1.766
10829SOL    HW133386   2.983   3.865   1.700
10829SOL    HW233387   2.956   3.823   1.856
10830SOL     OW33388   6.036   3.224   4.344
10830SOL    HW133389   5.970   3.297   4.331
10830SOL    HW233390   6.004   3.161   4.415
10831SOL     OW33391   4.856   0.890   2.691
10831SOL    HW133392   4.901   0.956   2.631
10831SOL    HW233393   4.848   0.928   2.783
10832SOL     OW33394   1.086   1.964   0.127
10832SOL    HW133395   1.185   1.976   0.140
10832SOL    HW233396   1.059   1.873   0.157
10833SOL     OW33397   2.588   0.737   4.310
10833SOL    HW133398   2.515   0.802   4.290
10833SOL    HW233399   2.600   0.729   4.409
10834SOL     OW33400   0.575   0.979   5.605
10834SOL    HW133401   0.668   1.016   5.597
10834SOL    HW233402   0.520   1.008   5.527
10835SOL     OW33403   6.032   1.668   2.459
10835SOL    HW133404   5.985   1.687   2.545
10835SOL    HW233405   6.130   1.683   2.471
10836SOL     OW33406   0.510   1.415   5.473
10836SOL    HW133407   0.470   1.493   5.425
10836SOL    HW233408   0.605   1.435   5.495
10837SOL     OW33409   6.736   4.630   0.050
10837SOL    HW133410   6.745   4.608   0.148
10837SOL    HW233411   6.825   4.660   0.015
10838SOL     OW33412   5.970   0.184   6.329
10838SOL    HW133413   5.997   0.180   6.232
10838SOL    HW233414   5.870   0.184   6.335
10839SOL     OW33415   2.700   1.685   0.177
10839SOL    HW133416   2.742   1.600   0.146
10839SOL    HW233417   2.698   1.751   0.102
10840SOL     OW33418   3.206   5.900   1.242
10840SOL    HW133419   3.113   5.873   1.268
10840SOL    HW233420   3.261   5.818   1.227
10841SOL     OW33421   4.025   6.312   6.142
10841SOL    HW133422   4.065   6.262   6.219
10841SOL    HW233423   4.034   6.410   6.159
10842SOL     OW33424   6.319   2.832   0.852
10842SOL    HW133425   6.378   2.860   0.777
10842SOL    HW233426   6.308   2.908   0.916
10843SOL     OW33427   1.230   1.760   2.157
10843SOL    HW133428   1.171   1.822   2.209
10843SOL    HW233429   1.278   1.699   2.219
10844SOL     OW33430   6.608   6.525   4.106
10844SOL    HW133431   6.701   6.560   4.100
10844SOL    HW233432   6.593   6.457   4.033
10845SOL     OW33433   1.269   1.261   1.513
10845SOL    HW133434   1.306   1.179   1.468
10845SOL    HW233435   1.325   1.283   1.593
10846SOL     OW33436   4.496   2.292   0.970
10846SOL    HW133437   4.423   2.314   1.035
10846SOL    HW233438   4.460   2.302   0.877
10847SOL     OW33439   3.155   1.881   5.966
10847SOL    HW133440   3.227   1.820   6.000
10847SOL    HW233441   3.182   1.976   5.981
10848SOL     OW33442   2.287   0.991   6.894
10848SOL    HW133443   2.285   1.091   6.885
10848SOL    HW233444   2.239   0.964   6.978
10849SOL     OW33445   3.076   4.900   4.084
10849SOL    HW133446   3.100   4.891   4.180
10849SOL    HW233447   3.006   4.971   4.074
10850SOL     OW33448   5.113   6.801   7.006
10850SOL    HW133449   5.093   6.710   0.018
10850SOL    HW233450   5.212   6.815   7.004
10851SOL     OW33451   2.563   2.765   6.281
10851SOL    HW133452   2.477   2.791   6.323
10851SOL    HW233453   2.608   2.846   6.243
10852SOL     OW33454   0.375   1.011   6.495
10852SOL    HW133455   0.284   1.009   6.535
10852SOL    HW233456   0.388   0.931   6.437
10853SOL     OW33457   3.123   1.858   4.860
10853SOL    HW133458   3.145   1.795   4.786
10853SOL    HW233459   3.027   1.884   4.855
10854SOL     OW33460   5.631   6.873   6.650
10854SOL    HW133461   5.555   6.926   6.687
10854SOL    HW233462   5.696   6.853   6.723
10855SOL     OW33463   1.879   6.130   2.541
10855SOL    HW133464   1.817   6.123   2.620
10855SOL    HW233465   1.914   6.224   2.535
10856SOL     OW33466   6.090   6.300   6.954
10856SOL    HW133467   6.066   6.216   7.002
10856SOL    HW233468   6.020   6.369   6.971
10857SOL     OW33469   6.071   2.522   3.671
10857SOL    HW133470   5.984   2.557   3.636
10857SOL    HW233471   6.100   2.579   3.748
10858SOL     OW33472   1.889   3.696   0.115
10858SOL    HW133473   1.902   3.768   0.183
10858SOL    HW233474   1.853   3.737   0.031
10859SOL     OW33475   0.961   4.111   3.243
10859SOL    HW133476   1.008   4.107   3.155
10859SOL    HW233477   0.868   4.147   3.230
10860SOL     OW33478   0.046   1.219   0.564
10860SOL    HW133479   0.094   1.222   0.476
10860SOL    HW233480   0.002   1.130   0.575
10861SOL     OW33481   3.078   2.641   1.737
10861SOL    HW133482   3.093   2.707   1.811
10861SOL    HW233483   3.058   2.551   1.775
10862SOL     OW33484   2.858   2.693   6.033
10862SOL    HW133485   2.930   2.659   5.972
10862SOL    HW233486   2.831   2.785   6.004
10863SOL     OW33487   2.310   0.428   3.152
10863SOL    HW133488   2.274   0.385   3.234
10863SOL    HW233489   2.263   0.392   3.071
10864SOL     OW33490   2.995   4.489   1.351
10864SOL    HW133491   2.950   4.569   1.388
10864SOL    HW233492   2.995   4.494   1.251
10865SOL     OW33493   5.523   2.886   3.685
10865SOL    HW133494   5.563   2.925   3.602
10865SOL    HW233495   5.500   2.959   3.748
10866SOL     OW33496   6.647   2.495   0.930
10866SOL    HW133497   6.651   2.545   0.843
10866SOL    HW233498   6.596   2.410   0.917
10867SOL     OW33499   2.735   2.757   0.391
10867SOL    HW133500   2.772   2.732   0.302
10867SOL    HW233501   2.643   2.718   0.400
10868SOL     OW33502   0.429   1.804   3.409
10868SOL    HW133503   0.330   1.807   3.427
10868SOL    HW233504   0.456   1.886   3.360
10869NA      NA33505   0.164   2.007   6.003
10870NA      NA33506   4.349   4.588   5.286
10871NA      NA33507   1.746   5.235   2.682
10872NA      NA33508   5.225   4.231   3.827
10873NA      NA33509   4.230   2.411   5.313
10874NA      NA33510   2.876   5.169   1.192
10875NA      NA33511   1.255   5.287   0.576
10876NA      NA33512   3.669   4.209   1.360
10877NA      NA33513   4.703   4.475   0.506
10878NA      NA33514   3.515   1.175   6.326
10879NA      NA33515   5.246   6.106   2.145
10880NA      NA33516   1.456   0.279   5.230
10881NA      NA33517   4.785   5.130   1.845
10882NA      NA33518   3.202   3.482   0.133
   7.02485   7.02485   7.02485
