Generated by trjconv : CNT in water t= 593.00000
33518
    1C        C    1   2.839   2.766   4.747
    1C        C    2   2.896   2.719   4.867
    1C        C    3   2.840   2.770   4.985
    1C        C    4   2.847   2.774   4.259
    1C        C    5   2.901   2.729   4.382
    1C        C    6   2.844   2.770   4.504
    1C        C    7   3.012   2.641   4.622
    1C        C    8   2.895   2.720   4.626
    1C        C    9   3.074   2.607   4.745
    1C        C   10   3.008   2.633   4.867
    1C        C   11   3.178   2.493   4.973
    1C        C   12   3.056   2.563   4.978
    1C        C   13   2.850   2.771   3.768
    1C        C   14   2.901   2.724   3.892
    1C        C   15   2.848   2.772   4.013
    1C        C   16   3.017   2.647   4.136
    1C        C   17   2.901   2.728   4.137
    1C        C   18   3.079   2.615   4.259
    1C        C   19   3.015   2.645   4.381
    1C        C   20   3.208   2.554   4.503
    1C        C   21   3.077   2.604   4.502
    1C        C   22   3.278   2.540   4.625
    1C        C   23   3.205   2.551   4.745
    1C        C   24   3.409   2.480   4.864
    1C        C   25   3.268   2.503   4.863
    1C        C   26   3.486   2.476   4.981
    1C        C   27   2.850   2.769   3.282
    1C        C   28   2.903   2.721   3.404
    1C        C   29   2.850   2.768   3.526
    1C        C   30   3.020   2.640   3.648
    1C        C   31   2.903   2.719   3.648
    1C        C   32   3.080   2.608   3.772
    1C        C   33   3.016   2.642   3.893
    1C        C   34   3.212   2.560   4.014
    1C        C   35   3.080   2.610   4.015
    1C        C   36   3.279   2.541   4.137
    1C        C   37   3.211   2.564   4.258
    1C        C   38   3.413   2.502   4.379
    1C        C   39   3.275   2.533   4.380
    1C        C   40   3.484   2.504   4.501
    1C        C   41   3.415   2.505   4.625
    1C        C   42   3.628   2.479   4.742
    1C        C   43   3.486   2.480   4.744
    1C        C   44   3.700   2.484   4.863
    1C        C   45   3.625   2.470   4.980
    1C        C   46   2.832   2.746   2.790
    1C        C   47   2.890   2.708   2.913
    1C        C   48   2.845   2.760   3.036
    1C        C   49   3.016   2.638   3.159
    1C        C   50   2.901   2.720   3.160
    1C        C   51   3.077   2.601   3.281
    1C        C   52   3.020   2.642   3.404
    1C        C   53   3.211   2.548   3.524
    1C        C   54   3.083   2.607   3.525
    1C        C   55   3.277   2.530   3.647
    1C        C   56   3.210   2.554   3.770
    1C        C   57   3.419   2.515   3.891
    1C        C   58   3.280   2.539   3.892
    1C        C   59   3.488   2.508   4.014
    1C        C   60   3.417   2.512   4.136
    1C        C   61   3.626   2.495   4.257
    1C        C   62   3.485   2.490   4.258
    1C        C   63   3.697   2.506   4.378
    1C        C   64   3.625   2.503   4.499
    1C        C   65   3.833   2.537   4.620
    1C        C   66   3.698   2.498   4.620
    1C        C   67   3.902   2.558   4.742
    1C        C   68   3.836   2.524   4.862
    1C        C   69   4.046   2.580   4.975
    1C        C   70   3.921   2.518   4.973
    1C        C   71   2.826   2.734   2.306
    1C        C   72   2.882   2.693   2.428
    1C        C   73   2.831   2.746   2.549
    1C        C   74   3.007   2.623   2.673
    1C        C   75   2.887   2.698   2.669
    1C        C   76   3.075   2.596   2.794
    1C        C   77   3.011   2.636   2.913
    1C        C   78   3.205   2.548   3.036
    1C        C   79   3.075   2.605   3.035
    1C        C   80   3.275   2.530   3.157
    1C        C   81   3.210   2.552   3.280
    1C        C   82   3.417   2.501   3.400
    1C        C   83   3.279   2.528   3.401
    1C        C   84   3.485   2.499   3.524
    1C        C   85   3.417   2.510   3.647
    1C        C   86   3.629   2.496   3.766
    1C        C   87   3.488   2.503   3.769
    1C        C   88   3.697   2.503   3.889
    1C        C   89   3.629   2.505   4.013
    1C        C   90   3.836   2.541   4.132
    1C        C   91   3.699   2.510   4.136
    1C        C   92   3.904   2.563   4.254
    1C        C   93   3.834   2.541   4.375
    1C        C   94   4.023   2.633   4.499
    1C        C   95   3.897   2.568   4.498
    1C        C   96   4.089   2.666   4.620
    1C        C   97   4.030   2.620   4.739
    1C        C   98   4.185   2.764   4.862
    1C        C   99   4.093   2.654   4.862
    1C        C  100   4.210   2.842   4.975
    1C        C  101   2.823   2.733   2.068
    1C        C  102   2.993   2.593   2.188
    1C        C  103   2.880   2.682   2.185
    1C        C  104   3.063   2.570   2.310
    1C        C  105   3.003   2.619   2.428
    1C        C  106   3.199   2.536   2.550
    1C        C  107   3.068   2.590   2.550
    1C        C  108   3.270   2.520   2.671
    1C        C  109   3.205   2.541   2.795
    1C        C  110   3.412   2.490   2.913
    1C        C  111   3.274   2.518   2.916
    1C        C  112   3.484   2.482   3.034
    1C        C  113   3.413   2.502   3.155
    1C        C  114   3.627   2.493   3.275
    1C        C  115   3.486   2.495   3.276
    1C        C  116   3.696   2.503   3.397
    1C        C  117   3.626   2.497   3.520
    1C        C  118   3.834   2.533   3.640
    1C        C  119   3.697   2.498   3.642
    1C        C  120   3.900   2.560   3.763
    1C        C  121   3.835   2.536   3.886
    1C        C  122   4.025   2.628   4.009
    1C        C  123   3.901   2.561   4.008
    1C        C  124   4.084   2.667   4.132
    1C        C  125   4.029   2.628   4.256
    1C        C  126   4.199   2.755   4.374
    1C        C  127   4.087   2.668   4.378
    1C        C  128   4.243   2.812   4.495
    1C        C  129   4.192   2.762   4.618
    1C        C  130   4.318   2.932   4.736
    1C        C  131   4.239   2.814   4.740
    1C        C  132   4.344   3.004   4.855
    1C        C  133   4.276   2.965   4.971
    1C        C  134   3.172   2.472   2.078
    1C        C  135   3.036   2.508   2.082
    1C        C  136   3.259   2.481   2.188
    1C        C  137   3.195   2.518   2.308
    1C        C  138   3.403   2.473   2.427
    1C        C  139   3.265   2.502   2.430
    1C        C  140   3.478   2.482   2.546
    1C        C  141   3.409   2.497   2.669
    1C        C  142   3.623   2.492   2.791
    1C        C  143   3.482   2.489   2.790
    1C        C  144   3.696   2.491   2.911
    1C        C  145   3.625   2.482   3.033
    1C        C  146   3.836   2.530   3.152
    1C        C  147   3.699   2.498   3.153
    1C        C  148   3.902   2.554   3.275
    1C        C  149   3.834   2.534   3.397
    1C        C  150   4.031   2.615   3.521
    1C        C  151   3.902   2.556   3.518
    1C        C  152   4.088   2.658   3.643
    1C        C  153   4.026   2.623   3.765
    1C        C  154   4.194   2.755   3.884
    1C        C  155   4.085   2.665   3.887
    1C        C  156   4.243   2.804   4.007
    1C        C  157   4.194   2.756   4.131
    1C        C  158   4.329   2.921   4.251
    1C        C  159   4.248   2.805   4.252
    1C        C  160   4.367   2.983   4.372
    1C        C  161   4.327   2.926   4.494
    1C        C  162   4.433   3.111   4.611
    1C        C  163   4.364   2.988   4.615
    1C        C  164   4.459   3.183   4.730
    1C        C  165   4.422   3.122   4.852
    1C        C  166   4.511   3.315   4.968
    1C        C  167   4.476   3.180   4.967
    1C        C  168   3.474   2.437   2.071
    1C        C  169   3.398   2.458   2.187
    1C        C  170   3.617   2.461   2.306
    1C        C  171   3.475   2.460   2.306
    1C        C  172   3.691   2.482   2.424
    1C        C  173   3.619   2.486   2.546
    1C        C  174   3.828   2.529   2.663
    1C        C  175   3.691   2.498   2.667
    1C        C  176   3.897   2.553   2.784
    1C        C  177   3.834   2.523   2.907
    1C        C  178   4.029   2.611   3.029
    1C        C  179   3.901   2.551   3.028
    1C        C  180   4.087   2.650   3.151
    1C        C  181   4.030   2.615   3.275
    1C        C  182   4.196   2.744   3.393
    1C        C  183   4.089   2.652   3.398
    1C        C  184   4.244   2.798   3.515
    1C        C  185   4.192   2.753   3.639
    1C        C  186   4.330   2.914   3.760
    1C        C  187   4.243   2.803   3.761
    1C        C  188   4.366   2.976   3.881
    1C        C  189   4.328   2.917   4.004
    1C        C  190   4.434   3.101   4.125
    1C        C  191   4.366   2.977   4.126
    1C        C  192   4.463   3.170   4.245
    1C        C  193   4.430   3.110   4.368
    1C        C  194   4.497   3.314   4.488
    1C        C  195   4.454   3.179   4.489
    1C        C  196   4.524   3.383   4.608
    1C        C  197   4.509   3.316   4.732
    1C        C  198   4.551   3.532   4.849
    1C        C  199   4.525   3.391   4.852
    1C        C  200   4.580   3.614   4.962
    1C        C  201   3.613   2.422   2.070
    1C        C  202   3.827   2.505   2.180
    1C        C  203   3.691   2.458   2.185
    1C        C  204   3.899   2.531   2.300
    1C        C  205   3.828   2.515   2.422
    1C        C  206   4.023   2.611   2.538
    1C        C  207   3.898   2.545   2.541
    1C        C  208   4.080   2.653   2.660
    1C        C  209   4.023   2.617   2.784
    1C        C  210   4.197   2.739   2.904
    1C        C  211   4.086   2.651   2.906
    1C        C  212   4.251   2.787   3.026
    1C        C  213   4.195   2.741   3.148
    1C        C  214   4.328   2.907   3.269
    1C        C  215   4.242   2.795   3.270
    1C        C  216   4.369   2.965   3.391
    1C        C  217   4.330   2.910   3.515
    1C        C  218   4.427   3.100   3.635
    1C        C  219   4.368   2.972   3.636
    1C        C  220   4.452   3.166   3.757
    1C        C  221   4.433   3.100   3.880
    1C        C  222   4.489   3.304   3.998
    1C        C  223   4.460   3.166   4.002
    1C        C  224   4.504   3.376   4.119
    1C        C  225   4.497   3.307   4.242
    1C        C  226   4.522   3.519   4.365
    1C        C  227   4.507   3.378   4.363
    1C        C  228   4.526   3.594   4.484
    1C        C  229   4.532   3.524   4.607
    1C        C  230   4.499   3.738   4.726
    1C        C  231   4.534   3.600   4.725
    1C        C  232   4.495   3.816   4.844
    1C        C  233   4.540   3.749   4.958
    1C        C  234   4.009   2.613   2.058
    1C        C  235   3.892   2.538   2.061
    1C        C  236   4.081   2.643   2.175
    1C        C  237   4.023   2.600   2.297
    1C        C  238   4.199   2.728   2.418
    1C        C  239   4.088   2.640   2.416
    1C        C  240   4.249   2.782   2.538
    1C        C  241   4.192   2.739   2.661
    1C        C  242   4.334   2.899   2.781
    1C        C  243   4.246   2.789   2.781
    1C        C  244   4.371   2.961   2.902
    1C        C  245   4.333   2.902   3.025
    1C        C  246   4.432   3.091   3.146
    1C        C  247   4.369   2.964   3.146
    1C        C  248   4.451   3.160   3.268
    1C        C  249   4.422   3.096   3.390
    1C        C  250   4.485   3.301   3.512
    1C        C  251   4.450   3.164   3.511
    1C        C  252   4.498   3.372   3.634
    1C        C  253   4.487   3.303   3.757
    1C        C  254   4.516   3.516   3.876
    1C        C  255   4.504   3.375   3.877
    1C        C  256   4.515   3.589   3.998
    1C        C  257   4.515   3.517   4.120
    1C        C  258   4.493   3.728   4.241
    1C        C  259   4.515   3.588   4.242
    1C        C  260   4.471   3.801   4.360
    1C        C  261   4.489   3.730   4.482
    1C        C  262   4.422   3.934   4.602
    1C        C  263   4.472   3.802   4.602
    1C        C  264   4.398   4.007   4.720
    1C        C  265   4.432   3.942   4.841
    1C        C  266   4.316   4.127   4.956
    1C        C  267   4.379   4.003   4.955
    1C        C  268   4.259   2.776   2.061
    1C        C  269   4.193   2.728   2.175
    1C        C  270   4.343   2.884   2.297
    1C        C  271   4.249   2.777   2.295
    1C        C  272   4.380   2.948   2.417
    1C        C  273   4.335   2.894   2.540
    1C        C  274   4.436   3.086   2.657
    1C        C  275   4.374   2.959   2.659
    1C        C  276   4.460   3.152   2.780
    1C        C  277   4.431   3.088   2.903
    1C        C  278   4.495   3.293   3.022
    1C        C  279   4.455   3.158   3.024
    1C        C  280   4.506   3.363   3.144
    1C        C  281   4.486   3.297   3.267
    1C        C  282   4.505   3.509   3.387
    1C        C  283   4.496   3.368   3.389
    1C        C  284   4.509   3.581   3.508
    1C        C  285   4.511   3.513   3.632
    1C        C  286   4.491   3.724   3.751
    1C        C  287   4.516   3.585   3.753
    1C        C  288   4.473   3.793   3.873
    1C        C  289   4.492   3.728   3.997
    1C        C  290   4.432   3.931   4.114
    1C        C  291   4.477   3.798   4.119
    1C        C  292   4.405   3.999   4.235
    1C        C  293   4.428   3.935   4.359
    1C        C  294   4.328   4.123   4.478
    1C        C  295   4.399   4.002   4.480
    1C        C  296   4.286   4.185   4.597
    1C        C  297   4.328   4.131   4.721
    1C        C  298   4.197   4.311   4.836
    1C        C  299   4.279   4.194   4.839
    1C        C  300   4.171   4.405   4.941
    1C        C  301   4.351   2.880   2.059
    1C        C  302   4.462   3.067   2.176
    1C        C  303   4.394   2.941   2.177
    1C        C  304   4.478   3.143   2.295
    1C        C  305   4.445   3.073   2.414
    1C        C  306   4.502   3.283   2.534
    1C        C  307   4.468   3.146   2.533
    1C        C  308   4.511   3.356   2.655
    1C        C  309   4.496   3.288   2.778
    1C        C  310   4.515   3.502   2.896
    1C        C  311   4.507   3.361   2.898
    1C        C  312   4.512   3.572   3.019
    1C        C  313   4.515   3.504   3.143
    1C        C  314   4.491   3.717   3.260
    1C        C  315   4.513   3.578   3.263
    1C        C  316   4.475   3.788   3.381
    1C        C  317   4.493   3.722   3.504
    1C        C  318   4.425   3.922   3.625
    1C        C  319   4.472   3.789   3.627
    1C        C  320   4.395   3.987   3.747
    1C        C  321   4.424   3.925   3.871
    1C        C  322   4.320   4.112   3.989
    1C        C  323   4.397   3.993   3.992
    1C        C  324   4.282   4.171   4.112
    1C        C  325   4.326   4.117   4.234
    1C        C  326   4.183   4.276   4.353
    1C        C  327   4.284   4.177   4.355
    1C        C  328   4.133   4.331   4.473
    1C        C  329   4.189   4.288   4.596
    1C        C  330   4.022   4.432   4.711
    1C        C  331   4.135   4.345   4.713
    1C        C  332   3.967   4.489   4.828
    1C        C  333   4.050   4.475   4.940
    1C        C  334   4.553   3.263   2.061
    1C        C  335   4.532   3.125   2.065
    1C        C  336   4.540   3.348   2.172
    1C        C  337   4.515   3.280   2.293
    1C        C  338   4.522   3.494   2.408
    1C        C  339   4.522   3.353   2.413
    1C        C  340   4.515   3.568   2.529
    1C        C  341   4.519   3.497   2.651
    1C        C  342   4.492   3.709   2.771
    1C        C  343   4.516   3.570   2.772
    1C        C  344   4.474   3.778   2.893
    1C        C  345   4.490   3.711   3.017
    1C        C  346   4.433   3.919   3.136
    1C        C  347   4.474   3.784   3.137
    1C        C  348   4.394   3.983   3.256
    1C        C  349   4.424   3.920   3.379
    1C        C  350   4.319   4.103   3.501
    1C        C  351   4.394   3.983   3.502
    1C        C  352   4.274   4.161   3.622
    1C        C  353   4.315   4.104   3.745
    1C        C  354   4.177   4.266   3.864
    1C        C  355   4.274   4.162   3.866
    1C        C  356   4.125   4.315   3.986
    1C        C  357   4.178   4.268   4.108
    1C        C  358   4.012   4.399   4.228
    1C        C  359   4.126   4.315   4.230
    1C        C  360   3.951   4.442   4.348
    1C        C  361   4.018   4.413   4.469
    1C        C  362   3.828   4.516   4.590
    1C        C  363   3.957   4.458   4.588
    1C        C  364   3.759   4.546   4.710
    1C        C  365   3.835   4.539   4.828
    1C        C  366   3.625   4.581   4.949
    1C        C  367   3.763   4.569   4.945
    1C        C  368   4.510   3.563   2.049
    1C        C  369   4.518   3.488   2.167
    1C        C  370   4.496   3.704   2.283
    1C        C  371   4.514   3.564   2.285
    1C        C  372   4.483   3.776   2.404
    1C        C  373   4.496   3.708   2.526
    1C        C  374   4.429   3.910   2.647
    1C        C  375   4.476   3.777   2.648
    1C        C  376   4.398   3.977   2.768
    1C        C  377   4.426   3.910   2.889
    1C        C  378   4.322   4.094   3.010
    1C        C  379   4.401   3.977   3.011
    1C        C  380   4.267   4.146   3.129
    1C        C  381   4.307   4.094   3.255
    1C        C  382   4.174   4.255   3.376
    1C        C  383   4.272   4.154   3.378
    1C        C  384   4.120   4.304   3.497
    1C        C  385   4.174   4.260   3.620
    1C        C  386   4.000   4.381   3.742
    1C        C  387   4.122   4.309   3.742
    1C        C  388   3.941   4.422   3.864
    1C        C  389   4.007   4.393   3.985
    1C        C  390   3.814   4.481   4.105
    1C        C  391   3.946   4.430   4.107
    1C        C  392   3.748   4.505   4.227
    1C        C  393   3.819   4.493   4.349
    1C        C  394   3.616   4.548   4.472
    1C        C  395   3.755   4.528   4.470
    1C        C  396   3.543   4.563   4.593
    1C        C  397   3.619   4.561   4.712
    1C        C  398   3.408   4.546   4.837
    1C        C  399   3.547   4.566   4.834
    1C        C  400   3.341   4.515   4.957
    1C        C  401   4.503   3.702   2.046
    1C        C  402   4.456   3.916   2.165
    1C        C  403   4.491   3.779   2.163
    1C        C  404   4.416   3.980   2.284
    1C        C  405   4.439   3.910   2.404
    1C        C  406   4.327   4.093   2.522
    1C        C  407   4.405   3.976   2.525
    1C        C  408   4.281   4.150   2.643
    1C        C  409   4.320   4.095   2.767
    1C        C  410   4.175   4.250   2.887
    1C        C  411   4.277   4.151   2.889
    1C        C  412   4.120   4.297   3.008
    1C        C  413   4.170   4.249   3.130
    1C        C  414   4.001   4.374   3.251
    1C        C  415   4.121   4.300   3.252
    1C        C  416   3.940   4.407   3.374
    1C        C  417   4.003   4.383   3.498
    1C        C  418   3.810   4.474   3.617
    1C        C  419   3.939   4.418   3.620
    1C        C  420   3.744   4.499   3.739
    1C        C  421   3.811   4.476   3.862
    1C        C  422   3.606   4.528   3.988
    1C        C  423   3.744   4.501   3.984
    1C        C  424   3.537   4.538   4.111
    1C        C  425   3.611   4.537   4.231
    1C        C  426   3.399   4.550   4.355
    1C        C  427   3.540   4.550   4.353
    1C        C  428   3.330   4.543   4.478
    1C        C  429   3.402   4.552   4.599
    1C        C  430   3.191   4.512   4.722
    1C        C  431   3.330   4.541   4.720
    1C        C  432   3.122   4.490   4.845
    1C        C  433   3.203   4.501   4.959
    1C        C  434   4.382   4.118   2.044
    1C        C  435   4.451   3.996   2.050
    1C        C  436   4.302   4.157   2.156
    1C        C  437   4.334   4.097   2.281
    1C        C  438   4.178   4.246   2.399
    1C        C  439   4.280   4.148   2.401
    1C        C  440   4.124   4.294   2.521
    1C        C  441   4.180   4.249   2.642
    1C        C  442   4.006   4.374   2.763
    1C        C  443   4.121   4.292   2.763
    1C        C  444   3.940   4.408   2.883
    1C        C  445   4.002   4.375   3.006
    1C        C  446   3.809   4.463   3.127
    1C        C  447   3.939   4.408   3.128
    1C        C  448   3.744   4.486   3.250
    1C        C  449   3.809   4.461   3.373
    1C        C  450   3.605   4.522   3.496
    1C        C  451   3.743   4.493   3.494
    1C        C  452   3.535   4.532   3.619
    1C        C  453   3.605   4.524   3.741
    1C        C  454   3.396   4.541   3.864
    1C        C  455   3.537   4.536   3.864
    1C        C  456   3.327   4.533   3.987
    1C        C  457   3.396   4.538   4.110
    1C        C  458   3.190   4.506   4.235
    1C        C  459   3.328   4.534   4.234
    1C        C  460   3.124   4.483   4.359
    1C        C  461   3.194   4.506   4.480
    1C        C  462   2.992   4.436   4.600
    1C        C  463   3.122   4.492   4.601
    1C        C  464   2.925   4.404   4.720
    1C        C  465   2.987   4.444   4.842
    1C        C  466   2.802   4.333   4.959
    1C        C  467   2.904   4.429   4.958
    1C        C  468   4.125   4.287   2.040
    1C        C  469   4.190   4.246   2.157
    1C        C  470   4.006   4.367   2.276
    1C        C  471   4.128   4.293   2.276
    1C        C  472   3.941   4.399   2.397
    1C        C  473   4.005   4.371   2.519
    1C        C  474   3.810   4.456   2.642
    1C        C  475   3.942   4.404   2.641
    1C        C  476   3.741   4.481   2.762
    1C        C  477   3.810   4.463   2.885
    1C        C  478   3.602   4.512   3.009
    1C        C  479   3.741   4.487   3.006
    1C        C  480   3.533   4.525   3.131
    1C        C  481   3.606   4.518   3.251
    1C        C  482   3.394   4.529   3.376
    1C        C  483   3.535   4.528   3.373
    1C        C  484   3.323   4.529   3.498
    1C        C  485   3.394   4.541   3.620
    1C        C  486   3.188   4.502   3.744
    1C        C  487   3.325   4.537   3.742
    1C        C  488   3.125   4.474   3.868
    1C        C  489   3.190   4.499   3.991
    1C        C  490   3.004   4.405   4.113
    1C        C  491   3.121   4.484   4.113
    1C        C  492   2.944   4.374   4.237
    1C        C  493   2.998   4.420   4.359
    1C        C  494   2.826   4.298   4.482
    1C        C  495   2.934   4.389   4.481
    1C        C  496   2.773   4.252   4.605
    1C        C  497   2.814   4.315   4.725
    1C        C  498   2.662   4.163   4.843
    1C        C  499   2.751   4.272   4.843
    1C        C  500   2.597   4.111   4.955
    1C        C  501   4.004   4.356   2.039
    1C        C  502   3.813   4.462   2.155
    1C        C  503   3.941   4.402   2.156
    1C        C  504   3.742   4.478   2.276
    1C        C  505   3.810   4.452   2.397
    1C        C  506   3.604   4.503   2.519
    1C        C  507   3.742   4.473   2.519
    1C        C  508   3.533   4.514   2.640
    1C        C  509   3.603   4.510   2.763
    1C        C  510   3.393   4.520   2.886
    1C        C  511   3.534   4.524   2.885
    1C        C  512   3.320   4.515   3.007
    1C        C  513   3.391   4.527   3.128
    1C        C  514   3.186   4.494   3.254
    1C        C  515   3.325   4.519   3.253
    1C        C  516   3.120   4.471   3.377
    1C        C  517   3.185   4.499   3.499
    1C        C  518   2.996   4.410   3.624
    1C        C  519   3.121   4.478   3.623
    1C        C  520   2.941   4.367   3.746
    1C        C  521   3.001   4.407   3.867
    1C        C  522   2.834   4.280   3.995
    1C        C  523   2.944   4.369   3.991
    1C        C  524   2.782   4.236   4.119
    1C        C  525   2.828   4.293   4.240
    1C        C  526   2.695   4.128   4.363
    1C        C  527   2.774   4.246   4.362
    1C        C  528   2.660   4.069   4.487
    1C        C  529   2.693   4.136   4.606
    1C        C  530   2.582   3.956   4.731
    1C        C  531   2.636   4.087   4.726
    1C        C  532   2.538   3.897   4.852
    1C        C  533   2.528   3.989   4.961
    1C        C  534   3.616   4.549   2.036
    1C        C  535   3.750   4.508   2.039
    1C        C  536   3.535   4.528   2.152
    1C        C  537   3.602   4.503   2.275
    1C        C  538   3.391   4.511   2.398
    1C        C  539   3.532   4.510   2.397
    1C        C  540   3.321   4.507   2.520
    1C        C  541   3.392   4.510   2.642
    1C        C  542   3.182   4.483   2.765
    1C        C  543   3.322   4.504   2.765
    1C        C  544   3.115   4.461   2.888
    1C        C  545   3.183   4.481   3.010
    1C        C  546   2.990   4.404   3.134
    1C        C  547   3.117   4.467   3.134
    1C        C  548   2.934   4.366   3.258
    1C        C  549   2.996   4.402   3.379
    1C        C  550   2.830   4.276   3.504
    1C        C  551   2.938   4.367   3.503
    1C        C  552   2.776   4.231   3.627
    1C        C  553   2.830   4.279   3.749
    1C        C  554   2.698   4.118   3.873
    1C        C  555   2.785   4.229   3.873
    1C        C  556   2.662   4.060   3.997
    1C        C  557   2.698   4.123   4.118
    1C        C  558   2.596   3.940   4.245
    1C        C  559   2.660   4.066   4.242
    1C        C  560   2.570   3.874   4.367
    1C        C  561   2.593   3.944   4.487
    1C        C  562   2.530   3.747   4.614
    1C        C  563   2.562   3.884   4.611
    1C        C  564   2.510   3.679   4.736
    1C        C  565   2.511   3.756   4.856
    1C        C  566   2.535   3.543   4.975
    1C        C  567   2.517   3.681   4.974
    1C        C  568   3.324   4.474   2.037
    1C        C  569   3.394   4.511   2.153
    1C        C  570   3.184   4.471   2.278
    1C        C  571   3.321   4.510   2.275
    1C        C  572   3.114   4.457   2.400
    1C        C  573   3.182   4.483   2.521
    1C        C  574   2.987   4.400   2.646
    1C        C  575   3.114   4.461   2.643
    1C        C  576   2.931   4.356   2.768
    1C        C  577   2.990   4.395   2.890
    1C        C  578   2.819   4.276   3.015
    1C        C  579   2.928   4.366   3.013
    1C        C  580   2.773   4.223   3.138
    1C        C  581   2.826   4.275   3.259
    1C        C  582   2.693   4.113   3.383
    1C        C  583   2.781   4.223   3.383
    1C        C  584   2.655   4.057   3.507
    1C        C  585   2.690   4.118   3.629
    1C        C  586   2.600   3.929   3.755
    1C        C  587   2.655   4.059   3.752
    1C        C  588   2.575   3.864   3.879
    1C        C  589   2.602   3.932   3.999
    1C        C  590   2.537   3.735   4.125
    1C        C  591   2.573   3.871   4.123
    1C        C  592   2.519   3.667   4.247
    1C        C  593   2.529   3.739   4.369
    1C        C  594   2.512   3.532   4.496
    1C        C  595   2.515   3.674   4.494
    1C        C  596   2.516   3.463   4.619
    1C        C  597   2.515   3.537   4.740
    1C        C  598   2.525   3.323   4.860
    1C        C  599   2.530   3.464   4.860
    1C        C  600   2.528   3.246   4.977
    1C        C  601   3.191   4.437   2.041
    1C        C  602   2.979   4.394   2.159
    1C        C  603   3.115   4.437   2.158
    1C        C  604   2.925   4.355   2.284
    1C        C  605   2.987   4.396   2.404
    1C        C  606   2.811   4.277   2.527
    1C        C  607   2.921   4.365   2.526
    1C        C  608   2.766   4.221   2.649
    1C        C  609   2.823   4.265   2.770
    1C        C  610   2.687   4.108   2.897
    1C        C  611   2.772   4.221   2.894
    1C        C  612   2.653   4.047   3.020
    1C        C  613   2.685   4.113   3.141
    1C        C  614   2.594   3.924   3.266
    1C        C  615   2.646   4.055   3.263
    1C        C  616   2.569   3.861   3.390
    1C        C  617   2.596   3.928   3.511
    1C        C  618   2.535   3.726   3.636
    1C        C  619   2.571   3.863   3.634
    1C        C  620   2.525   3.658   3.759
    1C        C  621   2.535   3.729   3.881
    1C        C  622   2.511   3.521   4.007
    1C        C  623   2.527   3.661   4.005
    1C        C  624   2.514   3.452   4.131
    1C        C  625   2.509   3.526   4.251
    1C        C  626   2.535   3.320   4.379
    1C        C  627   2.510   3.459   4.375
    1C        C  628   2.554   3.251   4.500
    1C        C  629   2.538   3.324   4.620
    1C        C  630   2.590   3.115   4.742
    1C        C  631   2.545   3.250   4.740
    1C        C  632   2.614   3.047   4.865
    1C        C  633   2.562   3.110   4.982
    1C        C  634   2.780   4.303   2.052
    1C        C  635   2.887   4.393   2.049
    1C        C  636   2.744   4.231   2.167
    1C        C  637   2.808   4.273   2.285
    1C        C  638   2.672   4.111   2.410
    1C        C  639   2.757   4.224   2.407
    1C        C  640   2.641   4.047   2.532
    1C        C  641   2.681   4.109   2.652
    1C        C  642   2.586   3.921   2.776
    1C        C  643   2.647   4.048   2.775
    1C        C  644   2.564   3.854   2.899
    1C        C  645   2.594   3.919   3.021
    1C        C  646   2.527   3.720   3.147
    1C        C  647   2.569   3.855   3.144
    1C        C  648   2.515   3.653   3.270
    1C        C  649   2.531   3.725   3.391
    1C        C  650   2.511   3.515   3.519
    1C        C  651   2.521   3.656   3.514
    1C        C  652   2.513   3.445   3.641
    1C        C  653   2.516   3.517   3.763
    1C        C  654   2.530   3.309   3.888
    1C        C  655   2.509   3.448   3.886
    1C        C  656   2.548   3.243   4.012
    1C        C  657   2.535   3.313   4.134
    1C        C  658   2.598   3.116   4.257
    1C        C  659   2.548   3.247   4.258
    1C        C  660   2.630   3.050   4.379
    1C        C  661   2.601   3.117   4.499
    1C        C  662   2.709   2.936   4.624
    1C        C  663   2.629   3.053   4.622
    1C        C  664   2.746   2.874   4.745
    1C        C  665   2.700   2.933   4.866
    1C        C  666   2.739   2.866   4.983
    1C        C  667   2.674   4.027   2.054
    1C        C  668   2.678   4.106   2.169
    1C        C  669   2.588   3.912   2.292
    1C        C  670   2.640   4.044   2.290
    1C        C  671   2.562   3.845   2.414
    1C        C  672   2.585   3.917   2.533
    1C        C  673   2.522   3.716   2.659
    1C        C  674   2.558   3.853   2.656
    1C        C  675   2.515   3.646   2.781
    1C        C  676   2.534   3.716   2.903
    1C        C  677   2.504   3.508   3.030
    1C        C  678   2.516   3.649   3.026
    1C        C  679   2.505   3.439   3.153
    1C        C  680   2.505   3.512   3.273
    1C        C  681   2.528   3.304   3.398
    1C        C  682   2.509   3.444   3.397
    1C        C  683   2.545   3.235   3.520
    1C        C  684   2.530   3.304   3.642
    1C        C  685   2.600   3.108   3.769
    1C        C  686   2.547   3.239   3.766
    1C        C  687   2.628   3.044   3.893
    1C        C  688   2.593   3.109   4.013
    1C        C  689   2.709   2.934   4.136
    1C        C  690   2.627   3.049   4.136
    1C        C  691   2.752   2.878   4.258
    1C        C  692   2.707   2.932   4.381
    1C        C  693   2.752   2.877   4.503
    1C        C  694   2.625   3.896   2.059
    1C        C  695   2.529   3.701   2.176
    1C        C  696   2.576   3.834   2.175
    1C        C  697   2.506   3.635   2.299
    1C        C  698   2.519   3.711   2.417
    1C        C  699   2.485   3.502   2.541
    1C        C  700   2.504   3.642   2.540
    1C        C  701   2.496   3.433   2.664
    1C        C  702   2.497   3.506   2.785
    1C        C  703   2.522   3.297   2.907
    1C        C  704   2.500   3.436   2.908
    1C        C  705   2.545   3.230   3.030
    1C        C  706   2.531   3.300   3.152
    1C        C  707   2.595   3.102   3.277
    1C        C  708   2.547   3.236   3.276
    1C        C  709   2.627   3.039   3.399
    1C        C  710   2.598   3.104   3.522
    1C        C  711   2.710   2.929   3.647
    1C        C  712   2.630   3.045   3.646
    1C        C  713   2.754   2.874   3.769
    1C        C  714   2.711   2.930   3.891
    1C        C  715   2.754   2.877   4.015
    1C        C  716   2.450   3.497   2.063
    1C        C  717   2.490   3.632   2.061
    1C        C  718   2.465   3.420   2.182
    1C        C  719   2.483   3.495   2.302
    1C        C  720   2.510   3.286   2.423
    1C        C  721   2.481   3.424   2.424
    1C        C  722   2.537   3.220   2.545
    1C        C  723   2.525   3.295   2.664
    1C        C  724   2.589   3.093   2.789
    1C        C  725   2.542   3.226   2.786
    1C        C  726   2.619   3.030   2.911
    1C        C  727   2.591   3.096   3.033
    1C        C  728   2.706   2.921   3.156
    1C        C  729   2.627   3.038   3.156
    1C        C  730   2.754   2.872   3.279
    1C        C  731   2.709   2.925   3.403
    1C        C  732   2.753   2.871   3.525
    1C        C  733   2.489   3.195   2.070
    1C        C  734   2.487   3.278   2.183
    1C        C  735   2.578   3.081   2.302
    1C        C  736   2.518   3.210   2.304
    1C        C  737   2.606   3.015   2.424
    1C        C  738   2.582   3.086   2.544
    1C        C  739   2.693   2.909   2.669
    1C        C  740   2.615   3.026   2.667
    1C        C  741   2.735   2.849   2.790
    1C        C  742   2.699   2.913   2.911
    1C        C  743   2.747   2.862   3.034
    1C        C  744   2.540   3.066   2.068
    1C        C  745   2.683   2.896   2.185
    1C        C  746   2.601   3.011   2.182
    1C        C  747   2.731   2.841   2.305
    1C        C  748   2.685   2.898   2.425
    1C        C  749   2.734   2.848   2.548
    1C        C  750   2.734   2.840   2.067
    1C        C  751   3.669   2.333   1.966
    1C        O  752   3.698   2.217   2.006
    1C        O  753   3.682   2.357   1.828
    1C        C  754   4.634   3.050   1.988
    1C        O  755   4.642   3.068   1.863
    1C        O  756   4.762   3.039   2.042
    1C        C  757   4.412   4.201   1.925
    1C        O  758   4.472   4.308   1.954
    1C        O  759   4.345   4.172   1.806
    1C        C  760   3.599   4.673   1.957
    1C        O  761   3.630   4.784   2.008
    1C        O  762   3.590   4.665   1.818
    1C        C  763   2.872   4.519   1.972
    1C        O  764   2.891   4.529   1.848
    1C        O  765   2.871   4.637   2.046
    1C        C  766   2.363   3.449   1.954
    1C        O  767   2.408   3.425   1.838
    1C        O  768   2.229   3.486   1.954
    1C        C  769   4.673   3.589   5.074
    1C        O  770   4.641   3.516   5.172
    1C        O  771   4.813   3.591   5.063
    1C        C  772   4.279   4.466   5.022
    1C        O  773   4.302   4.420   5.137
    1C        O  774   4.394   4.534   4.980
    1C        C  775   4.146   2.520   5.066
    1C        O  776   4.206   2.415   5.032
    1C        O  777   4.163   2.545   5.203
    1C        C  778   2.890   4.536   5.059
    1C        O  779   2.788   4.610   5.053
    1C        O  780   2.964   4.534   5.178
    1C        C  781   2.474   3.034   5.074
    1C        O  782   2.352   3.016   5.052
    1C        O  783   2.503   3.027   5.210
    1C        C  784   2.415   3.976   5.055
    1C        O  785   2.297   3.963   5.012
    1C        O  786   2.413   4.009   5.191
    1C        C  787   2.940   2.429   2.001
    1C        O  788   2.940   2.443   1.876
    1C        O  789   2.881   2.312   2.048
    1C        C  790   3.189   2.385   5.074
    1C        O  791   3.112   2.285   5.065
    1C        O  792   3.221   2.413   5.207
    1C        H  793   4.234   3.040   5.034
    1C        H  794   4.231   2.788   5.065
    1C        H  795   4.521   3.112   5.036
    1C        H  796   4.498   3.363   5.063
    1C        H  797   4.536   3.802   5.051
    1C        H  798   4.389   3.949   5.047
    1C        H  799   4.303   4.175   5.051
    1C        H  800   4.001   4.472   5.035
    1C        H  801   3.800   4.531   5.038
    1C        H  802   3.585   4.635   5.033
    1C        H  803   3.394   4.471   5.039
    1C        H  804   3.160   4.474   5.053
    1C        H  805   3.911   2.433   5.037
    1C        H  806   3.680   2.461   5.071
    1C        H  807   2.976   2.516   5.032
    1C        H  808   3.430   2.485   5.072
    1C        H  809   2.859   2.722   5.079
    1C        H  810   2.659   2.853   5.052
    1C        H  811   2.488   3.288   5.067
    1C        H  812   2.591   3.504   5.058
    1C        H  813   2.450   3.709   5.053
    1C        H  814   2.583   4.171   5.042
    1C        H  815   2.737   4.327   5.044
    1C        H  816   2.762   2.907   1.988
    1C        H  817   2.820   2.663   1.987
    1C        H  818   3.216   2.496   1.984
    1C        H  819   3.430   2.465   1.977
    1C        H  820   3.840   2.531   1.968
    1C        H  821   4.066   2.600   1.968
    1C        H  822   4.265   2.714   1.974
    1C        H  823   4.368   2.934   1.967
    1C        H  824   4.584   3.301   1.965
    1C        H  825   4.483   3.514   1.957
    1C        H  826   4.536   3.749   1.956
    1C        H  827   3.798   4.494   1.944
    1C        H  828   3.974   4.405   1.949
    1C        H  829   4.160   4.246   1.948
    1C        H  830   4.532   3.987   1.981
    1C        H  831   2.662   3.836   1.978
    1C        H  832   2.738   4.046   1.970
    1C        H  833   2.697   4.323   1.986
    1C        H  834   3.365   4.496   1.940
    1C        H  835   3.150   4.381   1.960
    1C        H  836   2.517   3.003   1.985
    1C        H  837   2.408   3.216   2.002
    1C        H  838   2.541   3.663   1.973
    2V3OU   H29  839   2.805   3.542   6.478
    2V3OU   C27  840   2.782   3.500   6.579
    2V3OU   H27  841   2.722   3.573   6.639
    2V3OU   H28  842   2.724   3.405   6.588
    2V3OU   O11  843   2.908   3.478   6.644
    2V3OU   C15  844   2.921   3.398   6.756
    2V3OU   C13  845   3.052   3.373   6.803
    2V3OU   C14  846   3.076   3.263   6.886
    2V3OU   C16  847   2.967   3.186   6.925
    2V3OU    H6  848   2.987   3.099   6.989
    2V3OU   C12  849   3.215   3.230   6.923
    2V3OU    O2  850   3.246   3.126   6.985
    2V3OU   C10  851   3.322   3.303   6.853
    2V3OU    C8  852   3.455   3.263   6.860
    2V3OU   O10  853   3.488   3.154   6.933
    2V3OU   H26  854   3.405   3.108   6.953
    2V3OU    C6  855   3.563   3.346   6.815
    2V3OU    C5  856   3.538   3.466   6.749
    2V3OU    C4  857   3.703   3.296   6.806
    2V3OU    H4  858   3.722   3.225   6.892
    2V3OU    H5  859   3.711   3.228   6.715
    2V3OU    C2  860   3.815   3.399   6.798
    2V3OU    O6  861   3.807   3.476   6.918
    2V3OU   H21  862   3.750   3.551   6.893
    2V3OU    C3  863   3.778   3.497   6.686
    2V3OU    H2  864   3.865   3.568   6.683
    2V3OU    H3  865   3.776   3.443   6.588
    2V3OU   C25  866   3.947   3.323   6.785
    2V3OU    O7  867   3.995   3.286   6.678
    2V3OU   C26  868   4.034   3.284   6.904
    2V3OU   H22  869   4.067   3.378   6.954
    2V3OU   H23  870   4.122   3.225   6.868
    2V3OU    O8  871   3.964   3.211   7.002
    2V3OU   H24  872   3.921   3.267   0.049
    2V3OU    C1  873   3.645   3.564   6.712
    2V3OU    H1  874   3.616   3.619   6.617
    2V3OU    O3  875   3.657   3.655   6.821
    2V3OU   C19  876   3.616   3.790   6.798
    2V3OU    H9  877   3.520   3.798   6.737
    2V3OU    O4  878   3.713   3.848   6.714
    2V3OU   C20  879   3.846   3.875   6.761
    2V3OU   H10  880   3.897   3.774   6.771
    2V3OU   C24  881   3.605   3.857   6.935
    2V3OU   H16  882   3.541   3.791   6.999
    2V3OU   H17  883   3.557   3.957   6.922
    2V3OU   C23  884   3.747   3.873   6.990
    2V3OU   H15  885   3.789   3.768   7.008
    2V3OU    N1  886   3.730   3.949   0.093
    2V3OU   H19  887   3.807   3.918   0.149
    2V3OU   H20  888   3.641   3.940   0.137
    2V3OU   C21  889   3.842   3.950   6.894
    2V3OU   H11  890   3.939   3.927   6.947
    2V3OU    O5  891   3.828   4.091   6.898
    2V3OU   H18  892   3.779   4.105   6.981
    2V3OU   C22  893   3.912   3.947   6.645
    2V3OU   H12  894   3.859   4.043   6.620
    2V3OU   H13  895   3.902   3.887   6.551
    2V3OU   H14  896   4.021   3.958   6.666
    2V3OU   C11  897   3.158   3.473   6.784
    2V3OU    O1  898   3.138   3.584   6.729
    2V3OU    C9  899   3.299   3.428   6.789
    2V3OU    C7  900   3.401   3.504   6.734
    2V3OU    O9  901   3.374   3.610   6.650
    2V3OU   H25  902   3.279   3.628   6.647
    2V3OU   C17  903   2.817   3.310   6.794
    2V3OU    H7  904   2.714   3.345   6.790
    2V3OU   C18  905   2.835   3.208   6.886
    2V3OU    H8  906   2.745   3.151   6.912
    3SOL     OW  907   2.647   3.345   5.319
    3SOL    HW1  908   2.596   3.265   5.286
    3SOL    HW2  909   2.582   3.413   5.355
    4SOL     OW  910   1.212   0.313   0.487
    4SOL    HW1  911   1.284   0.249   0.460
    4SOL    HW2  912   1.154   0.270   0.555
    5SOL     OW  913   3.780   1.740   0.231
    5SOL    HW1  914   3.709   1.698   0.288
    5SOL    HW2  915   3.744   1.758   0.140
    6SOL     OW  916   2.939   2.068   1.897
    6SOL    HW1  917   2.893   2.124   1.966
    6SOL    HW2  918   3.038   2.069   1.914
    7SOL     OW  919   1.748   2.815   4.631
    7SOL    HW1  920   1.790   2.898   4.593
    7SOL    HW2  921   1.686   2.775   4.564
    8SOL     OW  922   1.268   1.803   6.214
    8SOL    HW1  923   1.187   1.861   6.223
    8SOL    HW2  924   1.343   1.857   6.174
    9SOL     OW  925   2.030   2.300   5.467
    9SOL    HW1  926   2.091   2.253   5.403
    9SOL    HW2  927   1.998   2.236   5.536
   10SOL     OW  928   5.776   4.929   0.795
   10SOL    HW1  929   5.784   4.886   0.706
   10SOL    HW2  930   5.867   4.947   0.832
   11SOL     OW  931   3.167   1.251   0.927
   11SOL    HW1  932   3.258   1.282   0.954
   11SOL    HW2  933   3.171   1.156   0.896
   12SOL     OW  934   5.738   4.699   1.008
   12SOL    HW1  935   5.778   4.765   0.945
   12SOL    HW2  936   5.763   4.606   0.980
   13SOL     OW  937   4.471   6.139   1.809
   13SOL    HW1  938   4.427   6.100   1.890
   13SOL    HW2  939   4.524   6.220   1.836
   14SOL     OW  940   4.726   5.659   1.121
   14SOL    HW1  941   4.691   5.738   1.072
   14SOL    HW2  942   4.786   5.690   1.195
   15SOL     OW  943   0.195   0.329   0.098
   15SOL    HW1  944   0.148   0.256   0.049
   15SOL    HW2  945   0.263   0.371   0.038
   16SOL     OW  946   1.702   4.911   5.498
   16SOL    HW1  947   1.646   4.991   5.519
   16SOL    HW2  948   1.699   4.892   5.400
   17SOL     OW  949   0.562   2.043   4.286
   17SOL    HW1  950   0.507   2.082   4.360
   17SOL    HW2  951   0.551   2.099   4.204
   18SOL     OW  952   2.306   6.786   4.977
   18SOL    HW1  953   2.389   6.829   4.943
   18SOL    HW2  954   2.319   6.687   4.984
   19SOL     OW  955   4.196   5.939   3.532
   19SOL    HW1  956   4.195   5.840   3.522
   19SOL    HW2  957   4.103   5.972   3.549
   20SOL     OW  958   0.128   1.333   4.523
   20SOL    HW1  959   0.089   1.304   4.611
   20SOL    HW2  960   0.192   1.408   4.538
   21SOL     OW  961   2.050   3.199   2.094
   21SOL    HW1  962   2.111   3.127   2.063
   21SOL    HW2  963   2.076   3.228   2.186
   22SOL     OW  964   0.135   0.346   0.589
   22SOL    HW1  965   0.220   0.312   0.628
   22SOL    HW2  966   0.131   0.322   0.492
   23SOL     OW  967   0.503   5.152   0.541
   23SOL    HW1  968   0.445   5.203   0.606
   23SOL    HW2  969   0.445   5.103   0.477
   24SOL     OW  970   4.479   0.912   6.043
   24SOL    HW1  971   4.545   0.877   6.110
   24SOL    HW2  972   4.422   0.837   6.010
   25SOL     OW  973   2.218   0.456   5.728
   25SOL    HW1  974   2.277   0.530   5.695
   25SOL    HW2  975   2.159   0.490   5.801
   26SOL     OW  976   2.494   6.524   5.389
   26SOL    HW1  977   2.589   6.556   5.393
   26SOL    HW2  978   2.432   6.603   5.392
   27SOL     OW  979   0.138   0.132   1.976
   27SOL    HW1  980   0.051   0.094   1.946
   27SOL    HW2  981   0.124   0.224   2.013
   28SOL     OW  982   1.898   0.342   5.098
   28SOL    HW1  983   1.878   0.440   5.094
   28SOL    HW2  984   1.955   0.323   5.178
   29SOL     OW  985   5.373   0.372   1.945
   29SOL    HW1  986   5.439   0.324   2.002
   29SOL    HW2  987   5.310   0.425   2.002
   30SOL     OW  988   4.647   6.456   4.687
   30SOL    HW1  989   4.735   6.419   4.656
   30SOL    HW2  990   4.574   6.424   4.627
   31SOL     OW  991   6.050   3.964   4.408
   31SOL    HW1  992   6.093   4.001   4.490
   31SOL    HW2  993   6.042   4.036   4.339
   32SOL     OW  994   3.801   1.650   1.361
   32SOL    HW1  995   3.833   1.742   1.342
   32SOL    HW2  996   3.877   1.594   1.395
   33SOL     OW  997   2.005   4.818   5.103
   33SOL    HW1  998   1.906   4.805   5.096
   33SOL    HW2  999   2.045   4.742   5.155
   34SOL     OW 1000   2.566   0.047   5.510
   34SOL    HW1 1001   2.580   0.126   5.570
   34SOL    HW2 1002   2.469   0.022   5.511
   35SOL     OW 1003   1.002   3.190   4.787
   35SOL    HW1 1004   1.016   3.123   4.714
   35SOL    HW2 1005   1.085   3.246   4.797
   36SOL     OW 1006   5.684   1.181   4.785
   36SOL    HW1 1007   5.587   1.198   4.764
   36SOL    HW2 1008   5.694   1.090   4.825
   37SOL     OW 1009   1.028   5.809   3.663
   37SOL    HW1 1010   1.015   5.733   3.599
   37SOL    HW2 1011   1.069   5.774   3.748
   38SOL     OW 1012   0.899   3.599   2.081
   38SOL    HW1 1013   0.890   3.698   2.067
   38SOL    HW2 1014   0.903   3.553   1.992
   39SOL     OW 1015   6.400   5.566   1.470
   39SOL    HW1 1016   6.484   5.550   1.418
   39SOL    HW2 1017   6.324   5.521   1.424
   40SOL     OW 1018   4.317   0.515   5.551
   40SOL    HW1 1019   4.305   0.463   5.636
   40SOL    HW2 1020   4.234   0.508   5.496
   41SOL     OW 1021   0.504   3.718   1.132
   41SOL    HW1 1022   0.433   3.651   1.154
   41SOL    HW2 1023   0.593   3.673   1.132
   42SOL     OW 1024   2.664   3.769   1.054
   42SOL    HW1 1025   2.697   3.774   1.148
   42SOL    HW2 1026   2.736   3.802   0.992
   43SOL     OW 1027   5.100   0.666   3.281
   43SOL    HW1 1028   5.027   0.598   3.286
   43SOL    HW2 1029   5.122   0.698   3.373
   44SOL     OW 1030   0.006   0.940   6.621
   44SOL    HW1 1031   0.055   1.014   6.666
   44SOL    HW2 1032   6.929   0.941   6.651
   45SOL     OW 1033   2.152   3.797   4.586
   45SOL    HW1 1034   2.182   3.841   4.501
   45SOL    HW2 1035   2.142   3.866   4.658
   46SOL     OW 1036   0.745   5.820   4.738
   46SOL    HW1 1037   0.687   5.896   4.769
   46SOL    HW2 1038   0.810   5.854   4.669
   47SOL     OW 1039   0.621   3.980   6.107
   47SOL    HW1 1040   0.702   4.033   6.083
   47SOL    HW2 1041   0.553   4.040   6.148
   48SOL     OW 1042   0.718   3.945   0.319
   48SOL    HW1 1043   0.711   4.025   0.380
   48SOL    HW2 1044   0.637   3.939   0.262
   49SOL     OW 1045   3.675   0.362   6.929
   49SOL    HW1 1046   3.667   0.389   0.006
   49SOL    HW2 1047   3.757   0.306   6.918
   50SOL     OW 1048   4.925   2.031   5.808
   50SOL    HW1 1049   4.843   1.999   5.855
   50SOL    HW2 1050   5.004   1.979   5.840
   51SOL     OW 1051   0.795   6.875   1.576
   51SOL    HW1 1052   0.716   6.826   1.613
   51SOL    HW2 1053   0.787   6.880   1.476
   52SOL     OW 1054   5.011   3.268   2.739
   52SOL    HW1 1055   5.001   3.196   2.670
   52SOL    HW2 1056   4.995   3.357   2.697
   53SOL     OW 1057   4.202   6.328   1.282
   53SOL    HW1 1058   4.299   6.341   1.262
   53SOL    HW2 1059   4.191   6.287   1.373
   54SOL     OW 1060   0.906   1.079   6.304
   54SOL    HW1 1061   0.928   1.104   6.398
   54SOL    HW2 1062   0.913   0.980   6.294
   55SOL     OW 1063   2.607   3.829   6.199
   55SOL    HW1 1064   2.563   3.919   6.198
   55SOL    HW2 1065   2.558   3.768   6.261
   56SOL     OW 1066   2.162   2.332   6.940
   56SOL    HW1 1067   2.125   2.414   6.985
   56SOL    HW2 1068   2.188   2.355   6.846
   57SOL     OW 1069   4.169   6.103   1.769
   57SOL    HW1 1070   4.079   6.118   1.812
   57SOL    HW2 1071   4.216   6.028   1.817
   58SOL     OW 1072   0.684   0.321   0.252
   58SOL    HW1 1073   0.723   0.384   0.184
   58SOL    HW2 1074   0.624   0.372   0.313
   59SOL     OW 1075   4.485   3.863   6.997
   59SOL    HW1 1076   4.386   3.852   6.985
   59SOL    HW2 1077   4.504   3.888   0.073
   60SOL     OW 1078   6.236   2.518   2.209
   60SOL    HW1 1079   6.336   2.523   2.213
   60SOL    HW2 1080   6.202   2.475   2.292
   61SOL     OW 1081   1.084   4.911   2.727
   61SOL    HW1 1082   1.124   4.966   2.653
   61SOL    HW2 1083   0.984   4.912   2.718
   62SOL     OW 1084   5.069   3.919   2.956
   62SOL    HW1 1085   5.049   3.943   2.861
   62SOL    HW2 1086   5.111   3.828   2.959
   63SOL     OW 1087   4.602   6.999   5.699
   63SOL    HW1 1088   4.547   0.043   5.644
   63SOL    HW2 1089   4.603   6.909   5.655
   64SOL     OW 1090   2.314   1.651   6.656
   64SOL    HW1 1091   2.334   1.555   6.678
   64SOL    HW2 1092   2.215   1.664   6.656
   65SOL     OW 1093   0.349   5.221   5.196
   65SOL    HW1 1094   0.365   5.190   5.103
   65SOL    HW2 1095   0.402   5.304   5.214
   66SOL     OW 1096   4.680   1.741   1.312
   66SOL    HW1 1097   4.708   1.779   1.224
   66SOL    HW2 1098   4.729   1.656   1.329
   67SOL     OW 1099   0.173   3.079   3.184
   67SOL    HW1 1100   0.178   3.159   3.124
   67SOL    HW2 1101   0.265   3.039   3.194
   68SOL     OW 1102   6.964   1.201   5.762
   68SOL    HW1 1103   6.957   1.299   5.781
   68SOL    HW2 1104   6.959   1.185   5.663
   69SOL     OW 1105   1.853   0.926   5.893
   69SOL    HW1 1106   1.946   0.960   5.883
   69SOL    HW2 1107   1.793   1.001   5.923
   70SOL     OW 1108   4.891   5.105   2.886
   70SOL    HW1 1109   4.950   5.040   2.934
   70SOL    HW2 1110   4.947   5.178   2.847
   71SOL     OW 1111   5.322   1.286   5.409
   71SOL    HW1 1112   5.243   1.244   5.454
   71SOL    HW2 1113   5.319   1.385   5.421
   72SOL     OW 1114   6.745   1.923   2.606
   72SOL    HW1 1115   6.805   1.967   2.672
   72SOL    HW2 1116   6.699   1.994   2.551
   73SOL     OW 1117   2.513   1.126   0.556
   73SOL    HW1 1118   2.520   1.134   0.456
   73SOL    HW2 1119   2.583   1.182   0.599
   74SOL     OW 1120   2.956   0.750   0.239
   74SOL    HW1 1121   2.984   0.835   0.195
   74SOL    HW2 1122   2.889   0.770   0.311
   75SOL     OW 1123   2.925   3.477   1.278
   75SOL    HW1 1124   2.844   3.481   1.219
   75SOL    HW2 1125   2.905   3.526   1.364
   76SOL     OW 1126   3.423   5.205   6.337
   76SOL    HW1 1127   3.334   5.206   6.382
   76SOL    HW2 1128   3.418   5.258   6.252
   77SOL     OW 1129   0.426   4.517   5.361
   77SOL    HW1 1130   0.345   4.543   5.309
   77SOL    HW2 1131   0.435   4.418   5.363
   78SOL     OW 1132   4.751   1.298   0.830
   78SOL    HW1 1133   4.812   1.376   0.816
   78SOL    HW2 1134   4.804   1.220   0.863
   79SOL     OW 1135   1.948   5.027   4.283
   79SOL    HW1 1136   2.038   5.022   4.241
   79SOL    HW2 1137   1.953   4.994   4.377
   80SOL     OW 1138   4.439   1.824   5.163
   80SOL    HW1 1139   4.483   1.734   5.164
   80SOL    HW2 1140   4.420   1.851   5.069
   81SOL     OW 1141   2.125   4.897   2.869
   81SOL    HW1 1142   2.039   4.854   2.897
   81SOL    HW2 1143   2.129   4.990   2.906
   82SOL     OW 1144   2.684   0.259   1.024
   82SOL    HW1 1145   2.674   0.256   0.925
   82SOL    HW2 1146   2.662   0.169   1.063
   83SOL     OW 1147   5.987   2.034   3.770
   83SOL    HW1 1148   5.973   2.115   3.827
   83SOL    HW2 1149   5.972   2.058   3.674
   84SOL     OW 1150   5.309   2.011   2.873
   84SOL    HW1 1151   5.245   2.084   2.895
   84SOL    HW2 1152   5.400   2.035   2.906
   85SOL     OW 1153   2.292   5.233   2.774
   85SOL    HW1 1154   2.233   5.220   2.854
   85SOL    HW2 1155   2.374   5.177   2.785
   86SOL     OW 1156   4.627   1.175   5.521
   86SOL    HW1 1157   4.548   1.198   5.464
   86SOL    HW2 1158   4.634   1.076   5.529
   87SOL     OW 1159   3.151   2.387   6.912
   87SOL    HW1 1160   3.141   2.390   6.813
   87SOL    HW2 1161   3.104   2.306   6.948
   88SOL     OW 1162   1.507   1.938   0.056
   88SOL    HW1 1163   1.579   1.947   0.125
   88SOL    HW2 1164   1.450   2.020   0.056
   89SOL     OW 1165   3.984   3.994   5.794
   89SOL    HW1 1166   3.921   4.018   5.868
   89SOL    HW2 1167   3.986   4.068   5.727
   90SOL     OW 1168   0.077   4.018   2.129
   90SOL    HW1 1169   0.027   3.937   2.097
   90SOL    HW2 1170   0.095   4.010   2.227
   91SOL     OW 1171   5.296   4.777   0.853
   91SOL    HW1 1172   5.327   4.872   0.849
   91SOL    HW2 1173   5.297   4.746   0.948
   92SOL     OW 1174   6.638   6.237   6.872
   92SOL    HW1 1175   6.734   6.250   6.897
   92SOL    HW2 1176   6.633   6.181   6.789
   93SOL     OW 1177   2.882   3.341   2.396
   93SOL    HW1 1178   2.944   3.417   2.412
   93SOL    HW2 1179   2.788   3.374   2.395
   94SOL     OW 1180   3.698   1.073   4.434
   94SOL    HW1 1181   3.789   1.033   4.425
   94SOL    HW2 1182   3.650   1.032   4.511
   95SOL     OW 1183   0.629   6.787   3.889
   95SOL    HW1 1184   0.577   6.813   3.808
   95SOL    HW2 1185   0.701   6.854   3.905
   96SOL     OW 1186   0.697   6.782   0.698
   96SOL    HW1 1187   0.771   6.748   0.756
   96SOL    HW2 1188   0.609   6.757   0.739
   97SOL     OW 1189   3.966   4.965   4.746
   97SOL    HW1 1190   3.869   4.944   4.764
   97SOL    HW2 1191   4.019   4.950   4.829
   98SOL     OW 1192   6.664   1.920   5.105
   98SOL    HW1 1193   6.675   1.851   5.177
   98SOL    HW2 1194   6.698   2.008   5.138
   99SOL     OW 1195   5.271   4.617   5.075
   99SOL    HW1 1196   5.283   4.715   5.095
   99SOL    HW2 1197   5.339   4.565   5.126
  100SOL     OW 1198   1.876   1.864   5.320
  100SOL    HW1 1199   1.802   1.921   5.284
  100SOL    HW2 1200   1.964   1.899   5.286
  101SOL     OW 1201   5.290   2.641   2.444
  101SOL    HW1 1202   5.235   2.641   2.361
  101SOL    HW2 1203   5.351   2.721   2.444
  102SOL     OW 1204   4.952   6.849   0.672
  102SOL    HW1 1205   5.021   6.796   0.721
  102SOL    HW2 1206   4.937   6.936   0.719
  103SOL     OW 1207   2.406   2.227   1.290
  103SOL    HW1 1208   2.500   2.257   1.304
  103SOL    HW2 1209   2.345   2.306   1.289
  104SOL     OW 1210   0.967   3.893   1.979
  104SOL    HW1 1211   0.890   3.904   2.041
  104SOL    HW2 1212   0.946   3.937   1.891
  105SOL     OW 1213   0.474   1.742   4.575
  105SOL    HW1 1214   0.432   1.653   4.559
  105SOL    HW2 1215   0.405   1.814   4.563
  106SOL     OW 1216   5.525   3.140   1.144
  106SOL    HW1 1217   5.479   3.138   1.055
  106SOL    HW2 1218   5.619   3.108   1.133
  107SOL     OW 1219   4.846   0.369   2.376
  107SOL    HW1 1220   4.748   0.367   2.397
  107SOL    HW2 1221   4.868   0.455   2.329
  108SOL     OW 1222   4.036   1.221   4.695
  108SOL    HW1 1223   4.077   1.130   4.691
  108SOL    HW2 1224   4.014   1.244   4.790
  109SOL     OW 1225   2.227   1.618   4.660
  109SOL    HW1 1226   2.185   1.535   4.622
  109SOL    HW2 1227   2.165   1.695   4.648
  110SOL     OW 1228   4.346   4.929   5.319
  110SOL    HW1 1229   4.355   4.842   5.271
  110SOL    HW2 1230   4.415   4.993   5.285
  111SOL     OW 1231   6.804   3.394   0.516
  111SOL    HW1 1232   6.863   3.363   0.441
  111SOL    HW2 1233   6.860   3.442   0.584
  112SOL     OW 1234   3.322   6.408   5.030
  112SOL    HW1 1235   3.346   6.311   5.032
  112SOL    HW2 1236   3.340   6.448   5.119
  113SOL     OW 1237   1.427   4.737   2.261
  113SOL    HW1 1238   1.339   4.753   2.305
  113SOL    HW2 1239   1.414   4.682   2.178
  114SOL     OW 1240   6.834   1.741   1.800
  114SOL    HW1 1241   6.818   1.665   1.737
  114SOL    HW2 1242   6.764   1.811   1.786
  115SOL     OW 1243   4.572   0.291   3.560
  115SOL    HW1 1244   4.489   0.348   3.556
  115SOL    HW2 1245   4.546   0.195   3.570
  116SOL     OW 1246   6.102   5.733   6.570
  116SOL    HW1 1247   6.029   5.793   6.535
  116SOL    HW2 1248   6.067   5.640   6.581
  117SOL     OW 1249   2.043   1.712   0.250
  117SOL    HW1 1250   2.026   1.616   0.276
  117SOL    HW2 1251   2.035   1.721   0.151
  118SOL     OW 1252   1.195   2.667   1.524
  118SOL    HW1 1253   1.284   2.620   1.528
  118SOL    HW2 1254   1.141   2.643   1.604
  119SOL     OW 1255   5.113   5.204   4.082
  119SOL    HW1 1256   5.027   5.181   4.128
  119SOL    HW2 1257   5.186   5.146   4.117
  120SOL     OW 1258   5.015   1.224   4.021
  120SOL    HW1 1259   4.934   1.269   4.060
  120SOL    HW2 1260   4.989   1.170   3.941
  121SOL     OW 1261   6.797   5.043   5.717
  121SOL    HW1 1262   6.867   4.996   5.771
  121SOL    HW2 1263   6.756   4.980   5.652
  122SOL     OW 1264   0.439   5.650   5.605
  122SOL    HW1 1265   0.475   5.707   5.531
  122SOL    HW2 1266   0.401   5.566   5.567
  123SOL     OW 1267   0.794   1.911   1.029
  123SOL    HW1 1268   0.834   1.956   0.949
  123SOL    HW2 1269   0.726   1.844   0.999
  124SOL     OW 1270   1.631   3.423   6.769
  124SOL    HW1 1271   1.590   3.333   6.757
  124SOL    HW2 1272   1.600   3.463   6.855
  125SOL     OW 1273   4.138   3.569   1.999
  125SOL    HW1 1274   4.228   3.569   1.955
  125SOL    HW2 1275   4.069   3.600   1.933
  126SOL     OW 1276   3.838   3.403   5.235
  126SOL    HW1 1277   3.774   3.344   5.286
  126SOL    HW2 1278   3.871   3.475   5.295
  127SOL     OW 1279   0.233   4.370   6.275
  127SOL    HW1 1280   0.317   4.382   6.221
  127SOL    HW2 1281   0.256   4.327   6.363
  128SOL     OW 1282   4.738   4.187   6.602
  128SOL    HW1 1283   4.766   4.189   6.506
  128SOL    HW2 1284   4.664   4.121   6.614
  129SOL     OW 1285   0.864   5.222   2.605
  129SOL    HW1 1286   0.799   5.241   2.531
  129SOL    HW2 1287   0.943   5.174   2.567
  130SOL     OW 1288   6.414   3.974   4.979
  130SOL    HW1 1289   6.432   3.877   4.991
  130SOL    HW2 1290   6.364   3.988   4.893
  131SOL     OW 1291   0.304   2.932   1.701
  131SOL    HW1 1292   0.340   2.926   1.607
  131SOL    HW2 1293   0.379   2.951   1.764
  132SOL     OW 1294   3.587   3.607   1.810
  132SOL    HW1 1295   3.615   3.691   1.856
  132SOL    HW2 1296   3.560   3.539   1.878
  133SOL     OW 1297   4.310   4.643   5.926
  133SOL    HW1 1298   4.302   4.550   5.890
  133SOL    HW2 1299   4.296   4.709   5.852
  134SOL     OW 1300   0.487   1.941   6.910
  134SOL    HW1 1301   0.396   1.981   6.898
  134SOL    HW2 1302   0.534   1.939   6.822
  135SOL     OW 1303   4.448   4.956   3.978
  135SOL    HW1 1304   4.478   4.913   4.064
  135SOL    HW2 1305   4.365   4.909   3.945
  136SOL     OW 1306   3.376   6.382   6.623
  136SOL    HW1 1307   3.309   6.419   6.688
  136SOL    HW2 1308   3.442   6.326   6.673
  137SOL     OW 1309   1.963   4.065   6.980
  137SOL    HW1 1310   2.020   4.071   0.042
  137SOL    HW2 1311   1.922   3.974   6.974
  138SOL     OW 1312   0.059   6.564   1.672
  138SOL    HW1 1313   0.132   6.497   1.663
  138SOL    HW2 1314   6.992   6.517   1.689
  139SOL     OW 1315   1.198   0.000   1.006
  139SOL    HW1 1316   1.169   6.978   0.920
  139SOL    HW2 1317   1.283   6.978   1.037
  140SOL     OW 1318   2.715   0.303   3.363
  140SOL    HW1 1319   2.646   0.278   3.296
  140SOL    HW2 1320   2.805   0.271   3.332
  141SOL     OW 1321   2.259   2.437   0.605
  141SOL    HW1 1322   2.302   2.506   0.546
  141SOL    HW2 1323   2.163   2.427   0.579
  142SOL     OW 1324   1.647   4.378   6.230
  142SOL    HW1 1325   1.550   4.359   6.243
  142SOL    HW2 1326   1.697   4.356   6.314
  143SOL     OW 1327   4.516   6.128   2.277
  143SOL    HW1 1328   4.549   6.219   2.253
  143SOL    HW2 1329   4.551   6.103   2.368
  144SOL     OW 1330   2.544   4.836   3.147
  144SOL    HW1 1331   2.609   4.817   3.074
  144SOL    HW2 1332   2.593   4.871   3.227
  145SOL     OW 1333   5.973   6.450   2.375
  145SOL    HW1 1334   5.881   6.472   2.407
  145SOL    HW2 1335   5.967   6.385   2.300
  146SOL     OW 1336   6.282   1.401   4.366
  146SOL    HW1 1337   6.298   1.426   4.271
  146SOL    HW2 1338   6.198   1.346   4.372
  147SOL     OW 1339   5.772   6.526   5.667
  147SOL    HW1 1340   5.744   6.598   5.732
  147SOL    HW2 1341   5.821   6.454   5.717
  148SOL     OW 1342   1.912   0.477   3.979
  148SOL    HW1 1343   1.869   0.529   3.906
  148SOL    HW2 1344   1.981   0.415   3.941
  149SOL     OW 1345   2.072   2.008   5.159
  149SOL    HW1 1346   2.115   2.073   5.222
  149SOL    HW2 1347   2.104   2.026   5.066
  150SOL     OW 1348   5.189   3.443   4.340
  150SOL    HW1 1349   5.122   3.453   4.266
  150SOL    HW2 1350   5.158   3.495   4.420
  151SOL     OW 1351   6.430   2.527   1.953
  151SOL    HW1 1352   6.438   2.624   1.975
  151SOL    HW2 1353   6.493   2.504   1.879
  152SOL     OW 1354   6.319   1.366   0.318
  152SOL    HW1 1355   6.292   1.439   0.380
  152SOL    HW2 1356   6.295   1.390   0.224
  153SOL     OW 1357   1.520   1.902   3.646
  153SOL    HW1 1358   1.423   1.878   3.636
  153SOL    HW2 1359   1.574   1.856   3.576
  154SOL     OW 1360   0.106   2.359   3.439
  154SOL    HW1 1361   0.039   2.293   3.405
  154SOL    HW2 1362   0.176   2.311   3.491
  155SOL     OW 1363   5.902   5.323   3.407
  155SOL    HW1 1364   5.802   5.326   3.399
  155SOL    HW2 1365   5.929   5.235   3.447
  156SOL     OW 1366   4.122   7.017   1.146
  156SOL    HW1 1367   4.029   0.026   1.168
  156SOL    HW2 1368   4.120   6.924   1.107
  157SOL     OW 1369   5.812   1.535   0.555
  157SOL    HW1 1370   5.864   1.583   0.484
  157SOL    HW2 1371   5.766   1.455   0.515
  158SOL     OW 1372   1.110   2.637   5.775
  158SOL    HW1 1373   1.129   2.583   5.857
  158SOL    HW2 1374   1.084   2.730   5.801
  159SOL     OW 1375   0.475   4.898   6.570
  159SOL    HW1 1376   0.488   4.813   6.519
  159SOL    HW2 1377   0.407   4.955   6.523
  160SOL     OW 1378   4.303   6.943   1.923
  160SOL    HW1 1379   4.319   0.022   1.918
  160SOL    HW2 1380   4.217   6.925   1.971
  161SOL     OW 1381   5.413   6.341   1.415
  161SOL    HW1 1382   5.450   6.425   1.376
  161SOL    HW2 1383   5.398   6.274   1.342
  162SOL     OW 1384   4.124   6.913   5.259
  162SOL    HW1 1385   4.186   6.883   5.186
  162SOL    HW2 1386   4.110   7.011   5.252
  163SOL     OW 1387   1.796   4.158   3.110
  163SOL    HW1 1388   1.840   4.181   3.023
  163SOL    HW2 1389   1.760   4.064   3.106
  164SOL     OW 1390   1.879   3.114   2.473
  164SOL    HW1 1391   1.823   3.045   2.517
  164SOL    HW2 1392   1.956   3.137   2.532
  165SOL     OW 1393   0.397   6.084   5.123
  165SOL    HW1 1394   0.356   6.008   5.073
  165SOL    HW2 1395   0.331   6.120   5.189
  166SOL     OW 1396   0.362   5.712   3.987
  166SOL    HW1 1397   0.365   5.661   3.901
  166SOL    HW2 1398   0.430   5.786   3.985
  167SOL     OW 1399   0.080   1.402   3.271
  167SOL    HW1 1400   0.044   1.371   3.183
  167SOL    HW2 1401   0.154   1.342   3.301
  168SOL     OW 1402   3.423   4.178   4.550
  168SOL    HW1 1403   3.361   4.240   4.502
  168SOL    HW2 1404   3.416   4.087   4.509
  169SOL     OW 1405   4.626   2.970   5.990
  169SOL    HW1 1406   4.606   2.937   5.898
  169SOL    HW2 1407   4.695   2.912   6.032
  170SOL     OW 1408   5.639   5.357   2.670
  170SOL    HW1 1409   5.723   5.348   2.724
  170SOL    HW2 1410   5.657   5.328   2.576
  171SOL     OW 1411   3.908   2.946   1.041
  171SOL    HW1 1412   3.942   2.852   1.052
  171SOL    HW2 1413   3.810   2.943   1.019
  172SOL     OW 1414   2.050   0.424   0.120
  172SOL    HW1 1415   1.954   0.420   0.148
  172SOL    HW2 1416   2.057   0.477   0.035
  173SOL     OW 1417   5.494   0.831   5.118
  173SOL    HW1 1418   5.428   0.906   5.115
  173SOL    HW2 1419   5.498   0.793   5.210
  174SOL     OW 1420   6.204   5.370   3.674
  174SOL    HW1 1421   6.303   5.359   3.666
  174SOL    HW2 1422   6.179   5.463   3.648
  175SOL     OW 1423   0.476   5.342   2.225
  175SOL    HW1 1424   0.390   5.319   2.178
  175SOL    HW2 1425   0.472   5.436   2.258
  176SOL     OW 1426   5.931   3.697   1.097
  176SOL    HW1 1427   5.927   3.768   1.027
  176SOL    HW2 1428   5.967   3.613   1.057
  177SOL     OW 1429   5.556   2.208   3.649
  177SOL    HW1 1430   5.644   2.253   3.663
  177SOL    HW2 1431   5.482   2.274   3.657
  178SOL     OW 1432   1.031   5.544   4.597
  178SOL    HW1 1433   0.970   5.570   4.522
  178SOL    HW2 1434   1.102   5.483   4.562
  179SOL     OW 1435   3.167   4.060   1.907
  179SOL    HW1 1436   3.153   4.064   2.006
  179SOL    HW2 1437   3.130   4.142   1.865
  180SOL     OW 1438   5.262   0.408   5.561
  180SOL    HW1 1439   5.245   0.490   5.616
  180SOL    HW2 1440   5.215   0.330   5.603
  181SOL     OW 1441   3.243   5.808   5.510
  181SOL    HW1 1442   3.214   5.898   5.543
  181SOL    HW2 1443   3.162   5.754   5.487
  182SOL     OW 1444   3.245   2.636   5.330
  182SOL    HW1 1445   3.284   2.703   5.268
  182SOL    HW2 1446   3.234   2.548   5.283
  183SOL     OW 1447   1.899   0.492   2.703
  183SOL    HW1 1448   1.915   0.549   2.784
  183SOL    HW2 1449   1.953   0.527   2.626
  184SOL     OW 1450   5.492   6.217   3.738
  184SOL    HW1 1451   5.423   6.243   3.670
  184SOL    HW2 1452   5.549   6.295   3.759
  185SOL     OW 1453   0.685   5.889   5.096
  185SOL    HW1 1454   0.654   5.930   5.181
  185SOL    HW2 1455   0.747   5.952   5.049
  186SOL     OW 1456   3.369   4.713   0.617
  186SOL    HW1 1457   3.394   4.805   0.585
  186SOL    HW2 1458   3.419   4.645   0.564
  187SOL     OW 1459   4.045   5.429   0.603
  187SOL    HW1 1460   4.134   5.451   0.643
  187SOL    HW2 1461   4.054   5.423   0.503
  188SOL     OW 1462   1.304   4.228   3.560
  188SOL    HW1 1463   1.298   4.134   3.526
  188SOL    HW2 1464   1.395   4.265   3.540
  189SOL     OW 1465   6.729   3.546   5.866
  189SOL    HW1 1466   6.756   3.634   5.906
  189SOL    HW2 1467   6.665   3.499   5.927
  190SOL     OW 1468   6.272   6.062   0.229
  190SOL    HW1 1469   6.359   6.090   0.270
  190SOL    HW2 1470   6.216   6.142   0.210
  191SOL     OW 1471   1.967   3.703   6.335
  191SOL    HW1 1472   1.978   3.798   6.363
  191SOL    HW2 1473   1.991   3.642   6.411
  192SOL     OW 1474   1.061   6.354   0.220
  192SOL    HW1 1475   1.111   6.357   0.134
  192SOL    HW2 1476   0.968   6.321   0.204
  193SOL     OW 1477   2.666   0.027   1.748
  193SOL    HW1 1478   2.662   0.101   1.680
  193SOL    HW2 1479   2.599   0.044   1.820
  194SOL     OW 1480   4.414   6.488   3.453
  194SOL    HW1 1481   4.351   6.411   3.461
  194SOL    HW2 1482   4.454   6.507   3.543
  195SOL     OW 1483   3.541   0.784   0.981
  195SOL    HW1 1484   3.580   0.714   1.041
  195SOL    HW2 1485   3.444   0.796   1.003
  196SOL     OW 1486   3.809   3.235   1.534
  196SOL    HW1 1487   3.735   3.263   1.594
  196SOL    HW2 1488   3.775   3.165   1.471
  197SOL     OW 1489   0.872   6.841   1.298
  197SOL    HW1 1490   0.971   6.829   1.306
  197SOL    HW2 1491   0.851   6.887   1.211
  198SOL     OW 1492   6.210   0.632   5.257
  198SOL    HW1 1493   6.289   0.574   5.235
  198SOL    HW2 1494   6.237   0.728   5.250
  199SOL     OW 1495   1.323   0.516   2.971
  199SOL    HW1 1496   1.368   0.473   2.893
  199SOL    HW2 1497   1.376   0.596   3.000
  200SOL     OW 1498   1.756   3.385   3.185
  200SOL    HW1 1499   1.812   3.302   3.186
  200SOL    HW2 1500   1.766   3.432   3.273
  201SOL     OW 1501   5.441   1.091   6.676
  201SOL    HW1 1502   5.520   1.032   6.663
  201SOL    HW2 1503   5.457   1.179   6.632
  202SOL     OW 1504   3.848   0.721   2.565
  202SOL    HW1 1505   3.800   0.809   2.570
  202SOL    HW2 1506   3.819   0.663   2.641
  203SOL     OW 1507   6.064   2.729   1.481
  203SOL    HW1 1508   6.139   2.674   1.517
  203SOL    HW2 1509   5.982   2.672   1.472
  204SOL     OW 1510   2.661   6.054   0.759
  204SOL    HW1 1511   2.720   6.103   0.694
  204SOL    HW2 1512   2.576   6.028   0.714
  205SOL     OW 1513   4.851   0.787   0.344
  205SOL    HW1 1514   4.893   0.862   0.294
  205SOL    HW2 1515   4.753   0.784   0.324
  206SOL     OW 1516   0.096   5.562   2.020
  206SOL    HW1 1517   0.087   5.661   2.013
  206SOL    HW2 1518   0.006   5.521   2.039
  207SOL     OW 1519   6.418   2.745   6.034
  207SOL    HW1 1520   6.491   2.676   6.038
  207SOL    HW2 1521   6.343   2.718   6.094
  208SOL     OW 1522   5.011   3.077   1.339
  208SOL    HW1 1523   5.035   3.004   1.402
  208SOL    HW2 1524   4.959   3.148   1.387
  209SOL     OW 1525   6.483   0.711   4.100
  209SOL    HW1 1526   6.565   0.695   4.044
  209SOL    HW2 1527   6.410   0.749   4.042
  210SOL     OW 1528   5.444   3.144   6.602
  210SOL    HW1 1529   5.506   3.072   6.571
  210SOL    HW2 1530   5.497   3.224   6.629
  211SOL     OW 1531   6.917   5.053   2.473
  211SOL    HW1 1532   6.907   4.966   2.520
  211SOL    HW2 1533   6.979   5.112   2.524
  212SOL     OW 1534   0.788   5.302   5.528
  212SOL    HW1 1535   0.815   5.214   5.566
  212SOL    HW2 1536   0.794   5.373   5.599
  213SOL     OW 1537   4.589   2.476   1.419
  213SOL    HW1 1538   4.571   2.574   1.430
  213SOL    HW2 1539   4.677   2.454   1.462
  214SOL     OW 1540   6.858   5.835   3.920
  214SOL    HW1 1541   6.799   5.916   3.916
  214SOL    HW2 1542   6.870   5.798   3.828
  215SOL     OW 1543   3.626   2.976   3.117
  215SOL    HW1 1544   3.574   2.955   3.034
  215SOL    HW2 1545   3.636   3.075   3.127
  216SOL     OW 1546   3.816   6.695   4.782
  216SOL    HW1 1547   3.811   6.695   4.682
  216SOL    HW2 1548   3.892   6.752   4.812
  217SOL     OW 1549   6.273   1.971   4.747
  217SOL    HW1 1550   6.211   2.041   4.781
  217SOL    HW2 1551   6.294   1.907   4.821
  218SOL     OW 1552   2.486   5.031   5.388
  218SOL    HW1 1553   2.558   4.974   5.347
  218SOL    HW2 1554   2.446   5.090   5.317
  219SOL     OW 1555   3.211   6.698   6.834
  219SOL    HW1 1556   3.189   6.620   6.893
  219SOL    HW2 1557   3.304   6.687   6.798
  220SOL     OW 1558   1.306   4.692   0.136
  220SOL    HW1 1559   1.388   4.635   0.138
  220SOL    HW2 1560   1.251   4.673   0.218
  221SOL     OW 1561   6.372   4.561   4.579
  221SOL    HW1 1562   6.444   4.620   4.543
  221SOL    HW2 1563   6.299   4.618   4.618
  222SOL     OW 1564   0.830   0.263   4.549
  222SOL    HW1 1565   0.809   0.358   4.574
  222SOL    HW2 1566   0.925   0.257   4.519
  223SOL     OW 1567   5.995   5.848   1.593
  223SOL    HW1 1568   5.925   5.909   1.557
  223SOL    HW2 1569   6.077   5.900   1.615
  224SOL     OW 1570   5.694   4.261   2.337
  224SOL    HW1 1571   5.700   4.165   2.312
  224SOL    HW2 1572   5.609   4.300   2.299
  225SOL     OW 1573   4.430   6.234   0.977
  225SOL    HW1 1574   4.369   6.157   0.994
  225SOL    HW2 1575   4.451   6.280   1.064
  226SOL     OW 1576   1.189   5.199   2.978
  226SOL    HW1 1577   1.251   5.238   3.046
  226SOL    HW2 1578   1.138   5.123   3.018
  227SOL     OW 1579   1.141   3.790   3.182
  227SOL    HW1 1580   1.069   3.840   3.230
  227SOL    HW2 1581   1.148   3.697   3.218
  228SOL     OW 1582   3.434   5.513   3.487
  228SOL    HW1 1583   3.379   5.558   3.417
  228SOL    HW2 1584   3.482   5.435   3.447
  229SOL     OW 1585   5.642   6.568   2.066
  229SOL    HW1 1586   5.656   6.625   1.985
  229SOL    HW2 1587   5.583   6.616   2.131
  230SOL     OW 1588   1.077   4.603   4.780
  230SOL    HW1 1589   1.090   4.510   4.817
  230SOL    HW2 1590   1.070   4.598   4.681
  231SOL     OW 1591   0.099   2.215   6.968
  231SOL    HW1 1592   0.148   2.151   6.909
  231SOL    HW2 1593   0.065   2.292   6.914
  232SOL     OW 1594   2.033   3.302   0.300
  232SOL    HW1 1595   2.123   3.337   0.324
  232SOL    HW2 1596   2.040   3.205   0.275
  233SOL     OW 1597   3.687   0.449   0.659
  233SOL    HW1 1598   3.622   0.519   0.630
  233SOL    HW2 1599   3.696   0.379   0.589
  234SOL     OW 1600   1.620   5.182   0.717
  234SOL    HW1 1601   1.542   5.172   0.655
  234SOL    HW2 1602   1.704   5.158   0.670
  235SOL     OW 1603   4.332   3.040   5.577
  235SOL    HW1 1604   4.315   3.051   5.479
  235SOL    HW2 1605   4.430   3.047   5.595
  236SOL     OW 1606   6.826   7.009   6.686
  236SOL    HW1 1607   6.752   0.038   6.639
  236SOL    HW2 1608   6.813   7.018   6.785
  237SOL     OW 1609   6.050   0.305   2.841
  237SOL    HW1 1610   5.960   0.286   2.801
  237SOL    HW2 1611   6.103   0.362   2.778
  238SOL     OW 1612   0.220   1.778   3.509
  238SOL    HW1 1613   0.315   1.749   3.501
  238SOL    HW2 1614   0.169   1.711   3.563
  239SOL     OW 1615   6.420   4.594   6.547
  239SOL    HW1 1616   6.344   4.568   6.606
  239SOL    HW2 1617   6.504   4.602   6.601
  240SOL     OW 1618   0.086   2.718   4.220
  240SOL    HW1 1619   0.141   2.697   4.140
  240SOL    HW2 1620   0.028   2.640   4.242
  241SOL     OW 1621   6.041   2.882   4.530
  241SOL    HW1 1622   6.133   2.909   4.505
  241SOL    HW2 1623   6.021   2.792   4.491
  242SOL     OW 1624   2.098   2.450   2.998
  242SOL    HW1 1625   2.039   2.458   3.078
  242SOL    HW2 1626   2.146   2.363   3.000
  243SOL     OW 1627   5.467   1.365   6.231
  243SOL    HW1 1628   5.468   1.447   6.289
  243SOL    HW2 1629   5.560   1.347   6.197
  244SOL     OW 1630   1.780   0.721   5.688
  244SOL    HW1 1631   1.722   0.740   5.609
  244SOL    HW2 1632   1.774   0.797   5.753
  245SOL     OW 1633   5.144   1.915   4.696
  245SOL    HW1 1634   5.177   1.842   4.635
  245SOL    HW2 1635   5.044   1.913   4.698
  246SOL     OW 1636   5.146   3.992   4.527
  246SOL    HW1 1637   5.055   4.008   4.488
  246SOL    HW2 1638   5.137   3.969   4.624
  247SOL     OW 1639   1.645   0.453   2.646
  247SOL    HW1 1640   1.608   0.501   2.726
  247SOL    HW2 1641   1.744   0.460   2.646
  248SOL     OW 1642   6.562   2.849   3.070
  248SOL    HW1 1643   6.658   2.834   3.044
  248SOL    HW2 1644   6.527   2.928   3.019
  249SOL     OW 1645   1.868   6.323   4.651
  249SOL    HW1 1646   1.813   6.404   4.669
  249SOL    HW2 1647   1.907   6.289   4.737
  250SOL     OW 1648   6.051   2.374   0.296
  250SOL    HW1 1649   5.955   2.375   0.266
  250SOL    HW2 1650   6.058   2.327   0.384
  251SOL     OW 1651   2.186   6.844   2.980
  251SOL    HW1 1652   2.204   6.845   2.882
  251SOL    HW2 1653   2.268   6.815   3.029
  252SOL     OW 1654   6.673   3.143   6.995
  252SOL    HW1 1655   6.605   3.075   6.968
  252SOL    HW2 1656   6.661   3.226   6.941
  253SOL     OW 1657   1.903   4.779   5.657
  253SOL    HW1 1658   1.828   4.828   5.612
  253SOL    HW2 1659   1.991   4.814   5.624
  254SOL     OW 1660   5.048   3.411   6.829
  254SOL    HW1 1661   4.995   3.462   6.896
  254SOL    HW2 1662   4.987   3.365   6.765
  255SOL     OW 1663   4.263   2.156   1.731
  255SOL    HW1 1664   4.174   2.115   1.752
  255SOL    HW2 1665   4.260   2.253   1.755
  256SOL     OW 1666   0.549   6.504   0.959
  256SOL    HW1 1667   0.599   6.509   1.046
  256SOL    HW2 1668   0.584   6.427   0.906
  257SOL     OW 1669   2.721   6.074   6.620
  257SOL    HW1 1670   2.658   6.141   6.581
  257SOL    HW2 1671   2.678   6.030   6.699
  258SOL     OW 1672   4.729   5.067   4.074
  258SOL    HW1 1673   4.804   5.084   4.139
  258SOL    HW2 1674   4.670   4.995   4.110
  259SOL     OW 1675   6.858   1.335   2.142
  259SOL    HW1 1676   6.929   1.295   2.085
  259SOL    HW2 1677   6.900   1.374   2.225
  260SOL     OW 1678   6.244   6.764   6.024
  260SOL    HW1 1679   6.174   6.796   6.088
  260SOL    HW2 1680   6.260   6.834   5.954
  261SOL     OW 1681   6.974   1.165   3.099
  261SOL    HW1 1682   6.943   1.161   3.194
  261SOL    HW2 1683   0.000   1.080   3.075
  262SOL     OW 1684   1.754   5.415   0.743
  262SOL    HW1 1685   1.684   5.348   0.718
  262SOL    HW2 1686   1.812   5.377   0.816
  263SOL     OW 1687   1.005   4.778   5.102
  263SOL    HW1 1688   0.998   4.860   5.045
  263SOL    HW2 1689   0.978   4.800   5.196
  264SOL     OW 1690   4.372   4.358   0.574
  264SOL    HW1 1691   4.279   4.328   0.551
  264SOL    HW2 1692   4.398   4.321   0.663
  265SOL     OW 1693   3.703   5.719   4.415
  265SOL    HW1 1694   3.706   5.787   4.343
  265SOL    HW2 1695   3.738   5.632   4.380
  266SOL     OW 1696   4.749   3.392   6.979
  266SOL    HW1 1697   4.733   3.444   0.044
  266SOL    HW2 1698   4.682   3.419   6.910
  267SOL     OW 1699   3.004   2.113   6.146
  267SOL    HW1 1700   2.905   2.102   6.135
  267SOL    HW2 1701   3.027   2.211   6.146
  268SOL     OW 1702   1.610   4.358   2.791
  268SOL    HW1 1703   1.673   4.316   2.726
  268SOL    HW2 1704   1.539   4.409   2.742
  269SOL     OW 1705   2.636   1.383   5.388
  269SOL    HW1 1706   2.571   1.405   5.316
  269SOL    HW2 1707   2.729   1.398   5.354
  270SOL     OW 1708   5.605   5.483   4.839
  270SOL    HW1 1709   5.530   5.537   4.876
  270SOL    HW2 1710   5.585   5.459   4.744
  271SOL     OW 1711   2.838   0.506   6.984
  271SOL    HW1 1712   2.875   0.508   0.057
  271SOL    HW2 1713   2.882   0.577   6.929
  272SOL     OW 1714   5.907   4.041   6.766
  272SOL    HW1 1715   5.993   4.087   6.744
  272SOL    HW2 1716   5.832   4.086   6.717
  273SOL     OW 1717   0.243   5.829   4.189
  273SOL    HW1 1718   0.231   5.921   4.153
  273SOL    HW2 1719   0.271   5.768   4.115
  274SOL     OW 1720   5.228   2.924   2.576
  274SOL    HW1 1721   5.233   2.894   2.671
  274SOL    HW2 1722   5.311   2.896   2.528
  275SOL     OW 1723   5.844   5.069   5.741
  275SOL    HW1 1724   5.768   5.105   5.686
  275SOL    HW2 1725   5.808   5.006   5.810
  276SOL     OW 1726   0.383   0.205   4.623
  276SOL    HW1 1727   0.343   0.122   4.663
  276SOL    HW2 1728   0.477   0.215   4.654
  277SOL     OW 1729   4.095   3.530   5.775
  277SOL    HW1 1730   4.073   3.608   5.716
  277SOL    HW2 1731   4.080   3.445   5.725
  278SOL     OW 1732   5.990   5.205   1.865
  278SOL    HW1 1733   6.082   5.195   1.905
  278SOL    HW2 1734   5.927   5.144   1.912
  279SOL     OW 1735   6.524   3.353   3.936
  279SOL    HW1 1736   6.501   3.269   3.985
  279SOL    HW2 1737   6.623   3.368   3.939
  280SOL     OW 1738   4.343   1.257   2.118
  280SOL    HW1 1739   4.292   1.284   2.036
  280SOL    HW2 1740   4.282   1.255   2.197
  281SOL     OW 1741   5.358   5.112   6.340
  281SOL    HW1 1742   5.371   5.014   6.355
  281SOL    HW2 1743   5.353   5.158   6.429
  282SOL     OW 1744   0.873   1.751   6.941
  282SOL    HW1 1745   0.968   1.752   6.908
  282SOL    HW2 1746   0.849   1.842   6.973
  283SOL     OW 1747   6.172   3.863   2.805
  283SOL    HW1 1748   6.074   3.852   2.792
  283SOL    HW2 1749   6.213   3.774   2.823
  284SOL     OW 1750   5.813   0.063   2.710
  284SOL    HW1 1751   5.729   0.056   2.764
  284SOL    HW2 1752   5.809   0.145   2.653
  285SOL     OW 1753   5.297   5.813   6.289
  285SOL    HW1 1754   5.354   5.847   6.364
  285SOL    HW2 1755   5.331   5.724   6.258
  286SOL     OW 1756   3.483   5.671   5.415
  286SOL    HW1 1757   3.403   5.727   5.438
  286SOL    HW2 1758   3.524   5.705   5.330
  287SOL     OW 1759   4.411   6.791   0.691
  287SOL    HW1 1760   4.413   6.870   0.630
  287SOL    HW2 1761   4.505   6.760   0.708
  288SOL     OW 1762   3.638   0.841   0.283
  288SOL    HW1 1763   3.638   0.876   0.377
  288SOL    HW2 1764   3.701   0.764   0.277
  289SOL     OW 1765   6.061   5.244   5.124
  289SOL    HW1 1766   6.040   5.336   5.158
  289SOL    HW2 1767   6.015   5.229   5.037
  290SOL     OW 1768   2.838   1.041   4.668
  290SOL    HW1 1769   2.769   1.005   4.605
  290SOL    HW2 1770   2.892   0.966   4.705
  291SOL     OW 1771   5.908   1.062   5.054
  291SOL    HW1 1772   5.944   0.971   5.074
  291SOL    HW2 1773   5.919   1.082   4.957
  292SOL     OW 1774   2.501   0.886   4.255
  292SOL    HW1 1775   2.441   0.934   4.319
  292SOL    HW2 1776   2.591   0.872   4.297
  293SOL     OW 1777   5.570   0.649   2.973
  293SOL    HW1 1778   5.487   0.680   3.019
  293SOL    HW2 1779   5.649   0.664   3.033
  294SOL     OW 1780   6.824   1.028   6.273
  294SOL    HW1 1781   6.775   1.110   6.304
  294SOL    HW2 1782   6.830   1.028   6.174
  295SOL     OW 1783   0.978   0.792   5.263
  295SOL    HW1 1784   0.989   0.798   5.363
  295SOL    HW2 1785   1.040   0.856   5.219
  296SOL     OW 1786   0.077   1.496   6.927
  296SOL    HW1 1787   0.032   1.576   6.887
  296SOL    HW2 1788   0.169   1.487   6.888
  297SOL     OW 1789   5.197   4.329   3.207
  297SOL    HW1 1790   5.217   4.239   3.167
  297SOL    HW2 1791   5.099   4.343   3.210
  298SOL     OW 1792   3.920   6.237   5.249
  298SOL    HW1 1793   3.890   6.155   5.199
  298SOL    HW2 1794   3.843   6.272   5.303
  299SOL     OW 1795   6.846   1.423   6.280
  299SOL    HW1 1796   6.867   1.376   6.365
  299SOL    HW2 1797   6.913   1.396   6.210
  300SOL     OW 1798   4.287   6.814   4.383
  300SOL    HW1 1799   4.217   6.792   4.451
  300SOL    HW2 1800   4.374   6.830   4.429
  301SOL     OW 1801   6.510   6.374   5.499
  301SOL    HW1 1802   6.503   6.437   5.422
  301SOL    HW2 1803   6.588   6.313   5.486
  302SOL     OW 1804   0.874   6.125   2.589
  302SOL    HW1 1805   0.844   6.216   2.616
  302SOL    HW2 1806   0.803   6.058   2.612
  303SOL     OW 1807   4.282   5.424   2.357
  303SOL    HW1 1808   4.280   5.515   2.315
  303SOL    HW2 1809   4.342   5.365   2.303
  304SOL     OW 1810   1.315   1.457   5.366
  304SOL    HW1 1811   1.269   1.407   5.292
  304SOL    HW2 1812   1.259   1.537   5.391
  305SOL     OW 1813   3.341   1.412   0.733
  305SOL    HW1 1814   3.252   1.456   0.732
  305SOL    HW2 1815   3.389   1.437   0.818
  306SOL     OW 1816   0.454   6.495   2.508
  306SOL    HW1 1817   0.493   6.447   2.429
  306SOL    HW2 1818   0.527   6.532   2.564
  307SOL     OW 1819   3.858   3.003   4.681
  307SOL    HW1 1820   3.880   2.955   4.596
  307SOL    HW2 1821   3.926   3.074   4.697
  308SOL     OW 1822   6.618   3.040   0.256
  308SOL    HW1 1823   6.545   3.094   0.299
  308SOL    HW2 1824   6.611   3.049   0.156
  309SOL     OW 1825   1.807   5.229   0.086
  309SOL    HW1 1826   1.889   5.242   0.143
  309SOL    HW2 1827   1.770   5.319   0.062
  310SOL     OW 1828   4.506   6.029   5.424
  310SOL    HW1 1829   4.446   6.034   5.344
  310SOL    HW2 1830   4.455   6.058   5.505
  311SOL     OW 1831   1.562   6.408   1.843
  311SOL    HW1 1832   1.575   6.356   1.928
  311SOL    HW2 1833   1.636   6.386   1.779
  312SOL     OW 1834   3.568   0.369   4.588
  312SOL    HW1 1835   3.507   0.439   4.550
  312SOL    HW2 1836   3.589   0.302   4.517
  313SOL     OW 1837   2.882   3.619   3.576
  313SOL    HW1 1838   2.893   3.521   3.559
  313SOL    HW2 1839   2.802   3.654   3.527
  314SOL     OW 1840   1.957   4.628   6.327
  314SOL    HW1 1841   1.907   4.553   6.369
  314SOL    HW2 1842   2.046   4.595   6.296
  315SOL     OW 1843   5.950   0.015   4.069
  315SOL    HW1 1844   5.992   0.053   3.987
  315SOL    HW2 1845   5.872   0.072   4.096
  316SOL     OW 1846   3.831   0.951   4.839
  316SOL    HW1 1847   3.880   0.927   4.755
  316SOL    HW2 1848   3.852   0.885   4.910
  317SOL     OW 1849   0.455   1.164   1.945
  317SOL    HW1 1850   0.413   1.222   2.014
  317SOL    HW2 1851   0.511   1.093   1.990
  318SOL     OW 1852   0.962   1.628   3.883
  318SOL    HW1 1853   0.996   1.722   3.884
  318SOL    HW2 1854   0.922   1.605   3.971
  319SOL     OW 1855   0.494   1.785   1.711
  319SOL    HW1 1856   0.413   1.816   1.761
  319SOL    HW2 1857   0.472   1.779   1.614
  320SOL     OW 1858   5.010   0.862   6.547
  320SOL    HW1 1859   4.968   0.885   6.635
  320SOL    HW2 1860   5.045   0.946   6.504
  321SOL     OW 1861   4.237   3.318   0.860
  321SOL    HW1 1862   4.186   3.232   0.853
  321SOL    HW2 1863   4.297   3.327   0.780
  322SOL     OW 1864   3.151   1.762   0.474
  322SOL    HW1 1865   3.091   1.832   0.512
  322SOL    HW2 1866   3.169   1.693   0.543
  323SOL     OW 1867   0.227   4.215   1.798
  323SOL    HW1 1868   0.190   4.126   1.773
  323SOL    HW2 1869   0.322   4.205   1.827
  324SOL     OW 1870   6.881   0.669   3.679
  324SOL    HW1 1871   6.917   0.748   3.629
  324SOL    HW2 1872   6.860   0.596   3.614
  325SOL     OW 1873   6.974   2.689   0.161
  325SOL    HW1 1874   6.915   2.627   0.213
  325SOL    HW2 1875   6.922   2.771   0.135
  326SOL     OW 1876   5.767   6.032   5.939
  326SOL    HW1 1877   5.687   5.994   5.986
  326SOL    HW2 1878   5.737   6.087   5.861
  327SOL     OW 1879   3.968   6.165   6.708
  327SOL    HW1 1880   3.955   6.144   6.805
  327SOL    HW2 1881   3.944   6.260   6.691
  328SOL     OW 1882   2.559   4.913   3.741
  328SOL    HW1 1883   2.550   4.845   3.668
  328SOL    HW2 1884   2.647   4.902   3.787
  329SOL     OW 1885   3.026   3.624   3.033
  329SOL    HW1 1886   3.020   3.715   2.990
  329SOL    HW2 1887   3.045   3.555   2.963
  330SOL     OW 1888   2.325   3.422   6.519
  330SOL    HW1 1889   2.343   3.327   6.494
  330SOL    HW2 1890   2.230   3.445   6.497
  331SOL     OW 1891   5.016   5.719   4.689
  331SOL    HW1 1892   5.074   5.652   4.642
  331SOL    HW2 1893   5.041   5.811   4.662
  332SOL     OW 1894   6.157   2.257   2.986
  332SOL    HW1 1895   6.183   2.162   2.971
  332SOL    HW2 1896   6.068   2.260   3.031
  333SOL     OW 1897   2.711   5.942   4.368
  333SOL    HW1 1898   2.696   5.971   4.463
  333SOL    HW2 1899   2.809   5.937   4.350
  334SOL     OW 1900   3.833   3.343   3.602
  334SOL    HW1 1901   3.834   3.359   3.701
  334SOL    HW2 1902   3.888   3.263   3.580
  335SOL     OW 1903   4.752   1.226   6.847
  335SOL    HW1 1904   4.715   1.199   6.936
  335SOL    HW2 1905   4.678   1.263   6.791
  336SOL     OW 1906   3.575   1.615   4.583
  336SOL    HW1 1907   3.657   1.639   4.634
  336SOL    HW2 1908   3.504   1.583   4.646
  337SOL     OW 1909   1.156   1.953   5.514
  337SOL    HW1 1910   1.202   2.033   5.553
  337SOL    HW2 1911   1.063   1.978   5.487
  338SOL     OW 1912   4.973   2.023   1.567
  338SOL    HW1 1913   4.946   1.979   1.652
  338SOL    HW2 1914   4.993   1.953   1.498
  339SOL     OW 1915   3.340   4.968   5.999
  339SOL    HW1 1916   3.314   4.908   5.923
  339SOL    HW2 1917   3.257   5.003   6.043
  340SOL     OW 1918   5.445   4.779   4.695
  340SOL    HW1 1919   5.427   4.875   4.716
  340SOL    HW2 1920   5.523   4.746   4.748
  341SOL     OW 1921   5.787   0.602   1.469
  341SOL    HW1 1922   5.721   0.672   1.497
  341SOL    HW2 1923   5.870   0.647   1.435
  342SOL     OW 1924   4.462   0.525   1.207
  342SOL    HW1 1925   4.510   0.609   1.183
  342SOL    HW2 1926   4.444   0.472   1.125
  343SOL     OW 1927   5.751   0.734   1.850
  343SOL    HW1 1928   5.721   0.752   1.944
  343SOL    HW2 1929   5.753   0.820   1.799
  344SOL     OW 1930   6.599   3.176   1.663
  344SOL    HW1 1931   6.694   3.148   1.654
  344SOL    HW2 1932   6.539   3.098   1.643
  345SOL     OW 1933   0.160   3.297   3.329
  345SOL    HW1 1934   0.067   3.333   3.336
  345SOL    HW2 1935   0.158   3.209   3.283
  346SOL     OW 1936   0.845   0.515   3.497
  346SOL    HW1 1937   0.880   0.467   3.417
  346SOL    HW2 1938   0.785   0.455   3.548
  347SOL     OW 1939   1.908   4.163   1.418
  347SOL    HW1 1940   1.842   4.107   1.467
  347SOL    HW2 1941   1.926   4.122   1.328
  348SOL     OW 1942   6.327   4.687   0.945
  348SOL    HW1 1943   6.339   4.783   0.916
  348SOL    HW2 1944   6.240   4.653   0.912
  349SOL     OW 1945   6.195   5.403   6.708
  349SOL    HW1 1946   6.150   5.331   6.655
  349SOL    HW2 1947   6.127   5.467   6.743
  350SOL     OW 1948   2.776   0.402   0.589
  350SOL    HW1 1949   2.755   0.373   0.495
  350SOL    HW2 1950   2.722   0.348   0.653
  351SOL     OW 1951   4.250   3.974   0.683
  351SOL    HW1 1952   4.280   3.976   0.778
  351SOL    HW2 1953   4.221   4.066   0.654
  352SOL     OW 1954   3.497   0.772   2.751
  352SOL    HW1 1955   3.509   0.767   2.850
  352SOL    HW2 1956   3.500   0.680   2.712
  353SOL     OW 1957   2.298   6.439   0.823
  353SOL    HW1 1958   2.268   6.532   0.801
  353SOL    HW2 1959   2.303   6.384   0.740
  354SOL     OW 1960   2.883   2.338   0.962
  354SOL    HW1 1961   2.784   2.325   0.975
  354SOL    HW2 1962   2.929   2.331   1.051
  355SOL     OW 1963   7.014   2.242   2.568
  355SOL    HW1 1964   0.060   2.249   2.644
  355SOL    HW2 1965   6.921   2.255   2.602
  356SOL     OW 1966   2.726   6.872   5.603
  356SOL    HW1 1967   2.660   6.821   5.660
  356SOL    HW2 1968   2.679   6.946   5.555
  357SOL     OW 1969   6.305   6.029   4.625
  357SOL    HW1 1970   6.244   6.080   4.565
  357SOL    HW2 1971   6.252   5.989   4.700
  358SOL     OW 1972   3.409   6.100   6.715
  358SOL    HW1 1973   3.402   6.095   6.815
  358SOL    HW2 1974   3.319   6.118   6.676
  359SOL     OW 1975   2.034   2.154   0.978
  359SOL    HW1 1976   2.018   2.094   0.900
  359SOL    HW2 1977   2.095   2.109   1.043
  360SOL     OW 1978   1.643   4.675   2.913
  360SOL    HW1 1979   1.641   4.681   2.814
  360SOL    HW2 1980   1.577   4.607   2.944
  361SOL     OW 1981   6.150   2.756   2.629
  361SOL    HW1 1982   6.107   2.820   2.565
  361SOL    HW2 1983   6.082   2.726   2.696
  362SOL     OW 1984   4.058   3.162   3.053
  362SOL    HW1 1985   4.007   3.175   3.138
  362SOL    HW2 1986   3.995   3.143   2.979
  363SOL     OW 1987   4.697   5.744   1.704
  363SOL    HW1 1988   4.605   5.711   1.684
  363SOL    HW2 1989   4.693   5.837   1.739
  364SOL     OW 1990   1.119   1.009   6.821
  364SOL    HW1 1991   1.126   0.914   6.851
  364SOL    HW2 1992   1.092   1.067   6.898
  365SOL     OW 1993   4.858   0.365   3.711
  365SOL    HW1 1994   4.855   0.444   3.773
  365SOL    HW2 1995   4.765   0.347   3.678
  366SOL     OW 1996   5.790   0.971   0.167
  366SOL    HW1 1997   5.765   1.048   0.109
  366SOL    HW2 1998   5.786   0.886   0.114
  367SOL     OW 1999   6.411   6.406   6.978
  367SOL    HW1 2000   6.488   6.388   6.915
  367SOL    HW2 2001   6.332   6.352   6.950
  368SOL     OW 2002   2.806   1.175   5.095
  368SOL    HW1 2003   2.850   1.220   5.174
  368SOL    HW2 2004   2.800   1.240   5.019
  369SOL     OW 2005   4.964   3.656   6.583
  369SOL    HW1 2006   4.872   3.673   6.548
  369SOL    HW2 2007   5.031   3.678   6.513
  370SOL     OW 2008   1.691   1.964   4.003
  370SOL    HW1 2009   1.716   1.997   3.912
  370SOL    HW2 2010   1.675   2.042   4.063
  371SOL     OW 2011   2.921   5.177   0.806
  371SOL    HW1 2012   2.978   5.153   0.885
  371SOL    HW2 2013   2.885   5.093   0.765
  372SOL     OW 2014   2.604   5.827   5.999
  372SOL    HW1 2015   2.633   5.736   6.032
  372SOL    HW2 2016   2.508   5.841   6.022
  373SOL     OW 2017   5.434   4.297   2.630
  373SOL    HW1 2018   5.495   4.218   2.637
  373SOL    HW2 2019   5.423   4.340   2.719
  374SOL     OW 2020   2.199   2.982   2.001
  374SOL    HW1 2021   2.246   2.917   2.061
  374SOL    HW2 2022   2.196   2.945   1.909
  375SOL     OW 2023   0.077   5.183   4.431
  375SOL    HW1 2024   7.010   5.231   4.442
  375SOL    HW2 2025   0.146   5.244   4.393
  376SOL     OW 2026   5.071   6.940   3.470
  376SOL    HW1 2027   5.027   0.008   3.451
  376SOL    HW2 2028   5.020   6.866   3.426
  377SOL     OW 2029   2.653   3.403   6.216
  377SOL    HW1 2030   2.589   3.350   6.160
  377SOL    HW2 2031   2.604   3.478   6.261
  378SOL     OW 2032   4.045   1.076   1.241
  378SOL    HW1 2033   4.141   1.102   1.248
  378SOL    HW2 2034   4.033   1.014   1.163
  379SOL     OW 2035   3.109   3.703   0.844
  379SOL    HW1 2036   3.111   3.630   0.913
  379SOL    HW2 2037   3.172   3.682   0.770
  380SOL     OW 2038   5.404   1.854   6.661
  380SOL    HW1 2039   5.412   1.953   6.672
  380SOL    HW2 2040   5.321   1.823   6.707
  381SOL     OW 2041   0.385   3.273   2.162
  381SOL    HW1 2042   0.296   3.273   2.207
  381SOL    HW2 2043   0.417   3.179   2.150
  382SOL     OW 2044   5.992   0.088   0.817
  382SOL    HW1 2045   5.962   0.060   0.726
  382SOL    HW2 2046   6.017   0.007   0.870
  383SOL     OW 2047   5.366   2.835   1.378
  383SOL    HW1 2048   5.447   2.822   1.436
  383SOL    HW2 2049   5.392   2.881   1.294
  384SOL     OW 2050   1.521   2.905   4.456
  384SOL    HW1 2051   1.477   2.837   4.514
  384SOL    HW2 2052   1.490   2.893   4.361
  385SOL     OW 2053   4.747   2.934   0.197
  385SOL    HW1 2054   4.783   2.996   0.127
  385SOL    HW2 2055   4.649   2.951   0.210
  386SOL     OW 2056   3.269   6.154   5.820
  386SOL    HW1 2057   3.327   6.096   5.878
  386SOL    HW2 2058   3.298   6.249   5.828
  387SOL     OW 2059   1.701   6.739   3.582
  387SOL    HW1 2060   1.766   6.679   3.536
  387SOL    HW2 2061   1.676   6.815   3.522
  388SOL     OW 2062   1.814   5.627   5.668
  388SOL    HW1 2063   1.750   5.556   5.695
  388SOL    HW2 2064   1.784   5.669   5.583
  389SOL     OW 2065   4.009   2.261   6.765
  389SOL    HW1 2066   3.913   2.283   6.744
  389SOL    HW2 2067   4.068   2.299   6.694
  390SOL     OW 2068   3.443   1.482   3.803
  390SOL    HW1 2069   3.427   1.385   3.821
  390SOL    HW2 2070   3.525   1.493   3.747
  391SOL     OW 2071   0.576   0.863   0.531
  391SOL    HW1 2072   0.615   0.859   0.438
  391SOL    HW2 2073   0.541   0.956   0.547
  392SOL     OW 2074   4.270   5.415   3.898
  392SOL    HW1 2075   4.325   5.464   3.965
  392SOL    HW2 2076   4.209   5.479   3.852
  393SOL     OW 2077   5.737   2.701   5.427
  393SOL    HW1 2078   5.757   2.666   5.519
  393SOL    HW2 2079   5.638   2.703   5.413
  394SOL     OW 2080   2.377   1.405   6.712
  394SOL    HW1 2081   2.453   1.415   6.777
  394SOL    HW2 2082   2.333   1.316   6.726
  395SOL     OW 2083   0.104   3.017   0.878
  395SOL    HW1 2084   0.178   2.967   0.922
  395SOL    HW2 2085   0.036   3.043   0.947
  396SOL     OW 2086   4.047   2.386   5.584
  396SOL    HW1 2087   4.097   2.471   5.600
  396SOL    HW2 2088   4.109   2.309   5.599
  397SOL     OW 2089   4.748   7.009   6.748
  397SOL    HW1 2090   4.652   0.010   6.729
  397SOL    HW2 2091   4.754   6.931   6.811
  398SOL     OW 2092   5.836   3.984   2.530
  398SOL    HW1 2093   5.785   3.995   2.445
  398SOL    HW2 2094   5.904   4.056   2.538
  399SOL     OW 2095   2.209   5.831   1.429
  399SOL    HW1 2096   2.268   5.785   1.362
  399SOL    HW2 2097   2.215   5.784   1.517
  400SOL     OW 2098   2.192   4.751   5.871
  400SOL    HW1 2099   2.241   4.673   5.832
  400SOL    HW2 2100   2.253   4.803   5.931
  401SOL     OW 2101   6.215   1.077   1.293
  401SOL    HW1 2102   6.240   0.994   1.343
  401SOL    HW2 2103   6.193   1.150   1.359
  402SOL     OW 2104   0.535   5.479   0.645
  402SOL    HW1 2105   0.455   5.508   0.592
  402SOL    HW2 2106   0.592   5.560   0.665
  403SOL     OW 2107   5.582   4.227   0.392
  403SOL    HW1 2108   5.606   4.139   0.353
  403SOL    HW2 2109   5.553   4.215   0.487
  404SOL     OW 2110   6.494   5.867   4.573
  404SOL    HW1 2111   6.444   5.952   4.592
  404SOL    HW2 2112   6.591   5.887   4.566
  405SOL     OW 2113   1.530   1.525   1.670
  405SOL    HW1 2114   1.508   1.578   1.588
  405SOL    HW2 2115   1.605   1.569   1.719
  406SOL     OW 2116   1.212   2.836   3.922
  406SOL    HW1 2117   1.250   2.759   3.870
  406SOL    HW2 2118   1.273   2.915   3.915
  407SOL     OW 2119   3.193   2.112   3.873
  407SOL    HW1 2120   3.265   2.136   3.937
  407SOL    HW2 2121   3.169   2.016   3.882
  408SOL     OW 2122   2.362   0.165   3.888
  408SOL    HW1 2123   2.305   0.198   3.963
  408SOL    HW2 2124   2.458   0.166   3.916
  409SOL     OW 2125   0.473   5.258   4.571
  409SOL    HW1 2126   0.398   5.264   4.637
  409SOL    HW2 2127   0.555   5.223   4.617
  410SOL     OW 2128   2.602   6.662   6.441
  410SOL    HW1 2129   2.683   6.634   6.391
  410SOL    HW2 2130   2.520   6.632   6.392
  411SOL     OW 2131   0.390   4.281   5.722
  411SOL    HW1 2132   0.333   4.302   5.643
  411SOL    HW2 2133   0.433   4.192   5.710
  412SOL     OW 2134   3.630   6.085   3.322
  412SOL    HW1 2135   3.609   6.181   3.304
  412SOL    HW2 2136   3.620   6.033   3.237
  413SOL     OW 2137   2.316   0.497   1.554
  413SOL    HW1 2138   2.254   0.519   1.479
  413SOL    HW2 2139   2.396   0.557   1.549
  414SOL     OW 2140   4.722   4.776   0.831
  414SOL    HW1 2141   4.653   4.809   0.767
  414SOL    HW2 2142   4.687   4.696   0.879
  415SOL     OW 2143   3.770   6.566   3.029
  415SOL    HW1 2144   3.710   6.536   2.956
  415SOL    HW2 2145   3.772   6.666   3.032
  416SOL     OW 2146   3.718   5.679   0.396
  416SOL    HW1 2147   3.777   5.757   0.372
  416SOL    HW2 2148   3.666   5.701   0.478
  417SOL     OW 2149   5.643   5.377   1.434
  417SOL    HW1 2150   5.611   5.449   1.495
  417SOL    HW2 2151   5.593   5.381   1.348
  418SOL     OW 2152   0.421   5.049   6.342
  418SOL    HW1 2153   0.517   5.025   6.355
  418SOL    HW2 2154   0.384   4.997   6.265
  419SOL     OW 2155   5.003   5.562   6.224
  419SOL    HW1 2156   4.942   5.596   6.295
  419SOL    HW2 2157   5.054   5.483   6.258
  420SOL     OW 2158   5.728   3.676   6.972
  420SOL    HW1 2159   5.655   3.699   0.018
  420SOL    HW2 2160   5.794   3.751   6.968
  421SOL     OW 2161   1.425   6.302   6.112
  421SOL    HW1 2162   1.361   6.361   6.063
  421SOL    HW2 2163   1.409   6.207   6.088
  422SOL     OW 2164   6.225   3.757   0.387
  422SOL    HW1 2165   6.312   3.723   0.350
  422SOL    HW2 2166   6.172   3.680   0.422
  423SOL     OW 2167   1.361   3.276   6.125
  423SOL    HW1 2168   1.310   3.261   6.041
  423SOL    HW2 2169   1.317   3.348   6.179
  424SOL     OW 2170   2.160   4.411   6.020
  424SOL    HW1 2171   2.238   4.473   6.015
  424SOL    HW2 2172   2.183   4.325   5.973
  425SOL     OW 2173   2.647   0.689   0.606
  425SOL    HW1 2174   2.580   0.684   0.532
  425SOL    HW2 2175   2.689   0.600   0.619
  426SOL     OW 2176   0.777   3.359   6.645
  426SOL    HW1 2177   0.720   3.285   6.609
  426SOL    HW2 2178   0.861   3.321   6.683
  427SOL     OW 2179   4.033   3.189   0.296
  427SOL    HW1 2180   4.053   3.264   0.359
  427SOL    HW2 2181   4.115   3.167   0.243
  428SOL     OW 2182   3.509   0.962   4.609
  428SOL    HW1 2183   3.435   0.938   4.673
  428SOL    HW2 2184   3.474   1.026   4.541
  429SOL     OW 2185   3.665   6.042   0.087
  429SOL    HW1 2186   3.732   5.969   0.100
  429SOL    HW2 2187   3.712   6.131   0.087
  430SOL     OW 2188   2.838   0.806   4.380
  430SOL    HW1 2189   2.843   0.717   4.334
  430SOL    HW2 2190   2.776   0.799   4.458
  431SOL     OW 2191   3.756   0.628   6.015
  431SOL    HW1 2192   3.667   0.584   6.002
  431SOL    HW2 2193   3.749   0.695   6.089
  432SOL     OW 2194   6.473   1.123   0.915
  432SOL    HW1 2195   6.379   1.111   0.949
  432SOL    HW2 2196   6.492   1.220   0.905
  433SOL     OW 2197   3.774   6.460   4.918
  433SOL    HW1 2198   3.773   6.546   4.866
  433SOL    HW2 2199   3.795   6.384   4.857
  434SOL     OW 2200   6.563   3.399   0.813
  434SOL    HW1 2201   6.633   3.333   0.787
  434SOL    HW2 2202   6.606   3.479   0.855
  435SOL     OW 2203   3.500   3.163   0.597
  435SOL    HW1 2204   3.582   3.106   0.595
  435SOL    HW2 2205   3.427   3.119   0.545
  436SOL     OW 2206   2.545   1.446   1.055
  436SOL    HW1 2207   2.513   1.539   1.072
  436SOL    HW2 2208   2.620   1.449   0.989
  437SOL     OW 2209   6.143   6.610   6.395
  437SOL    HW1 2210   6.241   6.631   6.406
  437SOL    HW2 2211   6.109   6.570   6.480
  438SOL     OW 2212   1.042   3.501   1.116
  438SOL    HW1 2213   1.010   3.420   1.164
  438SOL    HW2 2214   0.993   3.509   1.028
  439SOL     OW 2215   5.869   4.819   1.860
  439SOL    HW1 2216   5.858   4.813   1.761
  439SOL    HW2 2217   5.798   4.878   1.898
  440SOL     OW 2218   1.233   3.199   2.820
  440SOL    HW1 2219   1.235   3.292   2.785
  440SOL    HW2 2220   1.322   3.176   2.860
  441SOL     OW 2221   6.955   1.649   2.837
  441SOL    HW1 2222   6.934   1.698   2.753
  441SOL    HW2 2223   7.003   1.709   2.901
  442SOL     OW 2224   1.511   4.976   6.538
  442SOL    HW1 2225   1.507   5.074   6.557
  442SOL    HW2 2226   1.522   4.962   6.439
  443SOL     OW 2227   0.222   5.443   5.784
  443SOL    HW1 2228   0.235   5.536   5.819
  443SOL    HW2 2229   0.246   5.440   5.687
  444SOL     OW 2230   5.595   2.937   6.501
  444SOL    HW1 2231   5.638   2.883   6.428
  444SOL    HW2 2232   5.639   2.917   6.588
  445SOL     OW 2233   1.760   3.888   3.158
  445SOL    HW1 2234   1.690   3.856   3.094
  445SOL    HW2 2235   1.718   3.903   3.247
  446SOL     OW 2236   1.605   5.210   4.819
  446SOL    HW1 2237   1.696   5.241   4.847
  446SOL    HW2 2238   1.605   5.111   4.808
  447SOL     OW 2239   0.884   5.774   0.476
  447SOL    HW1 2240   0.900   5.759   0.573
  447SOL    HW2 2241   0.788   5.753   0.454
  448SOL     OW 2242   4.570   0.713   5.329
  448SOL    HW1 2243   4.484   0.750   5.363
  448SOL    HW2 2244   4.642   0.728   5.398
  449SOL     OW 2245   6.278   0.713   4.508
  449SOL    HW1 2246   6.250   0.807   4.527
  449SOL    HW2 2247   6.299   0.666   4.594
  450SOL     OW 2248   6.927   5.965   2.987
  450SOL    HW1 2249   6.976   5.886   3.022
  450SOL    HW2 2250   6.870   5.938   2.910
  451SOL     OW 2251   5.684   3.572   4.233
  451SOL    HW1 2252   5.617   3.509   4.271
  451SOL    HW2 2253   5.764   3.577   4.293
  452SOL     OW 2254   6.239   4.665   6.070
  452SOL    HW1 2255   6.158   4.707   6.110
  452SOL    HW2 2256   6.302   4.639   6.144
  453SOL     OW 2257   3.984   1.659   6.138
  453SOL    HW1 2258   4.074   1.651   6.096
  453SOL    HW2 2259   3.977   1.596   6.216
  454SOL     OW 2260   0.621   6.099   6.973
  454SOL    HW1 2261   0.537   6.090   6.920
  454SOL    HW2 2262   0.603   6.151   0.037
  455SOL     OW 2263   5.483   2.118   4.996
  455SOL    HW1 2264   5.561   2.177   4.973
  455SOL    HW2 2265   5.416   2.123   4.922
  456SOL     OW 2266   4.234   6.031   1.011
  456SOL    HW1 2267   4.259   5.952   1.067
  456SOL    HW2 2268   4.154   6.076   1.051
  457SOL     OW 2269   0.506   4.260   1.826
  457SOL    HW1 2270   0.497   4.292   1.732
  457SOL    HW2 2271   0.542   4.334   1.883
  458SOL     OW 2272   1.021   6.882   5.748
  458SOL    HW1 2273   1.073   6.798   5.732
  458SOL    HW2 2274   0.965   6.871   5.830
  459SOL     OW 2275   1.783   0.905   3.534
  459SOL    HW1 2276   1.807   0.811   3.554
  459SOL    HW2 2277   1.698   0.908   3.481
  460SOL     OW 2278   6.383   2.381   3.252
  460SOL    HW1 2279   6.425   2.441   3.320
  460SOL    HW2 2280   6.299   2.425   3.218
  461SOL     OW 2281   5.284   4.627   6.186
  461SOL    HW1 2282   5.189   4.619   6.215
  461SOL    HW2 2283   5.287   4.665   6.093
  462SOL     OW 2284   3.471   2.290   0.219
  462SOL    HW1 2285   3.450   2.325   0.128
  462SOL    HW2 2286   3.549   2.227   0.214
  463SOL     OW 2287   6.309   6.229   1.167
  463SOL    HW1 2288   6.250   6.154   1.138
  463SOL    HW2 2289   6.363   6.262   1.089
  464SOL     OW 2290   1.762   1.981   5.542
  464SOL    HW1 2291   1.796   1.912   5.479
  464SOL    HW2 2292   1.839   2.027   5.586
  465SOL     OW 2293   0.748   3.332   5.957
  465SOL    HW1 2294   0.755   3.386   5.873
  465SOL    HW2 2295   0.684   3.256   5.942
  466SOL     OW 2296   1.620   0.497   3.348
  466SOL    HW1 2297   1.553   0.424   3.335
  466SOL    HW2 2298   1.669   0.512   3.262
  467SOL     OW 2299   1.488   1.285   4.986
  467SOL    HW1 2300   1.569   1.280   4.928
  467SOL    HW2 2301   1.514   1.313   5.078
  468SOL     OW 2302   3.419   4.040   3.477
  468SOL    HW1 2303   3.384   3.948   3.459
  468SOL    HW2 2304   3.387   4.103   3.406
  469SOL     OW 2305   3.645   0.301   6.571
  469SOL    HW1 2306   3.552   0.288   6.603
  469SOL    HW2 2307   3.655   0.394   6.535
  470SOL     OW 2308   4.279   6.792   2.800
  470SOL    HW1 2309   4.358   6.744   2.837
  470SOL    HW2 2310   4.299   6.890   2.794
  471SOL     OW 2311   2.665   2.333   3.689
  471SOL    HW1 2312   2.615   2.361   3.772
  471SOL    HW2 2313   2.763   2.331   3.708
  472SOL     OW 2314   3.580   4.289   5.124
  472SOL    HW1 2315   3.675   4.257   5.133
  472SOL    HW2 2316   3.533   4.232   5.056
  473SOL     OW 2317   0.289   4.785   4.214
  473SOL    HW1 2318   0.316   4.850   4.143
  473SOL    HW2 2319   0.228   4.830   4.279
  474SOL     OW 2320   5.215   5.141   5.134
  474SOL    HW1 2321   5.176   5.137   5.042
  474SOL    HW2 2322   5.289   5.209   5.135
  475SOL     OW 2323   2.475   6.910   0.122
  475SOL    HW1 2324   2.518   6.865   0.200
  475SOL    HW2 2325   2.529   6.990   0.094
  476SOL     OW 2326   6.781   5.895   2.774
  476SOL    HW1 2327   6.727   5.976   2.752
  476SOL    HW2 2328   6.774   5.828   2.699
  477SOL     OW 2329   1.767   4.853   3.784
  477SOL    HW1 2330   1.724   4.847   3.874
  477SOL    HW2 2331   1.746   4.771   3.731
  478SOL     OW 2332   1.499   4.973   3.658
  478SOL    HW1 2333   1.559   5.039   3.702
  478SOL    HW2 2334   1.449   4.921   3.728
  479SOL     OW 2335   4.253   1.752   2.156
  479SOL    HW1 2336   4.213   1.819   2.218
  479SOL    HW2 2337   4.222   1.660   2.181
  480SOL     OW 2338   1.604   6.452   3.934
  480SOL    HW1 2339   1.623   6.374   3.992
  480SOL    HW2 2340   1.664   6.528   3.959
  481SOL     OW 2341   2.099   0.402   0.911
  481SOL    HW1 2342   2.160   0.343   0.858
  481SOL    HW2 2343   2.115   0.387   1.009
  482SOL     OW 2344   5.609   5.798   0.853
  482SOL    HW1 2345   5.630   5.707   0.817
  482SOL    HW2 2346   5.559   5.789   0.939
  483SOL     OW 2347   5.060   1.504   3.347
  483SOL    HW1 2348   5.129   1.444   3.306
  483SOL    HW2 2349   4.969   1.472   3.321
  484SOL     OW 2350   6.169   1.819   3.573
  484SOL    HW1 2351   6.257   1.847   3.534
  484SOL    HW2 2352   6.104   1.895   3.567
  485SOL     OW 2353   2.833   6.148   0.568
  485SOL    HW1 2354   2.897   6.074   0.586
  485SOL    HW2 2355   2.822   6.160   0.469
  486SOL     OW 2356   6.283   0.573   5.863
  486SOL    HW1 2357   6.321   0.611   5.778
  486SOL    HW2 2358   6.249   0.480   5.845
  487SOL     OW 2359   6.593   2.301   6.904
  487SOL    HW1 2360   6.617   2.259   6.992
  487SOL    HW2 2361   6.505   2.347   6.912
  488SOL     OW 2362   1.110   4.728   3.506
  488SOL    HW1 2363   1.130   4.644   3.454
  488SOL    HW2 2364   1.063   4.793   3.447
  489SOL     OW 2365   3.677   5.124   6.387
  489SOL    HW1 2366   3.587   5.159   6.363
  489SOL    HW2 2367   3.726   5.191   6.442
  490SOL     OW 2368   4.894   1.042   4.444
  490SOL    HW1 2369   4.896   1.136   4.478
  490SOL    HW2 2370   4.804   1.021   4.405
  491SOL     OW 2371   0.270   3.534   3.603
  491SOL    HW1 2372   0.244   3.486   3.687
  491SOL    HW2 2373   0.332   3.477   3.549
  492SOL     OW 2374   1.561   1.374   4.633
  492SOL    HW1 2375   1.604   1.323   4.707
  492SOL    HW2 2376   1.630   1.402   4.567
  493SOL     OW 2377   5.754   4.005   4.780
  493SOL    HW1 2378   5.662   4.040   4.761
  493SOL    HW2 2379   5.787   3.953   4.701
  494SOL     OW 2380   5.678   0.724   6.457
  494SOL    HW1 2381   5.631   0.780   6.526
  494SOL    HW2 2382   5.774   0.714   6.483
  495SOL     OW 2383   5.874   4.617   0.101
  495SOL    HW1 2384   5.968   4.615   0.066
  495SOL    HW2 2385   5.857   4.706   0.143
  496SOL     OW 2386   6.252   3.342   3.148
  496SOL    HW1 2387   6.268   3.259   3.202
  496SOL    HW2 2388   6.209   3.411   3.205
  497SOL     OW 2389   4.397   0.116   4.248
  497SOL    HW1 2390   4.438   0.159   4.167
  497SOL    HW2 2391   4.307   0.080   4.224
  498SOL     OW 2392   1.639   3.321   1.361
  498SOL    HW1 2393   1.640   3.421   1.355
  498SOL    HW2 2394   1.639   3.283   1.269
  499SOL     OW 2395   3.730   1.691   5.258
  499SOL    HW1 2396   3.779   1.704   5.172
  499SOL    HW2 2397   3.674   1.771   5.279
  500SOL     OW 2398   1.191   4.688   2.814
  500SOL    HW1 2399   1.138   4.773   2.806
  500SOL    HW2 2400   1.133   4.616   2.852
  501SOL     OW 2401   1.132   4.809   6.107
  501SOL    HW1 2402   1.073   4.745   6.057
  501SOL    HW2 2403   1.196   4.758   6.163
  502SOL     OW 2404   2.339   5.033   5.807
  502SOL    HW1 2405   2.284   5.025   5.891
  502SOL    HW2 2406   2.394   5.117   5.811
  503SOL     OW 2407   6.828   5.344   4.497
  503SOL    HW1 2408   6.778   5.309   4.577
  503SOL    HW2 2409   6.869   5.432   4.520
  504SOL     OW 2410   1.525   5.135   4.427
  504SOL    HW1 2411   1.610   5.114   4.475
  504SOL    HW2 2412   1.512   5.071   4.351
  505SOL     OW 2413   3.502   6.418   4.372
  505SOL    HW1 2414   3.433   6.491   4.383
  505SOL    HW2 2415   3.505   6.389   4.277
  506SOL     OW 2416   2.098   3.442   0.711
  506SOL    HW1 2417   2.142   3.361   0.674
  506SOL    HW2 2418   2.066   3.423   0.804
  507SOL     OW 2419   4.074   1.773   4.158
  507SOL    HW1 2420   4.167   1.804   4.139
  507SOL    HW2 2421   4.044   1.808   4.247
  508SOL     OW 2422   5.582   5.282   4.597
  508SOL    HW1 2423   5.670   5.327   4.614
  508SOL    HW2 2424   5.538   5.324   4.517
  509SOL     OW 2425   4.750   3.260   1.690
  509SOL    HW1 2426   4.697   3.204   1.753
  509SOL    HW2 2427   4.761   3.212   1.603
  510SOL     OW 2428   1.039   3.602   4.302
  510SOL    HW1 2429   1.013   3.697   4.316
  510SOL    HW2 2430   1.091   3.593   4.217
  511SOL     OW 2431   0.335   6.138   1.599
  511SOL    HW1 2432   0.309   6.199   1.523
  511SOL    HW2 2433   0.435   6.130   1.601
  512SOL     OW 2434   1.991   4.007   5.724
  512SOL    HW1 2435   2.013   3.937   5.656
  512SOL    HW2 2436   1.970   4.093   5.676
  513SOL     OW 2437   0.517   5.519   4.483
  513SOL    HW1 2438   0.501   5.524   4.384
  513SOL    HW2 2439   0.477   5.435   4.520
  514SOL     OW 2440   5.175   1.702   3.714
  514SOL    HW1 2441   5.109   1.767   3.752
  514SOL    HW2 2442   5.210   1.737   3.627
  515SOL     OW 2443   2.961   6.008   7.015
  515SOL    HW1 2444   2.943   5.992   6.918
  515SOL    HW2 2445   3.015   5.932   0.033
  516SOL     OW 2446   1.995   4.958   3.497
  516SOL    HW1 2447   2.052   4.897   3.552
  516SOL    HW2 2448   1.904   4.919   3.486
  517SOL     OW 2449   4.763   0.178   5.786
  517SOL    HW1 2450   4.780   0.230   5.702
  517SOL    HW2 2451   4.709   0.097   5.765
  518SOL     OW 2452   2.241   1.638   6.961
  518SOL    HW1 2453   2.195   1.634   6.872
  518SOL    HW2 2454   2.234   1.731   6.998
  519SOL     OW 2455   0.834   6.740   0.302
  519SOL    HW1 2456   0.745   6.734   0.349
  519SOL    HW2 2457   0.836   6.824   0.247
  520SOL     OW 2458   6.159   4.373   5.051
  520SOL    HW1 2459   6.246   4.324   5.046
  520SOL    HW2 2460   6.084   4.312   5.026
  521SOL     OW 2461   6.460   0.822   0.380
  521SOL    HW1 2462   6.425   0.744   0.327
  521SOL    HW2 2463   6.390   0.892   0.387
  522SOL     OW 2464   3.286   4.220   5.499
  522SOL    HW1 2465   3.207   4.220   5.438
  522SOL    HW2 2466   3.311   4.126   5.519
  523SOL     OW 2467   6.580   6.946   3.355
  523SOL    HW1 2468   6.632   7.010   3.298
  523SOL    HW2 2469   6.637   6.866   3.376
  524SOL     OW 2470   4.198   0.551   4.525
  524SOL    HW1 2471   4.254   0.509   4.596
  524SOL    HW2 2472   4.194   0.489   4.446
  525SOL     OW 2473   3.600   2.892   6.825
  525SOL    HW1 2474   3.658   2.909   6.905
  525SOL    HW2 2475   3.534   2.966   6.814
  526SOL     OW 2476   4.477   0.193   4.501
  526SOL    HW1 2477   4.437   0.284   4.487
  526SOL    HW2 2478   4.485   0.147   4.413
  527SOL     OW 2479   0.946   1.452   6.995
  527SOL    HW1 2480   0.916   1.546   6.977
  527SOL    HW2 2481   0.893   1.414   0.051
  528SOL     OW 2482   1.575   1.862   6.431
  528SOL    HW1 2483   1.530   1.907   6.509
  528SOL    HW2 2484   1.610   1.773   6.460
  529SOL     OW 2485   0.208   5.201   4.669
  529SOL    HW1 2486   0.141   5.243   4.730
  529SOL    HW2 2487   0.164   5.181   4.581
  530SOL     OW 2488   0.125   3.116   5.471
  530SOL    HW1 2489   0.026   3.108   5.482
  530SOL    HW2 2490   0.146   3.136   5.375
  531SOL     OW 2491   0.077   6.772   0.279
  531SOL    HW1 2492   0.013   6.731   0.214
  531SOL    HW2 2493   0.169   6.735   0.263
  532SOL     OW 2494   2.018   1.243   5.817
  532SOL    HW1 2495   2.091   1.294   5.772
  532SOL    HW2 2496   2.054   1.159   5.857
  533SOL     OW 2497   4.576   0.473   5.519
  533SOL    HW1 2498   4.477   0.485   5.527
  533SOL    HW2 2499   4.622   0.533   5.584
  534SOL     OW 2500   2.422   5.829   3.593
  534SOL    HW1 2501   2.341   5.795   3.642
  534SOL    HW2 2502   2.393   5.895   3.524
  535SOL     OW 2503   0.119   3.783   2.391
  535SOL    HW1 2504   0.107   3.683   2.393
  535SOL    HW2 2505   0.216   3.805   2.396
  536SOL     OW 2506   1.777   6.163   1.179
  536SOL    HW1 2507   1.767   6.136   1.083
  536SOL    HW2 2508   1.861   6.216   1.190
  537SOL     OW 2509   2.581   0.225   3.141
  537SOL    HW1 2510   2.540   0.135   3.128
  537SOL    HW2 2511   2.647   0.242   3.068
  538SOL     OW 2512   1.505   5.452   3.966
  538SOL    HW1 2513   1.516   5.357   3.992
  538SOL    HW2 2514   1.440   5.459   3.890
  539SOL     OW 2515   1.476   5.111   1.417
  539SOL    HW1 2516   1.541   5.039   1.441
  539SOL    HW2 2517   1.518   5.173   1.350
  540SOL     OW 2518   3.013   2.511   0.745
  540SOL    HW1 2519   3.098   2.555   0.771
  540SOL    HW2 2520   2.972   2.468   0.825
  541SOL     OW 2521   5.183   5.980   5.065
  541SOL    HW1 2522   5.092   6.020   5.071
  541SOL    HW2 2523   5.250   6.053   5.048
  542SOL     OW 2524   5.936   0.078   6.136
  542SOL    HW1 2525   5.857   0.098   6.079
  542SOL    HW2 2526   5.915   0.099   6.231
  543SOL     OW 2527   6.645   0.139   2.564
  543SOL    HW1 2528   6.596   0.137   2.477
  543SOL    HW2 2529   6.629   0.054   2.614
  544SOL     OW 2530   0.642   5.298   0.869
  544SOL    HW1 2531   0.737   5.291   0.839
  544SOL    HW2 2532   0.588   5.347   0.800
  545SOL     OW 2533   2.840   1.814   4.014
  545SOL    HW1 2534   2.784   1.890   3.980
  545SOL    HW2 2535   2.793   1.770   4.090
  546SOL     OW 2536   1.415   2.563   6.472
  546SOL    HW1 2537   1.429   2.586   6.569
  546SOL    HW2 2538   1.503   2.558   6.426
  547SOL     OW 2539   3.439   2.020   0.679
  547SOL    HW1 2540   3.483   2.063   0.599
  547SOL    HW2 2541   3.426   2.089   0.750
  548SOL     OW 2542   3.173   3.659   5.953
  548SOL    HW1 2543   3.084   3.621   5.932
  548SOL    HW2 2544   3.227   3.593   6.005
  549SOL     OW 2545   0.040   4.647   1.325
  549SOL    HW1 2546   0.041   4.591   1.407
  549SOL    HW2 2547   6.966   4.654   1.290
  550SOL     OW 2548   6.647   4.020   1.165
  550SOL    HW1 2549   6.633   4.108   1.121
  550SOL    HW2 2550   6.665   3.950   1.095
  551SOL     OW 2551   0.662   0.077   0.364
  551SOL    HW1 2552   0.677   0.173   0.339
  551SOL    HW2 2553   0.683   0.064   0.461
  552SOL     OW 2554   4.332   5.290   0.468
  552SOL    HW1 2555   4.392   5.210   0.465
  552SOL    HW2 2556   4.313   5.314   0.563
  553SOL     OW 2557   1.165   2.040   1.230
  553SOL    HW1 2558   1.214   2.031   1.143
  553SOL    HW2 2559   1.230   2.061   1.303
  554SOL     OW 2560   4.403   5.578   4.817
  554SOL    HW1 2561   4.495   5.555   4.850
  554SOL    HW2 2562   4.367   5.502   4.763
  555SOL     OW 2563   1.947   4.241   5.617
  555SOL    HW1 2564   1.977   4.255   5.523
  555SOL    HW2 2565   1.911   4.326   5.654
  556SOL     OW 2566   6.379   3.750   3.237
  556SOL    HW1 2567   6.316   3.710   3.171
  556SOL    HW2 2568   6.339   3.835   3.273
  557SOL     OW 2569   6.226   5.454   5.734
  557SOL    HW1 2570   6.322   5.445   5.711
  557SOL    HW2 2571   6.217   5.492   5.826
  558SOL     OW 2572   3.712   3.837   5.593
  558SOL    HW1 2573   3.701   3.786   5.678
  558SOL    HW2 2574   3.724   3.772   5.517
  559SOL     OW 2575   5.148   4.902   6.605
  559SOL    HW1 2576   5.121   4.998   6.597
  559SOL    HW2 2577   5.078   4.853   6.657
  560SOL     OW 2578   4.689   6.724   0.671
  560SOL    HW1 2579   4.710   6.644   0.616
  560SOL    HW2 2580   4.774   6.763   0.707
  561SOL     OW 2581   4.618   6.793   2.785
  561SOL    HW1 2582   4.550   6.724   2.806
  561SOL    HW2 2583   4.574   6.883   2.777
  562SOL     OW 2584   5.619   0.354   1.362
  562SOL    HW1 2585   5.637   0.310   1.450
  562SOL    HW2 2586   5.681   0.432   1.351
  563SOL     OW 2587   2.925   0.380   5.049
  563SOL    HW1 2588   2.974   0.307   5.002
  563SOL    HW2 2589   2.951   0.468   5.009
  564SOL     OW 2590   0.591   1.290   5.323
  564SOL    HW1 2591   0.645   1.234   5.260
  564SOL    HW2 2592   0.640   1.375   5.344
  565SOL     OW 2593   4.068   3.295   5.658
  565SOL    HW1 2594   4.070   3.211   5.712
  565SOL    HW2 2595   4.050   3.273   5.562
  566SOL     OW 2596   6.837   4.468   2.414
  566SOL    HW1 2597   6.873   4.379   2.386
  566SOL    HW2 2598   6.824   4.525   2.333
  567SOL     OW 2599   3.950   3.460   6.165
  567SOL    HW1 2600   3.882   3.484   6.235
  567SOL    HW2 2601   3.943   3.525   6.089
  568SOL     OW 2602   2.644   1.186   6.176
  568SOL    HW1 2603   2.681   1.251   6.241
  568SOL    HW2 2604   2.632   1.097   6.220
  569SOL     OW 2605   2.143   4.025   6.560
  569SOL    HW1 2606   2.104   4.065   6.643
  569SOL    HW2 2607   2.184   3.937   6.582
  570SOL     OW 2608   0.617   5.116   6.648
  570SOL    HW1 2609   0.579   5.204   6.620
  570SOL    HW2 2610   0.544   5.048   6.653
  571SOL     OW 2611   4.694   6.058   2.537
  571SOL    HW1 2612   4.763   6.007   2.485
  571SOL    HW2 2613   4.730   6.149   2.560
  572SOL     OW 2614   2.012   4.394   3.964
  572SOL    HW1 2615   1.967   4.479   3.989
  572SOL    HW2 2616   2.091   4.378   4.024
  573SOL     OW 2617   4.365   2.333   6.862
  573SOL    HW1 2618   4.370   2.238   6.892
  573SOL    HW2 2619   4.443   2.354   6.802
  574SOL     OW 2620   2.935   2.208   3.492
  574SOL    HW1 2621   2.863   2.148   3.459
  574SOL    HW2 2622   3.017   2.199   3.435
  575SOL     OW 2623   4.674   2.570   5.674
  575SOL    HW1 2624   4.583   2.544   5.706
  575SOL    HW2 2625   4.731   2.489   5.666
  576SOL     OW 2626   0.280   3.815   3.637
  576SOL    HW1 2627   0.260   3.858   3.549
  576SOL    HW2 2628   0.289   3.716   3.625
  577SOL     OW 2629   3.750   1.854   3.283
  577SOL    HW1 2630   3.664   1.807   3.260
  577SOL    HW2 2631   3.731   1.924   3.352
  578SOL     OW 2632   6.886   3.442   4.754
  578SOL    HW1 2633   6.927   3.514   4.810
  578SOL    HW2 2634   6.833   3.380   4.812
  579SOL     OW 2635   4.137   3.580   0.851
  579SOL    HW1 2636   4.146   3.481   0.867
  579SOL    HW2 2637   4.042   3.602   0.828
  580SOL     OW 2638   0.053   0.147   6.984
  580SOL    HW1 2639   6.975   0.143   7.005
  580SOL    HW2 2640   0.066   0.166   6.886
  581SOL     OW 2641   4.008   3.100   3.488
  581SOL    HW1 2642   4.043   3.056   3.571
  581SOL    HW2 2643   3.974   3.029   3.426
  582SOL     OW 2644   6.994   3.754   0.656
  582SOL    HW1 2645   6.994   3.675   0.718
  582SOL    HW2 2646   0.008   3.835   0.704
  583SOL     OW 2647   3.032   6.893   6.912
  583SOL    HW1 2648   3.076   6.808   6.884
  583SOL    HW2 2649   2.944   6.872   6.955
  584SOL     OW 2650   1.901   5.233   4.806
  584SOL    HW1 2651   1.977   5.280   4.761
  584SOL    HW2 2652   1.909   5.243   4.905
  585SOL     OW 2653   5.426   1.991   5.560
  585SOL    HW1 2654   5.435   1.898   5.595
  585SOL    HW2 2655   5.351   1.994   5.493
  586SOL     OW 2656   3.502   5.159   1.171
  586SOL    HW1 2657   3.559   5.165   1.253
  586SOL    HW2 2658   3.558   5.180   1.091
  587SOL     OW 2659   2.659   2.975   6.450
  587SOL    HW1 2660   2.563   2.970   6.424
  587SOL    HW2 2661   2.700   3.057   6.410
  588SOL     OW 2662   2.157   0.491   1.800
  588SOL    HW1 2663   2.157   0.481   1.700
  588SOL    HW2 2664   2.227   0.431   1.839
  589SOL     OW 2665   4.821   5.362   2.006
  589SOL    HW1 2666   4.761   5.364   2.086
  589SOL    HW2 2667   4.783   5.300   1.937
  590SOL     OW 2668   0.614   4.490   1.894
  590SOL    HW1 2669   0.706   4.514   1.864
  590SOL    HW2 2670   0.604   4.513   1.991
  591SOL     OW 2671   2.386   0.365   3.017
  591SOL    HW1 2672   2.474   0.385   2.975
  591SOL    HW2 2673   2.400   0.334   3.111
  592SOL     OW 2674   5.094   0.220   6.639
  592SOL    HW1 2675   5.009   0.213   6.691
  592SOL    HW2 2676   5.165   0.164   6.683
  593SOL     OW 2677   0.409   0.800   4.536
  593SOL    HW1 2678   0.412   0.703   4.512
  593SOL    HW2 2679   0.337   0.815   4.603
  594SOL     OW 2680   5.096   2.297   1.241
  594SOL    HW1 2681   5.034   2.246   1.302
  594SOL    HW2 2682   5.044   2.336   1.166
  595SOL     OW 2683   2.626   6.650   3.734
  595SOL    HW1 2684   2.569   6.580   3.775
  595SOL    HW2 2685   2.718   6.614   3.718
  596SOL     OW 2686   0.770   4.735   2.865
  596SOL    HW1 2687   0.696   4.693   2.813
  596SOL    HW2 2688   0.819   4.665   2.916
  597SOL     OW 2689   4.532   1.971   5.442
  597SOL    HW1 2690   4.530   1.886   5.494
  597SOL    HW2 2691   4.585   1.958   5.359
  598SOL     OW 2692   4.071   3.643   1.552
  598SOL    HW1 2693   4.106   3.729   1.587
  598SOL    HW2 2694   4.106   3.567   1.607
  599SOL     OW 2695   5.999   5.532   3.543
  599SOL    HW1 2696   5.930   5.601   3.562
  599SOL    HW2 2697   5.956   5.451   3.503
  600SOL     OW 2698   3.147   1.980   0.695
  600SOL    HW1 2699   3.242   1.956   0.675
  600SOL    HW2 2700   3.141   2.078   0.716
  601SOL     OW 2701   1.471   4.862   1.693
  601SOL    HW1 2702   1.397   4.847   1.628
  601SOL    HW2 2703   1.487   4.779   1.746
  602SOL     OW 2704   0.172   1.061   2.630
  602SOL    HW1 2705   0.083   1.014   2.631
  602SOL    HW2 2706   0.181   1.116   2.713
  603SOL     OW 2707   4.218   1.700   3.033
  603SOL    HW1 2708   4.136   1.661   3.076
  603SOL    HW2 2709   4.195   1.734   2.942
  604SOL     OW 2710   1.889   2.973   5.843
  604SOL    HW1 2711   1.962   3.041   5.840
  604SOL    HW2 2712   1.827   2.993   5.919
  605SOL     OW 2713   5.166   0.081   4.319
  605SOL    HW1 2714   5.239   0.135   4.362
  605SOL    HW2 2715   5.150   0.115   4.227
  606SOL     OW 2716   2.169   6.834   2.016
  606SOL    HW1 2717   2.202   6.741   2.032
  606SOL    HW2 2718   2.070   6.837   2.033
  607SOL     OW 2719   3.710   6.685   4.254
  607SOL    HW1 2720   3.635   6.668   4.189
  607SOL    HW2 2721   3.746   6.598   4.287
  608SOL     OW 2722   6.575   2.812   0.903
  608SOL    HW1 2723   6.647   2.849   0.845
  608SOL    HW2 2724   6.486   2.849   0.874
  609SOL     OW 2725   3.476   4.124   4.946
  609SOL    HW1 2726   3.386   4.147   4.985
  609SOL    HW2 2727   3.506   4.036   4.982
  610SOL     OW 2728   6.948   2.204   5.248
  610SOL    HW1 2729   6.929   2.200   5.346
  610SOL    HW2 2730   6.983   2.116   5.216
  611SOL     OW 2731   6.670   0.193   0.348
  611SOL    HW1 2732   6.637   0.193   0.254
  611SOL    HW2 2733   6.650   0.282   0.390
  612SOL     OW 2734   1.746   4.319   6.465
  612SOL    HW1 2735   1.722   4.227   6.496
  612SOL    HW2 2736   1.733   4.384   6.540
  613SOL     OW 2737   3.927   1.501   6.728
  613SOL    HW1 2738   4.009   1.445   6.743
  613SOL    HW2 2739   3.868   1.495   6.808
  614SOL     OW 2740   4.978   2.618   0.573
  614SOL    HW1 2741   5.038   2.604   0.494
  614SOL    HW2 2742   5.009   2.698   0.625
  615SOL     OW 2743   5.796   5.388   0.954
  615SOL    HW1 2744   5.824   5.484   0.962
  615SOL    HW2 2745   5.840   5.348   0.873
  616SOL     OW 2746   5.239   1.206   4.915
  616SOL    HW1 2747   5.294   1.262   4.976
  616SOL    HW2 2748   5.296   1.172   4.840
  617SOL     OW 2749   6.345   0.103   5.046
  617SOL    HW1 2750   6.308   0.021   5.088
  617SOL    HW2 2751   6.302   0.184   5.086
  618SOL     OW 2752   5.399   4.397   1.067
  618SOL    HW1 2753   5.471   4.371   1.003
  618SOL    HW2 2754   5.373   4.318   1.122
  619SOL     OW 2755   1.370   6.972   0.089
  619SOL    HW1 2756   1.424   0.030   0.056
  619SOL    HW2 2757   1.295   7.006   0.146
  620SOL     OW 2758   4.637   1.968   1.490
  620SOL    HW1 2759   4.705   2.031   1.528
  620SOL    HW2 2760   4.680   1.909   1.422
  621SOL     OW 2761   1.874   6.397   6.312
  621SOL    HW1 2762   1.808   6.374   6.240
  621SOL    HW2 2763   1.841   6.475   6.364
  622SOL     OW 2764   0.749   2.853   5.752
  622SOL    HW1 2765   0.707   2.935   5.791
  622SOL    HW2 2766   0.845   2.872   5.730
  623SOL     OW 2767   6.467   1.193   2.653
  623SOL    HW1 2768   6.510   1.107   2.677
  623SOL    HW2 2769   6.527   1.269   2.678
  624SOL     OW 2770   5.951   0.403   5.858
  624SOL    HW1 2771   5.882   0.359   5.800
  624SOL    HW2 2772   5.917   0.410   5.951
  625SOL     OW 2773   3.296   0.812   1.076
  625SOL    HW1 2774   3.237   0.751   1.128
  625SOL    HW2 2775   3.311   0.896   1.129
  626SOL     OW 2776   6.894   0.077   3.907
  626SOL    HW1 2777   6.974   0.034   3.865
  626SOL    HW2 2778   6.914   0.173   3.927
  627SOL     OW 2779   6.270   4.106   5.898
  627SOL    HW1 2780   6.306   4.061   5.816
  627SOL    HW2 2781   6.217   4.186   5.871
  628SOL     OW 2782   3.493   4.545   6.908
  628SOL    HW1 2783   3.491   4.603   6.826
  628SOL    HW2 2784   3.538   4.459   6.887
  629SOL     OW 2785   2.131   6.868   6.922
  629SOL    HW1 2786   2.129   6.810   6.841
  629SOL    HW2 2787   2.181   6.952   6.902
  630SOL     OW 2788   6.627   2.158   0.398
  630SOL    HW1 2789   6.585   2.142   0.487
  630SOL    HW2 2790   6.719   2.195   0.410
  631SOL     OW 2791   1.787   4.023   1.971
  631SOL    HW1 2792   1.830   4.038   2.060
  631SOL    HW2 2793   1.853   4.040   1.898
  632SOL     OW 2794   3.815   4.926   1.185
  632SOL    HW1 2795   3.865   4.843   1.159
  632SOL    HW2 2796   3.799   4.925   1.284
  633SOL     OW 2797   1.666   6.112   6.723
  633SOL    HW1 2798   1.707   6.025   6.751
  633SOL    HW2 2799   1.595   6.096   6.656
  634SOL     OW 2800   2.124   3.682   5.364
  634SOL    HW1 2801   2.122   3.771   5.318
  634SOL    HW2 2802   2.175   3.617   5.309
  635SOL     OW 2803   0.269   5.858   6.524
  635SOL    HW1 2804   0.295   5.919   6.599
  635SOL    HW2 2805   0.249   5.913   6.442
  636SOL     OW 2806   1.168   2.347   5.095
  636SOL    HW1 2807   1.171   2.339   5.194
  636SOL    HW2 2808   1.075   2.328   5.062
  637SOL     OW 2809   6.151   1.281   1.460
  637SOL    HW1 2810   6.191   1.246   1.545
  637SOL    HW2 2811   6.072   1.338   1.482
  638SOL     OW 2812   0.094   3.841   5.337
  638SOL    HW1 2813   0.142   3.899   5.272
  638SOL    HW2 2814   0.071   3.895   5.418
  639SOL     OW 2815   6.077   3.330   0.993
  639SOL    HW1 2816   6.167   3.373   1.000
  639SOL    HW2 2817   6.023   3.353   1.073
  640SOL     OW 2818   6.401   3.957   2.639
  640SOL    HW1 2819   6.481   3.904   2.611
  640SOL    HW2 2820   6.328   3.895   2.667
  641SOL     OW 2821   2.433   5.873   4.285
  641SOL    HW1 2822   2.409   5.778   4.263
  641SOL    HW2 2823   2.533   5.884   4.279
  642SOL     OW 2824   0.907   5.301   4.243
  642SOL    HW1 2825   0.972   5.256   4.304
  642SOL    HW2 2826   0.854   5.368   4.294
  643SOL     OW 2827   3.773   4.772   0.134
  643SOL    HW1 2828   3.679   4.742   0.118
  643SOL    HW2 2829   3.816   4.711   0.200
  644SOL     OW 2830   5.375   0.624   4.665
  644SOL    HW1 2831   5.420   0.651   4.750
  644SOL    HW2 2832   5.444   0.599   4.597
  645SOL     OW 2833   3.895   6.042   2.371
  645SOL    HW1 2834   3.907   6.140   2.359
  645SOL    HW2 2835   3.936   6.014   2.458
  646SOL     OW 2836   3.325   0.759   5.445
  646SOL    HW1 2837   3.420   0.773   5.417
  646SOL    HW2 2838   3.271   0.730   5.366
  647SOL     OW 2839   1.872   2.120   6.646
  647SOL    HW1 2840   1.856   2.215   6.673
  647SOL    HW2 2841   1.815   2.059   6.700
  648SOL     OW 2842   5.022   2.562   3.992
  648SOL    HW1 2843   5.118   2.570   4.017
  648SOL    HW2 2844   4.970   2.637   4.033
  649SOL     OW 2845   3.772   6.366   1.163
  649SOL    HW1 2846   3.779   6.323   1.073
  649SOL    HW2 2847   3.805   6.460   1.157
  650SOL     OW 2848   2.241   3.583   1.638
  650SOL    HW1 2849   2.202   3.660   1.688
  650SOL    HW2 2850   2.294   3.526   1.701
  651SOL     OW 2851   0.183   1.795   3.211
  651SOL    HW1 2852   0.248   1.821   3.282
  651SOL    HW2 2853   0.148   1.703   3.230
  652SOL     OW 2854   3.783   6.200   0.815
  652SOL    HW1 2855   3.795   6.202   0.715
  652SOL    HW2 2856   3.686   6.208   0.837
  653SOL     OW 2857   1.736   0.522   3.103
  653SOL    HW1 2858   1.692   0.563   3.023
  653SOL    HW2 2859   1.835   0.525   3.091
  654SOL     OW 2860   1.409   0.198   6.198
  654SOL    HW1 2861   1.360   0.147   6.268
  654SOL    HW2 2862   1.343   0.247   6.140
  655SOL     OW 2863   1.319   4.052   1.934
  655SOL    HW1 2864   1.414   4.079   1.924
  655SOL    HW2 2865   1.305   3.963   1.889
  656SOL     OW 2866   2.139   0.775   0.203
  656SOL    HW1 2867   2.221   0.739   0.158
  656SOL    HW2 2868   2.063   0.711   0.192
  657SOL     OW 2869   3.367   3.183   4.312
  657SOL    HW1 2870   3.378   3.249   4.237
  657SOL    HW2 2871   3.290   3.123   4.292
  658SOL     OW 2872   2.570   0.137   5.169
  658SOL    HW1 2873   2.591   0.084   5.087
  658SOL    HW2 2874   2.493   0.095   5.217
  659SOL     OW 2875   1.669   4.498   6.681
  659SOL    HW1 2876   1.678   4.588   6.637
  659SOL    HW2 2877   1.585   4.497   6.736
  660SOL     OW 2878   5.550   3.316   2.534
  660SOL    HW1 2879   5.547   3.364   2.621
  660SOL    HW2 2880   5.597   3.229   2.545
  661SOL     OW 2881   4.708   5.633   3.984
  661SOL    HW1 2882   4.620   5.657   4.027
  661SOL    HW2 2883   4.719   5.534   3.985
  662SOL     OW 2884   0.102   3.035   0.174
  662SOL    HW1 2885   0.121   2.962   0.108
  662SOL    HW2 2886   0.063   3.113   0.125
  663SOL     OW 2887   1.785   4.298   6.006
  663SOL    HW1 2888   1.710   4.309   6.071
  663SOL    HW2 2889   1.753   4.321   5.914
  664SOL     OW 2890   2.240   6.972   5.802
  664SOL    HW1 2891   2.260   0.050   5.789
  664SOL    HW2 2892   2.222   6.954   5.899
  665SOL     OW 2893   2.381   4.392   3.627
  665SOL    HW1 2894   2.474   4.406   3.591
  665SOL    HW2 2895   2.314   4.419   3.558
  666SOL     OW 2896   3.172   0.365   0.167
  666SOL    HW1 2897   3.177   0.325   0.075
  666SOL    HW2 2898   3.083   0.408   0.181
  667SOL     OW 2899   2.122   3.262   2.340
  667SOL    HW1 2900   2.121   3.358   2.370
  667SOL    HW2 2901   2.125   3.203   2.421
  668SOL     OW 2902   5.236   6.893   0.405
  668SOL    HW1 2903   5.163   6.827   0.386
  668SOL    HW2 2904   5.272   6.877   0.496
  669SOL     OW 2905   6.250   5.722   2.140
  669SOL    HW1 2906   6.319   5.748   2.073
  669SOL    HW2 2907   6.159   5.743   2.104
  670SOL     OW 2908   3.321   4.162   3.259
  670SOL    HW1 2909   3.253   4.088   3.254
  670SOL    HW2 2910   3.293   4.237   3.199
  671SOL     OW 2911   1.479   0.181   0.043
  671SOL    HW1 2912   1.490   0.227   0.131
  671SOL    HW2 2913   1.464   0.250   6.990
  672SOL     OW 2914   0.424   2.378   2.753
  672SOL    HW1 2915   0.455   2.473   2.762
  672SOL    HW2 2916   0.491   2.318   2.795
  673SOL     OW 2917   4.877   0.733   6.305
  673SOL    HW1 2918   4.836   0.643   6.319
  673SOL    HW2 2919   4.934   0.757   6.384
  674SOL     OW 2920   6.601   2.835   4.288
  674SOL    HW1 2921   6.582   2.926   4.249
  674SOL    HW2 2922   6.689   2.837   4.335
  675SOL     OW 2923   5.920   6.950   3.796
  675SOL    HW1 2924   5.923   6.906   3.885
  675SOL    HW2 2925   5.837   6.921   3.747
  676SOL     OW 2926   3.166   4.678   5.565
  676SOL    HW1 2927   3.133   4.700   5.473
  676SOL    HW2 2928   3.265   4.664   5.562
  677SOL     OW 2929   5.169   6.498   0.584
  677SOL    HW1 2930   5.260   6.486   0.545
  677SOL    HW2 2931   5.171   6.568   0.655
  678SOL     OW 2932   1.944   0.139   6.404
  678SOL    HW1 2933   1.864   0.198   6.411
  678SOL    HW2 2934   2.002   0.170   6.328
  679SOL     OW 2935   0.395   0.097   2.642
  679SOL    HW1 2936   0.446   0.013   2.622
  679SOL    HW2 2937   0.301   0.086   2.612
  680SOL     OW 2938   6.128   3.278   3.811
  680SOL    HW1 2939   6.085   3.222   3.881
  680SOL    HW2 2940   6.177   3.219   3.746
  681SOL     OW 2941   0.723   5.422   3.367
  681SOL    HW1 2942   0.705   5.381   3.456
  681SOL    HW2 2943   0.796   5.371   3.321
  682SOL     OW 2944   0.642   6.955   5.409
  682SOL    HW1 2945   0.546   6.979   5.398
  682SOL    HW2 2946   0.695   6.993   5.333
  683SOL     OW 2947   5.098   1.567   1.666
  683SOL    HW1 2948   5.024   1.502   1.681
  683SOL    HW2 2949   5.063   1.646   1.616
  684SOL     OW 2950   6.771   5.536   6.358
  684SOL    HW1 2951   6.701   5.558   6.426
  684SOL    HW2 2952   6.727   5.523   6.269
  685SOL     OW 2953   6.103   0.468   4.915
  685SOL    HW1 2954   6.194   0.502   4.893
  685SOL    HW2 2955   6.096   0.451   5.013
  686SOL     OW 2956   5.603   4.160   0.864
  686SOL    HW1 2957   5.609   4.073   0.913
  686SOL    HW2 2958   5.513   4.167   0.820
  687SOL     OW 2959   5.230   3.049   6.768
  687SOL    HW1 2960   5.290   3.099   6.705
  687SOL    HW2 2961   5.279   2.970   6.805
  688SOL     OW 2962   0.090   2.710   4.875
  688SOL    HW1 2963   0.135   2.630   4.913
  688SOL    HW2 2964   0.069   2.775   4.948
  689SOL     OW 2965   5.417   4.822   4.422
  689SOL    HW1 2966   5.437   4.767   4.503
  689SOL    HW2 2967   5.417   4.919   4.446
  690SOL     OW 2968   6.953   2.474   4.327
  690SOL    HW1 2969   7.015   2.418   4.271
  690SOL    HW2 2970   6.936   2.428   4.414
  691SOL     OW 2971   1.254   3.034   6.532
  691SOL    HW1 2972   1.247   2.985   6.445
  691SOL    HW2 2973   1.226   2.973   6.606
  692SOL     OW 2974   2.583   0.428   4.038
  692SOL    HW1 2975   2.631   0.469   3.960
  692SOL    HW2 2976   2.487   0.456   4.035
  693SOL     OW 2977   5.739   1.035   3.214
  693SOL    HW1 2978   5.769   0.946   3.178
  693SOL    HW2 2979   5.813   1.075   3.268
  694SOL     OW 2980   1.159   0.330   2.551
  694SOL    HW1 2981   1.103   0.254   2.518
  694SOL    HW2 2982   1.148   0.409   2.491
  695SOL     OW 2983   4.466   5.759   6.448
  695SOL    HW1 2984   4.375   5.761   6.407
  695SOL    HW2 2985   4.471   5.826   6.521
  696SOL     OW 2986   5.622   5.892   2.499
  696SOL    HW1 2987   5.524   5.882   2.517
  696SOL    HW2 2988   5.659   5.805   2.466
  697SOL     OW 2989   1.395   4.506   3.042
  697SOL    HW1 2990   1.463   4.542   3.106
  697SOL    HW2 2991   1.410   4.408   3.029
  698SOL     OW 2992   4.844   6.930   3.949
  698SOL    HW1 2993   4.793   6.860   3.999
  698SOL    HW2 2994   4.936   6.937   3.986
  699SOL     OW 2995   2.132   5.658   6.302
  699SOL    HW1 2996   2.084   5.594   6.361
  699SOL    HW2 2997   2.066   5.703   6.241
  700SOL     OW 2998   1.392   2.481   4.955
  700SOL    HW1 2999   1.358   2.397   4.998
  700SOL    HW2 3000   1.475   2.460   4.903
  701SOL     OW 3001   1.017   4.986   6.300
  701SOL    HW1 3002   1.072   4.961   6.379
  701SOL    HW2 3003   1.044   4.930   6.222
  702SOL     OW 3004   5.618   6.204   5.728
  702SOL    HW1 3005   5.594   6.207   5.631
  702SOL    HW2 3006   5.711   6.238   5.740
  703SOL     OW 3007   6.317   3.668   6.156
  703SOL    HW1 3008   6.340   3.647   6.060
  703SOL    HW2 3009   6.242   3.609   6.185
  704SOL     OW 3010   2.308   0.349   2.020
  704SOL    HW1 3011   2.279   0.419   2.086
  704SOL    HW2 3012   2.253   0.267   2.033
  705SOL     OW 3013   1.384   1.929   4.777
  705SOL    HW1 3014   1.453   1.929   4.705
  705SOL    HW2 3015   1.405   1.857   4.843
  706SOL     OW 3016   6.028   3.555   3.248
  706SOL    HW1 3017   6.064   3.608   3.325
  706SOL    HW2 3018   5.928   3.561   3.247
  707SOL     OW 3019   4.893   3.158   2.967
  707SOL    HW1 3020   4.914   3.159   2.869
  707SOL    HW2 3021   4.803   3.200   2.982
  708SOL     OW 3022   5.219   0.935   1.867
  708SOL    HW1 3023   5.136   0.917   1.919
  708SOL    HW2 3024   5.197   0.991   1.787
  709SOL     OW 3025   1.646   3.552   6.406
  709SOL    HW1 3026   1.609   3.601   6.485
  709SOL    HW2 3027   1.632   3.606   6.323
  710SOL     OW 3028   3.236   3.526   3.914
  710SOL    HW1 3029   3.284   3.612   3.929
  710SOL    HW2 3030   3.157   3.520   3.975
  711SOL     OW 3031   1.495   1.055   3.879
  711SOL    HW1 3032   1.545   1.093   3.801
  711SOL    HW2 3033   1.428   0.988   3.846
  712SOL     OW 3034   0.158   5.011   3.912
  712SOL    HW1 3035   0.174   5.034   3.816
  712SOL    HW2 3036   0.245   4.995   3.958
  713SOL     OW 3037   2.326   3.882   5.646
  713SOL    HW1 3038   2.284   3.880   5.555
  713SOL    HW2 3039   2.421   3.912   5.638
  714SOL     OW 3040   4.896   5.021   4.514
  714SOL    HW1 3041   4.930   4.943   4.461
  714SOL    HW2 3042   4.823   4.990   4.575
  715SOL     OW 3043   6.572   0.380   5.895
  715SOL    HW1 3044   6.632   0.451   5.932
  715SOL    HW2 3045   6.561   0.393   5.797
  716SOL     OW 3046   6.423   5.747   6.981
  716SOL    HW1 3047   6.393   5.656   7.009
  716SOL    HW2 3048   6.359   5.785   6.915
  717SOL     OW 3049   6.029   2.965   5.548
  717SOL    HW1 3050   6.056   2.878   5.587
  717SOL    HW2 3051   5.988   2.950   5.458
  718SOL     OW 3052   3.517   3.387   0.773
  718SOL    HW1 3053   3.493   3.300   0.730
  718SOL    HW2 3054   3.486   3.462   0.715
  719SOL     OW 3055   6.881   4.249   0.183
  719SOL    HW1 3056   6.916   4.183   0.249
  719SOL    HW2 3057   6.925   4.338   0.198
  720SOL     OW 3058   4.047   0.823   5.691
  720SOL    HW1 3059   4.124   0.767   5.721
  720SOL    HW2 3060   4.074   0.877   5.612
  721SOL     OW 3061   1.840   0.620   5.050
  721SOL    HW1 3062   1.886   0.708   5.044
  721SOL    HW2 3063   1.767   0.615   4.982
  722SOL     OW 3064   4.563   1.573   5.177
  722SOL    HW1 3065   4.553   1.541   5.082
  722SOL    HW2 3066   4.660   1.587   5.196
  723SOL     OW 3067   0.208   3.727   1.943
  723SOL    HW1 3068   0.123   3.751   1.989
  723SOL    HW2 3069   0.212   3.628   1.930
  724SOL     OW 3070   0.546   2.624   4.361
  724SOL    HW1 3071   0.479   2.564   4.316
  724SOL    HW2 3072   0.549   2.604   4.458
  725SOL     OW 3073   2.504   5.441   2.272
  725SOL    HW1 3074   2.586   5.395   2.238
  725SOL    HW2 3075   2.455   5.482   2.195
  726SOL     OW 3076   5.230   6.044   0.088
  726SOL    HW1 3077   5.276   6.052   0.177
  726SOL    HW2 3078   5.212   5.948   0.068
  727SOL     OW 3079   1.183   4.825   4.633
  727SOL    HW1 3080   1.239   4.748   4.604
  727SOL    HW2 3081   1.222   4.866   4.715
  728SOL     OW 3082   6.681   2.008   6.436
  728SOL    HW1 3083   6.613   1.935   6.435
  728SOL    HW2 3084   6.636   2.096   6.420
  729SOL     OW 3085   3.954   1.259   0.585
  729SOL    HW1 3086   3.904   1.338   0.550
  729SOL    HW2 3087   3.953   1.186   0.516
  730SOL     OW 3088   6.080   0.987   3.816
  730SOL    HW1 3089   6.161   0.978   3.873
  730SOL    HW2 3090   6.062   0.901   3.769
  731SOL     OW 3091   0.612   2.199   3.379
  731SOL    HW1 3092   0.648   2.173   3.289
  731SOL    HW2 3093   0.625   2.297   3.393
  732SOL     OW 3094   0.146   4.419   3.952
  732SOL    HW1 3095   0.198   4.403   3.868
  732SOL    HW2 3096   0.081   4.344   3.966
  733SOL     OW 3097   5.304   4.555   4.657
  733SOL    HW1 3098   5.344   4.640   4.690
  733SOL    HW2 3099   5.313   4.484   4.727
  734SOL     OW 3100   0.850   7.009   0.172
  734SOL    HW1 3101   0.785   0.033   0.234
  734SOL    HW2 3102   0.824   0.009   0.077
  735SOL     OW 3103   3.121   4.581   0.131
  735SOL    HW1 3104   3.108   4.494   0.083
  735SOL    HW2 3105   3.199   4.573   0.193
  736SOL     OW 3106   5.656   1.644   2.478
  736SOL    HW1 3107   5.683   1.549   2.467
  736SOL    HW2 3108   5.585   1.667   2.411
  737SOL     OW 3109   5.160   3.856   0.321
  737SOL    HW1 3110   5.131   3.870   0.416
  737SOL    HW2 3111   5.081   3.864   0.261
  738SOL     OW 3112   6.864   3.480   4.144
  738SOL    HW1 3113   6.780   3.433   4.170
  738SOL    HW2 3114   6.886   3.551   4.211
  739SOL     OW 3115   4.701   5.885   6.296
  739SOL    HW1 3116   4.635   5.820   6.333
  739SOL    HW2 3117   4.733   5.945   6.369
  740SOL     OW 3118   5.847   6.828   0.439
  740SOL    HW1 3119   5.893   6.903   0.392
  740SOL    HW2 3120   5.916   6.772   0.486
  741SOL     OW 3121   1.550   0.466   3.699
  741SOL    HW1 3122   1.634   0.480   3.750
  741SOL    HW2 3123   1.569   0.410   3.618
  742SOL     OW 3124   1.098   5.960   2.249
  742SOL    HW1 3125   1.021   5.994   2.195
  742SOL    HW2 3126   1.066   5.889   2.311
  743SOL     OW 3127   1.508   3.172   2.420
  743SOL    HW1 3128   1.511   3.204   2.326
  743SOL    HW2 3129   1.425   3.204   2.465
  744SOL     OW 3130   6.819   5.207   0.961
  744SOL    HW1 3131   6.883   5.172   1.030
  744SOL    HW2 3132   6.842   5.168   0.872
  745SOL     OW 3133   1.057   6.862   1.638
  745SOL    HW1 3134   1.084   6.840   1.544
  745SOL    HW2 3135   0.957   6.868   1.643
  746SOL     OW 3136   2.911   6.977   3.194
  746SOL    HW1 3137   3.006   6.999   3.173
  746SOL    HW2 3138   2.870   6.928   3.117
  747SOL     OW 3139   0.381   4.062   0.477
  747SOL    HW1 3140   0.346   4.017   0.560
  747SOL    HW2 3141   0.343   4.016   0.396
  748SOL     OW 3142   3.259   3.820   3.351
  748SOL    HW1 3143   3.188   3.837   3.283
  748SOL    HW2 3144   3.232   3.746   3.412
  749SOL     OW 3145   4.822   3.110   5.733
  749SOL    HW1 3146   4.804   3.132   5.828
  749SOL    HW2 3147   4.738   3.120   5.680
  750SOL     OW 3148   2.812   3.190   1.837
  750SOL    HW1 3149   2.828   3.285   1.811
  750SOL    HW2 3150   2.857   3.171   1.924
  751SOL     OW 3151   5.759   1.294   0.387
  751SOL    HW1 3152   5.661   1.277   0.390
  751SOL    HW2 3153   5.808   1.211   0.415
  752SOL     OW 3154   4.272   0.696   2.343
  752SOL    HW1 3155   4.285   0.638   2.423
  752SOL    HW2 3156   4.218   0.776   2.369
  753SOL     OW 3157   3.324   1.757   1.980
  753SOL    HW1 3158   3.255   1.722   2.044
  753SOL    HW2 3159   3.402   1.695   1.978
  754SOL     OW 3160   5.316   5.076   6.889
  754SOL    HW1 3161   5.308   5.175   6.878
  754SOL    HW2 3162   5.403   5.044   6.850
  755SOL     OW 3163   5.871   4.875   2.340
  755SOL    HW1 3164   5.791   4.926   2.371
  755SOL    HW2 3165   5.842   4.802   2.278
  756SOL     OW 3166   2.540   6.920   4.579
  756SOL    HW1 3167   2.480   6.866   4.521
  756SOL    HW2 3168   2.522   7.017   4.564
  757SOL     OW 3169   7.013   0.877   4.169
  757SOL    HW1 3170   7.000   0.906   4.074
  757SOL    HW2 3171   6.928   0.892   4.220
  758SOL     OW 3172   4.149   1.936   0.314
  758SOL    HW1 3173   4.228   1.989   0.346
  758SOL    HW2 3174   4.171   1.894   0.226
  759SOL     OW 3175   2.342   0.499   1.117
  759SOL    HW1 3176   2.330   0.400   1.126
  759SOL    HW2 3177   2.365   0.521   1.022
  760SOL     OW 3178   4.731   1.228   5.754
  760SOL    HW1 3179   4.733   1.138   5.797
  760SOL    HW2 3180   4.685   1.222   5.665
  761SOL     OW 3181   5.163   0.617   6.592
  761SOL    HW1 3182   5.100   0.695   6.595
  761SOL    HW2 3183   5.225   0.628   6.515
  762SOL     OW 3184   2.487   4.546   4.870
  762SOL    HW1 3185   2.403   4.552   4.923
  762SOL    HW2 3186   2.538   4.465   4.897
  763SOL     OW 3187   0.582   4.390   1.061
  763SOL    HW1 3188   0.621   4.478   1.035
  763SOL    HW2 3189   0.488   4.384   1.028
  764SOL     OW 3190   6.009   1.311   2.522
  764SOL    HW1 3191   6.069   1.289   2.599
  764SOL    HW2 3192   6.044   1.268   2.439
  765SOL     OW 3193   1.172   6.393   2.942
  765SOL    HW1 3194   1.092   6.373   3.000
  765SOL    HW2 3195   1.177   6.492   2.926
  766SOL     OW 3196   0.467   5.835   0.099
  766SOL    HW1 3197   0.404   5.763   0.070
  766SOL    HW2 3198   0.421   5.895   0.164
  767SOL     OW 3199   5.601   6.380   1.108
  767SOL    HW1 3200   5.620   6.297   1.160
  767SOL    HW2 3201   5.590   6.457   1.171
  768SOL     OW 3202   2.585   6.283   4.839
  768SOL    HW1 3203   2.559   6.343   4.763
  768SOL    HW2 3204   2.563   6.328   4.925
  769SOL     OW 3205   3.412   0.674   0.296
  769SOL    HW1 3206   3.316   0.688   0.322
  769SOL    HW2 3207   3.462   0.759   0.309
  770SOL     OW 3208   3.991   5.286   5.130
  770SOL    HW1 3209   3.942   5.275   5.217
  770SOL    HW2 3210   4.054   5.209   5.118
  771SOL     OW 3211   0.250   6.814   4.499
  771SOL    HW1 3212   0.184   6.862   4.441
  771SOL    HW2 3213   0.335   6.800   4.448
  772SOL     OW 3214   0.737   3.145   6.289
  772SOL    HW1 3215   0.781   3.112   6.372
  772SOL    HW2 3216   0.698   3.235   6.305
  773SOL     OW 3217   0.097   3.266   2.003
  773SOL    HW1 3218   0.083   3.195   1.935
  773SOL    HW2 3219   0.086   3.227   2.095
  774SOL     OW 3220   1.438   1.756   1.944
  774SOL    HW1 3221   1.409   1.670   1.985
  774SOL    HW2 3222   1.495   1.738   1.864
  775SOL     OW 3223   1.907   2.604   4.060
  775SOL    HW1 3224   1.996   2.613   4.104
  775SOL    HW2 3225   1.839   2.574   4.128
  776SOL     OW 3226   2.289   1.261   4.950
  776SOL    HW1 3227   2.209   1.321   4.954
  776SOL    HW2 3228   2.263   1.169   4.979
  777SOL     OW 3229   4.438   0.567   6.814
  777SOL    HW1 3230   4.527   0.589   6.853
  777SOL    HW2 3231   4.428   0.615   6.726
  778SOL     OW 3232   5.016   5.932   5.368
  778SOL    HW1 3233   5.004   5.878   5.285
  778SOL    HW2 3234   5.005   6.029   5.346
  779SOL     OW 3235   0.525   0.153   2.270
  779SOL    HW1 3236   0.515   0.054   2.261
  779SOL    HW2 3237   0.452   0.190   2.326
  780SOL     OW 3238   6.087   2.264   5.222
  780SOL    HW1 3239   6.008   2.205   5.200
  780SOL    HW2 3240   6.056   2.359   5.230
  781SOL     OW 3241   0.981   3.928   0.213
  781SOL    HW1 3242   0.887   3.939   0.244
  781SOL    HW2 3243   1.022   3.849   0.259
  782SOL     OW 3244   0.156   5.134   0.479
  782SOL    HW1 3245   0.212   5.058   0.446
  782SOL    HW2 3246   0.170   5.145   0.577
  783SOL     OW 3247   1.261   5.619   1.043
  783SOL    HW1 3248   1.343   5.661   1.083
  783SOL    HW2 3249   1.250   5.527   1.082
  784SOL     OW 3250   5.249   5.661   3.116
  784SOL    HW1 3251   5.214   5.584   3.169
  784SOL    HW2 3252   5.176   5.699   3.060
  785SOL     OW 3253   6.263   2.705   3.503
  785SOL    HW1 3254   6.333   2.752   3.556
  785SOL    HW2 3255   6.288   2.707   3.406
  786SOL     OW 3256   6.231   6.757   1.228
  786SOL    HW1 3257   6.183   6.689   1.174
  786SOL    HW2 3258   6.330   6.747   1.216
  787SOL     OW 3259   4.441   0.902   5.669
  787SOL    HW1 3260   4.423   0.998   5.690
  787SOL    HW2 3261   4.435   0.847   5.753
  788SOL     OW 3262   6.314   4.864   3.405
  788SOL    HW1 3263   6.273   4.778   3.434
  788SOL    HW2 3264   6.401   4.847   3.359
  789SOL     OW 3265   6.099   2.775   0.412
  789SOL    HW1 3266   6.109   2.874   0.416
  789SOL    HW2 3267   6.099   2.738   0.505
  790SOL     OW 3268   2.731   0.500   4.299
  790SOL    HW1 3269   2.666   0.459   4.234
  790SOL    HW2 3270   2.740   0.439   4.378
  791SOL     OW 3271   3.430   1.218   3.803
  791SOL    HW1 3272   3.357   1.179   3.860
  791SOL    HW2 3273   3.518   1.199   3.846
  792SOL     OW 3274   5.127   0.814   3.924
  792SOL    HW1 3275   5.183   0.894   3.902
  792SOL    HW2 3276   5.072   0.790   3.843
  793SOL     OW 3277   0.479   6.608   6.631
  793SOL    HW1 3278   0.557   6.610   6.693
  793SOL    HW2 3279   0.400   6.652   6.675
  794SOL     OW 3280   3.720   5.197   4.901
  794SOL    HW1 3281   3.779   5.278   4.899
  794SOL    HW2 3282   3.668   5.196   4.987
  795SOL     OW 3283   4.920   5.428   6.940
  795SOL    HW1 3284   4.982   5.454   7.014
  795SOL    HW2 3285   4.828   5.463   6.959
  796SOL     OW 3286   1.442   1.991   6.069
  796SOL    HW1 3287   1.428   2.087   6.092
  796SOL    HW2 3288   1.410   1.974   5.976
  797SOL     OW 3289   6.003   3.254   5.582
  797SOL    HW1 3290   6.095   3.282   5.554
  797SOL    HW2 3291   5.998   3.154   5.582
  798SOL     OW 3292   6.207   0.393   4.302
  798SOL    HW1 3293   6.281   0.449   4.339
  798SOL    HW2 3294   6.246   0.313   4.256
  799SOL     OW 3295   6.548   4.026   3.973
  799SOL    HW1 3296   6.533   4.123   3.953
  799SOL    HW2 3297   6.462   3.976   3.963
  800SOL     OW 3298   0.379   2.654   2.109
  800SOL    HW1 3299   0.409   2.585   2.042
  800SOL    HW2 3300   0.421   2.634   2.198
  801SOL     OW 3301   0.239   3.962   3.410
  801SOL    HW1 3302   0.231   4.055   3.447
  801SOL    HW2 3303   0.147   3.924   3.396
  802SOL     OW 3304   6.577   0.700   0.583
  802SOL    HW1 3305   6.544   0.734   0.495
  802SOL    HW2 3306   6.549   0.763   0.656
  803SOL     OW 3307   2.426   6.519   4.564
  803SOL    HW1 3308   2.390   6.598   4.615
  803SOL    HW2 3309   2.513   6.544   4.522
  804SOL     OW 3310   5.598   5.548   0.708
  804SOL    HW1 3311   5.691   5.537   0.745
  804SOL    HW2 3312   5.556   5.458   0.696
  805SOL     OW 3313   2.273   2.425   6.183
  805SOL    HW1 3314   2.345   2.449   6.248
  805SOL    HW2 3315   2.189   2.474   6.206
  806SOL     OW 3316   3.994   6.544   0.048
  806SOL    HW1 3317   4.047   6.460   0.057
  806SOL    HW2 3318   3.962   6.574   0.138
  807SOL     OW 3319   6.721   0.882   3.094
  807SOL    HW1 3320   6.749   0.941   3.018
  807SOL    HW2 3321   6.793   0.881   3.164
  808SOL     OW 3322   5.564   3.802   5.111
  808SOL    HW1 3323   5.654   3.841   5.091
  808SOL    HW2 3324   5.575   3.712   5.153
  809SOL     OW 3325   6.970   5.768   5.578
  809SOL    HW1 3326   6.923   5.680   5.589
  809SOL    HW2 3327   0.041   5.762   5.620
  810SOL     OW 3328   5.863   4.882   6.011
  810SOL    HW1 3329   5.864   4.836   5.922
  810SOL    HW2 3330   5.933   4.953   6.012
  811SOL     OW 3331   2.700   4.805   2.519
  811SOL    HW1 3332   2.604   4.816   2.492
  811SOL    HW2 3333   2.753   4.770   2.442
  812SOL     OW 3334   6.918   0.444   2.960
  812SOL    HW1 3335   6.927   0.543   2.964
  812SOL    HW2 3336   7.009   0.402   2.953
  813SOL     OW 3337   5.097   4.658   1.866
  813SOL    HW1 3338   5.003   4.655   1.902
  813SOL    HW2 3339   5.106   4.591   1.792
  814SOL     OW 3340   5.409   5.059   1.726
  814SOL    HW1 3341   5.381   5.059   1.630
  814SOL    HW2 3342   5.358   4.988   1.776
  815SOL     OW 3343   0.968   1.194   1.126
  815SOL    HW1 3344   0.905   1.242   1.187
  815SOL    HW2 3345   0.957   1.096   1.138
  816SOL     OW 3346   6.078   0.508   1.337
  816SOL    HW1 3347   6.127   0.595   1.332
  816SOL    HW2 3348   6.023   0.495   1.255
  817SOL     OW 3349   0.453   2.320   2.416
  817SOL    HW1 3350   0.442   2.336   2.514
  817SOL    HW2 3351   0.519   2.246   2.402
  818SOL     OW 3352   5.395   1.680   3.282
  818SOL    HW1 3353   5.464   1.613   3.255
  818SOL    HW2 3354   5.321   1.681   3.215
  819SOL     OW 3355   0.456   4.985   2.653
  819SOL    HW1 3356   0.470   5.004   2.750
  819SOL    HW2 3357   0.488   5.062   2.598
  820SOL     OW 3358   2.485   3.450   5.744
  820SOL    HW1 3359   2.565   3.397   5.718
  820SOL    HW2 3360   2.409   3.426   5.684
  821SOL     OW 3361   1.039   4.221   0.500
  821SOL    HW1 3362   1.009   4.282   0.426
  821SOL    HW2 3363   1.137   4.205   0.491
  822SOL     OW 3364   0.622   3.212   5.580
  822SOL    HW1 3365   0.670   3.300   5.577
  822SOL    HW2 3366   0.658   3.152   5.509
  823SOL     OW 3367   4.521   4.214   1.415
  823SOL    HW1 3368   4.474   4.273   1.481
  823SOL    HW2 3369   4.619   4.229   1.421
  824SOL     OW 3370   6.528   3.763   6.595
  824SOL    HW1 3371   6.616   3.800   6.624
  824SOL    HW2 3372   6.527   3.756   6.495
  825SOL     OW 3373   2.371   2.949   1.467
  825SOL    HW1 3374   2.309   2.926   1.393
  825SOL    HW2 3375   2.465   2.952   1.432
  826SOL     OW 3376   1.132   1.792   6.825
  826SOL    HW1 3377   1.176   1.782   6.914
  826SOL    HW2 3378   1.174   1.867   6.775
  827SOL     OW 3379   3.944   4.341   1.009
  827SOL    HW1 3380   3.992   4.417   0.966
  827SOL    HW2 3381   3.845   4.359   1.006
  828SOL     OW 3382   5.803   1.447   5.436
  828SOL    HW1 3383   5.798   1.436   5.336
  828SOL    HW2 3384   5.897   1.469   5.461
  829SOL     OW 3385   4.360   4.449   5.652
  829SOL    HW1 3386   4.386   4.357   5.682
  829SOL    HW2 3387   4.263   4.465   5.670
  830SOL     OW 3388   4.298   3.644   6.446
  830SOL    HW1 3389   4.281   3.663   6.349
  830SOL    HW2 3390   4.260   3.555   6.470
  831SOL     OW 3391   5.376   2.203   5.784
  831SOL    HW1 3392   5.331   2.270   5.726
  831SOL    HW2 3393   5.400   2.122   5.730
  832SOL     OW 3394   3.210   1.542   5.682
  832SOL    HW1 3395   3.226   1.556   5.779
  832SOL    HW2 3396   3.127   1.592   5.654
  833SOL     OW 3397   1.305   0.637   5.104
  833SOL    HW1 3398   1.225   0.578   5.087
  833SOL    HW2 3399   1.386   0.580   5.118
  834SOL     OW 3400   3.156   4.767   5.879
  834SOL    HW1 3401   3.151   4.845   5.817
  834SOL    HW2 3402   3.064   4.740   5.907
  835SOL     OW 3403   3.916   1.726   2.864
  835SOL    HW1 3404   3.903   1.797   2.933
  835SOL    HW2 3405   3.966   1.649   2.905
  836SOL     OW 3406   2.145   1.227   5.416
  836SOL    HW1 3407   2.221   1.188   5.364
  836SOL    HW2 3408   2.077   1.155   5.433
  837SOL     OW 3409   3.955   1.445   4.332
  837SOL    HW1 3410   4.004   1.363   4.305
  837SOL    HW2 3411   3.882   1.463   4.267
  838SOL     OW 3412   0.572   6.332   2.311
  838SOL    HW1 3413   0.605   6.293   2.397
  838SOL    HW2 3414   0.518   6.264   2.262
  839SOL     OW 3415   2.036   1.834   2.179
  839SOL    HW1 3416   1.998   1.823   2.086
  839SOL    HW2 3417   2.070   1.746   2.212
  840SOL     OW 3418   2.151   0.707   4.853
  840SOL    HW1 3419   2.195   0.742   4.936
  840SOL    HW2 3420   2.105   0.782   4.806
  841SOL     OW 3421   0.179   3.184   0.414
  841SOL    HW1 3422   0.202   3.125   0.492
  841SOL    HW2 3423   0.166   3.128   0.332
  842SOL     OW 3424   3.930   5.056   4.267
  842SOL    HW1 3425   3.878   5.032   4.185
  842SOL    HW2 3426   3.869   5.102   4.332
  843SOL     OW 3427   6.897   2.766   0.971
  843SOL    HW1 3428   6.885   2.861   0.944
  843SOL    HW2 3429   6.932   2.763   1.065
  844SOL     OW 3430   5.641   4.303   6.311
  844SOL    HW1 3431   5.637   4.208   6.341
  844SOL    HW2 3432   5.548   4.335   6.291
  845SOL     OW 3433   2.148   4.884   5.567
  845SOL    HW1 3434   2.215   4.890   5.641
  845SOL    HW2 3435   2.164   4.801   5.514
  846SOL     OW 3436   5.156   1.935   0.131
  846SOL    HW1 3437   5.232   1.925   0.067
  846SOL    HW2 3438   5.103   1.850   0.133
  847SOL     OW 3439   5.246   4.073   2.021
  847SOL    HW1 3440   5.276   3.990   1.973
  847SOL    HW2 3441   5.326   4.127   2.047
  848SOL     OW 3442   5.756   6.910   5.874
  848SOL    HW1 3443   5.792   6.917   5.781
  848SOL    HW2 3444   5.751   7.001   5.914
  849SOL     OW 3445   0.849   0.114   3.349
  849SOL    HW1 3446   0.923   0.178   3.328
  849SOL    HW2 3447   0.868   0.068   3.435
  850SOL     OW 3448   2.851   0.988   2.771
  850SOL    HW1 3449   2.931   0.935   2.746
  850SOL    HW2 3450   2.874   1.051   2.845
  851SOL     OW 3451   6.642   1.581   6.203
  851SOL    HW1 3452   6.569   1.574   6.270
  851SOL    HW2 3453   6.713   1.514   6.223
  852SOL     OW 3454   3.745   5.084   4.499
  852SOL    HW1 3455   3.791   5.049   4.581
  852SOL    HW2 3456   3.705   5.173   4.519
  853SOL     OW 3457   1.110   3.919   0.808
  853SOL    HW1 3458   1.025   3.969   0.794
  853SOL    HW2 3459   1.094   3.821   0.795
  854SOL     OW 3460   6.707   4.735   1.038
  854SOL    HW1 3461   6.622   4.787   1.028
  854SOL    HW2 3462   6.724   4.719   1.135
  855SOL     OW 3463   4.574   0.313   0.370
  855SOL    HW1 3464   4.513   0.243   0.408
  855SOL    HW2 3465   4.668   0.278   0.371
  856SOL     OW 3466   1.757   1.107   5.245
  856SOL    HW1 3467   1.665   1.146   5.254
  856SOL    HW2 3468   1.823   1.181   5.234
  857SOL     OW 3469   6.483   4.504   2.433
  857SOL    HW1 3470   6.444   4.595   2.445
  857SOL    HW2 3471   6.514   4.469   2.522
  858SOL     OW 3472   3.920   3.597   1.840
  858SOL    HW1 3473   3.850   3.667   1.852
  858SOL    HW2 3474   3.877   3.506   1.836
  859SOL     OW 3475   6.651   3.972   1.555
  859SOL    HW1 3476   6.744   3.996   1.525
  859SOL    HW2 3477   6.585   4.029   1.506
  860SOL     OW 3478   1.587   4.031   6.182
  860SOL    HW1 3479   1.595   4.015   6.084
  860SOL    HW2 3480   1.534   4.114   6.199
  861SOL     OW 3481   4.228   4.792   6.480
  861SOL    HW1 3482   4.229   4.781   6.381
  861SOL    HW2 3483   4.134   4.796   6.513
  862SOL     OW 3484   4.253   4.768   3.856
  862SOL    HW1 3485   4.256   4.705   3.779
  862SOL    HW2 3486   4.242   4.862   3.823
  863SOL     OW 3487   6.795   3.133   1.440
  863SOL    HW1 3488   6.736   3.209   1.411
  863SOL    HW2 3489   6.787   3.058   1.374
  864SOL     OW 3490   1.033   6.583   1.653
  864SOL    HW1 3491   1.109   6.637   1.617
  864SOL    HW2 3492   1.003   6.622   1.740
  865SOL     OW 3493   1.053   1.351   3.897
  865SOL    HW1 3494   1.019   1.444   3.902
  865SOL    HW2 3495   1.063   1.313   3.989
  866SOL     OW 3496   3.957   0.734   1.886
  866SOL    HW1 3497   4.036   0.790   1.861
  866SOL    HW2 3498   3.945   0.735   1.986
  867SOL     OW 3499   3.205   1.519   6.449
  867SOL    HW1 3500   3.236   1.607   6.413
  867SOL    HW2 3501   3.278   1.479   6.505
  868SOL     OW 3502   4.680   1.886   3.297
  868SOL    HW1 3503   4.714   1.812   3.238
  868SOL    HW2 3504   4.612   1.940   3.247
  869SOL     OW 3505   6.320   3.501   1.010
  869SOL    HW1 3506   6.359   3.464   0.926
  869SOL    HW2 3507   6.296   3.597   0.997
  870SOL     OW 3508   6.086   1.786   0.711
  870SOL    HW1 3509   6.157   1.840   0.666
  870SOL    HW2 3510   6.106   1.688   0.701
  871SOL     OW 3511   0.098   4.367   0.966
  871SOL    HW1 3512   0.000   4.345   0.963
  871SOL    HW2 3513   0.130   4.366   1.061
  872SOL     OW 3514   6.554   1.853   1.746
  872SOL    HW1 3515   6.539   1.950   1.730
  872SOL    HW2 3516   6.481   1.800   1.702
  873SOL     OW 3517   4.174   0.075   4.086
  873SOL    HW1 3518   4.207   0.040   3.998
  873SOL    HW2 3519   4.080   0.046   4.100
  874SOL     OW 3520   1.213   3.481   6.252
  874SOL    HW1 3521   1.221   3.519   6.160
  874SOL    HW2 3522   1.117   3.460   6.271
  875SOL     OW 3523   5.942   6.007   6.792
  875SOL    HW1 3524   6.026   6.060   6.783
  875SOL    HW2 3525   5.862   6.066   6.778
  876SOL     OW 3526   2.653   2.407   1.816
  876SOL    HW1 3527   2.734   2.424   1.871
  876SOL    HW2 3528   2.674   2.425   1.719
  877SOL     OW 3529   6.113   5.483   5.983
  877SOL    HW1 3530   6.029   5.439   5.954
  877SOL    HW2 3531   6.104   5.582   5.974
  878SOL     OW 3532   4.481   3.204   1.237
  878SOL    HW1 3533   4.420   3.134   1.199
  878SOL    HW2 3534   4.456   3.222   1.332
  879SOL     OW 3535   5.165   3.152   3.218
  879SOL    HW1 3536   5.077   3.167   3.173
  879SOL    HW2 3537   5.232   3.122   3.151
  880SOL     OW 3538   4.307   6.963   1.339
  880SOL    HW1 3539   4.265   7.011   1.261
  880SOL    HW2 3540   4.393   7.008   1.363
  881SOL     OW 3541   4.721   5.371   3.429
  881SOL    HW1 3542   4.661   5.446   3.404
  881SOL    HW2 3543   4.765   5.390   3.517
  882SOL     OW 3544   0.524   2.314   5.294
  882SOL    HW1 3545   0.448   2.330   5.357
  882SOL    HW2 3546   0.489   2.271   5.211
  883SOL     OW 3547   3.017   4.939   6.931
  883SOL    HW1 3548   2.987   4.861   6.875
  883SOL    HW2 3549   3.088   4.908   6.995
  884SOL     OW 3550   4.465   4.329   1.154
  884SOL    HW1 3551   4.546   4.388   1.153
  884SOL    HW2 3552   4.467   4.270   1.235
  885SOL     OW 3553   3.886   5.587   6.766
  885SOL    HW1 3554   3.815   5.546   6.823
  885SOL    HW2 3555   3.854   5.675   6.731
  886SOL     OW 3556   3.867   2.598   6.465
  886SOL    HW1 3557   3.815   2.513   6.454
  886SOL    HW2 3558   3.804   2.675   6.478
  887SOL     OW 3559   6.327   6.380   4.734
  887SOL    HW1 3560   6.298   6.323   4.812
  887SOL    HW2 3561   6.418   6.418   4.753
  888SOL     OW 3562   6.254   1.245   3.591
  888SOL    HW1 3563   6.207   1.333   3.580
  888SOL    HW2 3564   6.342   1.248   3.544
  889SOL     OW 3565   0.620   0.298   4.712
  889SOL    HW1 3566   0.635   0.252   4.800
  889SOL    HW2 3567   0.677   0.254   4.642
  890SOL     OW 3568   2.583   3.509   0.543
  890SOL    HW1 3569   2.556   3.484   0.450
  890SOL    HW2 3570   2.586   3.608   0.551
  891SOL     OW 3571   6.490   2.985   5.468
  891SOL    HW1 3572   6.555   2.952   5.399
  891SOL    HW2 3573   6.526   2.967   5.559
  892SOL     OW 3574   2.426   4.573   1.868
  892SOL    HW1 3575   2.469   4.620   1.791
  892SOL    HW2 3576   2.454   4.616   1.953
  893SOL     OW 3577   1.927   0.745   1.769
  893SOL    HW1 3578   1.943   0.844   1.764
  893SOL    HW2 3579   1.883   0.713   1.685
  894SOL     OW 3580   1.136   5.314   3.852
  894SOL    HW1 3581   1.200   5.374   3.804
  894SOL    HW2 3582   1.182   5.230   3.879
  895SOL     OW 3583   2.816   1.075   4.301
  895SOL    HW1 3584   2.814   0.978   4.326
  895SOL    HW2 3585   2.799   1.086   4.203
  896SOL     OW 3586   4.638   0.119   3.229
  896SOL    HW1 3587   4.563   0.184   3.242
  896SOL    HW2 3588   4.653   0.068   3.314
  897SOL     OW 3589   6.418   1.114   6.883
  897SOL    HW1 3590   6.466   1.064   6.955
  897SOL    HW2 3591   6.475   1.117   6.801
  898SOL     OW 3592   5.515   5.788   3.476
  898SOL    HW1 3593   5.501   5.876   3.431
  898SOL    HW2 3594   5.445   5.723   3.444
  899SOL     OW 3595   1.516   4.538   0.107
  899SOL    HW1 3596   1.565   4.470   0.162
  899SOL    HW2 3597   1.508   4.506   0.013
  900SOL     OW 3598   0.036   5.793   3.449
  900SOL    HW1 3599   0.126   5.752   3.460
  900SOL    HW2 3600   0.015   5.804   3.352
  901SOL     OW 3601   6.250   2.052   3.352
  901SOL    HW1 3602   6.194   1.974   3.324
  901SOL    HW2 3603   6.300   2.086   3.273
  902SOL     OW 3604   1.517   5.666   0.084
  902SOL    HW1 3605   1.467   5.626   0.162
  902SOL    HW2 3606   1.602   5.615   0.070
  903SOL     OW 3607   1.341   4.786   6.723
  903SOL    HW1 3608   1.406   4.858   6.697
  903SOL    HW2 3609   1.261   4.790   6.663
  904SOL     OW 3610   1.297   2.320   4.360
  904SOL    HW1 3611   1.234   2.316   4.438
  904SOL    HW2 3612   1.248   2.352   4.279
  905SOL     OW 3613   6.570   3.679   3.415
  905SOL    HW1 3614   6.557   3.580   3.420
  905SOL    HW2 3615   6.502   3.719   3.353
  906SOL     OW 3616   0.049   3.422   5.595
  906SOL    HW1 3617   0.078   3.371   5.514
  906SOL    HW2 3618   0.129   3.457   5.643
  907SOL     OW 3619   6.726   4.571   2.960
  907SOL    HW1 3620   6.806   4.511   2.971
  907SOL    HW2 3621   6.694   4.567   2.866
  908SOL     OW 3622   2.482   1.060   3.290
  908SOL    HW1 3623   2.393   1.046   3.334
  908SOL    HW2 3624   2.483   1.149   3.244
  909SOL     OW 3625   2.941   6.682   2.450
  909SOL    HW1 3626   2.981   6.734   2.374
  909SOL    HW2 3627   2.873   6.739   2.496
  910SOL     OW 3628   1.411   0.733   1.890
  910SOL    HW1 3629   1.342   0.684   1.836
  910SOL    HW2 3630   1.438   0.678   1.969
  911SOL     OW 3631   1.166   2.696   1.048
  911SOL    HW1 3632   1.266   2.685   1.047
  911SOL    HW2 3633   1.138   2.750   0.969
  912SOL     OW 3634   2.606   0.809   1.303
  912SOL    HW1 3635   2.646   0.732   1.254
  912SOL    HW2 3636   2.630   0.894   1.256
  913SOL     OW 3637   2.348   0.665   1.831
  913SOL    HW1 3638   2.268   0.608   1.810
  913SOL    HW2 3639   2.406   0.617   1.897
  914SOL     OW 3640   3.305   4.876   2.588
  914SOL    HW1 3641   3.364   4.949   2.550
  914SOL    HW2 3642   3.357   4.825   2.656
  915SOL     OW 3643   3.507   2.147   1.444
  915SOL    HW1 3644   3.529   2.054   1.474
  915SOL    HW2 3645   3.556   2.213   1.501
  916SOL     OW 3646   0.258   3.987   2.722
  916SOL    HW1 3647   0.212   4.076   2.713
  916SOL    HW2 3648   0.331   3.980   2.653
  917SOL     OW 3649   4.314   0.626   5.208
  917SOL    HW1 3650   4.326   0.664   5.299
  917SOL    HW2 3651   4.404   0.614   5.165
  918SOL     OW 3652   0.213   2.478   5.013
  918SOL    HW1 3653   0.308   2.509   5.019
  918SOL    HW2 3654   0.211   2.383   4.982
  919SOL     OW 3655   0.806   0.170   0.826
  919SOL    HW1 3656   0.769   0.151   0.917
  919SOL    HW2 3657   0.861   0.254   0.829
  920SOL     OW 3658   1.121   1.843   2.760
  920SOL    HW1 3659   1.081   1.879   2.676
  920SOL    HW2 3660   1.221   1.853   2.757
  921SOL     OW 3661   4.326   4.249   0.150
  921SOL    HW1 3662   4.291   4.183   0.216
  921SOL    HW2 3663   4.262   4.325   0.141
  922SOL     OW 3664   2.440   5.623   6.558
  922SOL    HW1 3665   2.446   5.679   6.476
  922SOL    HW2 3666   2.367   5.555   6.548
  923SOL     OW 3667   3.657   0.967   0.030
  923SOL    HW1 3668   3.743   1.019   0.034
  923SOL    HW2 3669   3.638   0.927   0.120
  924SOL     OW 3670   5.082   5.242   1.350
  924SOL    HW1 3671   5.117   5.300   1.424
  924SOL    HW2 3672   5.153   5.176   1.323
  925SOL     OW 3673   5.580   2.018   1.583
  925SOL    HW1 3674   5.563   1.972   1.496
  925SOL    HW2 3675   5.497   2.062   1.615
  926SOL     OW 3676   4.388   5.687   1.672
  926SOL    HW1 3677   4.397   5.745   1.591
  926SOL    HW2 3678   4.351   5.740   1.748
  927SOL     OW 3679   5.335   5.306   5.736
  927SOL    HW1 3680   5.273   5.371   5.693
  927SOL    HW2 3681   5.287   5.257   5.809
  928SOL     OW 3682   6.599   1.333   2.175
  928SOL    HW1 3683   6.570   1.293   2.262
  928SOL    HW2 3684   6.697   1.322   2.164
  929SOL     OW 3685   6.414   2.160   2.671
  929SOL    HW1 3686   6.388   2.159   2.575
  929SOL    HW2 3687   6.514   2.157   2.679
  930SOL     OW 3688   5.997   4.223   2.624
  930SOL    HW1 3689   5.952   4.302   2.582
  930SOL    HW2 3690   6.095   4.230   2.610
  931SOL     OW 3691   0.210   2.657   0.634
  931SOL    HW1 3692   0.234   2.672   0.538
  931SOL    HW2 3693   0.116   2.686   0.650
  932SOL     OW 3694   4.190   6.476   0.348
  932SOL    HW1 3695   4.114   6.452   0.408
  932SOL    HW2 3696   4.245   6.547   0.390
  933SOL     OW 3697   0.683   6.760   3.068
  933SOL    HW1 3698   0.750   6.830   3.094
  933SOL    HW2 3699   0.731   6.681   3.031
  934SOL     OW 3700   4.414   1.712   4.756
  934SOL    HW1 3701   4.429   1.635   4.818
  934SOL    HW2 3702   4.318   1.739   4.759
  935SOL     OW 3703   0.882   3.877   4.263
  935SOL    HW1 3704   0.935   3.953   4.300
  935SOL    HW2 3705   0.895   3.871   4.164
  936SOL     OW 3706   0.954   0.918   1.219
  936SOL    HW1 3707   0.944   0.959   1.310
  936SOL    HW2 3708   0.957   0.818   1.229
  937SOL     OW 3709   4.725   1.731   3.045
  937SOL    HW1 3710   4.717   1.808   2.982
  937SOL    HW2 3711   4.810   1.681   3.025
  938SOL     OW 3712   0.582   0.810   6.010
  938SOL    HW1 3713   0.551   0.722   5.974
  938SOL    HW2 3714   0.503   0.864   6.039
  939SOL     OW 3715   0.133   1.108   4.787
  939SOL    HW1 3716   0.037   1.121   4.812
  939SOL    HW2 3717   0.183   1.194   4.801
  940SOL     OW 3718   6.107   0.016   3.572
  940SOL    HW1 3719   6.202   0.034   3.597
  940SOL    HW2 3720   6.048   0.031   3.652
  941SOL     OW 3721   5.816   2.728   4.870
  941SOL    HW1 3722   5.829   2.666   4.948
  941SOL    HW2 3723   5.723   2.716   4.834
  942SOL     OW 3724   4.098   6.675   6.105
  942SOL    HW1 3725   4.037   6.648   6.180
  942SOL    HW2 3726   4.180   6.719   6.143
  943SOL     OW 3727   4.944   2.074   6.636
  943SOL    HW1 3728   5.001   2.067   6.554
  943SOL    HW2 3729   4.955   2.165   6.676
  944SOL     OW 3730   5.265   4.641   3.924
  944SOL    HW1 3731   5.233   4.546   3.922
  944SOL    HW2 3732   5.275   4.671   4.018
  945SOL     OW 3733   6.303   2.965   6.186
  945SOL    HW1 3734   6.335   3.058   6.205
  945SOL    HW2 3735   6.343   2.933   6.100
  946SOL     OW 3736   5.999   2.954   6.259
  946SOL    HW1 3737   6.055   3.001   6.191
  946SOL    HW2 3738   5.928   3.015   6.293
  947SOL     OW 3739   1.582   1.785   6.159
  947SOL    HW1 3740   1.579   1.812   6.255
  947SOL    HW2 3741   1.541   1.858   6.103
  948SOL     OW 3742   3.573   1.718   1.502
  948SOL    HW1 3743   3.591   1.811   1.535
  948SOL    HW2 3744   3.659   1.675   1.476
  949SOL     OW 3745   5.107   4.779   5.960
  949SOL    HW1 3746   5.033   4.810   6.020
  949SOL    HW2 3747   5.108   4.834   5.877
  950SOL     OW 3748   3.915   5.215   0.863
  950SOL    HW1 3749   3.918   5.192   0.960
  950SOL    HW2 3750   3.899   5.314   0.853
  951SOL     OW 3751   0.366   3.710   3.041
  951SOL    HW1 3752   0.313   3.667   3.114
  951SOL    HW2 3753   0.443   3.652   3.016
  952SOL     OW 3754   4.348   1.240   1.004
  952SOL    HW1 3755   4.391   1.288   0.928
  952SOL    HW2 3756   4.331   1.303   1.079
  953SOL     OW 3757   4.464   6.544   5.861
  953SOL    HW1 3758   4.369   6.572   5.845
  953SOL    HW2 3759   4.500   6.593   5.941
  954SOL     OW 3760   6.768   6.389   1.355
  954SOL    HW1 3761   6.832   6.370   1.281
  954SOL    HW2 3762   6.684   6.430   1.317
  955SOL     OW 3763   1.259   6.765   4.050
  955SOL    HW1 3764   1.223   6.807   4.134
  955SOL    HW2 3765   1.342   6.714   4.071
  956SOL     OW 3766   1.740   2.961   0.909
  956SOL    HW1 3767   1.659   3.011   0.939
  956SOL    HW2 3768   1.750   2.878   0.963
  957SOL     OW 3769   2.635   6.231   4.310
  957SOL    HW1 3770   2.544   6.195   4.290
  957SOL    HW2 3771   2.694   6.156   4.342
  958SOL     OW 3772   4.375   2.132   6.600
  958SOL    HW1 3773   4.380   2.085   6.688
  958SOL    HW2 3774   4.310   2.208   6.606
  959SOL     OW 3775   1.469   4.074   0.285
  959SOL    HW1 3776   1.527   4.001   0.249
  959SOL    HW2 3777   1.374   4.059   0.257
  960SOL     OW 3778   1.637   3.737   5.466
  960SOL    HW1 3779   1.653   3.681   5.547
  960SOL    HW2 3780   1.563   3.698   5.412
  961SOL     OW 3781   3.842   6.533   6.425
  961SOL    HW1 3782   3.874   6.625   6.403
  961SOL    HW2 3783   3.903   6.466   6.382
  962SOL     OW 3784   0.203   0.219   4.001
  962SOL    HW1 3785   0.271   0.156   3.964
  962SOL    HW2 3786   0.159   0.268   3.925
  963SOL     OW 3787   5.664   0.051   3.380
  963SOL    HW1 3788   5.605   0.110   3.325
  963SOL    HW2 3789   5.760   0.076   3.365
  964SOL     OW 3790   6.060   4.276   1.851
  964SOL    HW1 3791   6.100   4.201   1.798
  964SOL    HW2 3792   6.075   4.362   1.804
  965SOL     OW 3793   1.745   2.303   0.126
  965SOL    HW1 3794   1.766   2.241   0.202
  965SOL    HW2 3795   1.734   2.250   0.042
  966SOL     OW 3796   5.195   2.146   2.023
  966SOL    HW1 3797   5.217   2.103   1.936
  966SOL    HW2 3798   5.155   2.079   2.085
  967SOL     OW 3799   0.708   5.743   2.916
  967SOL    HW1 3800   0.682   5.652   2.949
  967SOL    HW2 3801   0.627   5.801   2.911
  968SOL     OW 3802   0.218   4.052   1.093
  968SOL    HW1 3803   0.136   3.998   1.110
  968SOL    HW2 3804   0.213   4.137   1.145
  969SOL     OW 3805   3.375   6.996   6.382
  969SOL    HW1 3806   3.391   6.928   6.453
  969SOL    HW2 3807   3.441   6.982   6.307
  970SOL     OW 3808   5.310   3.850   6.176
  970SOL    HW1 3809   5.267   3.766   6.142
  970SOL    HW2 3810   5.407   3.832   6.194
  971SOL     OW 3811   0.592   1.664   0.026
  971SOL    HW1 3812   0.673   1.722   0.014
  971SOL    HW2 3813   0.523   1.715   0.076
  972SOL     OW 3814   3.633   0.146   6.368
  972SOL    HW1 3815   3.634   0.191   6.458
  972SOL    HW2 3816   3.566   0.191   6.309
  973SOL     OW 3817   6.538   3.248   6.218
  973SOL    HW1 3818   6.577   3.318   6.159
  973SOL    HW2 3819   6.473   3.291   6.281
  974SOL     OW 3820   2.423   0.807   4.013
  974SOL    HW1 3821   2.447   0.844   4.103
  974SOL    HW2 3822   2.361   0.729   4.025
  975SOL     OW 3823   2.853   6.519   4.024
  975SOL    HW1 3824   2.916   6.596   4.030
  975SOL    HW2 3825   2.878   6.462   3.946
  976SOL     OW 3826   0.361   5.433   4.929
  976SOL    HW1 3827   0.458   5.428   4.953
  976SOL    HW2 3828   0.350   5.494   4.850
  977SOL     OW 3829   0.615   1.927   1.901
  977SOL    HW1 3830   0.575   1.883   1.821
  977SOL    HW2 3831   0.553   1.918   1.979
  978SOL     OW 3832   6.032   2.556   3.885
  978SOL    HW1 3833   6.047   2.655   3.894
  978SOL    HW2 3834   6.103   2.517   3.826
  979SOL     OW 3835   5.510   1.392   2.602
  979SOL    HW1 3836   5.579   1.366   2.535
  979SOL    HW2 3837   5.476   1.310   2.648
  980SOL     OW 3838   6.154   5.978   5.269
  980SOL    HW1 3839   6.224   6.033   5.315
  980SOL    HW2 3840   6.113   5.915   5.335
  981SOL     OW 3841   6.306   3.090   6.925
  981SOL    HW1 3842   6.339   3.168   6.871
  981SOL    HW2 3843   6.353   3.007   6.895
  982SOL     OW 3844   1.453   4.552   6.833
  982SOL    HW1 3845   1.388   4.477   6.849
  982SOL    HW2 3846   1.402   4.634   6.807
  983SOL     OW 3847   5.579   1.377   3.654
  983SOL    HW1 3848   5.563   1.359   3.557
  983SOL    HW2 3849   5.652   1.445   3.663
  984SOL     OW 3850   4.824   3.303   5.204
  984SOL    HW1 3851   4.844   3.288   5.301
  984SOL    HW2 3852   4.743   3.361   5.195
  985SOL     OW 3853   2.053   4.104   0.244
  985SOL    HW1 3854   1.989   4.181   0.247
  985SOL    HW2 3855   2.107   4.101   0.328
  986SOL     OW 3856   5.641   4.665   4.846
  986SOL    HW1 3857   5.639   4.565   4.850
  986SOL    HW2 3858   5.671   4.702   4.934
  987SOL     OW 3859   2.479   1.221   2.976
  987SOL    HW1 3860   2.415   1.277   2.924
  987SOL    HW2 3861   2.523   1.277   3.046
  988SOL     OW 3862   3.815   3.599   1.309
  988SOL    HW1 3863   3.910   3.629   1.296
  988SOL    HW2 3864   3.766   3.667   1.364
  989SOL     OW 3865   1.159   1.036   5.279
  989SOL    HW1 3866   1.246   0.990   5.298
  989SOL    HW2 3867   1.099   1.030   5.359
  990SOL     OW 3868   4.350   6.063   2.045
  990SOL    HW1 3869   4.284   6.138   2.047
  990SOL    HW2 3870   4.412   6.071   2.123
  991SOL     OW 3871   6.203   1.707   6.319
  991SOL    HW1 3872   6.226   1.762   6.238
  991SOL    HW2 3873   6.130   1.751   6.370
  992SOL     OW 3874   0.387   2.579   0.320
  992SOL    HW1 3875   0.314   2.646   0.334
  992SOL    HW2 3876   0.467   2.625   0.281
  993SOL     OW 3877   3.980   6.770   4.227
  993SOL    HW1 3878   4.054   6.712   4.191
  993SOL    HW2 3879   3.893   6.721   4.220
  994SOL     OW 3880   3.094   3.835   3.717
  994SOL    HW1 3881   2.999   3.836   3.747
  994SOL    HW2 3882   3.116   3.746   3.677
  995SOL     OW 3883   1.521   1.631   5.152
  995SOL    HW1 3884   1.469   1.596   5.231
  995SOL    HW2 3885   1.607   1.581   5.145
  996SOL     OW 3886   2.439   3.188   0.790
  996SOL    HW1 3887   2.365   3.210   0.853
  996SOL    HW2 3888   2.527   3.197   0.836
  997SOL     OW 3889   6.785   0.996   0.574
  997SOL    HW1 3890   6.758   0.936   0.649
  997SOL    HW2 3891   6.710   1.059   0.554
  998SOL     OW 3892   4.456   6.738   3.843
  998SOL    HW1 3893   4.427   6.784   3.927
  998SOL    HW2 3894   4.377   6.692   3.802
  999SOL     OW 3895   0.235   4.630   6.481
  999SOL    HW1 3896   0.193   4.692   6.416
  999SOL    HW2 3897   0.168   4.562   6.512
 1000SOL     OW 3898   3.630   1.925   5.643
 1000SOL    HW1 3899   3.661   1.850   5.701
 1000SOL    HW2 3900   3.672   1.917   5.553
 1001SOL     OW 3901   5.016   0.841   4.613
 1001SOL    HW1 3902   5.097   0.806   4.565
 1001SOL    HW2 3903   4.995   0.933   4.580
 1002SOL     OW 3904   0.229   1.385   0.509
 1002SOL    HW1 3905   0.137   1.381   0.469
 1002SOL    HW2 3906   0.222   1.384   0.608
 1003SOL     OW 3907   4.731   5.239   2.267
 1003SOL    HW1 3908   4.695   5.221   2.359
 1003SOL    HW2 3909   4.788   5.162   2.238
 1004SOL     OW 3910   5.982   5.768   6.960
 1004SOL    HW1 3911   5.954   5.859   6.929
 1004SOL    HW2 3912   6.022   5.774   0.032
 1005SOL     OW 3913   5.035   6.440   2.688
 1005SOL    HW1 3914   5.060   6.347   2.715
 1005SOL    HW2 3915   4.968   6.477   2.753
 1006SOL     OW 3916   1.808   5.826   0.173
 1006SOL    HW1 3917   1.786   5.834   0.270
 1006SOL    HW2 3918   1.885   5.763   0.161
 1007SOL     OW 3919   6.095   2.258   2.705
 1007SOL    HW1 3920   6.063   2.180   2.652
 1007SOL    HW2 3921   6.133   2.226   2.792
 1008SOL     OW 3922   3.498   1.207   5.326
 1008SOL    HW1 3923   3.411   1.173   5.362
 1008SOL    HW2 3924   3.480   1.270   5.250
 1009SOL     OW 3925   3.594   6.137   5.726
 1009SOL    HW1 3926   3.517   6.187   5.768
 1009SOL    HW2 3927   3.680   6.177   5.757
 1010SOL     OW 3928   4.752   6.118   5.798
 1010SOL    HW1 3929   4.774   6.143   5.704
 1010SOL    HW2 3930   4.831   6.074   5.841
 1011SOL     OW 3931   2.560   5.175   4.670
 1011SOL    HW1 3932   2.590   5.217   4.755
 1011SOL    HW2 3933   2.500   5.098   4.690
 1012SOL     OW 3934   2.967   5.916   0.657
 1012SOL    HW1 3935   2.886   5.858   0.653
 1012SOL    HW2 3936   3.046   5.866   0.621
 1013SOL     OW 3937   1.009   0.292   0.276
 1013SOL    HW1 3938   0.924   0.242   0.293
 1013SOL    HW2 3939   1.064   0.293   0.359
 1014SOL     OW 3940   6.050   6.469   6.900
 1014SOL    HW1 3941   5.983   6.478   6.973
 1014SOL    HW2 3942   6.104   6.386   6.915
 1015SOL     OW 3943   2.475   0.179   4.510
 1015SOL    HW1 3944   2.390   0.228   4.491
 1015SOL    HW2 3945   2.520   0.218   4.590
 1016SOL     OW 3946   4.264   3.536   1.738
 1016SOL    HW1 3947   4.188   3.471   1.744
 1016SOL    HW2 3948   4.348   3.486   1.716
 1017SOL     OW 3949   5.089   6.818   6.327
 1017SOL    HW1 3950   5.010   6.757   6.338
 1017SOL    HW2 3951   5.075   6.875   6.246
 1018SOL     OW 3952   1.317   1.835   1.542
 1018SOL    HW1 3953   1.263   1.856   1.623
 1018SOL    HW2 3954   1.271   1.763   1.489
 1019SOL     OW 3955   5.795   0.315   0.309
 1019SOL    HW1 3956   5.870   0.379   0.322
 1019SOL    HW2 3957   5.720   0.361   0.260
 1020SOL     OW 3958   3.906   1.926   1.467
 1020SOL    HW1 3959   3.908   1.861   1.543
 1020SOL    HW2 3960   3.976   1.996   1.481
 1021SOL     OW 3961   5.163   1.397   1.403
 1021SOL    HW1 3962   5.091   1.327   1.405
 1021SOL    HW2 3963   5.167   1.443   1.491
 1022SOL     OW 3964   2.596   3.743   6.858
 1022SOL    HW1 3965   2.550   3.707   6.939
 1022SOL    HW2 3966   2.693   3.719   6.861
 1023SOL     OW 3967   6.586   1.198   4.198
 1023SOL    HW1 3968   6.595   1.233   4.291
 1023SOL    HW2 3969   6.614   1.268   4.132
 1024SOL     OW 3970   6.502   2.588   4.296
 1024SOL    HW1 3971   6.558   2.670   4.286
 1024SOL    HW2 3972   6.527   2.522   4.225
 1025SOL     OW 3973   2.330   4.203   1.506
 1025SOL    HW1 3974   2.406   4.209   1.441
 1025SOL    HW2 3975   2.363   4.226   1.597
 1026SOL     OW 3976   0.357   3.419   6.864
 1026SOL    HW1 3977   0.449   3.436   6.899
 1026SOL    HW2 3978   0.291   3.474   6.914
 1027SOL     OW 3979   1.915   4.776   1.175
 1027SOL    HW1 3980   1.998   4.808   1.222
 1027SOL    HW2 3981   1.838   4.778   1.238
 1028SOL     OW 3982   0.330   5.138   6.968
 1028SOL    HW1 3983   0.393   5.060   6.971
 1028SOL    HW2 3984   0.378   5.219   6.935
 1029SOL     OW 3985   3.816   0.376   4.773
 1029SOL    HW1 3986   3.768   0.289   4.783
 1029SOL    HW2 3987   3.750   0.447   4.748
 1030SOL     OW 3988   4.346   4.821   4.818
 1030SOL    HW1 3989   4.295   4.848   4.737
 1030SOL    HW2 3990   4.349   4.721   4.825
 1031SOL     OW 3991   2.674   5.889   1.019
 1031SOL    HW1 3992   2.637   5.928   0.935
 1031SOL    HW2 3993   2.648   5.946   1.097
 1032SOL     OW 3994   1.152   2.640   4.997
 1032SOL    HW1 3995   1.189   2.548   4.987
 1032SOL    HW2 3996   1.117   2.672   4.908
 1033SOL     OW 3997   2.812   6.992   2.302
 1033SOL    HW1 3998   2.888   6.939   2.264
 1033SOL    HW2 3999   2.834   0.070   2.298
 1034SOL     OW 4000   0.166   5.407   2.792
 1034SOL    HW1 4001   0.235   5.479   2.794
 1034SOL    HW2 4002   0.114   5.408   2.877
 1035SOL     OW 4003   3.173   2.153   3.252
 1035SOL    HW1 4004   3.258   2.205   3.265
 1035SOL    HW2 4005   3.177   2.068   3.303
 1036SOL     OW 4006   4.755   6.440   6.707
 1036SOL    HW1 4007   4.814   6.517   6.685
 1036SOL    HW2 4008   4.804   6.375   6.765
 1037SOL     OW 4009   3.838   1.092   5.769
 1037SOL    HW1 4010   3.799   1.183   5.764
 1037SOL    HW2 4011   3.934   1.094   5.742
 1038SOL     OW 4012   3.314   1.830   4.793
 1038SOL    HW1 4013   3.248   1.763   4.827
 1038SOL    HW2 4014   3.291   1.920   4.828
 1039SOL     OW 4015   5.264   1.795   1.927
 1039SOL    HW1 4016   5.338   1.735   1.896
 1039SOL    HW2 4017   5.267   1.804   2.026
 1040SOL     OW 4018   6.298   4.704   4.840
 1040SOL    HW1 4019   6.308   4.798   4.873
 1040SOL    HW2 4020   6.388   4.667   4.818
 1041SOL     OW 4021   1.267   0.042   4.596
 1041SOL    HW1 4022   1.343   0.057   4.533
 1041SOL    HW2 4023   1.282   0.095   4.679
 1042SOL     OW 4024   4.169   4.694   0.120
 1042SOL    HW1 4025   4.152   4.793   0.115
 1042SOL    HW2 4026   4.250   4.677   0.177
 1043SOL     OW 4027   4.776   0.190   6.238
 1043SOL    HW1 4028   4.683   0.154   6.231
 1043SOL    HW2 4029   4.815   0.163   6.326
 1044SOL     OW 4030   4.049   3.190   4.087
 1044SOL    HW1 4031   3.981   3.121   4.062
 1044SOL    HW2 4032   4.080   3.174   4.181
 1045SOL     OW 4033   1.862   1.566   2.719
 1045SOL    HW1 4034   1.805   1.491   2.687
 1045SOL    HW2 4035   1.895   1.618   2.640
 1046SOL     OW 4036   2.816   0.908   2.183
 1046SOL    HW1 4037   2.773   0.997   2.172
 1046SOL    HW2 4038   2.808   0.879   2.279
 1047SOL     OW 4039   0.578   6.176   2.562
 1047SOL    HW1 4040   0.481   6.193   2.582
 1047SOL    HW2 4041   0.600   6.081   2.583
 1048SOL     OW 4042   0.283   3.976   5.128
 1048SOL    HW1 4043   0.262   3.886   5.091
 1048SOL    HW2 4044   0.379   3.978   5.156
 1049SOL     OW 4045   0.662   3.973   5.446
 1049SOL    HW1 4046   0.629   3.880   5.461
 1049SOL    HW2 4047   0.686   4.014   5.534
 1050SOL     OW 4048   3.270   0.537   1.574
 1050SOL    HW1 4049   3.170   0.526   1.573
 1050SOL    HW2 4050   3.313   0.452   1.602
 1051SOL     OW 4051   5.150   3.117   1.917
 1051SOL    HW1 4052   5.201   3.105   2.002
 1051SOL    HW2 4053   5.064   3.165   1.937
 1052SOL     OW 4054   2.204   6.280   3.677
 1052SOL    HW1 4055   2.286   6.334   3.659
 1052SOL    HW2 4056   2.123   6.334   3.652
 1053SOL     OW 4057   3.307   5.706   3.274
 1053SOL    HW1 4058   3.221   5.755   3.287
 1053SOL    HW2 4059   3.367   5.760   3.215
 1054SOL     OW 4060   3.406   6.097   5.438
 1054SOL    HW1 4061   3.469   6.031   5.479
 1054SOL    HW2 4062   3.313   6.078   5.471
 1055SOL     OW 4063   3.458   4.934   4.939
 1055SOL    HW1 4064   3.397   4.888   5.004
 1055SOL    HW2 4065   3.540   4.965   4.986
 1056SOL     OW 4066   2.847   6.119   0.232
 1056SOL    HW1 4067   2.905   6.124   0.151
 1056SOL    HW2 4068   2.835   6.023   0.258
 1057SOL     OW 4069   3.556   3.856   1.200
 1057SOL    HW1 4070   3.646   3.881   1.165
 1057SOL    HW2 4071   3.485   3.905   1.149
 1058SOL     OW 4072   2.230   0.528   2.244
 1058SOL    HW1 4073   2.256   0.446   2.295
 1058SOL    HW2 4074   2.312   0.568   2.202
 1059SOL     OW 4075   3.872   0.347   0.342
 1059SOL    HW1 4076   3.962   0.380   0.372
 1059SOL    HW2 4077   3.825   0.304   0.420
 1060SOL     OW 4078   3.624   1.678   4.284
 1060SOL    HW1 4079   3.529   1.703   4.266
 1060SOL    HW2 4080   3.637   1.663   4.383
 1061SOL     OW 4081   2.698   5.274   1.232
 1061SOL    HW1 4082   2.614   5.229   1.200
 1061SOL    HW2 4083   2.680   5.318   1.321
 1062SOL     OW 4084   5.608   4.329   5.379
 1062SOL    HW1 4085   5.616   4.250   5.317
 1062SOL    HW2 4086   5.622   4.413   5.327
 1063SOL     OW 4087   4.233   2.128   5.957
 1063SOL    HW1 4088   4.142   2.085   5.959
 1063SOL    HW2 4089   4.281   2.108   6.043
 1064SOL     OW 4090   0.702   3.040   2.354
 1064SOL    HW1 4091   0.614   2.994   2.342
 1064SOL    HW2 4092   0.776   2.978   2.325
 1065SOL     OW 4093   3.850   5.898   0.287
 1065SOL    HW1 4094   3.855   5.998   0.289
 1065SOL    HW2 4095   3.943   5.861   0.276
 1066SOL     OW 4096   5.454   6.280   3.243
 1066SOL    HW1 4097   5.400   6.332   3.176
 1066SOL    HW2 4098   5.461   6.333   3.328
 1067SOL     OW 4099   3.404   4.420   0.962
 1067SOL    HW1 4100   3.404   4.519   0.956
 1067SOL    HW2 4101   3.310   4.386   0.960
 1068SOL     OW 4102   1.435   5.077   2.235
 1068SOL    HW1 4103   1.455   5.033   2.147
 1068SOL    HW2 4104   1.511   5.138   2.259
 1069SOL     OW 4105   4.067   3.689   3.051
 1069SOL    HW1 4106   4.136   3.687   2.978
 1069SOL    HW2 4107   4.015   3.774   3.045
 1070SOL     OW 4108   1.428   6.203   0.194
 1070SOL    HW1 4109   1.429   6.103   0.186
 1070SOL    HW2 4110   1.336   6.234   0.217
 1071SOL     OW 4111   4.479   5.001   3.641
 1071SOL    HW1 4112   4.397   5.011   3.698
 1071SOL    HW2 4113   4.556   4.977   3.700
 1072SOL     OW 4114   4.232   5.152   3.538
 1072SOL    HW1 4115   4.284   5.237   3.549
 1072SOL    HW2 4116   4.233   5.125   3.442
 1073SOL     OW 4117   2.858   5.785   4.106
 1073SOL    HW1 4118   2.933   5.748   4.051
 1073SOL    HW2 4119   2.895   5.844   4.177
 1074SOL     OW 4120   2.560   5.213   3.991
 1074SOL    HW1 4121   2.473   5.168   4.011
 1074SOL    HW2 4122   2.597   5.253   4.075
 1075SOL     OW 4123   0.990   4.312   3.049
 1075SOL    HW1 4124   1.059   4.369   3.093
 1075SOL    HW2 4125   1.035   4.245   2.990
 1076SOL     OW 4126   5.008   3.956   3.552
 1076SOL    HW1 4127   5.072   4.016   3.600
 1076SOL    HW2 4128   4.916   3.967   3.592
 1077SOL     OW 4129   3.906   0.682   2.141
 1077SOL    HW1 4130   3.821   0.735   2.135
 1077SOL    HW2 4131   3.900   0.618   2.218
 1078SOL     OW 4132   6.180   2.367   1.958
 1078SOL    HW1 4133   6.246   2.439   1.981
 1078SOL    HW2 4134   6.116   2.355   2.034
 1079SOL     OW 4135   1.881   5.090   2.948
 1079SOL    HW1 4136   1.875   4.990   2.947
 1079SOL    HW2 4137   1.961   5.118   3.001
 1080SOL     OW 4138   2.262   5.253   4.177
 1080SOL    HW1 4139   2.335   5.229   4.241
 1080SOL    HW2 4140   2.181   5.280   4.228
 1081SOL     OW 4141   1.343   0.636   0.714
 1081SOL    HW1 4142   1.345   0.668   0.619
 1081SOL    HW2 4143   1.262   0.579   0.727
 1082SOL     OW 4144   2.366   0.944   1.334
 1082SOL    HW1 4145   2.453   0.898   1.352
 1082SOL    HW2 4146   2.365   1.033   1.379
 1083SOL     OW 4147   3.593   4.128   2.065
 1083SOL    HW1 4148   3.612   4.221   2.096
 1083SOL    HW2 4149   3.629   4.116   1.972
 1084SOL     OW 4150   5.882   4.337   1.480
 1084SOL    HW1 4151   5.892   4.373   1.573
 1084SOL    HW2 4152   5.792   4.361   1.444
 1085SOL     OW 4153   1.568   6.255   3.717
 1085SOL    HW1 4154   1.562   6.162   3.682
 1085SOL    HW2 4155   1.656   6.268   3.763
 1086SOL     OW 4156   3.089   6.476   2.720
 1086SOL    HW1 4157   3.079   6.408   2.648
 1086SOL    HW2 4158   3.003   6.486   2.770
 1087SOL     OW 4159   3.711   3.215   5.465
 1087SOL    HW1 4160   3.659   3.147   5.415
 1087SOL    HW2 4161   3.649   3.283   5.504
 1088SOL     OW 4162   6.656   5.434   2.420
 1088SOL    HW1 4163   6.702   5.348   2.398
 1088SOL    HW2 4164   6.567   5.437   2.376
 1089SOL     OW 4165   0.248   0.589   3.689
 1089SOL    HW1 4166   0.173   0.523   3.690
 1089SOL    HW2 4167   0.243   0.646   3.771
 1090SOL     OW 4168   3.228   2.057   6.755
 1090SOL    HW1 4169   3.273   2.142   6.728
 1090SOL    HW2 4170   3.141   2.048   6.707
 1091SOL     OW 4171   1.414   2.086   5.756
 1091SOL    HW1 4172   1.427   2.025   5.677
 1091SOL    HW2 4173   1.494   2.145   5.765
 1092SOL     OW 4174   2.914   4.767   0.842
 1092SOL    HW1 4175   2.872   4.843   0.793
 1092SOL    HW2 4176   3.003   4.747   0.802
 1093SOL     OW 4177   6.882   1.764   1.455
 1093SOL    HW1 4178   6.948   1.703   1.413
 1093SOL    HW2 4179   6.799   1.713   1.478
 1094SOL     OW 4180   0.513   5.932   2.909
 1094SOL    HW1 4181   0.421   5.926   2.949
 1094SOL    HW2 4182   0.570   5.990   2.967
 1095SOL     OW 4183   1.834   3.002   5.114
 1095SOL    HW1 4184   1.775   2.944   5.058
 1095SOL    HW2 4185   1.926   2.963   5.118
 1096SOL     OW 4186   3.479   2.847   2.385
 1096SOL    HW1 4187   3.546   2.779   2.415
 1096SOL    HW2 4188   3.527   2.930   2.357
 1097SOL     OW 4189   3.141   5.184   5.853
 1097SOL    HW1 4190   3.217   5.249   5.854
 1097SOL    HW2 4191   3.131   5.143   5.944
 1098SOL     OW 4192   2.645   0.371   2.478
 1098SOL    HW1 4193   2.744   0.360   2.469
 1098SOL    HW2 4194   2.619   0.463   2.449
 1099SOL     OW 4195   3.222   0.526   2.264
 1099SOL    HW1 4196   3.169   0.520   2.179
 1099SOL    HW2 4197   3.159   0.526   2.342
 1100SOL     OW 4198   0.141   0.600   0.220
 1100SOL    HW1 4199   0.133   0.501   0.205
 1100SOL    HW2 4200   0.230   0.621   0.260
 1101SOL     OW 4201   5.785   4.403   0.937
 1101SOL    HW1 4202   5.718   4.331   0.916
 1101SOL    HW2 4203   5.845   4.416   0.858
 1102SOL     OW 4204   6.789   4.271   4.114
 1102SOL    HW1 4205   6.866   4.310   4.163
 1102SOL    HW2 4206   6.733   4.218   4.177
 1103SOL     OW 4207   1.062   2.811   6.433
 1103SOL    HW1 4208   0.981   2.868   6.424
 1103SOL    HW2 4209   1.058   2.761   6.519
 1104SOL     OW 4210   3.084   4.966   5.648
 1104SOL    HW1 4211   3.081   5.052   5.699
 1104SOL    HW2 4212   3.175   4.955   5.607
 1105SOL     OW 4213   3.863   5.768   0.747
 1105SOL    HW1 4214   3.883   5.819   0.831
 1105SOL    HW2 4215   3.814   5.827   0.683
 1106SOL     OW 4216   1.190   2.314   6.476
 1106SOL    HW1 4217   1.090   2.307   6.476
 1106SOL    HW2 4218   1.217   2.409   6.487
 1107SOL     OW 4219   6.854   6.653   1.411
 1107SOL    HW1 4220   6.805   6.566   1.415
 1107SOL    HW2 4221   6.816   6.716   1.478
 1108SOL     OW 4222   1.363   1.092   6.722
 1108SOL    HW1 4223   1.269   1.058   6.734
 1108SOL    HW2 4224   1.366   1.188   6.750
 1109SOL     OW 4225   4.016   1.490   3.387
 1109SOL    HW1 4226   4.114   1.473   3.380
 1109SOL    HW2 4227   4.000   1.585   3.412
 1110SOL     OW 4228   3.785   3.596   3.088
 1110SOL    HW1 4229   3.710   3.598   3.022
 1110SOL    HW2 4230   3.748   3.587   3.181
 1111SOL     OW 4231   3.950   0.245   6.548
 1111SOL    HW1 4232   3.928   0.233   6.645
 1111SOL    HW2 4233   3.909   0.329   6.514
 1112SOL     OW 4234   0.703   1.310   2.603
 1112SOL    HW1 4235   0.620   1.263   2.574
 1112SOL    HW2 4236   0.695   1.334   2.699
 1113SOL     OW 4237   0.727   5.205   2.164
 1113SOL    HW1 4238   0.739   5.109   2.190
 1113SOL    HW2 4239   0.634   5.233   2.185
 1114SOL     OW 4240   5.803   0.645   5.859
 1114SOL    HW1 4241   5.714   0.610   5.887
 1114SOL    HW2 4242   5.867   0.569   5.849
 1115SOL     OW 4243   1.686   4.786   0.174
 1115SOL    HW1 4244   1.620   4.715   0.149
 1115SOL    HW2 4245   1.734   4.758   0.257
 1116SOL     OW 4246   3.064   6.837   6.192
 1116SOL    HW1 4247   3.138   6.861   6.129
 1116SOL    HW2 4248   3.030   6.920   6.236
 1117SOL     OW 4249   3.213   2.508   0.563
 1117SOL    HW1 4250   3.116   2.499   0.583
 1117SOL    HW2 4251   3.245   2.428   0.513
 1118SOL     OW 4252   2.081   1.868   1.250
 1118SOL    HW1 4253   1.999   1.912   1.213
 1118SOL    HW2 4254   2.076   1.769   1.233
 1119SOL     OW 4255   3.567   3.545   3.304
 1119SOL    HW1 4256   3.619   3.591   3.377
 1119SOL    HW2 4257   3.507   3.476   3.344
 1120SOL     OW 4258   3.016   1.334   3.265
 1120SOL    HW1 4259   2.950   1.375   3.202
 1120SOL    HW2 4260   3.036   1.398   3.339
 1121SOL     OW 4261   4.969   3.781   2.549
 1121SOL    HW1 4262   4.933   3.873   2.532
 1121SOL    HW2 4263   5.044   3.763   2.486
 1122SOL     OW 4264   4.960   4.818   6.773
 1122SOL    HW1 4265   4.944   4.739   6.831
 1122SOL    HW2 4266   4.988   4.896   6.829
 1123SOL     OW 4267   4.193   0.608   2.064
 1123SOL    HW1 4268   4.104   0.605   2.018
 1123SOL    HW2 4269   4.179   0.617   2.162
 1124SOL     OW 4270   2.670   5.122   3.387
 1124SOL    HW1 4271   2.613   5.103   3.466
 1124SOL    HW2 4272   2.704   5.215   3.392
 1125SOL     OW 4273   3.445   4.566   5.558
 1125SOL    HW1 4274   3.467   4.526   5.469
 1125SOL    HW2 4275   3.529   4.590   5.605
 1126SOL     OW 4276   6.004   0.593   2.180
 1126SOL    HW1 4277   6.075   0.545   2.231
 1126SOL    HW2 4278   6.037   0.684   2.154
 1127SOL     OW 4279   2.824   5.605   6.088
 1127SOL    HW1 4280   2.869   5.635   6.172
 1127SOL    HW2 4281   2.893   5.574   6.022
 1128SOL     OW 4282   2.473   1.312   5.631
 1128SOL    HW1 4283   2.444   1.224   5.594
 1128SOL    HW2 4284   2.557   1.341   5.585
 1129SOL     OW 4285   4.270   5.968   6.793
 1129SOL    HW1 4286   4.218   5.883   6.803
 1129SOL    HW2 4287   4.249   6.029   6.869
 1130SOL     OW 4288   1.199   4.551   5.402
 1130SOL    HW1 4289   1.199   4.502   5.489
 1130SOL    HW2 4290   1.171   4.490   5.328
 1131SOL     OW 4291   1.346   4.329   5.872
 1131SOL    HW1 4292   1.296   4.355   5.790
 1131SOL    HW2 4293   1.286   4.332   5.952
 1132SOL     OW 4294   5.394   6.778   4.654
 1132SOL    HW1 4295   5.309   6.730   4.632
 1132SOL    HW2 4296   5.464   6.752   4.587
 1133SOL     OW 4297   0.192   1.719   0.246
 1133SOL    HW1 4298   0.219   1.728   0.342
 1133SOL    HW2 4299   0.172   1.810   0.209
 1134SOL     OW 4300   0.027   3.906   6.011
 1134SOL    HW1 4301   0.044   3.815   5.973
 1134SOL    HW2 4302   0.085   3.972   5.965
 1135SOL     OW 4303   6.744   2.035   4.044
 1135SOL    HW1 4304   6.736   1.957   3.982
 1135SOL    HW2 4305   6.668   2.099   4.027
 1136SOL     OW 4306   3.885   5.665   3.970
 1136SOL    HW1 4307   3.786   5.651   3.967
 1136SOL    HW2 4308   3.915   5.662   4.066
 1137SOL     OW 4309   0.710   0.605   6.798
 1137SOL    HW1 4310   0.796   0.592   6.848
 1137SOL    HW2 4311   0.669   0.692   6.824
 1138SOL     OW 4312   0.946   2.375   5.662
 1138SOL    HW1 4313   0.957   2.472   5.638
 1138SOL    HW2 4314   1.004   2.354   5.740
 1139SOL     OW 4315   0.105   0.231   2.887
 1139SOL    HW1 4316   0.103   0.219   2.986
 1139SOL    HW2 4317   0.111   0.142   2.842
 1140SOL     OW 4318   4.244   1.991   3.084
 1140SOL    HW1 4319   4.258   1.892   3.092
 1140SOL    HW2 4320   4.155   2.009   3.043
 1141SOL     OW 4321   0.474   0.125   5.975
 1141SOL    HW1 4322   0.511   0.039   5.939
 1141SOL    HW2 4323   0.490   0.130   6.073
 1142SOL     OW 4324   5.609   6.676   5.841
 1142SOL    HW1 4325   5.568   6.691   5.751
 1142SOL    HW2 4326   5.637   6.763   5.881
 1143SOL     OW 4327   5.609   2.681   1.510
 1143SOL    HW1 4328   5.569   2.628   1.436
 1143SOL    HW2 4329   5.677   2.626   1.558
 1144SOL     OW 4330   0.916   6.323   4.644
 1144SOL    HW1 4331   1.009   6.331   4.607
 1144SOL    HW2 4332   0.867   6.409   4.628
 1145SOL     OW 4333   3.090   4.929   5.055
 1145SOL    HW1 4334   3.088   5.027   5.074
 1145SOL    HW2 4335   3.176   4.890   5.089
 1146SOL     OW 4336   5.796   2.047   2.221
 1146SOL    HW1 4337   5.714   2.105   2.230
 1146SOL    HW2 4338   5.875   2.097   2.255
 1147SOL     OW 4339   6.711   3.909   2.824
 1147SOL    HW1 4340   6.689   3.869   2.913
 1147SOL    HW2 4341   6.687   4.006   2.824
 1148SOL     OW 4342   6.031   6.576   6.134
 1148SOL    HW1 4343   6.097   6.535   6.071
 1148SOL    HW2 4344   6.079   6.611   6.214
 1149SOL     OW 4345   5.038   3.465   2.568
 1149SOL    HW1 4346   5.098   3.537   2.535
 1149SOL    HW2 4347   5.005   3.412   2.489
 1150SOL     OW 4348   2.971   5.807   5.188
 1150SOL    HW1 4349   2.909   5.792   5.110
 1150SOL    HW2 4350   2.970   5.726   5.247
 1151SOL     OW 4351   1.706   5.693   0.624
 1151SOL    HW1 4352   1.722   5.745   0.708
 1151SOL    HW2 4353   1.718   5.595   0.643
 1152SOL     OW 4354   6.631   1.024   3.523
 1152SOL    HW1 4355   6.580   1.069   3.596
 1152SOL    HW2 4356   6.574   0.953   3.482
 1153SOL     OW 4357   1.054   4.508   2.196
 1153SOL    HW1 4358   1.145   4.467   2.187
 1153SOL    HW2 4359   0.990   4.439   2.231
 1154SOL     OW 4360   1.502   3.534   2.009
 1154SOL    HW1 4361   1.518   3.502   1.916
 1154SOL    HW2 4362   1.567   3.607   2.031
 1155SOL     OW 4363   5.007   0.948   2.070
 1155SOL    HW1 4364   5.075   0.939   2.143
 1155SOL    HW2 4365   4.924   0.899   2.095
 1156SOL     OW 4366   3.003   1.248   4.030
 1156SOL    HW1 4367   2.975   1.309   4.104
 1156SOL    HW2 4368   2.925   1.193   4.000
 1157SOL     OW 4369   1.944   3.682   3.289
 1157SOL    HW1 4370   1.885   3.660   3.211
 1157SOL    HW2 4371   2.030   3.720   3.256
 1158SOL     OW 4372   4.726   5.610   5.197
 1158SOL    HW1 4373   4.697   5.569   5.111
 1158SOL    HW2 4374   4.730   5.539   5.268
 1159SOL     OW 4375   6.412   4.130   3.192
 1159SOL    HW1 4376   6.382   4.139   3.097
 1159SOL    HW2 4377   6.510   4.114   3.195
 1160SOL     OW 4378   3.232   2.162   1.381
 1160SOL    HW1 4379   3.330   2.172   1.397
 1160SOL    HW2 4380   3.183   2.168   1.468
 1161SOL     OW 4381   3.947   1.297   2.613
 1161SOL    HW1 4382   3.892   1.224   2.655
 1161SOL    HW2 4383   3.928   1.300   2.515
 1162SOL     OW 4384   3.589   4.661   1.379
 1162SOL    HW1 4385   3.668   4.652   1.318
 1162SOL    HW2 4386   3.506   4.664   1.325
 1163SOL     OW 4387   4.610   6.588   3.658
 1163SOL    HW1 4388   4.657   6.659   3.605
 1163SOL    HW2 4389   4.580   6.626   3.745
 1164SOL     OW 4390   6.886   4.075   4.468
 1164SOL    HW1 4391   6.799   4.060   4.421
 1164SOL    HW2 4392   6.960   4.036   4.414
 1165SOL     OW 4393   0.105   5.260   2.592
 1165SOL    HW1 4394   0.150   5.272   2.504
 1165SOL    HW2 4395   0.142   5.325   2.658
 1166SOL     OW 4396   3.112   1.341   5.521
 1166SOL    HW1 4397   3.143   1.304   5.609
 1166SOL    HW2 4398   3.123   1.440   5.521
 1167SOL     OW 4399   4.454   1.394   5.661
 1167SOL    HW1 4400   4.552   1.402   5.678
 1167SOL    HW2 4401   4.431   1.440   5.575
 1168SOL     OW 4402   5.750   1.321   4.021
 1168SOL    HW1 4403   5.692   1.244   3.997
 1168SOL    HW2 4404   5.710   1.405   3.985
 1169SOL     OW 4405   2.287   2.574   0.896
 1169SOL    HW1 4406   2.315   2.541   0.806
 1169SOL    HW2 4407   2.367   2.604   0.947
 1170SOL     OW 4408   2.532   1.060   1.915
 1170SOL    HW1 4409   2.481   1.015   1.989
 1170SOL    HW2 4410   2.559   1.151   1.944
 1171SOL     OW 4411   4.872   0.581   0.929
 1171SOL    HW1 4412   4.900   0.486   0.916
 1171SOL    HW2 4413   4.818   0.611   0.851
 1172SOL     OW 4414   3.669   3.438   5.721
 1172SOL    HW1 4415   3.634   3.346   5.736
 1172SOL    HW2 4416   3.768   3.440   5.737
 1173SOL     OW 4417   5.476   5.721   0.547
 1173SOL    HW1 4418   5.448   5.807   0.590
 1173SOL    HW2 4419   5.518   5.662   0.616
 1174SOL     OW 4420   4.075   6.442   6.287
 1174SOL    HW1 4421   4.034   6.415   6.200
 1174SOL    HW2 4422   4.146   6.377   6.312
 1175SOL     OW 4423   6.953   5.248   5.234
 1175SOL    HW1 4424   6.854   5.233   5.237
 1175SOL    HW2 4425   6.979   5.277   5.142
 1176SOL     OW 4426   6.401   3.045   1.427
 1176SOL    HW1 4427   6.346   2.991   1.362
 1176SOL    HW2 4428   6.477   2.989   1.459
 1177SOL     OW 4429   0.178   3.172   5.216
 1177SOL    HW1 4430   0.152   3.166   5.120
 1177SOL    HW2 4431   0.277   3.159   5.224
 1178SOL     OW 4432   4.551   4.610   2.145
 1178SOL    HW1 4433   4.500   4.587   2.062
 1178SOL    HW2 4434   4.617   4.538   2.165
 1179SOL     OW 4435   1.561   5.387   6.193
 1179SOL    HW1 4436   1.553   5.287   6.186
 1179SOL    HW2 4437   1.481   5.423   6.241
 1180SOL     OW 4438   2.250   1.416   4.111
 1180SOL    HW1 4439   2.240   1.342   4.043
 1180SOL    HW2 4440   2.345   1.449   4.109
 1181SOL     OW 4441   0.924   4.226   1.864
 1181SOL    HW1 4442   0.993   4.223   1.792
 1181SOL    HW2 4443   0.894   4.321   1.877
 1182SOL     OW 4444   6.812   3.915   3.935
 1182SOL    HW1 4445   6.735   3.972   3.963
 1182SOL    HW2 4446   6.873   3.969   3.876
 1183SOL     OW 4447   3.929   6.175   0.348
 1183SOL    HW1 4448   4.000   6.164   0.417
 1183SOL    HW2 4449   3.873   6.255   0.370
 1184SOL     OW 4450   4.179   3.392   6.483
 1184SOL    HW1 4451   4.128   3.355   6.405
 1184SOL    HW2 4452   4.139   3.358   6.568
 1185SOL     OW 4453   3.696   1.419   6.424
 1185SOL    HW1 4454   3.724   1.484   6.354
 1185SOL    HW2 4455   3.760   1.342   6.427
 1186SOL     OW 4456   4.054   6.414   5.104
 1186SOL    HW1 4457   3.993   6.344   5.142
 1186SOL    HW2 4458   4.003   6.498   5.090
 1187SOL     OW 4459   0.553   2.511   4.592
 1187SOL    HW1 4460   0.477   2.478   4.649
 1187SOL    HW2 4461   0.611   2.571   4.646
 1188SOL     OW 4462   2.528   1.116   5.095
 1188SOL    HW1 4463   2.596   1.187   5.079
 1188SOL    HW2 4464   2.515   1.063   5.011
 1189SOL     OW 4465   1.281   1.186   1.488
 1189SOL    HW1 4466   1.370   1.164   1.448
 1189SOL    HW2 4467   1.226   1.103   1.493
 1190SOL     OW 4468   2.752   6.246   1.356
 1190SOL    HW1 4469   2.788   6.290   1.438
 1190SOL    HW2 4470   2.825   6.239   1.288
 1191SOL     OW 4471   1.678   4.064   1.555
 1191SOL    HW1 4472   1.653   3.977   1.598
 1191SOL    HW2 4473   1.602   4.128   1.563
 1192SOL     OW 4474   3.815   5.780   2.347
 1192SOL    HW1 4475   3.892   5.721   2.370
 1192SOL    HW2 4476   3.840   5.875   2.363
 1193SOL     OW 4477   3.455   2.121   3.570
 1193SOL    HW1 4478   3.416   2.209   3.597
 1193SOL    HW2 4479   3.491   2.128   3.477
 1194SOL     OW 4480   6.544   2.692   2.308
 1194SOL    HW1 4481   6.454   2.730   2.331
 1194SOL    HW2 4482   6.592   2.754   2.245
 1195SOL     OW 4483   4.433   0.700   6.581
 1195SOL    HW1 4484   4.403   0.790   6.613
 1195SOL    HW2 4485   4.481   0.710   6.494
 1196SOL     OW 4486   1.378   5.793   3.431
 1196SOL    HW1 4487   1.407   5.736   3.508
 1196SOL    HW2 4488   1.320   5.867   3.465
 1197SOL     OW 4489   3.704   5.064   0.235
 1197SOL    HW1 4490   3.743   4.973   0.254
 1197SOL    HW2 4491   3.767   5.134   0.268
 1198SOL     OW 4492   3.423   1.585   3.431
 1198SOL    HW1 4493   3.433   1.487   3.411
 1198SOL    HW2 4494   3.488   1.610   3.503
 1199SOL     OW 4495   3.270   4.108   3.783
 1199SOL    HW1 4496   3.197   4.044   3.758
 1199SOL    HW2 4497   3.316   4.139   3.700
 1200SOL     OW 4498   4.930   3.988   0.938
 1200SOL    HW1 4499   4.900   3.934   1.017
 1200SOL    HW2 4500   4.858   3.990   0.869
 1201SOL     OW 4501   1.933   1.319   5.240
 1201SOL    HW1 4502   1.906   1.412   5.264
 1201SOL    HW2 4503   2.021   1.298   5.284
 1202SOL     OW 4504   5.773   6.406   4.126
 1202SOL    HW1 4505   5.705   6.342   4.092
 1202SOL    HW2 4506   5.800   6.468   4.053
 1203SOL     OW 4507   5.053   0.454   1.418
 1203SOL    HW1 4508   5.039   0.455   1.517
 1203SOL    HW2 4509   5.132   0.396   1.397
 1204SOL     OW 4510   2.901   0.463   0.214
 1204SOL    HW1 4511   2.820   0.405   0.219
 1204SOL    HW2 4512   2.874   0.559   0.228
 1205SOL     OW 4513   1.175   2.587   6.347
 1205SOL    HW1 4514   1.124   2.670   6.368
 1205SOL    HW2 4515   1.269   2.596   6.381
 1206SOL     OW 4516   6.314   1.980   5.566
 1206SOL    HW1 4517   6.353   1.955   5.655
 1206SOL    HW2 4518   6.388   2.000   5.502
 1207SOL     OW 4519   5.962   6.039   5.635
 1207SOL    HW1 4520   5.929   5.952   5.671
 1207SOL    HW2 4521   6.053   6.026   5.595
 1208SOL     OW 4522   3.940   3.984   3.636
 1208SOL    HW1 4523   3.937   3.941   3.726
 1208SOL    HW2 4524   3.851   4.023   3.614
 1209SOL     OW 4525   0.214   3.371   4.744
 1209SOL    HW1 4526   0.139   3.417   4.697
 1209SOL    HW2 4527   0.282   3.439   4.773
 1210SOL     OW 4528   2.598   0.153   4.198
 1210SOL    HW1 4529   2.590   0.110   4.108
 1210SOL    HW2 4530   2.575   0.250   4.190
 1211SOL     OW 4531   6.982   3.902   3.374
 1211SOL    HW1 4532   6.992   3.993   3.334
 1211SOL    HW2 4533   6.898   3.899   3.428
 1212SOL     OW 4534   1.048   3.759   2.556
 1212SOL    HW1 4535   1.147   3.770   2.568
 1212SOL    HW2 4536   1.031   3.713   2.469
 1213SOL     OW 4537   6.621   3.757   4.963
 1213SOL    HW1 4538   6.599   3.777   5.058
 1213SOL    HW2 4539   6.680   3.828   4.926
 1214SOL     OW 4540   0.661   1.968   0.722
 1214SOL    HW1 4541   0.648   1.876   0.684
 1214SOL    HW2 4542   0.700   2.027   0.652
 1215SOL     OW 4543   1.010   0.376   1.964
 1215SOL    HW1 4544   0.932   0.405   1.908
 1215SOL    HW2 4545   0.983   0.297   2.019
 1216SOL     OW 4546   1.923   6.847   0.750
 1216SOL    HW1 4547   1.864   6.925   0.766
 1216SOL    HW2 4548   1.978   6.862   0.668
 1217SOL     OW 4549   1.244   2.660   3.470
 1217SOL    HW1 4550   1.280   2.753   3.463
 1217SOL    HW2 4551   1.159   2.661   3.522
 1218SOL     OW 4552   6.837   4.593   3.753
 1218SOL    HW1 4553   6.918   4.634   3.795
 1218SOL    HW2 4554   6.798   4.524   3.814
 1219SOL     OW 4555   1.667   5.789   2.906
 1219SOL    HW1 4556   1.761   5.767   2.881
 1219SOL    HW2 4557   1.605   5.730   2.855
 1220SOL     OW 4558   6.120   4.633   3.267
 1220SOL    HW1 4559   6.033   4.653   3.312
 1220SOL    HW2 4560   6.154   4.715   3.221
 1221SOL     OW 4561   4.529   5.051   0.507
 1221SOL    HW1 4562   4.599   5.097   0.563
 1221SOL    HW2 4563   4.574   4.992   0.440
 1222SOL     OW 4564   6.948   4.828   0.987
 1222SOL    HW1 4565   6.863   4.783   1.011
 1222SOL    HW2 4566   6.947   4.922   1.023
 1223SOL     OW 4567   0.924   4.124   5.149
 1223SOL    HW1 4568   1.014   4.123   5.107
 1223SOL    HW2 4569   0.919   4.199   5.215
 1224SOL     OW 4570   4.099   5.074   2.060
 1224SOL    HW1 4571   4.109   5.035   1.969
 1224SOL    HW2 4572   4.007   5.111   2.070
 1225SOL     OW 4573   5.309   1.840   6.385
 1225SOL    HW1 4574   5.359   1.894   6.453
 1225SOL    HW2 4575   5.211   1.856   6.397
 1226SOL     OW 4576   5.887   5.305   1.208
 1226SOL    HW1 4577   5.865   5.402   1.212
 1226SOL    HW2 4578   5.841   5.263   1.130
 1227SOL     OW 4579   6.413   4.421   0.671
 1227SOL    HW1 4580   6.316   4.441   0.682
 1227SOL    HW2 4581   6.447   4.469   0.589
 1228SOL     OW 4582   4.191   3.776   5.181
 1228SOL    HW1 4583   4.153   3.800   5.092
 1228SOL    HW2 4584   4.187   3.677   5.193
 1229SOL     OW 4585   1.515   5.647   1.919
 1229SOL    HW1 4586   1.486   5.592   1.998
 1229SOL    HW2 4587   1.559   5.730   1.952
 1230SOL     OW 4588   5.705   4.515   0.403
 1230SOL    HW1 4589   5.646   4.586   0.364
 1230SOL    HW2 4590   5.656   4.427   0.401
 1231SOL     OW 4591   2.329   0.832   0.832
 1231SOL    HW1 4592   2.422   0.861   0.809
 1231SOL    HW2 4593   2.309   0.858   0.926
 1232SOL     OW 4594   2.195   1.958   5.740
 1232SOL    HW1 4595   2.285   1.993   5.715
 1232SOL    HW2 4596   2.169   1.883   5.679
 1233SOL     OW 4597   0.109   5.336   5.010
 1233SOL    HW1 4598   0.207   5.355   5.017
 1233SOL    HW2 4599   0.082   5.337   4.913
 1234SOL     OW 4600   0.030   4.513   5.238
 1234SOL    HW1 4601   6.966   4.516   5.293
 1234SOL    HW2 4602   0.058   4.417   5.226
 1235SOL     OW 4603   6.545   5.034   0.177
 1235SOL    HW1 4604   6.527   4.942   0.142
 1235SOL    HW2 4605   6.594   5.086   0.107
 1236SOL     OW 4606   0.159   1.225   2.845
 1236SOL    HW1 4607   0.110   1.299   2.798
 1236SOL    HW2 4608   0.130   1.220   2.940
 1237SOL     OW 4609   0.728   0.380   5.650
 1237SOL    HW1 4610   0.743   0.479   5.651
 1237SOL    HW2 4611   0.668   0.355   5.727
 1238SOL     OW 4612   0.396   0.522   4.428
 1238SOL    HW1 4613   0.476   0.471   4.394
 1238SOL    HW2 4614   0.399   0.525   4.528
 1239SOL     OW 4615   4.462   5.175   3.306
 1239SOL    HW1 4616   4.371   5.135   3.311
 1239SOL    HW2 4617   4.525   5.121   3.362
 1240SOL     OW 4618   1.015   4.010   2.260
 1240SOL    HW1 4619   1.036   4.054   2.173
 1240SOL    HW2 4620   0.957   3.930   2.244
 1241SOL     OW 4621   3.307   5.774   6.176
 1241SOL    HW1 4622   3.236   5.816   6.232
 1241SOL    HW2 4623   3.265   5.734   6.094
 1242SOL     OW 4624   2.400   6.027   0.645
 1242SOL    HW1 4625   2.369   5.997   0.555
 1242SOL    HW2 4626   2.408   5.947   0.706
 1243SOL     OW 4627   0.890   4.657   4.459
 1243SOL    HW1 4628   0.956   4.582   4.465
 1243SOL    HW2 4629   0.936   4.740   4.429
 1244SOL     OW 4630   6.003   6.184   4.842
 1244SOL    HW1 4631   6.092   6.195   4.886
 1244SOL    HW2 4632   5.951   6.269   4.850
 1245SOL     OW 4633   3.918   6.842   1.651
 1245SOL    HW1 4634   3.956   6.907   1.584
 1245SOL    HW2 4635   3.835   6.801   1.613
 1246SOL     OW 4636   5.002   2.034   2.713
 1246SOL    HW1 4637   5.071   2.078   2.771
 1246SOL    HW2 4638   5.046   1.992   2.634
 1247SOL     OW 4639   4.483   6.126   3.000
 1247SOL    HW1 4640   4.463   6.075   3.084
 1247SOL    HW2 4641   4.577   6.159   3.002
 1248SOL     OW 4642   0.325   0.669   5.123
 1248SOL    HW1 4643   0.265   0.689   5.045
 1248SOL    HW2 4644   0.336   0.570   5.133
 1249SOL     OW 4645   6.347   0.160   0.298
 1249SOL    HW1 4646   6.397   0.243   0.275
 1249SOL    HW2 4647   6.332   0.156   0.396
 1250SOL     OW 4648   0.747   4.519   4.979
 1250SOL    HW1 4649   0.667   4.554   5.027
 1250SOL    HW2 4650   0.726   4.431   4.938
 1251SOL     OW 4651   1.925   0.204   3.204
 1251SOL    HW1 4652   1.838   0.170   3.239
 1251SOL    HW2 4653   1.999   0.146   3.237
 1252SOL     OW 4654   3.265   4.945   6.545
 1252SOL    HW1 4655   3.364   4.957   6.545
 1252SOL    HW2 4656   3.240   4.866   6.601
 1253SOL     OW 4657   2.944   5.442   0.504
 1253SOL    HW1 4658   2.870   5.406   0.560
 1253SOL    HW2 4659   2.910   5.465   0.414
 1254SOL     OW 4660   6.421   1.010   3.997
 1254SOL    HW1 4661   6.365   0.930   4.021
 1254SOL    HW2 4662   6.449   1.057   4.081
 1255SOL     OW 4663   5.748   2.154   6.442
 1255SOL    HW1 4664   5.785   2.180   6.353
 1255SOL    HW2 4665   5.674   2.088   6.430
 1256SOL     OW 4666   6.600   6.311   6.265
 1256SOL    HW1 4667   6.652   6.312   6.180
 1256SOL    HW2 4668   6.512   6.355   6.251
 1257SOL     OW 4669   6.825   6.380   1.865
 1257SOL    HW1 4670   6.842   6.380   1.766
 1257SOL    HW2 4671   6.775   6.297   1.890
 1258SOL     OW 4672   5.145   5.315   6.315
 1258SOL    HW1 4673   5.049   5.287   6.315
 1258SOL    HW2 4674   5.203   5.236   6.295
 1259SOL     OW 4675   5.852   6.833   4.691
 1259SOL    HW1 4676   5.851   6.737   4.663
 1259SOL    HW2 4677   5.880   6.840   4.786
 1260SOL     OW 4678   3.153   0.517   0.904
 1260SOL    HW1 4679   3.066   0.472   0.922
 1260SOL    HW2 4680   3.228   0.454   0.920
 1261SOL     OW 4681   1.167   3.685   5.166
 1261SOL    HW1 4682   1.092   3.745   5.193
 1261SOL    HW2 4683   1.250   3.739   5.152
 1262SOL     OW 4684   4.849   6.681   0.222
 1262SOL    HW1 4685   4.800   6.633   0.149
 1262SOL    HW2 4686   4.812   6.651   0.311
 1263SOL     OW 4687   6.928   1.413   1.196
 1263SOL    HW1 4688   7.005   1.355   1.171
 1263SOL    HW2 4689   6.843   1.363   1.185
 1264SOL     OW 4690   5.943   2.663   4.408
 1264SOL    HW1 4691   5.945   2.578   4.462
 1264SOL    HW2 4692   6.005   2.655   4.330
 1265SOL     OW 4693   6.046   5.974   3.721
 1265SOL    HW1 4694   6.004   5.977   3.811
 1265SOL    HW2 4695   6.007   6.046   3.663
 1266SOL     OW 4696   2.413   0.981   4.534
 1266SOL    HW1 4697   2.336   0.918   4.544
 1266SOL    HW2 4698   2.384   1.074   4.558
 1267SOL     OW 4699   6.910   4.639   1.906
 1267SOL    HW1 4700   6.995   4.691   1.903
 1267SOL    HW2 4701   6.931   4.541   1.902
 1268SOL     OW 4702   6.413   4.585   6.262
 1268SOL    HW1 4703   6.418   4.611   6.358
 1268SOL    HW2 4704   6.384   4.490   6.255
 1269SOL     OW 4705   1.084   3.809   5.542
 1269SOL    HW1 4706   1.097   3.858   5.628
 1269SOL    HW2 4707   1.172   3.802   5.494
 1270SOL     OW 4708   1.223   2.584   3.825
 1270SOL    HW1 4709   1.258   2.495   3.797
 1270SOL    HW2 4710   1.136   2.602   3.779
 1271SOL     OW 4711   5.104   4.560   2.838
 1271SOL    HW1 4712   5.193   4.591   2.804
 1271SOL    HW2 4713   5.108   4.462   2.854
 1272SOL     OW 4714   5.810   0.260   0.924
 1272SOL    HW1 4715   5.868   0.227   0.849
 1272SOL    HW2 4716   5.766   0.183   0.969
 1273SOL     OW 4717   2.385   6.172   4.187
 1273SOL    HW1 4718   2.380   6.073   4.180
 1273SOL    HW2 4719   2.335   6.214   4.111
 1274SOL     OW 4720   5.697   2.252   1.656
 1274SOL    HW1 4721   5.629   2.196   1.609
 1274SOL    HW2 4722   5.678   2.253   1.754
 1275SOL     OW 4723   3.442   1.301   3.405
 1275SOL    HW1 4724   3.537   1.279   3.382
 1275SOL    HW2 4725   3.416   1.254   3.489
 1276SOL     OW 4726   5.241   6.736   3.171
 1276SOL    HW1 4727   5.197   6.673   3.235
 1276SOL    HW2 4728   5.300   6.799   3.221
 1277SOL     OW 4729   0.463   1.903   5.006
 1277SOL    HW1 4730   0.452   1.855   4.918
 1277SOL    HW2 4731   0.433   1.843   5.080
 1278SOL     OW 4732   2.682   1.470   4.544
 1278SOL    HW1 4733   2.758   1.490   4.482
 1278SOL    HW2 4734   2.698   1.517   4.631
 1279SOL     OW 4735   1.839   4.753   0.402
 1279SOL    HW1 4736   1.920   4.698   0.419
 1279SOL    HW2 4737   1.784   4.759   0.485
 1280SOL     OW 4738   0.585   6.666   2.690
 1280SOL    HW1 4739   0.596   6.748   2.634
 1280SOL    HW2 4740   0.675   6.628   2.711
 1281SOL     OW 4741   1.136   6.282   3.910
 1281SOL    HW1 4742   1.111   6.191   3.944
 1281SOL    HW2 4743   1.197   6.273   3.832
 1282SOL     OW 4744   1.619   6.953   2.353
 1282SOL    HW1 4745   1.644   6.868   2.399
 1282SOL    HW2 4746   1.551   7.002   2.407
 1283SOL     OW 4747   5.415   4.712   5.437
 1283SOL    HW1 4748   5.497   4.699   5.493
 1283SOL    HW2 4749   5.395   4.810   5.430
 1284SOL     OW 4750   2.575   2.411   2.955
 1284SOL    HW1 4751   2.628   2.438   3.035
 1284SOL    HW2 4752   2.636   2.373   2.885
 1285SOL     OW 4753   6.383   2.338   5.522
 1285SOL    HW1 4754   6.290   2.334   5.559
 1285SOL    HW2 4755   6.444   2.285   5.581
 1286SOL     OW 4756   5.011   5.551   0.985
 1286SOL    HW1 4757   5.057   5.584   1.068
 1286SOL    HW2 4758   4.963   5.466   1.005
 1287SOL     OW 4759   5.947   3.365   6.062
 1287SOL    HW1 4760   5.975   3.378   5.967
 1287SOL    HW2 4761   5.872   3.427   6.083
 1288SOL     OW 4762   6.724   3.097   3.289
 1288SOL    HW1 4763   6.635   3.116   3.247
 1288SOL    HW2 4764   6.791   3.076   3.217
 1289SOL     OW 4765   0.492   5.094   2.954
 1289SOL    HW1 4766   0.450   5.177   2.988
 1289SOL    HW2 4767   0.579   5.116   2.909
 1290SOL     OW 4768   6.759   0.001   2.066
 1290SOL    HW1 4769   6.780   6.971   2.151
 1290SOL    HW2 4770   6.754   0.099   2.085
 1291SOL     OW 4771   1.785   5.447   1.539
 1291SOL    HW1 4772   1.774   5.521   1.606
 1291SOL    HW2 4773   1.870   5.459   1.490
 1292SOL     OW 4774   1.476   6.896   0.306
 1292SOL    HW1 4775   1.574   6.878   0.299
 1292SOL    HW2 4776   1.440   6.921   0.216
 1293SOL     OW 4777   6.764   1.141   6.856
 1293SOL    HW1 4778   6.744   1.090   6.772
 1293SOL    HW2 4779   6.839   1.204   6.839
 1294SOL     OW 4780   0.747   1.784   4.065
 1294SOL    HW1 4781   0.764   1.694   4.026
 1294SOL    HW2 4782   0.757   1.779   4.165
 1295SOL     OW 4783   5.050   3.964   0.554
 1295SOL    HW1 4784   4.960   3.955   0.596
 1295SOL    HW2 4785   5.058   4.054   0.513
 1296SOL     OW 4786   3.766   0.891   0.538
 1296SOL    HW1 4787   3.709   0.953   0.592
 1296SOL    HW2 4788   3.782   0.806   0.589
 1297SOL     OW 4789   5.414   0.762   5.979
 1297SOL    HW1 4790   5.323   0.729   6.004
 1297SOL    HW2 4791   5.460   0.797   6.061
 1298SOL     OW 4792   5.952   2.729   2.825
 1298SOL    HW1 4793   6.013   2.652   2.847
 1298SOL    HW2 4794   5.913   2.765   2.910
 1299SOL     OW 4795   1.445   4.400   4.282
 1299SOL    HW1 4796   1.355   4.404   4.237
 1299SOL    HW2 4797   1.482   4.308   4.274
 1300SOL     OW 4798   3.502   3.372   2.990
 1300SOL    HW1 4799   3.496   3.317   2.907
 1300SOL    HW2 4800   3.523   3.467   2.966
 1301SOL     OW 4801   0.831   0.804   1.806
 1301SOL    HW1 4802   0.743   0.838   1.774
 1301SOL    HW2 4803   0.830   0.801   1.906
 1302SOL     OW 4804   2.800   5.307   5.715
 1302SOL    HW1 4805   2.727   5.367   5.747
 1302SOL    HW2 4806   2.761   5.230   5.666
 1303SOL     OW 4807   2.878   6.865   1.701
 1303SOL    HW1 4808   2.799   6.925   1.714
 1303SOL    HW2 4809   2.962   6.919   1.704
 1304SOL     OW 4810   3.594   0.752   5.396
 1304SOL    HW1 4811   3.663   0.694   5.352
 1304SOL    HW2 4812   3.598   0.739   5.495
 1305SOL     OW 4813   6.020   6.371   4.245
 1305SOL    HW1 4814   5.943   6.404   4.190
 1305SOL    HW2 4815   6.021   6.271   4.245
 1306SOL     OW 4816   1.293   5.497   3.727
 1306SOL    HW1 4817   1.316   5.592   3.707
 1306SOL    HW2 4818   1.246   5.456   3.649
 1307SOL     OW 4819   1.356   0.832   5.326
 1307SOL    HW1 4820   1.430   0.808   5.390
 1307SOL    HW2 4821   1.309   0.748   5.298
 1308SOL     OW 4822   4.365   6.380   3.718
 1308SOL    HW1 4823   4.290   6.314   3.716
 1308SOL    HW2 4824   4.435   6.350   3.783
 1309SOL     OW 4825   6.577   3.065   4.141
 1309SOL    HW1 4826   6.491   3.114   4.132
 1309SOL    HW2 4827   6.591   3.007   4.060
 1310SOL     OW 4828   5.000   4.077   5.890
 1310SOL    HW1 4829   5.098   4.061   5.875
 1310SOL    HW2 4830   4.971   4.030   5.973
 1311SOL     OW 4831   5.366   4.519   0.135
 1311SOL    HW1 4832   5.299   4.542   0.064
 1311SOL    HW2 4833   5.452   4.490   0.092
 1312SOL     OW 4834   6.237   1.472   2.074
 1312SOL    HW1 4835   6.333   1.502   2.077
 1312SOL    HW2 4836   6.178   1.552   2.062
 1313SOL     OW 4837   4.241   5.113   5.077
 1313SOL    HW1 4838   4.291   5.149   5.156
 1313SOL    HW2 4839   4.299   5.117   4.996
 1314SOL     OW 4840   0.044   1.330   6.106
 1314SOL    HW1 4841   0.087   1.257   6.158
 1314SOL    HW2 4842   0.109   1.365   6.038
 1315SOL     OW 4843   1.249   6.920   3.842
 1315SOL    HW1 4844   1.342   6.913   3.808
 1315SOL    HW2 4845   1.244   6.880   3.934
 1316SOL     OW 4846   3.360   5.760   4.214
 1316SOL    HW1 4847   3.395   5.670   4.239
 1316SOL    HW2 4848   3.272   5.776   4.259
 1317SOL     OW 4849   0.547   3.597   3.274
 1317SOL    HW1 4850   0.624   3.545   3.238
 1317SOL    HW2 4851   0.461   3.550   3.252
 1318SOL     OW 4852   0.546   6.897   2.268
 1318SOL    HW1 4853   0.544   6.900   2.168
 1318SOL    HW2 4854   0.596   6.816   2.297
 1319SOL     OW 4855   0.101   6.544   1.113
 1319SOL    HW1 4856   0.067   6.517   1.203
 1319SOL    HW2 4857   0.177   6.608   1.124
 1320SOL     OW 4858   6.122   4.736   5.240
 1320SOL    HW1 4859   6.043   4.706   5.185
 1320SOL    HW2 4860   6.150   4.827   5.210
 1321SOL     OW 4861   3.620   1.283   1.241
 1321SOL    HW1 4862   3.545   1.249   1.184
 1321SOL    HW2 4863   3.646   1.375   1.211
 1322SOL     OW 4864   5.164   0.989   6.113
 1322SOL    HW1 4865   5.218   0.905   6.117
 1322SOL    HW2 4866   5.187   1.048   6.189
 1323SOL     OW 4867   6.650   0.548   4.489
 1323SOL    HW1 4868   6.745   0.544   4.456
 1323SOL    HW2 4869   6.588   0.548   4.411
 1324SOL     OW 4870   1.541   2.698   0.746
 1324SOL    HW1 4871   1.487   2.619   0.716
 1324SOL    HW2 4872   1.564   2.754   0.666
 1325SOL     OW 4873   4.676   5.270   3.686
 1325SOL    HW1 4874   4.655   5.204   3.613
 1325SOL    HW2 4875   4.606   5.265   3.757
 1326SOL     OW 4876   5.227   4.001   4.132
 1326SOL    HW1 4877   5.138   4.041   4.156
 1326SOL    HW2 4878   5.290   4.074   4.106
 1327SOL     OW 4879   3.451   6.264   3.501
 1327SOL    HW1 4880   3.359   6.229   3.482
 1327SOL    HW2 4881   3.513   6.188   3.518
 1328SOL     OW 4882   2.475   1.737   1.675
 1328SOL    HW1 4883   2.500   1.772   1.584
 1328SOL    HW2 4884   2.477   1.812   1.741
 1329SOL     OW 4885   0.830   5.736   1.697
 1329SOL    HW1 4886   0.909   5.695   1.652
 1329SOL    HW2 4887   0.752   5.737   1.635
 1330SOL     OW 4888   6.362   6.488   1.598
 1330SOL    HW1 4889   6.267   6.520   1.599
 1330SOL    HW2 4890   6.424   6.567   1.603
 1331SOL     OW 4891   0.900   2.176   1.476
 1331SOL    HW1 4892   0.889   2.147   1.381
 1331SOL    HW2 4893   0.981   2.233   1.484
 1332SOL     OW 4894   4.454   1.694   0.367
 1332SOL    HW1 4895   4.375   1.659   0.418
 1332SOL    HW2 4896   4.421   1.745   0.287
 1333SOL     OW 4897   4.279   3.504   5.225
 1333SOL    HW1 4898   4.319   3.504   5.317
 1333SOL    HW2 4899   4.235   3.415   5.208
 1334SOL     OW 4900   2.123   3.461   3.863
 1334SOL    HW1 4901   2.131   3.386   3.929
 1334SOL    HW2 4902   2.114   3.548   3.912
 1335SOL     OW 4903   2.034   5.796   3.547
 1335SOL    HW1 4904   2.073   5.883   3.578
 1335SOL    HW2 4905   2.027   5.734   3.625
 1336SOL     OW 4906   0.001   6.657   4.535
 1336SOL    HW1 4907   0.075   6.635   4.599
 1336SOL    HW2 4908   0.032   6.728   4.471
 1337SOL     OW 4909   2.854   0.231   6.929
 1337SOL    HW1 4910   2.868   0.329   6.945
 1337SOL    HW2 4911   2.923   0.198   6.865
 1338SOL     OW 4912   3.944   4.354   0.701
 1338SOL    HW1 4913   3.919   4.451   0.696
 1338SOL    HW2 4914   3.931   4.322   0.795
 1339SOL     OW 4915   0.396   4.267   6.494
 1339SOL    HW1 4916   0.336   4.229   6.565
 1339SOL    HW2 4917   0.425   4.359   6.521
 1340SOL     OW 4918   2.683   2.056   5.861
 1340SOL    HW1 4919   2.638   1.999   5.931
 1340SOL    HW2 4920   2.672   2.014   5.771
 1341SOL     OW 4921   4.919   1.727   3.940
 1341SOL    HW1 4922   4.936   1.795   3.868
 1341SOL    HW2 4923   5.006   1.695   3.976
 1342SOL     OW 4924   0.660   5.713   0.368
 1342SOL    HW1 4925   0.702   5.777   0.304
 1342SOL    HW2 4926   0.573   5.680   0.329
 1343SOL     OW 4927   3.068   5.809   3.304
 1343SOL    HW1 4928   3.041   5.835   3.397
 1343SOL    HW2 4929   3.006   5.852   3.238
 1344SOL     OW 4930   4.521   1.352   2.352
 1344SOL    HW1 4931   4.498   1.440   2.309
 1344SOL    HW2 4932   4.508   1.278   2.285
 1345SOL     OW 4933   6.274   5.458   1.961
 1345SOL    HW1 4934   6.244   5.539   2.012
 1345SOL    HW2 4935   6.280   5.480   1.864
 1346SOL     OW 4936   6.739   1.787   3.221
 1346SOL    HW1 4937   6.698   1.854   3.283
 1346SOL    HW2 4938   6.682   1.776   3.140
 1347SOL     OW 4939   4.059   0.874   3.816
 1347SOL    HW1 4940   4.010   0.940   3.759
 1347SOL    HW2 4941   4.046   0.896   3.912
 1348SOL     OW 4942   5.571   6.466   5.043
 1348SOL    HW1 4943   5.516   6.512   5.112
 1348SOL    HW2 4944   5.569   6.518   4.958
 1349SOL     OW 4945   5.436   1.380   6.592
 1349SOL    HW1 4946   5.534   1.363   6.606
 1349SOL    HW2 4947   5.425   1.456   6.528
 1350SOL     OW 4948   4.015   1.477   4.583
 1350SOL    HW1 4949   3.990   1.391   4.627
 1350SOL    HW2 4950   3.991   1.474   4.486
 1351SOL     OW 4951   1.245   1.607   4.355
 1351SOL    HW1 4952   1.248   1.609   4.255
 1351SOL    HW2 4953   1.154   1.578   4.385
 1352SOL     OW 4954   1.179   6.317   4.555
 1352SOL    HW1 4955   1.187   6.294   4.458
 1352SOL    HW2 4956   1.262   6.286   4.603
 1353SOL     OW 4957   2.881   3.261   5.947
 1353SOL    HW1 4958   2.840   3.343   5.908
 1353SOL    HW2 4959   2.937   3.286   6.026
 1354SOL     OW 4960   0.369   6.416   6.838
 1354SOL    HW1 4961   0.304   6.475   6.887
 1354SOL    HW2 4962   0.462   6.444   6.861
 1355SOL     OW 4963   4.999   3.264   0.258
 1355SOL    HW1 4964   4.995   3.246   0.356
 1355SOL    HW2 4965   5.045   3.352   0.242
 1356SOL     OW 4966   3.891   3.347   2.822
 1356SOL    HW1 4967   3.933   3.272   2.771
 1356SOL    HW2 4968   3.960   3.394   2.875
 1357SOL     OW 4969   4.056   2.394   6.146
 1357SOL    HW1 4970   3.960   2.381   6.173
 1357SOL    HW2 4971   4.080   2.329   6.074
 1358SOL     OW 4972   2.067   3.079   4.759
 1358SOL    HW1 4973   2.139   3.017   4.790
 1358SOL    HW2 4974   2.107   3.156   4.710
 1359SOL     OW 4975   1.187   1.299   6.518
 1359SOL    HW1 4976   1.140   1.366   6.460
 1359SOL    HW2 4977   1.241   1.237   6.462
 1360SOL     OW 4978   2.957   3.645   4.719
 1360SOL    HW1 4979   2.892   3.569   4.716
 1360SOL    HW2 4980   3.015   3.636   4.800
 1361SOL     OW 4981   1.373   6.174   1.280
 1361SOL    HW1 4982   1.281   6.140   1.302
 1361SOL    HW2 4983   1.365   6.262   1.234
 1362SOL     OW 4984   3.775   1.122   6.183
 1362SOL    HW1 4985   3.798   1.079   6.096
 1362SOL    HW2 4986   3.695   1.181   6.171
 1363SOL     OW 4987   6.412   5.807   1.086
 1363SOL    HW1 4988   6.335   5.864   1.115
 1363SOL    HW2 4989   6.380   5.716   1.063
 1364SOL     OW 4990   1.205   3.124   1.015
 1364SOL    HW1 4991   1.146   3.054   0.975
 1364SOL    HW2 4992   1.181   3.137   1.112
 1365SOL     OW 4993   1.784   2.943   6.282
 1365SOL    HW1 4994   1.753   2.849   6.266
 1365SOL    HW2 4995   1.774   2.996   6.198
 1366SOL     OW 4996   4.048   1.373   1.743
 1366SOL    HW1 4997   4.028   1.275   1.743
 1366SOL    HW2 4998   4.139   1.389   1.780
 1367SOL     OW 4999   1.616   0.270   4.172
 1367SOL    HW1 5000   1.528   0.267   4.123
 1367SOL    HW2 5001   1.685   0.222   4.119
 1368SOL     OW 5002   2.105   5.691   4.854
 1368SOL    HW1 5003   2.007   5.681   4.871
 1368SOL    HW2 5004   2.154   5.618   4.900
 1369SOL     OW 5005   2.530   5.784   3.187
 1369SOL    HW1 5006   2.545   5.686   3.173
 1369SOL    HW2 5007   2.436   5.799   3.219
 1370SOL     OW 5008   6.520   3.078   2.907
 1370SOL    HW1 5009   6.459   3.032   2.842
 1370SOL    HW2 5010   6.579   3.142   2.857
 1371SOL     OW 5011   6.529   1.778   6.726
 1371SOL    HW1 5012   6.524   1.788   6.626
 1371SOL    HW2 5013   6.624   1.778   6.755
 1372SOL     OW 5014   5.048   1.981   2.186
 1372SOL    HW1 5015   5.059   2.050   2.258
 1372SOL    HW2 5016   4.951   1.959   2.176
 1373SOL     OW 5017   4.232   2.787   1.204
 1373SOL    HW1 5018   4.309   2.723   1.201
 1373SOL    HW2 5019   4.257   2.872   1.157
 1374SOL     OW 5020   3.345   3.402   4.151
 1374SOL    HW1 5021   3.320   3.457   4.230
 1374SOL    HW2 5022   3.291   3.431   4.071
 1375SOL     OW 5023   6.415   3.950   5.413
 1375SOL    HW1 5024   6.354   3.874   5.435
 1375SOL    HW2 5025   6.360   4.028   5.381
 1376SOL     OW 5026   2.927   4.629   6.266
 1376SOL    HW1 5027   3.000   4.621   6.198
 1376SOL    HW2 5028   2.939   4.712   6.320
 1377SOL     OW 5029   1.000   2.280   3.797
 1377SOL    HW1 5030   0.958   2.237   3.717
 1377SOL    HW2 5031   0.929   2.312   3.859
 1378SOL     OW 5032   4.983   2.628   3.686
 1378SOL    HW1 5033   5.070   2.655   3.646
 1378SOL    HW2 5034   4.998   2.552   3.750
 1379SOL     OW 5035   5.357   5.215   6.595
 1379SOL    HW1 5036   5.316   5.144   6.652
 1379SOL    HW2 5037   5.328   5.305   6.626
 1380SOL     OW 5038   6.909   6.762   3.955
 1380SOL    HW1 5039   6.887   6.786   3.860
 1380SOL    HW2 5040   6.918   6.845   4.009
 1381SOL     OW 5041   6.844   2.678   6.248
 1381SOL    HW1 5042   6.805   2.586   6.249
 1381SOL    HW2 5043   6.798   2.733   6.179
 1382SOL     OW 5044   4.571   2.213   5.545
 1382SOL    HW1 5045   4.605   2.201   5.638
 1382SOL    HW2 5046   4.551   2.124   5.505
 1383SOL     OW 5047   5.130   0.133   0.436
 1383SOL    HW1 5048   5.169   0.041   0.442
 1383SOL    HW2 5049   5.059   0.144   0.506
 1384SOL     OW 5050   5.432   2.149   2.606
 1384SOL    HW1 5051   5.513   2.199   2.636
 1384SOL    HW2 5052   5.376   2.125   2.686
 1385SOL     OW 5053   6.634   6.535   2.026
 1385SOL    HW1 5054   6.545   6.512   1.987
 1385SOL    HW2 5055   6.681   6.451   2.055
 1386SOL     OW 5056   1.516   0.569   4.029
 1386SOL    HW1 5057   1.506   0.504   3.954
 1386SOL    HW2 5058   1.578   0.531   4.097
 1387SOL     OW 5059   1.079   5.599   1.589
 1387SOL    HW1 5060   1.149   5.627   1.654
 1387SOL    HW2 5061   1.091   5.648   1.502
 1388SOL     OW 5062   6.401   0.702   1.265
 1388SOL    HW1 5063   6.451   0.624   1.229
 1388SOL    HW2 5064   6.314   0.712   1.217
 1389SOL     OW 5065   6.562   0.363   0.818
 1389SOL    HW1 5066   6.557   0.279   0.872
 1389SOL    HW2 5067   6.658   0.388   0.804
 1390SOL     OW 5068   1.595   1.480   4.330
 1390SOL    HW1 5069   1.584   1.578   4.349
 1390SOL    HW2 5070   1.505   1.439   4.316
 1391SOL     OW 5071   0.616   3.476   3.814
 1391SOL    HW1 5072   0.642   3.566   3.780
 1391SOL    HW2 5073   0.680   3.448   3.886
 1392SOL     OW 5074   5.281   5.525   3.759
 1392SOL    HW1 5075   5.281   5.456   3.832
 1392SOL    HW2 5076   5.367   5.575   3.761
 1393SOL     OW 5077   3.608   4.596   6.609
 1393SOL    HW1 5078   3.535   4.559   6.551
 1393SOL    HW2 5079   3.597   4.695   6.616
 1394SOL     OW 5080   1.134   6.818   6.590
 1394SOL    HW1 5081   1.042   6.781   6.593
 1394SOL    HW2 5082   1.131   6.918   6.594
 1395SOL     OW 5083   4.177   5.012   6.652
 1395SOL    HW1 5084   4.202   4.952   6.727
 1395SOL    HW2 5085   4.078   5.009   6.639
 1396SOL     OW 5086   4.951   5.969   2.681
 1396SOL    HW1 5087   4.977   5.896   2.617
 1396SOL    HW2 5088   4.872   5.939   2.734
 1397SOL     OW 5089   5.670   5.852   4.701
 1397SOL    HW1 5090   5.626   5.764   4.682
 1397SOL    HW2 5091   5.769   5.840   4.701
 1398SOL     OW 5092   1.704   6.940   5.277
 1398SOL    HW1 5093   1.736   7.012   5.339
 1398SOL    HW2 5094   1.627   6.974   5.224
 1399SOL     OW 5095   2.739   5.557   2.436
 1399SOL    HW1 5096   2.808   5.597   2.376
 1399SOL    HW2 5097   2.652   5.551   2.387
 1400SOL     OW 5098   1.445   0.713   3.614
 1400SOL    HW1 5099   1.406   0.697   3.524
 1400SOL    HW2 5100   1.484   0.628   3.649
 1401SOL     OW 5101   6.922   2.077   4.256
 1401SOL    HW1 5102   6.976   2.156   4.229
 1401SOL    HW2 5103   6.858   2.053   4.183
 1402SOL     OW 5104   5.479   2.521   0.176
 1402SOL    HW1 5105   5.519   2.435   0.206
 1402SOL    HW2 5106   5.545   2.595   0.188
 1403SOL     OW 5107   3.875   1.129   2.048
 1403SOL    HW1 5108   3.893   1.226   2.058
 1403SOL    HW2 5109   3.957   1.076   2.071
 1404SOL     OW 5110   4.788   1.257   6.453
 1404SOL    HW1 5111   4.720   1.275   6.382
 1404SOL    HW2 5112   4.789   1.331   6.519
 1405SOL     OW 5113   3.550   2.668   0.518
 1405SOL    HW1 5114   3.528   2.716   0.433
 1405SOL    HW2 5115   3.633   2.707   0.558
 1406SOL     OW 5116   0.944   3.247   1.833
 1406SOL    HW1 5117   0.960   3.226   1.929
 1406SOL    HW2 5118   0.927   3.345   1.823
 1407SOL     OW 5119   6.689   2.254   2.615
 1407SOL    HW1 5120   6.684   2.207   2.527
 1407SOL    HW2 5121   6.674   2.352   2.601
 1408SOL     OW 5122   6.772   4.512   6.902
 1408SOL    HW1 5123   6.715   4.429   6.905
 1408SOL    HW2 5124   6.745   4.568   6.824
 1409SOL     OW 5125   6.970   1.375   3.855
 1409SOL    HW1 5126   6.926   1.304   3.911
 1409SOL    HW2 5127   0.050   1.362   3.858
 1410SOL     OW 5128   0.188   1.769   6.738
 1410SOL    HW1 5129   0.285   1.756   6.761
 1410SOL    HW2 5130   0.173   1.749   6.641
 1411SOL     OW 5131   1.710   1.435   1.310
 1411SOL    HW1 5132   1.759   1.362   1.263
 1411SOL    HW2 5133   1.691   1.510   1.246
 1412SOL     OW 5134   1.992   2.017   0.757
 1412SOL    HW1 5135   2.041   1.930   0.746
 1412SOL    HW2 5136   1.997   2.068   0.671
 1413SOL     OW 5137   3.186   6.983   3.180
 1413SOL    HW1 5138   3.269   7.005   3.231
 1413SOL    HW2 5139   3.146   6.899   3.217
 1414SOL     OW 5140   1.602   0.882   2.523
 1414SOL    HW1 5141   1.603   0.942   2.604
 1414SOL    HW2 5142   1.678   0.906   2.463
 1415SOL     OW 5143   5.594   6.630   4.551
 1415SOL    HW1 5144   5.573   6.609   4.646
 1415SOL    HW2 5145   5.641   6.553   4.509
 1416SOL     OW 5146   4.834   5.671   3.715
 1416SOL    HW1 5147   4.932   5.685   3.727
 1416SOL    HW2 5148   4.794   5.637   3.800
 1417SOL     OW 5149   3.422   3.163   5.584
 1417SOL    HW1 5150   3.396   3.069   5.560
 1417SOL    HW2 5151   3.455   3.165   5.678
 1418SOL     OW 5152   3.354   4.146   4.056
 1418SOL    HW1 5153   3.267   4.098   4.053
 1418SOL    HW2 5154   3.392   4.153   3.964
 1419SOL     OW 5155   3.304   6.166   3.789
 1419SOL    HW1 5156   3.229   6.232   3.789
 1419SOL    HW2 5157   3.300   6.109   3.708
 1420SOL     OW 5158   0.228   6.741   3.106
 1420SOL    HW1 5159   0.313   6.731   3.053
 1420SOL    HW2 5160   0.236   6.688   3.191
 1421SOL     OW 5161   3.243   1.136   3.223
 1421SOL    HW1 5162   3.205   1.211   3.278
 1421SOL    HW2 5163   3.336   1.115   3.255
 1422SOL     OW 5164   2.774   5.739   0.605
 1422SOL    HW1 5165   2.757   5.662   0.544
 1422SOL    HW2 5166   2.766   5.709   0.700
 1423SOL     OW 5167   4.545   0.317   2.647
 1423SOL    HW1 5168   4.545   0.260   2.565
 1423SOL    HW2 5169   4.451   0.324   2.682
 1424SOL     OW 5170   6.516   5.403   2.084
 1424SOL    HW1 5171   6.439   5.408   2.021
 1424SOL    HW2 5172   6.561   5.314   2.075
 1425SOL     OW 5173   2.222   0.327   4.077
 1425SOL    HW1 5174   2.149   0.297   4.015
 1425SOL    HW2 5175   2.216   0.275   4.162
 1426SOL     OW 5176   1.667   1.127   5.964
 1426SOL    HW1 5177   1.640   1.185   5.888
 1426SOL    HW2 5178   1.704   1.184   6.038
 1427SOL     OW 5179   4.965   2.608   6.170
 1427SOL    HW1 5180   5.053   2.566   6.192
 1427SOL    HW2 5181   4.943   2.592   6.074
 1428SOL     OW 5182   5.574   0.602   0.951
 1428SOL    HW1 5183   5.506   0.665   0.988
 1428SOL    HW2 5184   5.663   0.621   0.992
 1429SOL     OW 5185   5.241   5.823   0.866
 1429SOL    HW1 5186   5.161   5.811   0.808
 1429SOL    HW2 5187   5.258   5.921   0.879
 1430SOL     OW 5188   2.932   4.977   2.593
 1430SOL    HW1 5189   2.857   4.915   2.572
 1430SOL    HW2 5190   2.978   5.004   2.508
 1431SOL     OW 5191   2.187   1.036   0.329
 1431SOL    HW1 5192   2.136   0.953   0.307
 1431SOL    HW2 5193   2.212   1.036   0.425
 1432SOL     OW 5194   3.147   6.735   1.531
 1432SOL    HW1 5195   3.204   6.674   1.586
 1432SOL    HW2 5196   3.116   6.812   1.586
 1433SOL     OW 5197   4.903   6.852   3.228
 1433SOL    HW1 5198   4.826   6.827   3.169
 1433SOL    HW2 5199   4.966   6.774   3.234
 1434SOL     OW 5200   0.699   1.121   5.123
 1434SOL    HW1 5201   0.604   1.093   5.114
 1434SOL    HW2 5202   0.742   1.125   5.033
 1435SOL     OW 5203   6.836   2.237   3.714
 1435SOL    HW1 5204   6.757   2.188   3.678
 1435SOL    HW2 5205   6.918   2.180   3.703
 1436SOL     OW 5206   5.026   3.321   1.510
 1436SOL    HW1 5207   4.963   3.386   1.552
 1436SOL    HW2 5208   5.113   3.322   1.558
 1437SOL     OW 5209   4.704   0.530   2.699
 1437SOL    HW1 5210   4.637   0.579   2.755
 1437SOL    HW2 5211   4.665   0.443   2.669
 1438SOL     OW 5212   2.905   6.807   2.039
 1438SOL    HW1 5213   2.885   6.712   2.062
 1438SOL    HW2 5214   2.886   6.822   1.942
 1439SOL     OW 5215   0.687   5.584   2.486
 1439SOL    HW1 5216   0.738   5.577   2.571
 1439SOL    HW2 5217   0.731   5.528   2.416
 1440SOL     OW 5218   2.521   2.739   1.300
 1440SOL    HW1 5219   2.617   2.766   1.306
 1440SOL    HW2 5220   2.498   2.680   1.378
 1441SOL     OW 5221   4.941   6.238   6.558
 1441SOL    HW1 5222   4.926   6.250   6.656
 1441SOL    HW2 5223   4.854   6.223   6.512
 1442SOL     OW 5224   5.069   5.541   1.580
 1442SOL    HW1 5225   5.108   5.623   1.621
 1442SOL    HW2 5226   4.971   5.554   1.565
 1443SOL     OW 5227   7.019   2.635   2.399
 1443SOL    HW1 5228   7.000   2.548   2.354
 1443SOL    HW2 5229   6.935   2.669   2.441
 1444SOL     OW 5230   0.585   6.857   4.990
 1444SOL    HW1 5231   0.594   6.850   4.890
 1444SOL    HW2 5232   0.672   6.832   5.033
 1445SOL     OW 5233   0.971   2.214   1.160
 1445SOL    HW1 5234   1.016   2.302   1.176
 1445SOL    HW2 5235   1.037   2.140   1.169
 1446SOL     OW 5236   6.025   5.123   1.600
 1446SOL    HW1 5237   5.982   5.153   1.685
 1446SOL    HW2 5238   6.102   5.063   1.622
 1447SOL     OW 5239   0.145   6.728   3.730
 1447SOL    HW1 5240   0.242   6.747   3.713
 1447SOL    HW2 5241   0.116   6.777   3.811
 1448SOL     OW 5242   1.894   0.852   5.406
 1448SOL    HW1 5243   1.848   0.931   5.366
 1448SOL    HW2 5244   1.959   0.882   5.475
 1449SOL     OW 5245   1.818   3.223   2.233
 1449SOL    HW1 5246   1.898   3.226   2.174
 1449SOL    HW2 5247   1.844   3.190   2.324
 1450SOL     OW 5248   3.128   2.136   2.495
 1450SOL    HW1 5249   3.135   2.197   2.416
 1450SOL    HW2 5250   3.217   2.130   2.541
 1451SOL     OW 5251   4.263   1.801   2.783
 1451SOL    HW1 5252   4.341   1.863   2.790
 1451SOL    HW2 5253   4.292   1.715   2.741
 1452SOL     OW 5254   4.257   2.945   5.330
 1452SOL    HW1 5255   4.301   2.856   5.341
 1452SOL    HW2 5256   4.159   2.936   5.348
 1453SOL     OW 5257   1.857   3.185   4.909
 1453SOL    HW1 5258   1.835   3.117   4.979
 1453SOL    HW2 5259   1.935   3.154   4.855
 1454SOL     OW 5260   3.009   2.123   2.170
 1454SOL    HW1 5261   3.087   2.085   2.119
 1454SOL    HW2 5262   2.967   2.196   2.117
 1455SOL     OW 5263   0.071   5.884   2.650
 1455SOL    HW1 5264   7.014   5.869   2.712
 1455SOL    HW2 5265   0.047   5.954   2.583
 1456SOL     OW 5266   6.460   6.343   3.514
 1456SOL    HW1 5267   6.419   6.379   3.598
 1456SOL    HW2 5268   6.559   6.333   3.528
 1457SOL     OW 5269   1.223   5.442   5.712
 1457SOL    HW1 5270   1.129   5.471   5.694
 1457SOL    HW2 5271   1.270   5.512   5.765
 1458SOL     OW 5272   0.048   5.787   4.771
 1458SOL    HW1 5273   0.046   5.736   4.857
 1458SOL    HW2 5274   7.016   5.872   4.781
 1459SOL     OW 5275   6.948   6.296   5.526
 1459SOL    HW1 5276   6.892   6.338   5.598
 1459SOL    HW2 5277   6.936   6.197   5.527
 1460SOL     OW 5278   1.610   6.306   4.844
 1460SOL    HW1 5279   1.647   6.315   4.752
 1460SOL    HW2 5280   1.685   6.310   4.911
 1461SOL     OW 5281   5.826   3.738   3.359
 1461SOL    HW1 5282   5.827   3.838   3.350
 1461SOL    HW2 5283   5.887   3.711   3.434
 1462SOL     OW 5284   1.168   2.230   2.141
 1462SOL    HW1 5285   1.172   2.181   2.228
 1462SOL    HW2 5286   1.136   2.168   2.069
 1463SOL     OW 5287   1.898   4.424   6.800
 1463SOL    HW1 5288   1.963   4.485   6.755
 1463SOL    HW2 5289   1.807   4.440   6.762
 1464SOL     OW 5290   0.954   4.135   5.557
 1464SOL    HW1 5291   0.919   4.072   5.487
 1464SOL    HW2 5292   0.892   4.214   5.564
 1465SOL     OW 5293   1.506   3.083   5.551
 1465SOL    HW1 5294   1.531   3.142   5.628
 1465SOL    HW2 5295   1.521   2.988   5.575
 1466SOL     OW 5296   5.463   1.096   2.653
 1466SOL    HW1 5297   5.455   1.093   2.553
 1466SOL    HW2 5298   5.533   1.030   2.682
 1467SOL     OW 5299   0.538   0.480   3.846
 1467SOL    HW1 5300   0.577   0.544   3.779
 1467SOL    HW2 5301   0.466   0.525   3.898
 1468SOL     OW 5302   3.449   6.706   3.898
 1468SOL    HW1 5303   3.476   6.722   3.992
 1468SOL    HW2 5304   3.463   6.609   3.875
 1469SOL     OW 5305   5.330   4.570   3.158
 1469SOL    HW1 5306   5.257   4.504   3.174
 1469SOL    HW2 5307   5.292   4.663   3.158
 1470SOL     OW 5308   6.073   1.813   1.777
 1470SOL    HW1 5309   6.094   1.908   1.755
 1470SOL    HW2 5310   6.041   1.808   1.872
 1471SOL     OW 5311   5.022   6.328   0.422
 1471SOL    HW1 5312   5.035   6.396   0.495
 1471SOL    HW2 5313   4.930   6.288   0.430
 1472SOL     OW 5314   2.540   0.542   6.887
 1472SOL    HW1 5315   2.545   0.568   6.790
 1472SOL    HW2 5316   2.632   0.545   6.926
 1473SOL     OW 5317   1.703   5.767   3.196
 1473SOL    HW1 5318   1.703   5.668   3.212
 1473SOL    HW2 5319   1.696   5.784   3.097
 1474SOL     OW 5320   1.515   4.287   1.547
 1474SOL    HW1 5321   1.439   4.231   1.514
 1474SOL    HW2 5322   1.512   4.376   1.502
 1475SOL     OW 5323   6.542   6.929   6.428
 1475SOL    HW1 5324   6.540   6.858   6.499
 1475SOL    HW2 5325   6.613   6.908   6.361
 1476SOL     OW 5326   6.036   0.193   6.548
 1476SOL    HW1 5327   5.995   0.192   6.457
 1476SOL    HW2 5328   6.088   0.109   6.563
 1477SOL     OW 5329   3.710   4.082   1.818
 1477SOL    HW1 5330   3.801   4.072   1.779
 1477SOL    HW2 5331   3.655   4.142   1.760
 1478SOL     OW 5332   4.231   3.657   6.171
 1478SOL    HW1 5333   4.247   3.558   6.169
 1478SOL    HW2 5334   4.275   3.700   6.092
 1479SOL     OW 5335   4.319   4.677   0.983
 1479SOL    HW1 5336   4.371   4.759   1.007
 1479SOL    HW2 5337   4.280   4.688   0.892
 1480SOL     OW 5338   2.748   1.851   3.591
 1480SOL    HW1 5339   2.741   1.911   3.511
 1480SOL    HW2 5340   2.678   1.780   3.586
 1481SOL     OW 5341   4.071   1.654   5.476
 1481SOL    HW1 5342   4.104   1.619   5.563
 1481SOL    HW2 5343   4.105   1.747   5.463
 1482SOL     OW 5344   6.651   1.288   1.186
 1482SOL    HW1 5345   6.597   1.360   1.228
 1482SOL    HW2 5346   6.632   1.284   1.088
 1483SOL     OW 5347   6.479   6.340   0.354
 1483SOL    HW1 5348   6.477   6.242   0.374
 1483SOL    HW2 5349   6.411   6.387   0.411
 1484SOL     OW 5350   3.450   6.399   5.795
 1484SOL    HW1 5351   3.542   6.406   5.834
 1484SOL    HW2 5352   3.400   6.485   5.810
 1485SOL     OW 5353   5.261   3.933   3.425
 1485SOL    HW1 5354   5.173   3.889   3.411
 1485SOL    HW2 5355   5.320   3.873   3.480
 1486SOL     OW 5356   6.161   6.236   4.547
 1486SOL    HW1 5357   6.229   6.279   4.607
 1486SOL    HW2 5358   6.124   6.305   4.485
 1487SOL     OW 5359   5.815   0.138   6.356
 1487SOL    HW1 5360   5.779   0.095   6.439
 1487SOL    HW2 5361   5.762   0.219   6.334
 1488SOL     OW 5362   6.772   2.715   2.486
 1488SOL    HW1 5363   6.723   2.778   2.546
 1488SOL    HW2 5364   6.714   2.690   2.409
 1489SOL     OW 5365   3.296   5.478   0.024
 1489SOL    HW1 5366   3.261   5.438   0.109
 1489SOL    HW2 5367   3.396   5.480   0.028
 1490SOL     OW 5368   5.898   2.908   2.196
 1490SOL    HW1 5369   5.897   2.961   2.112
 1490SOL    HW2 5370   5.972   2.842   2.194
 1491SOL     OW 5371   5.577   3.769   4.480
 1491SOL    HW1 5372   5.534   3.856   4.454
 1491SOL    HW2 5373   5.664   3.788   4.526
 1492SOL     OW 5374   1.394   2.830   1.835
 1492SOL    HW1 5375   1.304   2.858   1.800
 1492SOL    HW2 5376   1.401   2.730   1.830
 1493SOL     OW 5377   6.512   2.244   6.434
 1493SOL    HW1 5378   6.436   2.276   6.378
 1493SOL    HW2 5379   6.477   2.207   6.520
 1494SOL     OW 5380   1.724   3.214   6.444
 1494SOL    HW1 5381   1.796   3.283   6.442
 1494SOL    HW2 5382   1.737   3.150   6.369
 1495SOL     OW 5383   6.063   3.809   4.160
 1495SOL    HW1 5384   6.037   3.713   4.147
 1495SOL    HW2 5385   6.078   3.827   4.257
 1496SOL     OW 5386   6.771   6.025   5.983
 1496SOL    HW1 5387   6.844   6.034   5.915
 1496SOL    HW2 5388   6.694   5.974   5.943
 1497SOL     OW 5389   4.674   2.600   2.559
 1497SOL    HW1 5390   4.604   2.566   2.498
 1497SOL    HW2 5391   4.692   2.696   2.540
 1498SOL     OW 5392   3.782   3.979   0.721
 1498SOL    HW1 5393   3.725   3.910   0.766
 1498SOL    HW2 5394   3.790   3.957   0.624
 1499SOL     OW 5395   1.128   4.357   4.219
 1499SOL    HW1 5396   1.149   4.277   4.162
 1499SOL    HW2 5397   1.101   4.433   4.160
 1500SOL     OW 5398   2.621   5.639   1.504
 1500SOL    HW1 5399   2.632   5.617   1.407
 1500SOL    HW2 5400   2.530   5.613   1.534
 1501SOL     OW 5401   5.414   1.305   1.461
 1501SOL    HW1 5402   5.319   1.335   1.453
 1501SOL    HW2 5403   5.465   1.334   1.380
 1502SOL     OW 5404   0.764   6.441   6.151
 1502SOL    HW1 5405   0.742   6.500   6.229
 1502SOL    HW2 5406   0.715   6.354   6.161
 1503SOL     OW 5407   6.225   6.033   2.360
 1503SOL    HW1 5408   6.161   6.008   2.287
 1503SOL    HW2 5409   6.177   6.083   2.432
 1504SOL     OW 5410   1.550   0.122   3.852
 1504SOL    HW1 5411   1.497   0.207   3.845
 1504SOL    HW2 5412   1.519   0.057   3.783
 1505SOL     OW 5413   6.602   4.372   4.966
 1505SOL    HW1 5414   6.701   4.377   4.975
 1505SOL    HW2 5415   6.576   4.373   4.870
 1506SOL     OW 5416   1.130   1.201   0.569
 1506SOL    HW1 5417   1.186   1.120   0.586
 1506SOL    HW2 5418   1.169   1.279   0.618
 1507SOL     OW 5419   2.124   2.305   3.803
 1507SOL    HW1 5420   2.049   2.268   3.857
 1507SOL    HW2 5421   2.090   2.378   3.744
 1508SOL     OW 5422   1.392   0.747   1.429
 1508SOL    HW1 5423   1.412   0.805   1.349
 1508SOL    HW2 5424   1.477   0.723   1.474
 1509SOL     OW 5425   4.079   0.890   4.642
 1509SOL    HW1 5426   4.079   0.814   4.708
 1509SOL    HW2 5427   4.163   0.888   4.589
 1510SOL     OW 5428   2.463   6.825   5.327
 1510SOL    HW1 5429   2.380   6.881   5.331
 1510SOL    HW2 5430   2.533   6.864   5.387
 1511SOL     OW 5431   3.862   4.240   5.211
 1511SOL    HW1 5432   3.906   4.323   5.243
 1511SOL    HW2 5433   3.931   4.173   5.184
 1512SOL     OW 5434   5.233   7.008   0.985
 1512SOL    HW1 5435   5.255   6.913   0.963
 1512SOL    HW2 5436   5.318   0.041   0.994
 1513SOL     OW 5437   3.145   6.410   5.429
 1513SOL    HW1 5438   3.234   6.430   5.471
 1513SOL    HW2 5439   3.145   6.316   5.394
 1514SOL     OW 5440   2.949   1.655   0.317
 1514SOL    HW1 5441   2.949   1.555   0.315
 1514SOL    HW2 5442   3.015   1.687   0.385
 1515SOL     OW 5443   3.678   0.523   1.531
 1515SOL    HW1 5444   3.595   0.562   1.492
 1515SOL    HW2 5445   3.759   0.569   1.492
 1516SOL     OW 5446   0.256   6.735   6.730
 1516SOL    HW1 5447   0.199   6.774   6.658
 1516SOL    HW2 5448   0.220   6.761   6.819
 1517SOL     OW 5449   2.267   5.970   2.470
 1517SOL    HW1 5450   2.173   5.939   2.483
 1517SOL    HW2 5451   2.278   6.005   2.377
 1518SOL     OW 5452   2.343   2.258   6.540
 1518SOL    HW1 5453   2.323   2.311   6.622
 1518SOL    HW2 5454   2.412   2.305   6.486
 1519SOL     OW 5455   0.690   4.490   0.002
 1519SOL    HW1 5456   0.661   4.472   0.096
 1519SOL    HW2 5457   0.692   4.589   7.006
 1520SOL     OW 5458   0.231   6.614   3.355
 1520SOL    HW1 5459   0.329   6.635   3.359
 1520SOL    HW2 5460   0.204   6.565   3.437
 1521SOL     OW 5461   2.624   4.849   6.932
 1521SOL    HW1 5462   2.688   4.772   6.924
 1521SOL    HW2 5463   2.531   4.816   6.919
 1522SOL     OW 5464   6.162   6.158   4.033
 1522SOL    HW1 5465   6.087   6.094   4.015
 1522SOL    HW2 5466   6.126   6.249   4.051
 1523SOL     OW 5467   2.669   6.708   0.253
 1523SOL    HW1 5468   2.666   6.688   0.351
 1523SOL    HW2 5469   2.622   6.635   0.202
 1524SOL     OW 5470   1.817   2.105   4.576
 1524SOL    HW1 5471   1.821   2.007   4.557
 1524SOL    HW2 5472   1.879   2.154   4.515
 1525SOL     OW 5473   6.314   4.013   0.400
 1525SOL    HW1 5474   6.301   3.915   0.407
 1525SOL    HW2 5475   6.336   4.051   0.490
 1526SOL     OW 5476   0.770   1.326   2.099
 1526SOL    HW1 5477   0.775   1.297   2.004
 1526SOL    HW2 5478   0.743   1.248   2.156
 1527SOL     OW 5479   5.215   1.474   4.499
 1527SOL    HW1 5480   5.256   1.446   4.411
 1527SOL    HW2 5481   5.200   1.393   4.555
 1528SOL     OW 5482   2.955   3.172   2.088
 1528SOL    HW1 5483   2.892   3.184   2.166
 1528SOL    HW2 5484   3.046   3.202   2.114
 1529SOL     OW 5485   4.305   0.694   5.963
 1529SOL    HW1 5486   4.229   0.652   5.913
 1529SOL    HW2 5487   4.339   0.630   6.032
 1530SOL     OW 5488   2.657   6.641   1.993
 1530SOL    HW1 5489   2.710   6.585   1.930
 1530SOL    HW2 5490   2.563   6.651   1.959
 1531SOL     OW 5491   5.817   6.203   4.585
 1531SOL    HW1 5492   5.780   6.112   4.570
 1531SOL    HW2 5493   5.917   6.198   4.588
 1532SOL     OW 5494   2.955   5.635   2.309
 1532SOL    HW1 5495   2.982   5.557   2.252
 1532SOL    HW2 5496   3.029   5.657   2.373
 1533SOL     OW 5497   5.416   5.888   1.535
 1533SOL    HW1 5498   5.506   5.848   1.518
 1533SOL    HW2 5499   5.387   5.866   1.628
 1534SOL     OW 5500   2.815   5.137   6.652
 1534SOL    HW1 5501   2.795   5.120   6.748
 1534SOL    HW2 5502   2.789   5.058   6.597
 1535SOL     OW 5503   4.913   4.890   3.510
 1535SOL    HW1 5504   4.936   4.987   3.504
 1535SOL    HW2 5505   4.981   4.844   3.567
 1536SOL     OW 5506   3.940   4.765   6.485
 1536SOL    HW1 5507   3.867   4.743   6.551
 1536SOL    HW2 5508   3.936   4.701   6.409
 1537SOL     OW 5509   2.815   6.086   2.032
 1537SOL    HW1 5510   2.798   6.107   2.128
 1537SOL    HW2 5511   2.820   6.172   1.980
 1538SOL     OW 5512   2.555   1.596   0.434
 1538SOL    HW1 5513   2.643   1.559   0.464
 1538SOL    HW2 5514   2.515   1.533   0.367
 1539SOL     OW 5515   0.215   2.951   0.552
 1539SOL    HW1 5516   0.274   2.959   0.633
 1539SOL    HW2 5517   0.132   2.900   0.576
 1540SOL     OW 5518   3.618   5.645   3.622
 1540SOL    HW1 5519   3.670   5.567   3.658
 1540SOL    HW2 5520   3.532   5.612   3.582
 1541SOL     OW 5521   4.744   2.755   5.501
 1541SOL    HW1 5522   4.709   2.759   5.408
 1541SOL    HW2 5523   4.702   2.679   5.550
 1542SOL     OW 5524   0.894   4.482   2.839
 1542SOL    HW1 5525   0.922   4.413   2.906
 1542SOL    HW2 5526   0.808   4.454   2.797
 1543SOL     OW 5527   4.067   4.815   1.048
 1543SOL    HW1 5528   4.135   4.857   1.108
 1543SOL    HW2 5529   4.082   4.846   0.954
 1544SOL     OW 5530   3.664   2.893   3.455
 1544SOL    HW1 5531   3.742   2.929   3.404
 1544SOL    HW2 5532   3.590   2.870   3.391
 1545SOL     OW 5533   6.544   4.510   0.883
 1545SOL    HW1 5534   6.496   4.534   0.968
 1545SOL    HW2 5535   6.478   4.470   0.819
 1546SOL     OW 5536   6.259   6.465   5.607
 1546SOL    HW1 5537   6.348   6.426   5.582
 1546SOL    HW2 5538   6.189   6.433   5.543
 1547SOL     OW 5539   1.619   2.791   6.519
 1547SOL    HW1 5540   1.586   2.788   6.613
 1547SOL    HW2 5541   1.699   2.851   6.514
 1548SOL     OW 5542   6.841   2.464   0.299
 1548SOL    HW1 5543   6.865   2.412   0.380
 1548SOL    HW2 5544   6.820   2.402   0.224
 1549SOL     OW 5545   4.910   0.536   3.922
 1549SOL    HW1 5546   5.000   0.579   3.909
 1549SOL    HW2 5547   4.849   0.600   3.967
 1550SOL     OW 5548   3.077   3.919   4.751
 1550SOL    HW1 5549   2.990   3.870   4.742
 1550SOL    HW2 5550   3.072   3.982   4.828
 1551SOL     OW 5551   0.180   5.182   5.997
 1551SOL    HW1 5552   0.194   5.220   5.905
 1551SOL    HW2 5553   0.176   5.257   6.064
 1552SOL     OW 5554   2.476   4.062   1.252
 1552SOL    HW1 5555   2.395   4.008   1.227
 1552SOL    HW2 5556   2.508   4.033   1.342
 1553SOL     OW 5557   1.354   2.509   5.662
 1553SOL    HW1 5558   1.264   2.547   5.682
 1553SOL    HW2 5559   1.397   2.562   5.589
 1554SOL     OW 5560   4.180   1.993   3.434
 1554SOL    HW1 5561   4.206   2.024   3.343
 1554SOL    HW2 5562   4.182   2.071   3.497
 1555SOL     OW 5563   6.422   4.260   5.352
 1555SOL    HW1 5564   6.378   4.222   5.271
 1555SOL    HW2 5565   6.501   4.314   5.325
 1556SOL     OW 5566   2.363   1.001   5.281
 1556SOL    HW1 5567   2.313   0.916   5.263
 1556SOL    HW2 5568   2.412   1.029   5.199
 1557SOL     OW 5569   1.404   1.539   5.942
 1557SOL    HW1 5570   1.341   1.607   5.980
 1557SOL    HW2 5571   1.478   1.523   6.007
 1558SOL     OW 5572   6.617   6.944   4.283
 1558SOL    HW1 5573   6.598   6.874   4.214
 1558SOL    HW2 5574   6.646   6.901   4.368
 1559SOL     OW 5575   1.500   1.011   6.229
 1559SOL    HW1 5576   1.514   1.020   6.131
 1559SOL    HW2 5577   1.575   0.957   6.269
 1560SOL     OW 5578   0.157   0.181   1.478
 1560SOL    HW1 5579   0.150   0.106   1.545
 1560SOL    HW2 5580   0.112   0.262   1.515
 1561SOL     OW 5581   6.071   6.165   1.887
 1561SOL    HW1 5582   6.151   6.179   1.828
 1561SOL    HW2 5583   6.099   6.125   1.974
 1562SOL     OW 5584   5.730   0.014   4.531
 1562SOL    HW1 5585   5.757   0.109   4.548
 1562SOL    HW2 5586   5.789   6.972   4.584
 1563SOL     OW 5587   2.582   6.897   6.192
 1563SOL    HW1 5588   2.528   6.813   6.187
 1563SOL    HW2 5589   2.628   6.913   6.104
 1564SOL     OW 5590   1.746   2.844   3.067
 1564SOL    HW1 5591   1.817   2.781   3.100
 1564SOL    HW2 5592   1.658   2.798   3.070
 1565SOL     OW 5593   6.258   4.206   1.573
 1565SOL    HW1 5594   6.304   4.269   1.636
 1565SOL    HW2 5595   6.327   4.160   1.516
 1566SOL     OW 5596   5.914   4.204   2.064
 1566SOL    HW1 5597   5.817   4.217   2.040
 1566SOL    HW2 5598   5.971   4.231   1.987
 1567SOL     OW 5599   6.840   5.516   5.531
 1567SOL    HW1 5600   6.794   5.429   5.514
 1567SOL    HW2 5601   6.786   5.571   5.595
 1568SOL     OW 5602   0.356   6.181   1.120
 1568SOL    HW1 5603   0.426   6.195   1.051
 1568SOL    HW2 5604   0.294   6.108   1.092
 1569SOL     OW 5605   3.979   5.644   4.511
 1569SOL    HW1 5606   3.896   5.676   4.466
 1569SOL    HW2 5607   4.001   5.705   4.587
 1570SOL     OW 5608   2.644   2.335   1.420
 1570SOL    HW1 5609   2.685   2.404   1.360
 1570SOL    HW2 5610   2.713   2.300   1.483
 1571SOL     OW 5611   0.367   2.958   6.090
 1571SOL    HW1 5612   0.442   3.000   6.141
 1571SOL    HW2 5613   0.344   3.015   6.011
 1572SOL     OW 5614   0.591   5.835   4.465
 1572SOL    HW1 5615   0.611   5.753   4.518
 1572SOL    HW2 5616   0.522   5.890   4.513
 1573SOL     OW 5617   4.291   0.580   0.011
 1573SOL    HW1 5618   4.352   0.588   6.951
 1573SOL    HW2 5619   4.255   0.670   0.034
 1574SOL     OW 5620   4.946   3.311   2.317
 1574SOL    HW1 5621   5.023   3.300   2.254
 1574SOL    HW2 5622   4.891   3.389   2.288
 1575SOL     OW 5623   3.385   2.587   0.151
 1575SOL    HW1 5624   3.295   2.573   0.192
 1575SOL    HW2 5625   3.396   2.527   0.072
 1576SOL     OW 5626   5.858   5.005   3.233
 1576SOL    HW1 5627   5.790   5.070   3.269
 1576SOL    HW2 5628   5.917   4.974   3.307
 1577SOL     OW 5629   2.002   0.687   0.846
 1577SOL    HW1 5630   2.054   0.603   0.859
 1577SOL    HW2 5631   2.043   0.760   0.901
 1578SOL     OW 5632   5.517   6.209   4.993
 1578SOL    HW1 5633   5.601   6.176   4.951
 1578SOL    HW2 5634   5.529   6.304   5.021
 1579SOL     OW 5635   6.550   1.564   3.303
 1579SOL    HW1 5636   6.625   1.614   3.260
 1579SOL    HW2 5637   6.563   1.466   3.290
 1580SOL     OW 5638   3.068   3.797   5.644
 1580SOL    HW1 5639   3.035   3.843   5.727
 1580SOL    HW2 5640   3.092   3.703   5.665
 1581SOL     OW 5641   6.026   3.358   4.245
 1581SOL    HW1 5642   6.089   3.379   4.171
 1581SOL    HW2 5643   6.040   3.264   4.275
 1582SOL     OW 5644   6.136   6.429   3.960
 1582SOL    HW1 5645   6.144   6.523   3.991
 1582SOL    HW2 5646   6.210   6.408   3.897
 1583SOL     OW 5647   2.694   3.202   0.901
 1583SOL    HW1 5648   2.698   3.210   1.001
 1583SOL    HW2 5649   2.762   3.264   0.861
 1584SOL     OW 5650   1.523   6.937   6.761
 1584SOL    HW1 5651   1.499   6.921   6.666
 1584SOL    HW2 5652   1.620   6.918   6.775
 1585SOL     OW 5653   5.747   1.141   5.781
 1585SOL    HW1 5654   5.692   1.199   5.720
 1585SOL    HW2 5655   5.762   1.052   5.738
 1586SOL     OW 5656   4.115   3.431   2.939
 1586SOL    HW1 5657   4.185   3.485   2.893
 1586SOL    HW2 5658   4.132   3.334   2.921
 1587SOL     OW 5659   1.641   6.836   5.563
 1587SOL    HW1 5660   1.582   6.908   5.528
 1587SOL    HW2 5661   1.729   6.875   5.591
 1588SOL     OW 5662   0.109   3.943   0.811
 1588SOL    HW1 5663   0.142   3.949   0.905
 1588SOL    HW2 5664   0.083   4.035   0.779
 1589SOL     OW 5665   5.268   5.102   2.692
 1589SOL    HW1 5666   5.270   5.034   2.765
 1589SOL    HW2 5667   5.293   5.059   2.605
 1590SOL     OW 5668   2.307   6.125   4.836
 1590SOL    HW1 5669   2.352   6.166   4.915
 1590SOL    HW2 5670   2.358   6.150   4.753
 1591SOL     OW 5671   2.290   3.645   0.407
 1591SOL    HW1 5672   2.372   3.674   0.456
 1591SOL    HW2 5673   2.261   3.718   0.345
 1592SOL     OW 5674   3.676   3.663   4.130
 1592SOL    HW1 5675   3.621   3.736   4.170
 1592SOL    HW2 5676   3.619   3.605   4.072
 1593SOL     OW 5677   0.763   4.774   3.814
 1593SOL    HW1 5678   0.797   4.688   3.776
 1593SOL    HW2 5679   0.819   4.800   3.892
 1594SOL     OW 5680   0.492   5.394   2.636
 1594SOL    HW1 5681   0.542   5.471   2.597
 1594SOL    HW2 5682   0.496   5.316   2.573
 1595SOL     OW 5683   6.967   3.646   4.910
 1595SOL    HW1 5684   6.893   3.702   4.946
 1595SOL    HW2 5685   0.010   3.703   4.855
 1596SOL     OW 5686   3.544   5.360   6.655
 1596SOL    HW1 5687   3.494   5.443   6.631
 1596SOL    HW2 5688   3.480   5.291   6.689
 1597SOL     OW 5689   2.161   6.491   1.296
 1597SOL    HW1 5690   2.227   6.490   1.221
 1597SOL    HW2 5691   2.150   6.585   1.330
 1598SOL     OW 5692   6.469   5.400   1.760
 1598SOL    HW1 5693   6.395   5.397   1.692
 1598SOL    HW2 5694   6.510   5.491   1.761
 1599SOL     OW 5695   3.423   5.176   0.427
 1599SOL    HW1 5696   3.344   5.118   0.445
 1599SOL    HW2 5697   3.406   5.267   0.465
 1600SOL     OW 5698   3.432   1.496   4.777
 1600SOL    HW1 5699   3.479   1.413   4.806
 1600SOL    HW2 5700   3.344   1.473   4.737
 1601SOL     OW 5701   1.622   5.415   5.121
 1601SOL    HW1 5702   1.583   5.466   5.045
 1601SOL    HW2 5703   1.592   5.455   5.208
 1602SOL     OW 5704   6.870   3.246   1.710
 1602SOL    HW1 5705   6.969   3.232   1.706
 1602SOL    HW2 5706   6.847   3.337   1.676
 1603SOL     OW 5707   5.767   0.014   1.111
 1603SOL    HW1 5708   5.766   0.057   1.202
 1603SOL    HW2 5709   5.861   7.011   1.086
 1604SOL     OW 5710   0.942   5.148   3.664
 1604SOL    HW1 5711   0.993   5.217   3.715
 1604SOL    HW2 5712   0.950   5.059   3.711
 1605SOL     OW 5713   5.087   5.283   2.046
 1605SOL    HW1 5714   5.115   5.351   2.115
 1605SOL    HW2 5715   4.999   5.310   2.008
 1606SOL     OW 5716   6.282   5.196   4.734
 1606SOL    HW1 5717   6.253   5.175   4.641
 1606SOL    HW2 5718   6.352   5.268   4.732
 1607SOL     OW 5719   5.775   3.620   1.519
 1607SOL    HW1 5720   5.867   3.602   1.555
 1607SOL    HW2 5721   5.740   3.537   1.475
 1608SOL     OW 5722   2.022   6.727   0.975
 1608SOL    HW1 5723   1.975   6.775   0.901
 1608SOL    HW2 5724   1.957   6.669   1.023
 1609SOL     OW 5725   6.352   2.340   5.241
 1609SOL    HW1 5726   6.390   2.335   5.333
 1609SOL    HW2 5727   6.252   2.329   5.246
 1610SOL     OW 5728   4.349   6.897   3.556
 1610SOL    HW1 5729   4.364   6.803   3.585
 1610SOL    HW2 5730   4.411   6.958   3.605
 1611SOL     OW 5731   4.345   3.781   1.399
 1611SOL    HW1 5732   4.349   3.690   1.360
 1611SOL    HW2 5733   4.335   3.775   1.498
 1612SOL     OW 5734   3.197   6.911   4.372
 1612SOL    HW1 5735   3.151   6.890   4.458
 1612SOL    HW2 5736   3.256   6.990   4.383
 1613SOL     OW 5737   2.341   0.051   1.406
 1613SOL    HW1 5738   2.299   0.075   1.494
 1613SOL    HW2 5739   2.440   0.063   1.412
 1614SOL     OW 5740   6.506   1.702   5.811
 1614SOL    HW1 5741   6.522   1.653   5.725
 1614SOL    HW2 5742   6.489   1.636   5.884
 1615SOL     OW 5743   6.406   5.684   5.381
 1615SOL    HW1 5744   6.442   5.603   5.426
 1615SOL    HW2 5745   6.324   5.660   5.329
 1616SOL     OW 5746   2.212   2.322   5.100
 1616SOL    HW1 5747   2.249   2.379   5.026
 1616SOL    HW2 5748   2.187   2.232   5.064
 1617SOL     OW 5749   2.941   0.568   2.681
 1617SOL    HW1 5750   2.852   0.608   2.703
 1617SOL    HW2 5751   2.995   0.560   2.765
 1618SOL     OW 5752   5.096   2.672   1.820
 1618SOL    HW1 5753   5.091   2.693   1.918
 1618SOL    HW2 5754   5.159   2.737   1.776
 1619SOL     OW 5755   1.891   3.080   4.545
 1619SOL    HW1 5756   1.874   3.177   4.527
 1619SOL    HW2 5757   1.948   3.071   4.626
 1620SOL     OW 5758   3.630   5.802   1.361
 1620SOL    HW1 5759   3.582   5.727   1.407
 1620SOL    HW2 5760   3.655   5.872   1.428
 1621SOL     OW 5761   2.901   2.640   1.455
 1621SOL    HW1 5762   2.848   2.583   1.393
 1621SOL    HW2 5763   2.996   2.608   1.458
 1622SOL     OW 5764   2.401   2.812   5.573
 1622SOL    HW1 5765   2.430   2.719   5.548
 1622SOL    HW2 5766   2.305   2.825   5.549
 1623SOL     OW 5767   2.264   2.174   4.371
 1623SOL    HW1 5768   2.277   2.203   4.276
 1623SOL    HW2 5769   2.335   2.214   4.429
 1624SOL     OW 5770   1.950   0.631   0.425
 1624SOL    HW1 5771   1.967   0.720   0.469
 1624SOL    HW2 5772   1.906   0.646   0.337
 1625SOL     OW 5773   1.490   6.940   0.713
 1625SOL    HW1 5774   1.569   6.969   0.659
 1625SOL    HW2 5775   1.520   6.911   0.804
 1626SOL     OW 5776   2.306   4.118   6.100
 1626SOL    HW1 5777   2.394   4.105   6.146
 1626SOL    HW2 5778   2.247   4.039   6.118
 1627SOL     OW 5779   5.092   4.276   2.885
 1627SOL    HW1 5780   5.159   4.231   2.944
 1627SOL    HW2 5781   5.103   4.242   2.791
 1628SOL     OW 5782   3.792   3.312   0.256
 1628SOL    HW1 5783   3.872   3.257   0.278
 1628SOL    HW2 5784   3.720   3.253   0.219
 1629SOL     OW 5785   1.984   2.376   3.277
 1629SOL    HW1 5786   1.943   2.454   3.325
 1629SOL    HW2 5787   2.072   2.354   3.319
 1630SOL     OW 5788   5.836   4.146   4.184
 1630SOL    HW1 5789   5.771   4.076   4.213
 1630SOL    HW2 5790   5.786   4.230   4.160
 1631SOL     OW 5791   0.922   0.961   5.524
 1631SOL    HW1 5792   0.934   1.058   5.544
 1631SOL    HW2 5793   0.844   0.948   5.463
 1632SOL     OW 5794   3.947   6.784   6.420
 1632SOL    HW1 5795   4.003   6.777   6.502
 1632SOL    HW2 5796   3.945   6.879   6.389
 1633SOL     OW 5797   6.622   4.194   2.802
 1633SOL    HW1 5798   6.639   4.276   2.747
 1633SOL    HW2 5799   6.647   4.212   2.897
 1634SOL     OW 5800   3.878   0.743   1.280
 1634SOL    HW1 5801   3.802   0.808   1.275
 1634SOL    HW2 5802   3.874   0.681   1.202
 1635SOL     OW 5803   2.226   4.057   4.054
 1635SOL    HW1 5804   2.262   4.076   3.963
 1635SOL    HW2 5805   2.143   4.002   4.048
 1636SOL     OW 5806   2.266   6.705   0.831
 1636SOL    HW1 5807   2.314   6.793   0.823
 1636SOL    HW2 5808   2.182   6.718   0.884
 1637SOL     OW 5809   1.006   3.205   2.087
 1637SOL    HW1 5810   0.933   3.238   2.147
 1637SOL    HW2 5811   1.095   3.229   2.127
 1638SOL     OW 5812   0.600   2.261   5.862
 1638SOL    HW1 5813   0.636   2.290   5.774
 1638SOL    HW2 5814   0.642   2.316   5.935
 1639SOL     OW 5815   3.412   5.040   3.201
 1639SOL    HW1 5816   3.352   4.966   3.170
 1639SOL    HW2 5817   3.455   5.013   3.288
 1640SOL     OW 5818   5.687   0.049   0.589
 1640SOL    HW1 5819   5.780   0.016   0.604
 1640SOL    HW2 5820   5.690   0.139   0.544
 1641SOL     OW 5821   6.391   2.657   4.529
 1641SOL    HW1 5822   6.418   2.652   4.433
 1641SOL    HW2 5823   6.469   2.683   4.585
 1642SOL     OW 5824   0.690   2.562   1.176
 1642SOL    HW1 5825   0.612   2.503   1.157
 1642SOL    HW2 5826   0.739   2.529   1.256
 1643SOL     OW 5827   4.682   0.314   5.334
 1643SOL    HW1 5828   4.630   0.371   5.398
 1643SOL    HW2 5829   4.656   0.336   5.240
 1644SOL     OW 5830   3.699   1.576   0.901
 1644SOL    HW1 5831   3.769   1.617   0.842
 1644SOL    HW2 5832   3.712   1.608   0.995
 1645SOL     OW 5833   2.355   5.576   5.716
 1645SOL    HW1 5834   2.319   5.562   5.623
 1645SOL    HW2 5835   2.286   5.549   5.783
 1646SOL     OW 5836   2.875   3.463   0.579
 1646SOL    HW1 5837   2.928   3.516   0.512
 1646SOL    HW2 5838   2.779   3.491   0.575
 1647SOL     OW 5839   6.031   2.683   2.154
 1647SOL    HW1 5840   6.009   2.692   2.057
 1647SOL    HW2 5841   6.113   2.626   2.165
 1648SOL     OW 5842   2.712   0.610   3.830
 1648SOL    HW1 5843   2.779   0.600   3.756
 1648SOL    HW2 5844   2.625   0.641   3.792
 1649SOL     OW 5845   2.876   0.534   4.601
 1649SOL    HW1 5846   2.912   0.482   4.524
 1649SOL    HW2 5847   2.951   0.586   4.643
 1650SOL     OW 5848   2.722   6.843   4.291
 1650SOL    HW1 5849   2.797   6.909   4.293
 1650SOL    HW2 5850   2.643   6.881   4.338
 1651SOL     OW 5851   1.351   6.921   2.258
 1651SOL    HW1 5852   1.411   6.878   2.191
 1651SOL    HW2 5853   1.327   6.855   2.329
 1652SOL     OW 5854   3.961   3.200   0.930
 1652SOL    HW1 5855   3.943   3.109   0.967
 1652SOL    HW2 5856   3.878   3.255   0.935
 1653SOL     OW 5857   0.955   4.361   0.761
 1653SOL    HW1 5858   0.943   4.456   0.733
 1653SOL    HW2 5859   1.049   4.333   0.742
 1654SOL     OW 5860   0.761   2.659   3.729
 1654SOL    HW1 5861   0.669   2.624   3.715
 1654SOL    HW2 5862   0.757   2.752   3.764
 1655SOL     OW 5863   4.208   4.227   5.275
 1655SOL    HW1 5864   4.279   4.230   5.346
 1655SOL    HW2 5865   4.232   4.292   5.202
 1656SOL     OW 5866   0.062   3.138   2.265
 1656SOL    HW1 5867   7.004   3.075   2.255
 1656SOL    HW2 5868   0.054   3.186   2.353
 1657SOL     OW 5869   0.942   0.601   6.150
 1657SOL    HW1 5870   1.032   0.575   6.184
 1657SOL    HW2 5871   0.927   0.558   6.061
 1658SOL     OW 5872   5.957   0.078   3.339
 1658SOL    HW1 5873   6.016   0.078   3.258
 1658SOL    HW2 5874   6.011   0.057   3.420
 1659SOL     OW 5875   6.072   2.709   6.246
 1659SOL    HW1 5876   6.065   2.809   6.247
 1659SOL    HW2 5877   6.093   2.676   6.339
 1660SOL     OW 5878   2.551   5.603   3.897
 1660SOL    HW1 5879   2.457   5.571   3.910
 1660SOL    HW2 5880   2.570   5.614   3.800
 1661SOL     OW 5881   2.598   0.869   3.438
 1661SOL    HW1 5882   2.561   0.943   3.383
 1661SOL    HW2 5883   2.613   0.789   3.381
 1662SOL     OW 5884   0.293   1.577   3.926
 1662SOL    HW1 5885   0.378   1.628   3.921
 1662SOL    HW2 5886   0.310   1.485   3.961
 1663SOL     OW 5887   0.959   0.462   3.102
 1663SOL    HW1 5888   1.008   0.547   3.122
 1663SOL    HW2 5889   1.007   0.412   3.030
 1664SOL     OW 5890   1.885   6.179   3.978
 1664SOL    HW1 5891   1.812   6.173   4.047
 1664SOL    HW2 5892   1.971   6.203   4.023
 1665SOL     OW 5893   7.015   1.118   4.010
 1665SOL    HW1 5894   0.080   1.157   3.971
 1665SOL    HW2 5895   0.012   1.096   4.106
 1666SOL     OW 5896   6.428   1.849   0.134
 1666SOL    HW1 5897   6.358   1.782   0.108
 1666SOL    HW2 5898   6.406   1.937   0.092
 1667SOL     OW 5899   6.499   0.021   0.786
 1667SOL    HW1 5900   6.444   6.959   0.803
 1667SOL    HW2 5901   6.561   0.003   0.710
 1668SOL     OW 5902   2.456   6.994   4.820
 1668SOL    HW1 5903   2.503   6.949   4.743
 1668SOL    HW2 5904   2.384   0.034   4.785
 1669SOL     OW 5905   4.929   5.675   6.473
 1669SOL    HW1 5906   4.944   5.756   6.530
 1669SOL    HW2 5907   5.005   5.611   6.487
 1670SOL     OW 5908   6.810   3.596   6.719
 1670SOL    HW1 5909   6.792   3.641   6.632
 1670SOL    HW2 5910   6.885   3.642   6.765
 1671SOL     OW 5911   6.440   4.083   1.411
 1671SOL    HW1 5912   6.345   4.076   1.383
 1671SOL    HW2 5913   6.499   4.061   1.332
 1672SOL     OW 5914   2.382   4.318   3.193
 1672SOL    HW1 5915   2.393   4.232   3.243
 1672SOL    HW2 5916   2.286   4.329   3.167
 1673SOL     OW 5917   6.284   3.344   3.468
 1673SOL    HW1 5918   6.382   3.346   3.450
 1673SOL    HW2 5919   6.262   3.406   3.544
 1674SOL     OW 5920   2.346   5.925   0.372
 1674SOL    HW1 5921   2.358   6.008   0.317
 1674SOL    HW2 5922   2.395   5.849   0.330
 1675SOL     OW 5923   5.217   2.469   6.662
 1675SOL    HW1 5924   5.174   2.559   6.665
 1675SOL    HW2 5925   5.314   2.477   6.686
 1676SOL     OW 5926   3.008   1.673   3.304
 1676SOL    HW1 5927   2.987   1.643   3.397
 1676SOL    HW2 5928   3.002   1.773   3.299
 1677SOL     OW 5929   5.364   0.023   6.092
 1677SOL    HW1 5930   5.268   7.012   6.095
 1677SOL    HW2 5931   5.387   0.052   5.999
 1678SOL     OW 5932   4.266   6.656   2.184
 1678SOL    HW1 5933   4.337   6.691   2.123
 1678SOL    HW2 5934   4.305   6.587   2.245
 1679SOL     OW 5935   6.424   4.542   0.249
 1679SOL    HW1 5936   6.475   4.555   0.334
 1679SOL    HW2 5937   6.482   4.495   0.182
 1680SOL     OW 5938   0.008   1.937   5.913
 1680SOL    HW1 5939   0.099   1.940   5.874
 1680SOL    HW2 5940   0.014   1.924   6.012
 1681SOL     OW 5941   4.577   5.276   1.018
 1681SOL    HW1 5942   4.631   5.356   1.045
 1681SOL    HW2 5943   4.573   5.211   1.094
 1682SOL     OW 5944   0.465   3.828   5.933
 1682SOL    HW1 5945   0.532   3.869   5.996
 1682SOL    HW2 5946   0.460   3.883   5.850
 1683SOL     OW 5947   5.907   5.347   5.413
 1683SOL    HW1 5948   5.931   5.442   5.428
 1683SOL    HW2 5949   5.961   5.288   5.473
 1684SOL     OW 5950   0.485   6.751   4.409
 1684SOL    HW1 5951   0.509   6.673   4.467
 1684SOL    HW2 5952   0.568   6.798   4.379
 1685SOL     OW 5953   1.442   2.299   6.822
 1685SOL    HW1 5954   1.386   2.232   6.870
 1685SOL    HW2 5955   1.444   2.277   6.724
 1686SOL     OW 5956   1.563   0.421   6.282
 1686SOL    HW1 5957   1.510   0.506   6.276
 1686SOL    HW2 5958   1.504   0.343   6.262
 1687SOL     OW 5959   2.781   6.870   2.553
 1687SOL    HW1 5960   2.697   6.819   2.572
 1687SOL    HW2 5961   2.781   6.900   2.458
 1688SOL     OW 5962   0.481   1.701   2.630
 1688SOL    HW1 5963   0.493   1.793   2.593
 1688SOL    HW2 5964   0.545   1.638   2.586
 1689SOL     OW 5965   2.185   1.848   1.520
 1689SOL    HW1 5966   2.130   1.868   1.439
 1689SOL    HW2 5967   2.270   1.804   1.493
 1690SOL     OW 5968   1.619   1.676   6.990
 1690SOL    HW1 5969   1.582   1.744   0.035
 1690SOL    HW2 5970   1.707   1.644   0.005
 1691SOL     OW 5971   4.813   4.266   3.815
 1691SOL    HW1 5972   4.718   4.292   3.797
 1691SOL    HW2 5973   4.873   4.340   3.786
 1692SOL     OW 5974   0.516   6.210   4.054
 1692SOL    HW1 5975   0.510   6.213   4.154
 1692SOL    HW2 5976   0.462   6.286   4.016
 1693SOL     OW 5977   4.081   2.247   4.040
 1693SOL    HW1 5978   4.165   2.277   3.994
 1693SOL    HW2 5979   4.102   2.221   4.134
 1694SOL     OW 5980   6.094   6.433   5.401
 1694SOL    HW1 5981   6.057   6.522   5.427
 1694SOL    HW2 5982   6.064   6.409   5.309
 1695SOL     OW 5983   3.760   1.733   6.564
 1695SOL    HW1 5984   3.847   1.688   6.583
 1695SOL    HW2 5985   3.685   1.676   6.599
 1696SOL     OW 5986   3.351   5.613   2.320
 1696SOL    HW1 5987   3.277   5.572   2.373
 1696SOL    HW2 5988   3.424   5.643   2.382
 1697SOL     OW 5989   1.768   1.552   1.850
 1697SOL    HW1 5990   1.805   1.627   1.906
 1697SOL    HW2 5991   1.840   1.517   1.790
 1698SOL     OW 5992   5.171   1.734   6.749
 1698SOL    HW1 5993   5.103   1.683   6.696
 1698SOL    HW2 5994   5.128   1.773   6.830
 1699SOL     OW 5995   2.685   4.958   1.463
 1699SOL    HW1 5996   2.632   5.035   1.500
 1699SOL    HW2 5997   2.766   4.943   1.519
 1700SOL     OW 5998   5.881   3.286   4.693
 1700SOL    HW1 5999   5.834   3.338   4.622
 1700SOL    HW2 6000   5.814   3.242   4.753
 1701SOL     OW 6001   5.606   3.229   4.794
 1701SOL    HW1 6002   5.591   3.323   4.762
 1701SOL    HW2 6003   5.532   3.170   4.762
 1702SOL     OW 6004   5.194   2.645   1.476
 1702SOL    HW1 6005   5.260   2.707   1.434
 1702SOL    HW2 6006   5.243   2.584   1.540
 1703SOL     OW 6007   2.166   4.031   1.609
 1703SOL    HW1 6008   2.197   3.999   1.698
 1703SOL    HW2 6009   2.235   4.093   1.571
 1704SOL     OW 6010   6.516   1.757   2.219
 1704SOL    HW1 6011   6.605   1.802   2.214
 1704SOL    HW2 6012   6.516   1.677   2.158
 1705SOL     OW 6013   3.795   2.952   2.264
 1705SOL    HW1 6014   3.773   2.962   2.167
 1705SOL    HW2 6015   3.870   3.014   2.288
 1706SOL     OW 6016   2.641   0.702   6.358
 1706SOL    HW1 6017   2.613   0.636   6.289
 1706SOL    HW2 6018   2.740   0.716   6.353
 1707SOL     OW 6019   4.768   1.377   2.499
 1707SOL    HW1 6020   4.676   1.339   2.512
 1707SOL    HW2 6021   4.775   1.462   2.552
 1708SOL     OW 6022   0.422   3.928   0.958
 1708SOL    HW1 6023   0.462   3.860   1.019
 1708SOL    HW2 6024   0.357   3.984   1.008
 1709SOL     OW 6025   2.983   5.007   4.043
 1709SOL    HW1 6026   3.005   5.104   4.038
 1709SOL    HW2 6027   2.975   4.979   4.138
 1710SOL     OW 6028   6.670   4.073   4.768
 1710SOL    HW1 6029   6.659   4.125   4.852
 1710SOL    HW2 6030   6.631   4.124   4.691
 1711SOL     OW 6031   0.726   4.419   6.069
 1711SOL    HW1 6032   0.782   4.488   6.115
 1711SOL    HW2 6033   0.749   4.417   5.972
 1712SOL     OW 6034   1.933   4.472   1.787
 1712SOL    HW1 6035   1.914   4.499   1.882
 1712SOL    HW2 6036   2.024   4.431   1.782
 1713SOL     OW 6037   2.127   3.782   0.998
 1713SOL    HW1 6038   2.050   3.805   0.939
 1713SOL    HW2 6039   2.192   3.858   1.000
 1714SOL     OW 6040   4.338   1.135   0.593
 1714SOL    HW1 6041   4.436   1.131   0.610
 1714SOL    HW2 6042   4.299   1.215   0.638
 1715SOL     OW 6043   1.687   3.798   3.704
 1715SOL    HW1 6044   1.739   3.716   3.728
 1715SOL    HW2 6045   1.716   3.873   3.763
 1716SOL     OW 6046   0.015   6.878   0.514
 1716SOL    HW1 6047   0.031   6.862   0.416
 1716SOL    HW2 6048   0.034   6.973   0.535
 1717SOL     OW 6049   3.305   0.986   0.184
 1717SOL    HW1 6050   3.300   0.975   0.283
 1717SOL    HW2 6051   3.333   0.901   0.142
 1718SOL     OW 6052   1.624   3.971   5.320
 1718SOL    HW1 6053   1.659   3.891   5.368
 1718SOL    HW2 6054   1.684   3.993   5.243
 1719SOL     OW 6055   2.681   2.842   0.687
 1719SOL    HW1 6056   2.688   2.742   0.695
 1719SOL    HW2 6057   2.694   2.883   0.777
 1720SOL     OW 6058   0.431   1.947   2.122
 1720SOL    HW1 6059   0.388   1.897   2.197
 1720SOL    HW2 6060   0.365   1.961   2.049
 1721SOL     OW 6061   0.672   5.762   4.231
 1721SOL    HW1 6062   0.596   5.746   4.169
 1721SOL    HW2 6063   0.637   5.791   4.320
 1722SOL     OW 6064   4.603   0.396   1.854
 1722SOL    HW1 6065   4.657   0.313   1.843
 1722SOL    HW2 6066   4.517   0.374   1.900
 1723SOL     OW 6067   5.937   0.836   3.331
 1723SOL    HW1 6068   6.001   0.776   3.380
 1723SOL    HW2 6069   5.988   0.906   3.282
 1724SOL     OW 6070   5.377   6.776   0.169
 1724SOL    HW1 6071   5.473   6.781   0.197
 1724SOL    HW2 6072   5.323   6.839   0.225
 1725SOL     OW 6073   4.297   5.688   2.251
 1725SOL    HW1 6074   4.284   5.775   2.298
 1725SOL    HW2 6075   4.393   5.681   2.221
 1726SOL     OW 6076   6.366   4.595   5.293
 1726SOL    HW1 6077   6.330   4.502   5.301
 1726SOL    HW2 6078   6.293   4.658   5.269
 1727SOL     OW 6079   2.687   4.706   5.743
 1727SOL    HW1 6080   2.615   4.746   5.686
 1727SOL    HW2 6081   2.671   4.608   5.753
 1728SOL     OW 6082   4.901   6.097   3.726
 1728SOL    HW1 6083   4.870   6.163   3.795
 1728SOL    HW2 6084   4.829   6.029   3.710
 1729SOL     OW 6085   6.559   3.246   3.468
 1729SOL    HW1 6086   6.625   3.172   3.452
 1729SOL    HW2 6087   6.576   3.320   3.403
 1730SOL     OW 6088   4.674   2.666   5.036
 1730SOL    HW1 6089   4.657   2.577   5.079
 1730SOL    HW2 6090   4.635   2.666   4.944
 1731SOL     OW 6091   0.326   6.695   6.214
 1731SOL    HW1 6092   0.240   6.724   6.256
 1731SOL    HW2 6093   0.328   6.596   6.207
 1732SOL     OW 6094   1.422   4.330   6.527
 1732SOL    HW1 6095   1.467   4.277   6.599
 1732SOL    HW2 6096   1.434   4.428   6.545
 1733SOL     OW 6097   1.998   3.978   6.321
 1733SOL    HW1 6098   2.053   3.990   6.404
 1733SOL    HW2 6099   1.974   4.068   6.284
 1734SOL     OW 6100   5.297   3.927   0.732
 1734SOL    HW1 6101   5.324   3.832   0.713
 1734SOL    HW2 6102   5.203   3.942   0.698
 1735SOL     OW 6103   5.013   5.013   6.947
 1735SOL    HW1 6104   4.984   4.997   0.022
 1735SOL    HW2 6105   5.113   5.012   6.942
 1736SOL     OW 6106   3.649   3.401   0.501
 1736SOL    HW1 6107   3.579   3.332   0.518
 1736SOL    HW2 6108   3.701   3.376   0.419
 1737SOL     OW 6109   0.855   6.618   2.902
 1737SOL    HW1 6110   0.918   6.638   2.978
 1737SOL    HW2 6111   0.881   6.674   2.823
 1738SOL     OW 6112   0.449   1.342   2.160
 1738SOL    HW1 6113   0.489   1.281   2.228
 1738SOL    HW2 6114   0.522   1.374   2.098
 1739SOL     OW 6115   4.104   1.611   7.017
 1739SOL    HW1 6116   4.014   1.569   7.006
 1739SOL    HW2 6117   4.140   1.590   0.088
 1740SOL     OW 6118   0.789   1.717   6.630
 1740SOL    HW1 6119   0.785   1.760   6.721
 1740SOL    HW2 6120   0.785   1.618   6.641
 1741SOL     OW 6121   0.687   0.527   2.545
 1741SOL    HW1 6122   0.636   0.448   2.578
 1741SOL    HW2 6123   0.695   0.594   2.618
 1742SOL     OW 6124   6.043   6.344   3.478
 1742SOL    HW1 6125   6.042   6.431   3.430
 1742SOL    HW2 6126   6.070   6.271   3.415
 1743SOL     OW 6127   4.290   1.545   6.796
 1743SOL    HW1 6128   4.273   1.581   6.888
 1743SOL    HW2 6129   4.370   1.592   6.757
 1744SOL     OW 6130   4.157   6.211   1.522
 1744SOL    HW1 6131   4.158   6.180   1.617
 1744SOL    HW2 6132   4.098   6.151   1.468
 1745SOL     OW 6133   0.426   1.730   5.207
 1745SOL    HW1 6134   0.473   1.753   5.292
 1745SOL    HW2 6135   0.416   1.631   5.200
 1746SOL     OW 6136   3.012   1.372   0.343
 1746SOL    HW1 6137   3.074   1.328   0.408
 1746SOL    HW2 6138   3.016   1.324   0.255
 1747SOL     OW 6139   4.163   0.119   4.774
 1747SOL    HW1 6140   4.188   0.103   4.678
 1747SOL    HW2 6141   4.245   0.109   4.831
 1748SOL     OW 6142   5.545   1.054   1.814
 1748SOL    HW1 6143   5.637   1.049   1.774
 1748SOL    HW2 6144   5.493   0.973   1.788
 1749SOL     OW 6145   5.453   6.733   6.122
 1749SOL    HW1 6146   5.378   6.773   6.069
 1749SOL    HW2 6147   5.429   6.639   6.148
 1750SOL     OW 6148   3.612   1.125   3.235
 1750SOL    HW1 6149   3.550   1.058   3.277
 1750SOL    HW2 6150   3.706   1.093   3.245
 1751SOL     OW 6151   2.615   5.847   4.750
 1751SOL    HW1 6152   2.516   5.851   4.763
 1751SOL    HW2 6153   2.645   5.752   4.754
 1752SOL     OW 6154   6.625   2.211   6.022
 1752SOL    HW1 6155   6.710   2.260   6.005
 1752SOL    HW2 6156   6.646   2.120   6.060
 1753SOL     OW 6157   1.550   0.272   1.954
 1753SOL    HW1 6158   1.596   0.202   2.009
 1753SOL    HW2 6159   1.460   0.238   1.925
 1754SOL     OW 6160   2.939   3.546   3.290
 1754SOL    HW1 6161   2.968   3.573   3.198
 1754SOL    HW2 6162   2.936   3.446   3.296
 1755SOL     OW 6163   0.270   4.102   6.699
 1755SOL    HW1 6164   0.208   4.036   6.656
 1755SOL    HW2 6165   0.233   4.128   6.788
 1756SOL     OW 6166   5.568   5.153   5.807
 1756SOL    HW1 6167   5.544   5.244   5.772
 1756SOL    HW2 6168   5.548   5.149   5.905
 1757SOL     OW 6169   4.079   0.352   4.873
 1757SOL    HW1 6170   3.985   0.372   4.847
 1757SOL    HW2 6171   4.098   0.255   4.856
 1758SOL     OW 6172   2.275   1.032   3.020
 1758SOL    HW1 6173   2.370   1.053   2.996
 1758SOL    HW2 6174   2.260   1.053   3.116
 1759SOL     OW 6175   6.296   5.718   5.964
 1759SOL    HW1 6176   6.349   5.776   6.027
 1759SOL    HW2 6177   6.207   5.761   5.947
 1760SOL     OW 6178   4.658   6.266   3.705
 1760SOL    HW1 6179   4.666   6.257   3.804
 1760SOL    HW2 6180   4.648   6.363   3.681
 1761SOL     OW 6181   6.538   3.080   1.125
 1761SOL    HW1 6182   6.476   3.033   1.062
 1761SOL    HW2 6183   6.488   3.151   1.175
 1762SOL     OW 6184   5.895   2.513   0.074
 1762SOL    HW1 6185   5.988   2.481   0.095
 1762SOL    HW2 6186   5.836   2.497   0.153
 1763SOL     OW 6187   2.091   2.072   4.120
 1763SOL    HW1 6188   2.146   1.992   4.096
 1763SOL    HW2 6189   2.015   2.082   4.056
 1764SOL     OW 6190   6.809   4.397   3.386
 1764SOL    HW1 6191   6.879   4.440   3.329
 1764SOL    HW2 6192   6.719   4.414   3.346
 1765SOL     OW 6193   2.406   2.906   6.108
 1765SOL    HW1 6194   2.379   2.914   6.204
 1765SOL    HW2 6195   2.348   2.837   6.063
 1766SOL     OW 6196   5.989   4.275   5.956
 1766SOL    HW1 6197   6.067   4.332   5.982
 1766SOL    HW2 6198   5.973   4.206   6.028
 1767SOL     OW 6199   6.754   4.678   1.301
 1767SOL    HW1 6200   6.757   4.742   1.378
 1767SOL    HW2 6201   6.693   4.602   1.323
 1768SOL     OW 6202   6.628   0.261   3.311
 1768SOL    HW1 6203   6.613   0.342   3.367
 1768SOL    HW2 6204   6.542   0.209   3.305
 1769SOL     OW 6205   4.389   0.641   4.188
 1769SOL    HW1 6206   4.378   0.606   4.095
 1769SOL    HW2 6207   4.300   0.671   4.222
 1770SOL     OW 6208   3.790   5.476   6.144
 1770SOL    HW1 6209   3.785   5.497   6.241
 1770SOL    HW2 6210   3.715   5.522   6.096
 1771SOL     OW 6211   5.174   5.313   6.802
 1771SOL    HW1 6212   5.135   5.253   6.731
 1771SOL    HW2 6213   5.104   5.377   6.833
 1772SOL     OW 6214   2.026   6.198   2.133
 1772SOL    HW1 6215   2.080   6.127   2.178
 1772SOL    HW2 6216   2.087   6.268   2.096
 1773SOL     OW 6217   2.223   6.429   6.801
 1773SOL    HW1 6218   2.131   6.429   6.761
 1773SOL    HW2 6219   2.291   6.437   6.728
 1774SOL     OW 6220   2.675   5.657   1.186
 1774SOL    HW1 6221   2.674   5.587   1.115
 1774SOL    HW2 6222   2.680   5.748   1.144
 1775SOL     OW 6223   0.639   5.347   0.391
 1775SOL    HW1 6224   0.577   5.416   0.354
 1775SOL    HW2 6225   0.592   5.296   0.463
 1776SOL     OW 6226   3.131   6.163   5.328
 1776SOL    HW1 6227   3.188   6.126   5.254
 1776SOL    HW2 6228   3.138   6.104   5.408
 1777SOL     OW 6229   4.504   6.499   6.590
 1777SOL    HW1 6230   4.490   6.440   6.511
 1777SOL    HW2 6231   4.574   6.460   6.649
 1778SOL     OW 6232   1.049   3.558   5.936
 1778SOL    HW1 6233   1.119   3.579   5.867
 1778SOL    HW2 6234   1.002   3.642   5.961
 1779SOL     OW 6235   4.017   6.129   4.806
 1779SOL    HW1 6236   4.090   6.197   4.800
 1779SOL    HW2 6237   4.026   6.078   4.891
 1780SOL     OW 6238   4.163   2.332   6.570
 1780SOL    HW1 6239   4.092   2.294   6.510
 1780SOL    HW2 6240   4.231   2.381   6.516
 1781SOL     OW 6241   1.637   6.389   3.311
 1781SOL    HW1 6242   1.669   6.295   3.308
 1781SOL    HW2 6243   1.675   6.434   3.393
 1782SOL     OW 6244   3.116   1.059   5.221
 1782SOL    HW1 6245   3.203   1.025   5.257
 1782SOL    HW2 6246   3.093   1.145   5.266
 1783SOL     OW 6247   2.003   5.513   0.069
 1783SOL    HW1 6248   2.017   5.420   0.104
 1783SOL    HW2 6249   2.026   5.579   0.140
 1784SOL     OW 6250   1.114   6.302   6.192
 1784SOL    HW1 6251   1.090   6.350   6.276
 1784SOL    HW2 6252   1.089   6.358   6.113
 1785SOL     OW 6253   6.717   4.927   2.850
 1785SOL    HW1 6254   6.753   4.865   2.920
 1785SOL    HW2 6255   6.702   5.018   2.890
 1786SOL     OW 6256   4.131   2.508   1.508
 1786SOL    HW1 6257   4.208   2.445   1.512
 1786SOL    HW2 6258   4.165   2.602   1.502
 1787SOL     OW 6259   4.381   0.075   4.931
 1787SOL    HW1 6260   4.437   0.080   4.848
 1787SOL    HW2 6261   4.393   0.160   4.983
 1788SOL     OW 6262   1.627   4.935   4.830
 1788SOL    HW1 6263   1.666   4.867   4.767
 1788SOL    HW2 6264   1.639   4.903   4.924
 1789SOL     OW 6265   4.953   6.183   0.822
 1789SOL    HW1 6266   5.048   6.206   0.844
 1789SOL    HW2 6267   4.948   6.090   0.787
 1790SOL     OW 6268   2.001   6.565   3.132
 1790SOL    HW1 6269   2.038   6.484   3.088
 1790SOL    HW2 6270   1.902   6.568   3.118
 1791SOL     OW 6271   1.116   0.047   3.050
 1791SOL    HW1 6272   1.121   0.137   3.005
 1791SOL    HW2 6273   1.201   7.016   3.035
 1792SOL     OW 6274   0.290   3.999   3.956
 1792SOL    HW1 6275   0.323   4.039   4.042
 1792SOL    HW2 6276   0.191   3.988   3.960
 1793SOL     OW 6277   0.096   0.759   4.393
 1793SOL    HW1 6278   0.098   0.797   4.485
 1793SOL    HW2 6279   0.078   0.832   4.327
 1794SOL     OW 6280   4.428   6.219   6.411
 1794SOL    HW1 6281   4.414   6.220   6.312
 1794SOL    HW2 6282   4.340   6.224   6.457
 1795SOL     OW 6283   0.993   3.228   6.738
 1795SOL    HW1 6284   0.973   3.161   6.810
 1795SOL    HW2 6285   1.091   3.243   6.732
 1796SOL     OW 6286   4.131   0.197   5.282
 1796SOL    HW1 6287   4.167   0.260   5.212
 1796SOL    HW2 6288   4.034   0.179   5.265
 1797SOL     OW 6289   0.252   0.546   2.495
 1797SOL    HW1 6290   0.310   0.617   2.535
 1797SOL    HW2 6291   0.184   0.516   2.563
 1798SOL     OW 6292   5.827   1.667   3.247
 1798SOL    HW1 6293   5.912   1.619   3.225
 1798SOL    HW2 6294   5.750   1.607   3.230
 1799SOL     OW 6295   2.948   6.699   1.028
 1799SOL    HW1 6296   2.905   6.647   0.954
 1799SOL    HW2 6297   2.921   6.660   1.116
 1800SOL     OW 6298   2.846   4.766   2.285
 1800SOL    HW1 6299   2.942   4.785   2.305
 1800SOL    HW2 6300   2.839   4.688   2.223
 1801SOL     OW 6301   5.835   6.265   0.825
 1801SOL    HW1 6302   5.839   6.365   0.833
 1801SOL    HW2 6303   5.923   6.226   0.850
 1802SOL     OW 6304   5.688   5.682   4.365
 1802SOL    HW1 6305   5.658   5.616   4.296
 1802SOL    HW2 6306   5.710   5.769   4.320
 1803SOL     OW 6307   6.175   4.746   0.409
 1803SOL    HW1 6308   6.107   4.674   0.395
 1803SOL    HW2 6309   6.161   4.818   0.342
 1804SOL     OW 6310   2.993   4.157   5.988
 1804SOL    HW1 6311   2.951   4.118   6.070
 1804SOL    HW2 6312   2.950   4.245   5.968
 1805SOL     OW 6313   0.125   2.697   6.942
 1805SOL    HW1 6314   0.103   2.689   0.020
 1805SOL    HW2 6315   0.222   2.717   6.931
 1806SOL     OW 6316   6.704   6.460   0.509
 1806SOL    HW1 6317   6.701   6.386   0.576
 1806SOL    HW2 6318   6.648   6.436   0.430
 1807SOL     OW 6319   6.776   1.443   5.611
 1807SOL    HW1 6320   6.734   1.353   5.624
 1807SOL    HW2 6321   6.802   1.482   5.699
 1808SOL     OW 6322   2.211   4.973   4.194
 1808SOL    HW1 6323   2.211   5.004   4.099
 1808SOL    HW2 6324   2.288   4.911   4.209
 1809SOL     OW 6325   3.838   0.349   6.122
 1809SOL    HW1 6326   3.881   0.265   6.155
 1809SOL    HW2 6327   3.769   0.379   6.187
 1810SOL     OW 6328   3.461   6.356   4.082
 1810SOL    HW1 6329   3.484   6.374   3.986
 1810SOL    HW2 6330   3.363   6.372   4.096
 1811SOL     OW 6331   4.752   5.522   3.016
 1811SOL    HW1 6332   4.653   5.511   3.004
 1811SOL    HW2 6333   4.791   5.437   3.048
 1812SOL     OW 6334   4.720   4.612   5.094
 1812SOL    HW1 6335   4.804   4.561   5.114
 1812SOL    HW2 6336   4.727   4.704   5.132
 1813SOL     OW 6337   0.369   6.591   5.112
 1813SOL    HW1 6338   0.468   6.575   5.110
 1813SOL    HW2 6339   0.321   6.511   5.076
 1814SOL     OW 6340   4.327   0.006   2.604
 1814SOL    HW1 6341   4.333   6.999   2.508
 1814SOL    HW2 6342   4.419   0.011   2.643
 1815SOL     OW 6343   0.380   1.278   3.076
 1815SOL    HW1 6344   0.347   1.290   2.983
 1815SOL    HW2 6345   0.477   1.301   3.081
 1816SOL     OW 6346   1.257   5.357   0.575
 1816SOL    HW1 6347   1.215   5.327   0.489
 1816SOL    HW2 6348   1.342   5.406   0.555
 1817SOL     OW 6349   1.120   4.186   1.656
 1817SOL    HW1 6350   1.149   4.266   1.604
 1817SOL    HW2 6351   1.190   4.163   1.724
 1818SOL     OW 6352   0.527   1.847   3.075
 1818SOL    HW1 6353   0.484   1.911   3.012
 1818SOL    HW2 6354   0.475   1.762   3.077
 1819SOL     OW 6355   1.398   4.229   2.347
 1819SOL    HW1 6356   1.497   4.241   2.349
 1819SOL    HW2 6357   1.376   4.141   2.304
 1820SOL     OW 6358   5.493   6.742   2.218
 1820SOL    HW1 6359   5.512   6.771   2.312
 1820SOL    HW2 6360   5.412   6.790   2.184
 1821SOL     OW 6361   1.302   1.989   3.189
 1821SOL    HW1 6362   1.288   2.064   3.254
 1821SOL    HW2 6363   1.257   2.011   3.103
 1822SOL     OW 6364   3.305   3.433   2.162
 1822SOL    HW1 6365   3.227   3.445   2.101
 1822SOL    HW2 6366   3.300   3.343   2.205
 1823SOL     OW 6367   3.975   6.540   2.501
 1823SOL    HW1 6368   3.954   6.585   2.414
 1823SOL    HW2 6369   3.929   6.588   2.575
 1824SOL     OW 6370   4.815   1.312   2.031
 1824SOL    HW1 6371   4.908   1.306   1.998
 1824SOL    HW2 6372   4.810   1.378   2.106
 1825SOL     OW 6373   0.561   0.229   1.460
 1825SOL    HW1 6374   0.489   0.269   1.403
 1825SOL    HW2 6375   0.584   0.139   1.425
 1826SOL     OW 6376   2.407   5.190   6.180
 1826SOL    HW1 6377   2.345   5.166   6.105
 1826SOL    HW2 6378   2.461   5.270   6.154
 1827SOL     OW 6379   5.491   0.618   0.602
 1827SOL    HW1 6380   5.455   0.590   0.513
 1827SOL    HW2 6381   5.417   0.656   0.657
 1828SOL     OW 6382   3.193   2.714   0.352
 1828SOL    HW1 6383   3.210   2.631   0.406
 1828SOL    HW2 6384   3.187   2.793   0.413
 1829SOL     OW 6385   5.244   5.276   2.434
 1829SOL    HW1 6386   5.267   5.367   2.468
 1829SOL    HW2 6387   5.168   5.239   2.488
 1830SOL     OW 6388   4.372   0.721   4.807
 1830SOL    HW1 6389   4.456   0.768   4.779
 1830SOL    HW2 6390   4.370   0.630   4.767
 1831SOL     OW 6391   4.881   1.144   3.168
 1831SOL    HW1 6392   4.875   1.046   3.189
 1831SOL    HW2 6393   4.818   1.166   3.093
 1832SOL     OW 6394   6.044   2.890   6.673
 1832SOL    HW1 6395   5.967   2.938   6.631
 1832SOL    HW2 6396   6.056   2.802   6.628
 1833SOL     OW 6397   5.870   1.833   6.043
 1833SOL    HW1 6398   5.773   1.858   6.048
 1833SOL    HW2 6399   5.925   1.906   6.082
 1834SOL     OW 6400   2.620   4.131   6.607
 1834SOL    HW1 6401   2.577   4.042   6.619
 1834SOL    HW2 6402   2.557   4.203   6.635
 1835SOL     OW 6403   2.109   4.679   0.478
 1835SOL    HW1 6404   2.171   4.601   0.465
 1835SOL    HW2 6405   2.143   4.758   0.426
 1836SOL     OW 6406   0.511   6.501   0.515
 1836SOL    HW1 6407   0.453   6.565   0.566
 1836SOL    HW2 6408   0.496   6.514   0.417
 1837SOL     OW 6409   6.884   2.866   4.406
 1837SOL    HW1 6410   6.936   2.942   4.367
 1837SOL    HW2 6411   6.944   2.786   4.415
 1838SOL     OW 6412   1.081   2.820   4.343
 1838SOL    HW1 6413   1.034   2.746   4.390
 1838SOL    HW2 6414   1.173   2.790   4.318
 1839SOL     OW 6415   1.622   1.093   6.831
 1839SOL    HW1 6416   1.535   1.095   6.783
 1839SOL    HW2 6417   1.690   1.146   6.780
 1840SOL     OW 6418   0.986   5.309   1.483
 1840SOL    HW1 6419   1.084   5.328   1.480
 1840SOL    HW2 6420   0.936   5.394   1.503
 1841SOL     OW 6421   1.888   2.882   4.321
 1841SOL    HW1 6422   1.916   2.788   4.343
 1841SOL    HW2 6423   1.895   2.938   4.404
 1842SOL     OW 6424   1.706   5.463   6.403
 1842SOL    HW1 6425   1.645   5.446   6.326
 1842SOL    HW2 6426   1.655   5.452   6.489
 1843SOL     OW 6427   4.755   2.235   5.327
 1843SOL    HW1 6428   4.707   2.258   5.413
 1843SOL    HW2 6429   4.716   2.151   5.289
 1844SOL     OW 6430   5.627   5.040   3.654
 1844SOL    HW1 6431   5.676   5.126   3.670
 1844SOL    HW2 6432   5.551   5.055   3.591
 1845SOL     OW 6433   5.248   6.489   1.133
 1845SOL    HW1 6434   5.273   6.583   1.153
 1845SOL    HW2 6435   5.157   6.486   1.091
 1846SOL     OW 6436   3.619   1.048   5.533
 1846SOL    HW1 6437   3.556   1.003   5.596
 1846SOL    HW2 6438   3.568   1.098   5.463
 1847SOL     OW 6439   1.312   5.833   6.359
 1847SOL    HW1 6440   1.331   5.931   6.358
 1847SOL    HW2 6441   1.285   5.805   6.451
 1848SOL     OW 6442   2.430   1.691   4.504
 1848SOL    HW1 6443   2.352   1.675   4.566
 1848SOL    HW2 6444   2.514   1.659   4.547
 1849SOL     OW 6445   2.727   0.962   5.301
 1849SOL    HW1 6446   2.779   1.015   5.234
 1849SOL    HW2 6447   2.629   0.979   5.289
 1850SOL     OW 6448   5.308   2.144   1.064
 1850SOL    HW1 6449   5.268   2.204   1.133
 1850SOL    HW2 6450   5.236   2.092   1.019
 1851SOL     OW 6451   6.119   4.537   2.944
 1851SOL    HW1 6452   6.160   4.448   2.960
 1851SOL    HW2 6453   6.043   4.551   3.008
 1852SOL     OW 6454   5.499   1.739   5.657
 1852SOL    HW1 6455   5.501   1.796   5.739
 1852SOL    HW2 6456   5.579   1.679   5.655
 1853SOL     OW 6457   1.507   5.141   0.400
 1853SOL    HW1 6458   1.541   5.115   0.311
 1853SOL    HW2 6459   1.423   5.091   0.420
 1854SOL     OW 6460   2.474   5.272   4.432
 1854SOL    HW1 6461   2.498   5.236   4.522
 1854SOL    HW2 6462   2.468   5.372   4.436
 1855SOL     OW 6463   6.404   4.646   1.855
 1855SOL    HW1 6464   6.316   4.693   1.856
 1855SOL    HW2 6465   6.449   4.658   1.943
 1856SOL     OW 6466   5.358   2.787   0.466
 1856SOL    HW1 6467   5.458   2.783   0.473
 1856SOL    HW2 6468   5.333   2.847   0.390
 1857SOL     OW 6469   5.552   1.022   3.407
 1857SOL    HW1 6470   5.468   0.991   3.363
 1857SOL    HW2 6471   5.624   1.031   3.338
 1858SOL     OW 6472   5.490   3.877   2.372
 1858SOL    HW1 6473   5.488   3.778   2.382
 1858SOL    HW2 6474   5.422   3.918   2.434
 1859SOL     OW 6475   5.672   2.290   4.083
 1859SOL    HW1 6476   5.667   2.201   4.128
 1859SOL    HW2 6477   5.733   2.285   4.004
 1860SOL     OW 6478   3.611   1.974   5.122
 1860SOL    HW1 6479   3.618   1.970   5.023
 1860SOL    HW2 6480   3.515   1.986   5.149
 1861SOL     OW 6481   4.613   6.681   2.081
 1861SOL    HW1 6482   4.572   6.761   2.125
 1861SOL    HW2 6483   4.566   6.663   1.995
 1862SOL     OW 6484   3.178   2.616   0.966
 1862SOL    HW1 6485   3.264   2.574   0.935
 1862SOL    HW2 6486   3.146   2.570   1.048
 1863SOL     OW 6487   2.302   1.621   1.383
 1863SOL    HW1 6488   2.231   1.590   1.320
 1863SOL    HW2 6489   2.348   1.542   1.423
 1864SOL     OW 6490   6.988   6.542   3.259
 1864SOL    HW1 6491   6.960   6.587   3.175
 1864SOL    HW2 6492   0.066   6.561   3.276
 1865SOL     OW 6493   5.879   3.270   6.805
 1865SOL    HW1 6494   5.925   3.229   6.884
 1865SOL    HW2 6495   5.939   3.338   6.763
 1866SOL     OW 6496   5.938   5.472   1.793
 1866SOL    HW1 6497   5.881   5.462   1.712
 1866SOL    HW2 6498   5.963   5.382   1.827
 1867SOL     OW 6499   1.541   4.174   6.726
 1867SOL    HW1 6500   1.556   4.076   6.710
 1867SOL    HW2 6501   1.606   4.206   6.795
 1868SOL     OW 6502   6.182   4.079   5.295
 1868SOL    HW1 6503   6.088   4.052   5.318
 1868SOL    HW2 6504   6.197   4.066   5.197
 1869SOL     OW 6505   5.788   1.269   5.188
 1869SOL    HW1 6506   5.688   1.271   5.179
 1869SOL    HW2 6507   5.824   1.189   5.140
 1870SOL     OW 6508   1.949   3.653   4.998
 1870SOL    HW1 6509   1.918   3.586   4.930
 1870SOL    HW2 6510   1.923   3.622   5.089
 1871SOL     OW 6511   2.038   1.294   0.915
 1871SOL    HW1 6512   2.011   1.221   0.852
 1871SOL    HW2 6513   2.079   1.369   0.863
 1872SOL     OW 6514   1.362   5.466   6.362
 1872SOL    HW1 6515   1.367   5.557   6.403
 1872SOL    HW2 6516   1.266   5.443   6.344
 1873SOL     OW 6517   5.776   6.253   6.854
 1873SOL    HW1 6518   5.817   6.296   6.934
 1873SOL    HW2 6519   5.677   6.268   6.854
 1874SOL     OW 6520   0.719   4.375   3.148
 1874SOL    HW1 6521   0.669   4.330   3.222
 1874SOL    HW2 6522   0.813   4.343   3.147
 1875SOL     OW 6523   0.178   0.015   2.212
 1875SOL    HW1 6524   0.215   6.948   2.178
 1875SOL    HW2 6525   0.179   0.083   2.138
 1876SOL     OW 6526   2.025   5.879   4.253
 1876SOL    HW1 6527   2.075   5.966   4.257
 1876SOL    HW2 6528   1.955   5.878   4.324
 1877SOL     OW 6529   6.959   0.406   4.722
 1877SOL    HW1 6530   6.934   0.310   4.737
 1877SOL    HW2 6531   0.027   0.410   4.674
 1878SOL     OW 6532   6.352   3.193   5.656
 1878SOL    HW1 6533   6.308   3.236   5.577
 1878SOL    HW2 6534   6.381   3.101   5.631
 1879SOL     OW 6535   1.893   5.956   5.577
 1879SOL    HW1 6536   1.799   5.934   5.549
 1879SOL    HW2 6537   1.890   6.020   5.654
 1880SOL     OW 6538   6.825   0.367   4.244
 1880SOL    HW1 6539   6.827   0.466   4.260
 1880SOL    HW2 6540   6.901   0.324   4.292
 1881SOL     OW 6541   0.883   2.398   6.831
 1881SOL    HW1 6542   0.794   2.409   6.874
 1881SOL    HW2 6543   0.887   2.452   6.747
 1882SOL     OW 6544   0.809   6.309   0.148
 1882SOL    HW1 6545   0.810   6.403   0.111
 1882SOL    HW2 6546   0.714   6.279   0.159
 1883SOL     OW 6547   0.138   2.274   4.218
 1883SOL    HW1 6548   0.213   2.232   4.268
 1883SOL    HW2 6549   0.135   2.237   4.125
 1884SOL     OW 6550   5.955   1.787   1.271
 1884SOL    HW1 6551   6.002   1.838   1.199
 1884SOL    HW2 6552   5.864   1.759   1.239
 1885SOL     OW 6553   3.057   1.197   4.741
 1885SOL    HW1 6554   3.064   1.132   4.817
 1885SOL    HW2 6555   2.986   1.165   4.677
 1886SOL     OW 6556   0.535   6.638   3.607
 1886SOL    HW1 6557   0.529   6.659   3.509
 1886SOL    HW2 6558   0.611   6.575   3.623
 1887SOL     OW 6559   2.260   5.417   6.504
 1887SOL    HW1 6560   2.175   5.364   6.508
 1887SOL    HW2 6561   2.338   5.354   6.506
 1888SOL     OW 6562   2.019   0.379   3.660
 1888SOL    HW1 6563   2.044   0.449   3.593
 1888SOL    HW2 6564   1.937   0.331   3.628
 1889SOL     OW 6565   0.502   3.378   2.538
 1889SOL    HW1 6566   0.499   3.477   2.527
 1889SOL    HW2 6567   0.593   3.345   2.516
 1890SOL     OW 6568   1.824   5.663   4.886
 1890SOL    HW1 6569   1.768   5.719   4.947
 1890SOL    HW2 6570   1.766   5.596   4.840
 1891SOL     OW 6571   3.823   3.401   3.914
 1891SOL    HW1 6572   3.744   3.405   3.976
 1891SOL    HW2 6573   3.863   3.309   3.919
 1892SOL     OW 6574   6.929   0.912   2.619
 1892SOL    HW1 6575   6.848   0.928   2.563
 1892SOL    HW2 6576   6.941   0.813   2.632
 1893SOL     OW 6577   3.200   3.061   3.761
 1893SOL    HW1 6578   3.127   2.993   3.769
 1893SOL    HW2 6579   3.282   3.027   3.805
 1894SOL     OW 6580   3.113   2.873   5.548
 1894SOL    HW1 6581   3.043   2.919   5.603
 1894SOL    HW2 6582   3.069   2.829   5.470
 1895SOL     OW 6583   1.048   6.384   1.471
 1895SOL    HW1 6584   1.079   6.301   1.518
 1895SOL    HW2 6585   1.037   6.458   1.537
 1896SOL     OW 6586   6.604   2.564   0.757
 1896SOL    HW1 6587   6.604   2.659   0.789
 1896SOL    HW2 6588   6.692   2.542   0.717
 1897SOL     OW 6589   2.572   4.518   3.161
 1897SOL    HW1 6590   2.499   4.450   3.169
 1897SOL    HW2 6591   2.532   4.609   3.154
 1898SOL     OW 6592   2.165   5.901   1.842
 1898SOL    HW1 6593   2.123   5.978   1.795
 1898SOL    HW2 6594   2.116   5.884   1.928
 1899SOL     OW 6595   6.954   0.739   2.216
 1899SOL    HW1 6596   0.030   0.710   2.218
 1899SOL    HW2 6597   6.906   0.694   2.141
 1900SOL     OW 6598   3.113   6.194   6.287
 1900SOL    HW1 6599   3.153   6.283   6.310
 1900SOL    HW2 6600   3.075   6.152   6.370
 1901SOL     OW 6601   3.985   3.102   2.733
 1901SOL    HW1 6602   4.056   3.032   2.722
 1901SOL    HW2 6603   3.900   3.059   2.764
 1902SOL     OW 6604   1.365   6.657   5.110
 1902SOL    HW1 6605   1.346   6.677   5.206
 1902SOL    HW2 6606   1.461   6.675   5.091
 1903SOL     OW 6607   0.622   2.395   4.122
 1903SOL    HW1 6608   0.588   2.317   4.070
 1903SOL    HW2 6609   0.583   2.479   4.087
 1904SOL     OW 6610   5.628   5.802   1.962
 1904SOL    HW1 6611   5.698   5.740   1.997
 1904SOL    HW2 6612   5.665   5.895   1.955
 1905SOL     OW 6613   0.322   2.797   3.574
 1905SOL    HW1 6614   0.262   2.725   3.539
 1905SOL    HW2 6615   0.267   2.878   3.597
 1906SOL     OW 6616   0.371   6.402   3.770
 1906SOL    HW1 6617   0.448   6.463   3.751
 1906SOL    HW2 6618   0.309   6.402   3.692
 1907SOL     OW 6619   6.754   2.988   0.680
 1907SOL    HW1 6620   6.768   3.014   0.775
 1907SOL    HW2 6621   6.778   3.064   0.620
 1908SOL     OW 6622   4.619   0.609   1.687
 1908SOL    HW1 6623   4.602   0.520   1.729
 1908SOL    HW2 6624   4.533   0.659   1.679
 1909SOL     OW 6625   6.748   5.390   4.849
 1909SOL    HW1 6626   6.741   5.431   4.940
 1909SOL    HW2 6627   6.657   5.380   4.809
 1910SOL     OW 6628   0.119   6.370   4.752
 1910SOL    HW1 6629   0.152   6.333   4.839
 1910SOL    HW2 6630   0.143   6.467   4.745
 1911SOL     OW 6631   5.809   6.128   3.867
 1911SOL    HW1 6632   5.857   6.163   3.787
 1911SOL    HW2 6633   5.775   6.205   3.922
 1912SOL     OW 6634   3.679   4.876   2.347
 1912SOL    HW1 6635   3.768   4.844   2.380
 1912SOL    HW2 6636   3.640   4.940   2.413
 1913SOL     OW 6637   2.864   4.077   6.228
 1913SOL    HW1 6638   2.814   4.163   6.240
 1913SOL    HW2 6639   2.830   4.010   6.294
 1914SOL     OW 6640   4.381   4.704   0.301
 1914SOL    HW1 6641   4.431   4.790   0.301
 1914SOL    HW2 6642   4.344   4.686   0.392
 1915SOL     OW 6643   4.381   1.853   0.159
 1915SOL    HW1 6644   4.336   1.805   0.084
 1915SOL    HW2 6645   4.406   1.945   0.128
 1916SOL     OW 6646   3.524   1.752   3.039
 1916SOL    HW1 6647   3.580   1.670   3.048
 1916SOL    HW2 6648   3.465   1.760   3.119
 1917SOL     OW 6649   2.573   3.914   1.484
 1917SOL    HW1 6650   2.621   4.001   1.484
 1917SOL    HW2 6651   2.594   3.865   1.569
 1918SOL     OW 6652   4.898   3.101   3.985
 1918SOL    HW1 6653   4.915   3.150   3.900
 1918SOL    HW2 6654   4.822   3.037   3.973
 1919SOL     OW 6655   6.504   0.804   6.274
 1919SOL    HW1 6656   6.571   0.748   6.226
 1919SOL    HW2 6657   6.414   0.759   6.272
 1920SOL     OW 6658   4.839   3.493   0.462
 1920SOL    HW1 6659   4.886   3.408   0.436
 1920SOL    HW2 6660   4.797   3.482   0.552
 1921SOL     OW 6661   2.999   2.166   6.994
 1921SOL    HW1 6662   3.008   2.123   0.064
 1921SOL    HW2 6663   2.952   2.104   6.931
 1922SOL     OW 6664   3.617   3.347   4.073
 1922SOL    HW1 6665   3.543   3.347   4.140
 1922SOL    HW2 6666   3.579   3.343   3.981
 1923SOL     OW 6667   3.191   0.141   4.061
 1923SOL    HW1 6668   3.097   0.123   4.089
 1923SOL    HW2 6669   3.193   0.216   3.996
 1924SOL     OW 6670   5.287   0.861   1.257
 1924SOL    HW1 6671   5.190   0.884   1.263
 1924SOL    HW2 6672   5.317   0.819   1.342
 1925SOL     OW 6673   1.227   4.562   1.072
 1925SOL    HW1 6674   1.145   4.616   1.051
 1925SOL    HW2 6675   1.237   4.489   1.005
 1926SOL     OW 6676   2.639   6.962   1.360
 1926SOL    HW1 6677   2.618   6.899   1.435
 1926SOL    HW2 6678   2.738   6.969   1.349
 1927SOL     OW 6679   1.846   5.076   1.349
 1927SOL    HW1 6680   1.776   5.147   1.352
 1927SOL    HW2 6681   1.802   4.986   1.351
 1928SOL     OW 6682   1.426   4.205   2.936
 1928SOL    HW1 6683   1.465   4.126   2.984
 1928SOL    HW2 6684   1.496   4.246   2.878
 1929SOL     OW 6685   3.141   0.409   3.433
 1929SOL    HW1 6686   3.102   0.343   3.368
 1929SOL    HW2 6687   3.133   0.501   3.396
 1930SOL     OW 6688   3.076   3.871   6.953
 1930SOL    HW1 6689   3.135   3.950   6.943
 1930SOL    HW2 6690   3.114   3.808   0.002
 1931SOL     OW 6691   5.585   3.169   3.305
 1931SOL    HW1 6692   5.588   3.178   3.404
 1931SOL    HW2 6693   5.519   3.098   3.280
 1932SOL     OW 6694   4.867   1.008   1.773
 1932SOL    HW1 6695   4.936   1.073   1.741
 1932SOL    HW2 6696   4.888   0.980   1.867
 1933SOL     OW 6697   1.696   1.054   1.217
 1933SOL    HW1 6698   1.770   1.121   1.224
 1933SOL    HW2 6699   1.637   1.078   1.141
 1934SOL     OW 6700   6.270   0.580   0.309
 1934SOL    HW1 6701   6.207   0.508   0.283
 1934SOL    HW2 6702   6.264   0.655   0.242
 1935SOL     OW 6703   5.622   5.359   3.364
 1935SOL    HW1 6704   5.631   5.444   3.311
 1935SOL    HW2 6705   5.556   5.374   3.438
 1936SOL     OW 6706   5.915   3.129   6.569
 1936SOL    HW1 6707   5.905   3.164   6.662
 1936SOL    HW2 6708   5.832   3.151   6.517
 1937SOL     OW 6709   1.209   5.108   6.675
 1937SOL    HW1 6710   1.297   5.103   6.723
 1937SOL    HW2 6711   1.204   5.033   6.609
 1938SOL     OW 6712   6.987   1.302   6.789
 1938SOL    HW1 6713   0.006   1.366   6.856
 1938SOL    HW2 6714   0.031   1.225   6.777
 1939SOL     OW 6715   0.178   0.919   3.824
 1939SOL    HW1 6716   0.241   0.946   3.897
 1939SOL    HW2 6717   0.107   0.989   3.814
 1940SOL     OW 6718   0.873   5.402   2.350
 1940SOL    HW1 6719   0.873   5.337   2.274
 1940SOL    HW2 6720   0.940   5.374   2.418
 1941SOL     OW 6721   6.340   0.330   3.860
 1941SOL    HW1 6722   6.335   0.424   3.893
 1941SOL    HW2 6723   6.320   0.327   3.762
 1942SOL     OW 6724   0.645   6.444   1.783
 1942SOL    HW1 6725   0.671   6.524   1.837
 1942SOL    HW2 6726   0.722   6.379   1.782
 1943SOL     OW 6727   0.950   4.243   3.981
 1943SOL    HW1 6728   0.907   4.319   4.029
 1943SOL    HW2 6729   0.887   4.207   3.912
 1944SOL     OW 6730   0.037   3.915   3.722
 1944SOL    HW1 6731   7.012   3.829   3.696
 1944SOL    HW2 6732   0.136   3.905   3.718
 1945SOL     OW 6733   4.463   1.624   2.316
 1945SOL    HW1 6734   4.405   1.693   2.273
 1945SOL    HW2 6735   4.539   1.669   2.363
 1946SOL     OW 6736   6.140   4.774   6.786
 1946SOL    HW1 6737   6.161   4.787   6.689
 1946SOL    HW2 6738   6.041   4.769   6.798
 1947SOL     OW 6739   5.412   6.132   2.343
 1947SOL    HW1 6740   5.421   6.067   2.267
 1947SOL    HW2 6741   5.474   6.209   2.328
 1948SOL     OW 6742   4.928   2.891   3.045
 1948SOL    HW1 6743   4.936   2.896   3.145
 1948SOL    HW2 6744   4.898   2.980   3.010
 1949SOL     OW 6745   3.147   4.096   6.266
 1949SOL    HW1 6746   3.236   4.134   6.290
 1949SOL    HW2 6747   3.075   4.157   6.297
 1950SOL     OW 6748   4.013   3.212   4.386
 1950SOL    HW1 6749   4.018   3.215   4.486
 1950SOL    HW2 6750   3.922   3.239   4.357
 1951SOL     OW 6751   0.712   5.385   5.986
 1951SOL    HW1 6752   0.671   5.355   5.900
 1951SOL    HW2 6753   0.759   5.472   5.971
 1952SOL     OW 6754   5.447   3.760   6.981
 1952SOL    HW1 6755   5.406   3.677   6.942
 1952SOL    HW2 6756   5.450   3.832   6.912
 1953SOL     OW 6757   0.289   1.126   6.084
 1953SOL    HW1 6758   0.277   1.041   6.135
 1953SOL    HW2 6759   0.268   1.111   5.987
 1954SOL     OW 6760   4.254   6.663   3.282
 1954SOL    HW1 6761   4.214   6.600   3.216
 1954SOL    HW2 6762   4.313   6.613   3.345
 1955SOL     OW 6763   0.176   3.473   3.845
 1955SOL    HW1 6764   0.194   3.568   3.871
 1955SOL    HW2 6765   0.197   3.413   3.923
 1956SOL     OW 6766   4.557   1.181   1.421
 1956SOL    HW1 6767   4.610   1.129   1.487
 1956SOL    HW2 6768   4.548   1.276   1.453
 1957SOL     OW 6769   0.495   3.283   4.898
 1957SOL    HW1 6770   0.565   3.275   4.827
 1957SOL    HW2 6771   0.428   3.351   4.870
 1958SOL     OW 6772   5.740   1.849   0.186
 1958SOL    HW1 6773   5.749   1.895   0.275
 1958SOL    HW2 6774   5.690   1.909   0.123
 1959SOL     OW 6775   1.850   1.506   5.947
 1959SOL    HW1 6776   1.922   1.465   6.002
 1959SOL    HW2 6777   1.872   1.602   5.928
 1960SOL     OW 6778   4.700   4.452   1.892
 1960SOL    HW1 6779   4.607   4.416   1.901
 1960SOL    HW2 6780   4.765   4.386   1.929
 1961SOL     OW 6781   6.647   3.658   4.435
 1961SOL    HW1 6782   6.673   3.564   4.459
 1961SOL    HW2 6783   6.680   3.720   4.506
 1962SOL     OW 6784   0.153   0.037   2.497
 1962SOL    HW1 6785   0.054   0.051   2.500
 1962SOL    HW2 6786   0.183   0.030   2.402
 1963SOL     OW 6787   0.664   1.060   6.602
 1963SOL    HW1 6788   0.764   1.063   6.597
 1963SOL    HW2 6789   0.626   1.060   6.509
 1964SOL     OW 6790   5.376   3.255   0.446
 1964SOL    HW1 6791   5.335   3.226   0.533
 1964SOL    HW2 6792   5.364   3.354   0.435
 1965SOL     OW 6793   5.483   5.060   4.785
 1965SOL    HW1 6794   5.515   5.144   4.741
 1965SOL    HW2 6795   5.547   5.035   4.858
 1966SOL     OW 6796   1.971   4.969   6.904
 1966SOL    HW1 6797   2.005   5.057   6.871
 1966SOL    HW2 6798   1.872   4.974   6.918
 1967SOL     OW 6799   6.270   2.837   4.201
 1967SOL    HW1 6800   6.246   2.741   4.213
 1967SOL    HW2 6801   6.296   2.876   4.289
 1968SOL     OW 6802   2.787   1.454   5.649
 1968SOL    HW1 6803   2.859   1.386   5.635
 1968SOL    HW2 6804   2.732   1.429   5.728
 1969SOL     OW 6805   0.257   6.391   1.685
 1969SOL    HW1 6806   0.285   6.296   1.669
 1969SOL    HW2 6807   0.299   6.424   1.769
 1970SOL     OW 6808   5.168   4.246   2.618
 1970SOL    HW1 6809   5.149   4.266   2.522
 1970SOL    HW2 6810   5.267   4.248   2.634
 1971SOL     OW 6811   1.273   5.717   4.291
 1971SOL    HW1 6812   1.324   5.752   4.212
 1971SOL    HW2 6813   1.179   5.696   4.264
 1972SOL     OW 6814   5.321   2.402   3.754
 1972SOL    HW1 6815   5.265   2.321   3.738
 1972SOL    HW2 6816   5.288   2.449   3.837
 1973SOL     OW 6817   4.393   2.042   6.844
 1973SOL    HW1 6818   4.455   1.972   6.879
 1973SOL    HW2 6819   4.301   2.027   6.881
 1974SOL     OW 6820   2.202   6.456   4.402
 1974SOL    HW1 6821   2.158   6.373   4.438
 1974SOL    HW2 6822   2.271   6.488   4.468
 1975SOL     OW 6823   2.043   2.447   2.729
 1975SOL    HW1 6824   2.068   2.449   2.826
 1975SOL    HW2 6825   2.113   2.396   2.678
 1976SOL     OW 6826   2.611   0.577   4.628
 1976SOL    HW1 6827   2.707   0.550   4.635
 1976SOL    HW2 6828   2.574   0.546   4.540
 1977SOL     OW 6829   1.263   4.341   0.231
 1977SOL    HW1 6830   1.335   4.369   0.168
 1977SOL    HW2 6831   1.243   4.244   0.217
 1978SOL     OW 6832   2.587   0.690   2.404
 1978SOL    HW1 6833   2.563   0.738   2.488
 1978SOL    HW2 6834   2.505   0.674   2.350
 1979SOL     OW 6835   5.480   2.931   6.994
 1979SOL    HW1 6836   5.416   2.860   0.004
 1979SOL    HW2 6837   5.459   3.016   0.022
 1980SOL     OW 6838   4.181   6.723   1.342
 1980SOL    HW1 6839   4.252   6.653   1.351
 1980SOL    HW2 6840   4.225   6.813   1.338
 1981SOL     OW 6841   4.561   2.758   1.444
 1981SOL    HW1 6842   4.613   2.787   1.364
 1981SOL    HW2 6843   4.554   2.834   1.509
 1982SOL     OW 6844   2.966   1.794   6.321
 1982SOL    HW1 6845   3.064   1.789   6.302
 1982SOL    HW2 6846   2.948   1.870   6.383
 1983SOL     OW 6847   6.946   2.276   0.753
 1983SOL    HW1 6848   6.982   2.183   0.756
 1983SOL    HW2 6849   6.901   2.298   0.840
 1984SOL     OW 6850   4.722   3.279   6.331
 1984SOL    HW1 6851   4.641   3.284   6.273
 1984SOL    HW2 6852   4.707   3.212   6.404
 1985SOL     OW 6853   4.975   5.708   5.192
 1985SOL    HW1 6854   4.881   5.676   5.181
 1985SOL    HW2 6855   5.012   5.734   5.103
 1986SOL     OW 6856   3.254   3.380   3.150
 1986SOL    HW1 6857   3.351   3.381   3.127
 1986SOL    HW2 6858   3.215   3.471   3.137
 1987SOL     OW 6859   1.617   2.256   1.923
 1987SOL    HW1 6860   1.604   2.311   1.840
 1987SOL    HW2 6861   1.713   2.231   1.932
 1988SOL     OW 6862   1.170   1.682   2.463
 1988SOL    HW1 6863   1.080   1.716   2.436
 1988SOL    HW2 6864   1.164   1.585   2.487
 1989SOL     OW 6865   3.260   5.187   3.613
 1989SOL    HW1 6866   3.224   5.242   3.538
 1989SOL    HW2 6867   3.357   5.206   3.625
 1990SOL     OW 6868   4.572   0.125   0.628
 1990SOL    HW1 6869   4.533   0.111   0.719
 1990SOL    HW2 6870   4.659   0.173   0.635
 1991SOL     OW 6871   3.013   5.119   2.363
 1991SOL    HW1 6872   3.084   5.173   2.408
 1991SOL    HW2 6873   2.933   5.176   2.346
 1992SOL     OW 6874   0.695   0.804   3.068
 1992SOL    HW1 6875   0.720   0.708   3.063
 1992SOL    HW2 6876   0.596   0.813   3.079
 1993SOL     OW 6877   1.307   0.913   1.090
 1993SOL    HW1 6878   1.368   0.989   1.069
 1993SOL    HW2 6879   1.229   0.946   1.143
 1994SOL     OW 6880   2.940   3.546   1.556
 1994SOL    HW1 6881   2.985   3.634   1.574
 1994SOL    HW2 6882   2.932   3.495   1.642
 1995SOL     OW 6883   6.425   0.571   4.320
 1995SOL    HW1 6884   6.371   0.625   4.385
 1995SOL    HW2 6885   6.454   0.630   4.245
 1996SOL     OW 6886   4.293   0.168   0.991
 1996SOL    HW1 6887   4.220   0.128   1.046
 1996SOL    HW2 6888   4.379   0.120   1.010
 1997SOL     OW 6889   2.649   1.734   2.899
 1997SOL    HW1 6890   2.719   1.772   2.959
 1997SOL    HW2 6891   2.692   1.672   2.833
 1998SOL     OW 6892   2.223   3.579   1.196
 1998SOL    HW1 6893   2.188   3.522   1.270
 1998SOL    HW2 6894   2.158   3.653   1.177
 1999SOL     OW 6895   0.449   0.129   5.661
 1999SOL    HW1 6896   0.474   0.200   5.727
 1999SOL    HW2 6897   0.521   0.059   5.659
 2000SOL     OW 6898   4.111   4.389   6.518
 2000SOL    HW1 6899   4.065   4.301   6.525
 2000SOL    HW2 6900   4.076   4.439   6.439
 2001SOL     OW 6901   1.264   1.822   0.029
 2001SOL    HW1 6902   1.227   1.885   0.098
 2001SOL    HW2 6903   1.357   1.848   0.006
 2002SOL     OW 6904   5.606   4.536   6.775
 2002SOL    HW1 6905   5.607   4.636   6.769
 2002SOL    HW2 6906   5.630   4.497   6.686
 2003SOL     OW 6907   6.880   5.311   1.523
 2003SOL    HW1 6908   6.863   5.397   1.572
 2003SOL    HW2 6909   6.974   5.282   1.539
 2004SOL     OW 6910   2.998   0.650   2.935
 2004SOL    HW1 6911   2.919   0.643   2.995
 2004SOL    HW2 6912   3.082   0.643   2.989
 2005SOL     OW 6913   1.563   6.383   0.036
 2005SOL    HW1 6914   1.528   6.315   0.100
 2005SOL    HW2 6915   1.558   6.473   0.078
 2006SOL     OW 6916   6.100   0.383   2.008
 2006SOL    HW1 6917   6.060   0.468   2.042
 2006SOL    HW2 6918   6.027   0.319   1.982
 2007SOL     OW 6919   5.531   4.632   5.699
 2007SOL    HW1 6920   5.570   4.541   5.714
 2007SOL    HW2 6921   5.433   4.631   5.720
 2008SOL     OW 6922   2.090   2.890   2.683
 2008SOL    HW1 6923   2.002   2.860   2.720
 2008SOL    HW2 6924   2.161   2.824   2.707
 2009SOL     OW 6925   5.767   0.224   3.796
 2009SOL    HW1 6926   5.724   0.297   3.848
 2009SOL    HW2 6927   5.819   0.165   3.858
 2010SOL     OW 6928   6.566   1.176   1.762
 2010SOL    HW1 6929   6.582   1.136   1.672
 2010SOL    HW2 6930   6.634   1.141   1.827
 2011SOL     OW 6931   0.923   0.208   5.247
 2011SOL    HW1 6932   0.887   0.292   5.207
 2011SOL    HW2 6933   0.936   0.219   5.345
 2012SOL     OW 6934   0.703   2.218   0.225
 2012SOL    HW1 6935   0.658   2.209   0.136
 2012SOL    HW2 6936   0.639   2.194   0.298
 2013SOL     OW 6937   0.784   2.689   2.012
 2013SOL    HW1 6938   0.772   2.651   2.103
 2013SOL    HW2 6939   0.696   2.692   1.964
 2014SOL     OW 6940   3.865   2.161   2.860
 2014SOL    HW1 6941   3.922   2.214   2.924
 2014SOL    HW2 6942   3.924   2.105   2.802
 2015SOL     OW 6943   3.335   6.248   1.103
 2015SOL    HW1 6944   3.283   6.207   1.177
 2015SOL    HW2 6945   3.385   6.327   1.137
 2016SOL     OW 6946   2.114   0.614   4.394
 2016SOL    HW1 6947   2.114   0.706   4.435
 2016SOL    HW2 6948   2.029   0.600   4.344
 2017SOL     OW 6949   0.778   6.490   4.339
 2017SOL    HW1 6950   0.728   6.511   4.255
 2017SOL    HW2 6951   0.860   6.439   4.316
 2018SOL     OW 6952   0.327   1.584   4.914
 2018SOL    HW1 6953   0.352   1.512   4.980
 2018SOL    HW2 6954   0.411   1.621   4.873
 2019SOL     OW 6955   0.944   4.968   0.016
 2019SOL    HW1 6956   0.919   5.060   7.004
 2019SOL    HW2 6957   1.032   4.942   6.995
 2020SOL     OW 6958   2.136   6.750   1.354
 2020SOL    HW1 6959   2.211   6.776   1.415
 2020SOL    HW2 6960   2.083   6.831   1.329
 2021SOL     OW 6961   0.133   5.448   3.856
 2021SOL    HW1 6962   0.066   5.429   3.784
 2021SOL    HW2 6963   0.085   5.472   3.941
 2022SOL     OW 6964   2.167   3.201   4.060
 2022SOL    HW1 6965   2.172   3.107   4.095
 2022SOL    HW2 6966   2.110   3.256   4.121
 2023SOL     OW 6967   1.033   5.767   6.231
 2023SOL    HW1 6968   1.000   5.727   6.317
 2023SOL    HW2 6969   1.133   5.770   6.232
 2024SOL     OW 6970   6.201   5.435   3.082
 2024SOL    HW1 6971   6.106   5.447   3.111
 2024SOL    HW2 6972   6.255   5.405   3.160
 2025SOL     OW 6973   1.716   0.724   4.554
 2025SOL    HW1 6974   1.779   0.707   4.478
 2025SOL    HW2 6975   1.628   0.679   4.535
 2026SOL     OW 6976   1.393   6.587   5.602
 2026SOL    HW1 6977   1.433   6.503   5.567
 2026SOL    HW2 6978   1.446   6.618   5.681
 2027SOL     OW 6979   5.724   6.623   2.917
 2027SOL    HW1 6980   5.690   6.533   2.946
 2027SOL    HW2 6981   5.648   6.689   2.917
 2028SOL     OW 6982   2.334   5.861   4.813
 2028SOL    HW1 6983   2.279   5.798   4.868
 2028SOL    HW2 6984   2.313   5.955   4.839
 2029SOL     OW 6985   0.179   1.987   0.130
 2029SOL    HW1 6986   0.157   2.082   0.154
 2029SOL    HW2 6987   0.141   1.967   0.040
 2030SOL     OW 6988   1.207   6.390   2.635
 2030SOL    HW1 6989   1.243   6.465   2.690
 2030SOL    HW2 6990   1.209   6.305   2.687
 2031SOL     OW 6991   6.881   0.603   4.330
 2031SOL    HW1 6992   6.833   0.687   4.305
 2031SOL    HW2 6993   6.973   0.625   4.362
 2032SOL     OW 6994   2.977   2.694   6.306
 2032SOL    HW1 6995   3.010   2.613   6.258
 2032SOL    HW2 6996   3.015   2.776   6.263
 2033SOL     OW 6997   2.821   6.969   0.948
 2033SOL    HW1 6998   2.852   6.889   0.999
 2033SOL    HW2 6999   2.771   0.011   1.009
 2034SOL     OW 7000   0.810   3.615   4.853
 2034SOL    HW1 7001   0.828   3.708   4.819
 2034SOL    HW2 7002   0.896   3.574   4.884
 2035SOL     OW 7003   4.872   6.146   3.447
 2035SOL    HW1 7004   4.773   6.148   3.432
 2035SOL    HW2 7005   4.891   6.118   3.541
 2036SOL     OW 7006   6.893   3.765   5.687
 2036SOL    HW1 7007   6.859   3.694   5.625
 2036SOL    HW2 7008   6.850   3.755   5.776
 2037SOL     OW 7009   0.928   2.520   6.537
 2037SOL    HW1 7010   0.845   2.566   6.504
 2037SOL    HW2 7011   0.930   2.427   6.501
 2038SOL     OW 7012   2.303   0.839   5.624
 2038SOL    HW1 7013   2.348   0.751   5.639
 2038SOL    HW2 7014   2.204   0.829   5.635
 2039SOL     OW 7015   5.210   6.010   4.728
 2039SOL    HW1 7016   5.195   6.078   4.800
 2039SOL    HW2 7017   5.306   6.010   4.702
 2040SOL     OW 7018   2.786   1.462   0.497
 2040SOL    HW1 7019   2.834   1.537   0.542
 2040SOL    HW2 7020   2.844   1.422   0.426
 2041SOL     OW 7021   2.418   0.116   6.294
 2041SOL    HW1 7022   2.478   0.054   6.243
 2041SOL    HW2 7023   2.411   0.086   6.389
 2042SOL     OW 7024   0.379   0.400   5.162
 2042SOL    HW1 7025   0.393   0.322   5.101
 2042SOL    HW2 7026   0.460   0.412   5.221
 2043SOL     OW 7027   1.552   3.358   0.657
 2043SOL    HW1 7028   1.466   3.396   0.621
 2043SOL    HW2 7029   1.532   3.300   0.736
 2044SOL     OW 7030   2.767   1.664   2.352
 2044SOL    HW1 7031   2.839   1.596   2.363
 2044SOL    HW2 7032   2.807   1.756   2.356
 2045SOL     OW 7033   1.484   6.518   3.638
 2045SOL    HW1 7034   1.515   6.430   3.675
 2045SOL    HW2 7035   1.552   6.588   3.657
 2046SOL     OW 7036   0.062   2.253   5.615
 2046SOL    HW1 7037   0.146   2.300   5.644
 2046SOL    HW2 7038   7.002   2.309   5.639
 2047SOL     OW 7039   6.476   0.368   2.001
 2047SOL    HW1 7040   6.476   0.360   1.901
 2047SOL    HW2 7041   6.404   0.309   2.039
 2048SOL     OW 7042   2.268   0.981   3.524
 2048SOL    HW1 7043   2.193   1.024   3.573
 2048SOL    HW2 7044   2.349   1.040   3.529
 2049SOL     OW 7045   4.447   2.288   5.079
 2049SOL    HW1 7046   4.546   2.277   5.076
 2049SOL    HW2 7047   4.408   2.264   4.990
 2050SOL     OW 7048   6.782   1.040   2.849
 2050SOL    HW1 7049   6.706   1.007   2.795
 2050SOL    HW2 7050   6.868   1.016   2.804
 2051SOL     OW 7051   3.233   0.146   6.509
 2051SOL    HW1 7052   3.284   0.095   6.440
 2051SOL    HW2 7053   3.267   0.239   6.514
 2052SOL     OW 7054   0.466   4.256   0.712
 2052SOL    HW1 7055   0.417   4.171   0.692
 2052SOL    HW2 7056   0.554   4.234   0.754
 2053SOL     OW 7057   4.964   4.785   1.599
 2053SOL    HW1 7058   4.979   4.880   1.625
 2053SOL    HW2 7059   4.866   4.767   1.593
 2054SOL     OW 7060   3.107   3.998   4.173
 2054SOL    HW1 7061   3.024   4.054   4.178
 2054SOL    HW2 7062   3.129   3.963   4.264
 2055SOL     OW 7063   3.216   2.920   5.971
 2055SOL    HW1 7064   3.219   3.008   5.924
 2055SOL    HW2 7065   3.180   2.850   5.909
 2056SOL     OW 7066   2.999   5.406   1.533
 2056SOL    HW1 7067   2.957   5.438   1.618
 2056SOL    HW2 7068   2.954   5.450   1.456
 2057SOL     OW 7069   6.276   3.288   4.541
 2057SOL    HW1 7070   6.210   3.254   4.473
 2057SOL    HW2 7071   6.363   3.240   4.529
 2058SOL     OW 7072   5.240   0.737   3.519
 2058SOL    HW1 7073   5.312   0.694   3.573
 2058SOL    HW2 7074   5.157   0.745   3.574
 2059SOL     OW 7075   2.779   1.536   5.981
 2059SOL    HW1 7076   2.695   1.588   5.993
 2059SOL    HW2 7077   2.855   1.598   5.963
 2060SOL     OW 7078   1.588   2.431   6.266
 2060SOL    HW1 7079   1.662   2.371   6.295
 2060SOL    HW2 7080   1.623   2.524   6.254
 2061SOL     OW 7081   2.583   2.543   3.229
 2061SOL    HW1 7082   2.594   2.465   3.291
 2061SOL    HW2 7083   2.665   2.599   3.231
 2062SOL     OW 7084   4.564   4.845   4.198
 2062SOL    HW1 7085   4.534   4.858   4.292
 2062SOL    HW2 7086   4.643   4.783   4.196
 2063SOL     OW 7087   1.286   1.769   3.956
 2063SOL    HW1 7088   1.382   1.768   3.985
 2063SOL    HW2 7089   1.244   1.681   3.976
 2064SOL     OW 7090   0.197   3.844   4.471
 2064SOL    HW1 7091   0.109   3.881   4.440
 2064SOL    HW2 7092   0.227   3.772   4.407
 2065SOL     OW 7093   3.338   3.398   5.493
 2065SOL    HW1 7094   3.369   3.310   5.529
 2065SOL    HW2 7095   3.241   3.391   5.470
 2066SOL     OW 7096   2.340   2.400   4.577
 2066SOL    HW1 7097   2.327   2.499   4.567
 2066SOL    HW2 7098   2.288   2.367   4.656
 2067SOL     OW 7099   5.952   4.419   3.217
 2067SOL    HW1 7100   5.970   4.350   3.287
 2067SOL    HW2 7101   6.033   4.477   3.206
 2068SOL     OW 7102   2.684   6.574   4.358
 2068SOL    HW1 7103   2.746   6.532   4.292
 2068SOL    HW2 7104   2.665   6.668   4.330
 2069SOL     OW 7105   5.243   1.622   3.062
 2069SOL    HW1 7106   5.297   1.539   3.054
 2069SOL    HW2 7107   5.249   1.674   2.977
 2070SOL     OW 7108   0.540   5.912   1.833
 2070SOL    HW1 7109   0.512   5.900   1.738
 2070SOL    HW2 7110   0.635   5.943   1.837
 2071SOL     OW 7111   6.888   2.322   4.036
 2071SOL    HW1 7112   6.837   2.399   4.074
 2071SOL    HW2 7113   6.839   2.285   3.957
 2072SOL     OW 7114   5.486   2.977   5.729
 2072SOL    HW1 7115   5.501   2.911   5.803
 2072SOL    HW2 7116   5.388   2.985   5.710
 2073SOL     OW 7117   3.001   5.902   6.734
 2073SOL    HW1 7118   3.048   5.980   6.693
 2073SOL    HW2 7119   3.052   5.818   6.712
 2074SOL     OW 7120   3.483   4.412   5.334
 2074SOL    HW1 7121   3.519   4.356   5.260
 2074SOL    HW2 7122   3.422   4.357   5.391
 2075SOL     OW 7123   4.987   0.945   1.267
 2075SOL    HW1 7124   5.001   0.940   1.366
 2075SOL    HW2 7125   4.930   0.868   1.238
 2076SOL     OW 7126   6.455   0.144   3.119
 2076SOL    HW1 7127   6.380   0.116   3.059
 2076SOL    HW2 7128   6.537   0.160   3.065
 2077SOL     OW 7129   0.511   4.350   1.541
 2077SOL    HW1 7130   0.433   4.414   1.539
 2077SOL    HW2 7131   0.534   4.324   1.447
 2078SOL     OW 7132   0.711   2.581   0.770
 2078SOL    HW1 7133   0.634   2.579   0.834
 2078SOL    HW2 7134   0.729   2.488   0.737
 2079SOL     OW 7135   5.181   1.705   4.098
 2079SOL    HW1 7136   5.132   1.790   4.120
 2079SOL    HW2 7137   5.277   1.716   4.122
 2080SOL     OW 7138   2.075   2.668   4.377
 2080SOL    HW1 7139   2.099   2.744   4.438
 2080SOL    HW2 7140   2.134   2.671   4.296
 2081SOL     OW 7141   0.536   5.796   2.444
 2081SOL    HW1 7142   0.581   5.709   2.465
 2081SOL    HW2 7143   0.458   5.808   2.505
 2082SOL     OW 7144   6.545   6.711   4.158
 2082SOL    HW1 7145   6.470   6.670   4.106
 2082SOL    HW2 7146   6.550   6.669   4.248
 2083SOL     OW 7147   1.246   5.822   2.987
 2083SOL    HW1 7148   1.307   5.767   3.044
 2083SOL    HW2 7149   1.263   5.919   3.004
 2084SOL     OW 7150   6.083   2.227   1.571
 2084SOL    HW1 7151   6.055   2.248   1.477
 2084SOL    HW2 7152   6.020   2.159   1.610
 2085SOL     OW 7153   6.325   4.875   6.461
 2085SOL    HW1 7154   6.410   4.838   6.424
 2085SOL    HW2 7155   6.256   4.802   6.464
 2086SOL     OW 7156   5.339   1.554   5.479
 2086SOL    HW1 7157   5.252   1.561   5.528
 2086SOL    HW2 7158   5.406   1.617   5.520
 2087SOL     OW 7159   4.796   1.327   6.039
 2087SOL    HW1 7160   4.759   1.279   5.959
 2087SOL    HW2 7161   4.896   1.327   6.034
 2088SOL     OW 7162   0.379   3.687   5.690
 2088SOL    HW1 7163   0.451   3.686   5.619
 2088SOL    HW2 7164   0.420   3.709   5.778
 2089SOL     OW 7165   3.091   5.198   4.352
 2089SOL    HW1 7166   3.018   5.143   4.392
 2089SOL    HW2 7167   3.094   5.288   4.397
 2090SOL     OW 7168   5.751   2.315   6.125
 2090SOL    HW1 7169   5.778   2.411   6.131
 2090SOL    HW2 7170   5.687   2.304   6.049
 2091SOL     OW 7171   5.377   0.237   0.752
 2091SOL    HW1 7172   5.451   0.270   0.810
 2091SOL    HW2 7173   5.295   0.293   0.768
 2092SOL     OW 7174   3.714   3.215   2.630
 2092SOL    HW1 7175   3.772   3.268   2.691
 2092SOL    HW2 7176   3.621   3.210   2.668
 2093SOL     OW 7177   5.235   0.134   6.892
 2093SOL    HW1 7178   5.295   0.168   6.965
 2093SOL    HW2 7179   5.143   0.171   6.906
 2094SOL     OW 7180   4.732   2.747   0.999
 2094SOL    HW1 7181   4.779   2.756   1.087
 2094SOL    HW2 7182   4.759   2.822   0.939
 2095SOL     OW 7183   3.886   6.012   4.399
 2095SOL    HW1 7184   3.793   6.004   4.435
 2095SOL    HW2 7185   3.900   6.105   4.365
 2096SOL     OW 7186   3.741   0.583   2.780
 2096SOL    HW1 7187   3.749   0.513   2.852
 2096SOL    HW2 7188   3.658   0.566   2.727
 2097SOL     OW 7189   2.653   5.493   5.869
 2097SOL    HW1 7190   2.719   5.526   5.937
 2097SOL    HW2 7191   2.619   5.570   5.815
 2098SOL     OW 7192   1.204   6.907   4.282
 2098SOL    HW1 7193   1.201   6.892   4.381
 2098SOL    HW2 7194   1.218   7.004   4.263
 2099SOL     OW 7195   4.524   1.816   6.925
 2099SOL    HW1 7196   4.550   1.774   7.012
 2099SOL    HW2 7197   4.496   1.745   6.860
 2100SOL     OW 7198   4.786   0.277   0.719
 2100SOL    HW1 7199   4.874   0.298   0.676
 2100SOL    HW2 7200   4.797   0.271   0.818
 2101SOL     OW 7201   0.709   0.508   3.031
 2101SOL    HW1 7202   0.660   0.436   2.982
 2101SOL    HW2 7203   0.805   0.481   3.044
 2102SOL     OW 7204   3.725   2.925   2.570
 2102SOL    HW1 7205   3.729   3.017   2.609
 2102SOL    HW2 7206   3.755   2.928   2.475
 2103SOL     OW 7207   1.466   0.056   1.495
 2103SOL    HW1 7208   1.480   6.993   1.441
 2103SOL    HW2 7209   1.511   0.133   1.450
 2104SOL     OW 7210   1.184   4.778   2.406
 2104SOL    HW1 7211   1.138   4.703   2.359
 2104SOL    HW2 7212   1.180   4.763   2.505
 2105SOL     OW 7213   5.188   6.257   5.665
 2105SOL    HW1 7214   5.245   6.240   5.745
 2105SOL    HW2 7215   5.244   6.258   5.582
 2106SOL     OW 7216   3.551   3.809   0.853
 2106SOL    HW1 7217   3.483   3.858   0.907
 2106SOL    HW2 7218   3.572   3.722   0.897
 2107SOL     OW 7219   5.868   4.417   4.379
 2107SOL    HW1 7220   5.904   4.433   4.471
 2107SOL    HW2 7221   5.844   4.320   4.369
 2108SOL     OW 7222   4.092   6.340   5.605
 2108SOL    HW1 7223   4.120   6.263   5.547
 2108SOL    HW2 7224   4.145   6.340   5.689
 2109SOL     OW 7225   2.734   6.363   2.237
 2109SOL    HW1 7226   2.759   6.381   2.142
 2109SOL    HW2 7227   2.781   6.280   2.268
 2110SOL     OW 7228   3.730   5.961   0.532
 2110SOL    HW1 7229   3.785   5.939   0.452
 2110SOL    HW2 7230   3.682   6.047   0.516
 2111SOL     OW 7231   0.922   2.732   0.669
 2111SOL    HW1 7232   0.948   2.678   0.590
 2111SOL    HW2 7233   0.852   2.683   0.722
 2112SOL     OW 7234   0.692   0.466   6.160
 2112SOL    HW1 7235   0.722   0.374   6.134
 2112SOL    HW2 7236   0.771   0.524   6.178
 2113SOL     OW 7237   6.537   1.697   4.420
 2113SOL    HW1 7238   6.461   1.650   4.467
 2113SOL    HW2 7239   6.500   1.772   4.366
 2114SOL     OW 7240   2.746   0.516   5.574
 2114SOL    HW1 7241   2.721   0.609   5.544
 2114SOL    HW2 7242   2.845   0.511   5.587
 2115SOL     OW 7243   0.171   0.350   4.582
 2115SOL    HW1 7244   0.239   0.278   4.600
 2115SOL    HW2 7245   0.143   0.345   4.486
 2116SOL     OW 7246   2.821   6.632   6.764
 2116SOL    HW1 7247   2.819   6.534   6.784
 2116SOL    HW2 7248   2.780   6.682   6.840
 2117SOL     OW 7249   6.799   3.058   0.939
 2117SOL    HW1 7250   6.723   3.064   1.004
 2117SOL    HW2 7251   6.840   3.148   0.926
 2118SOL     OW 7252   0.126   3.185   2.758
 2118SOL    HW1 7253   0.162   3.102   2.800
 2118SOL    HW2 7254   0.169   3.265   2.801
 2119SOL     OW 7255   2.155   2.431   6.683
 2119SOL    HW1 7256   2.057   2.447   6.673
 2119SOL    HW2 7257   2.206   2.503   6.637
 2120SOL     OW 7258   6.301   1.552   0.733
 2120SOL    HW1 7259   6.388   1.522   0.692
 2120SOL    HW2 7260   6.309   1.648   0.759
 2121SOL     OW 7261   2.521   6.091   2.095
 2121SOL    HW1 7262   2.527   6.059   2.000
 2121SOL    HW2 7263   2.605   6.140   2.119
 2122SOL     OW 7264   0.478   1.630   5.467
 2122SOL    HW1 7265   0.386   1.597   5.449
 2122SOL    HW2 7266   0.543   1.581   5.408
 2123SOL     OW 7267   0.719   4.643   3.222
 2123SOL    HW1 7268   0.675   4.639   3.312
 2123SOL    HW2 7269   0.733   4.550   3.188
 2124SOL     OW 7270   5.744   3.436   6.517
 2124SOL    HW1 7271   5.697   3.523   6.506
 2124SOL    HW2 7272   5.700   3.367   6.459
 2125SOL     OW 7273   2.439   5.288   5.847
 2125SOL    HW1 7274   2.496   5.368   5.865
 2125SOL    HW2 7275   2.414   5.286   5.751
 2126SOL     OW 7276   2.373   5.738   1.919
 2126SOL    HW1 7277   2.448   5.775   1.973
 2126SOL    HW2 7278   2.288   5.786   1.941
 2127SOL     OW 7279   1.665   3.742   4.134
 2127SOL    HW1 7280   1.671   3.653   4.179
 2127SOL    HW2 7281   1.755   3.786   4.134
 2128SOL     OW 7282   5.168   2.953   0.846
 2128SOL    HW1 7283   5.103   2.960   0.771
 2128SOL    HW2 7284   5.131   2.998   0.927
 2129SOL     OW 7285   5.447   4.855   4.135
 2129SOL    HW1 7286   5.534   4.807   4.131
 2129SOL    HW2 7287   5.410   4.849   4.228
 2130SOL     OW 7288   2.329   0.038   2.798
 2130SOL    HW1 7289   2.392   7.018   2.866
 2130SOL    HW2 7290   2.382   0.085   2.728
 2131SOL     OW 7291   5.902   6.872   6.627
 2131SOL    HW1 7292   5.848   6.955   6.642
 2131SOL    HW2 7293   5.877   6.831   6.540
 2132SOL     OW 7294   3.209   1.668   0.768
 2132SOL    HW1 7295   3.294   1.681   0.718
 2132SOL    HW2 7296   3.217   1.706   0.860
 2133SOL     OW 7297   3.322   3.178   2.271
 2133SOL    HW1 7298   3.420   3.167   2.258
 2133SOL    HW2 7299   3.276   3.090   2.263
 2134SOL     OW 7300   2.592   6.684   4.865
 2134SOL    HW1 7301   2.564   6.619   4.936
 2134SOL    HW2 7302   2.625   6.634   4.785
 2135SOL     OW 7303   0.218   5.856   3.739
 2135SOL    HW1 7304   0.274   5.937   3.720
 2135SOL    HW2 7305   0.174   5.866   3.829
 2136SOL     OW 7306   0.246   4.730   3.548
 2136SOL    HW1 7307   0.156   4.766   3.523
 2136SOL    HW2 7308   0.280   4.777   3.629
 2137SOL     OW 7309   6.944   0.145   4.800
 2137SOL    HW1 7310   6.965   0.166   4.896
 2137SOL    HW2 7311   6.899   0.056   4.795
 2138SOL     OW 7312   1.051   1.966   0.485
 2138SOL    HW1 7313   1.032   2.051   0.533
 2138SOL    HW2 7314   1.128   1.920   0.529
 2139SOL     OW 7315   4.014   6.542   4.509
 2139SOL    HW1 7316   3.917   6.532   4.486
 2139SOL    HW2 7317   4.035   6.638   4.526
 2140SOL     OW 7318   0.953   5.567   3.517
 2140SOL    HW1 7319   0.928   5.567   3.421
 2140SOL    HW2 7320   0.871   5.559   3.573
 2141SOL     OW 7321   6.949   0.518   6.610
 2141SOL    HW1 7322   6.882   0.461   6.656
 2141SOL    HW2 7323   7.014   0.554   6.677
 2142SOL     OW 7324   3.693   1.537   3.114
 2142SOL    HW1 7325   3.621   1.469   3.106
 2142SOL    HW2 7326   3.773   1.509   3.060
 2143SOL     OW 7327   3.313   5.431   0.545
 2143SOL    HW1 7328   3.340   5.488   0.622
 2143SOL    HW2 7329   3.238   5.371   0.572
 2144SOL     OW 7330   1.104   1.615   2.175
 2144SOL    HW1 7331   1.143   1.675   2.245
 2144SOL    HW2 7332   1.061   1.671   2.104
 2145SOL     OW 7333   2.564   6.184   3.397
 2145SOL    HW1 7334   2.616   6.099   3.383
 2145SOL    HW2 7335   2.626   6.256   3.428
 2146SOL     OW 7336   3.144   1.844   1.621
 2146SOL    HW1 7337   3.176   1.789   1.698
 2146SOL    HW2 7338   3.051   1.817   1.597
 2147SOL     OW 7339   0.109   0.572   3.951
 2147SOL    HW1 7340   0.164   0.603   4.028
 2147SOL    HW2 7341   0.056   0.649   3.915
 2148SOL     OW 7342   6.713   4.409   3.904
 2148SOL    HW1 7343   6.742   4.353   3.981
 2148SOL    HW2 7344   6.613   4.403   3.894
 2149SOL     OW 7345   2.126   1.279   2.179
 2149SOL    HW1 7346   2.206   1.254   2.124
 2149SOL    HW2 7347   2.046   1.228   2.148
 2150SOL     OW 7348   5.773   0.665   3.161
 2150SOL    HW1 7349   5.801   0.721   3.239
 2150SOL    HW2 7350   5.840   0.591   3.147
 2151SOL     OW 7351   4.960   4.523   5.491
 2151SOL    HW1 7352   5.018   4.590   5.445
 2151SOL    HW2 7353   4.941   4.447   5.429
 2152SOL     OW 7354   6.982   6.527   2.578
 2152SOL    HW1 7355   7.011   6.622   2.568
 2152SOL    HW2 7356   6.972   6.485   2.488
 2153SOL     OW 7357   4.255   2.306   3.301
 2153SOL    HW1 7358   4.240   2.282   3.397
 2153SOL    HW2 7359   4.330   2.371   3.294
 2154SOL     OW 7360   4.333   0.295   3.798
 2154SOL    HW1 7361   4.328   0.324   3.702
 2154SOL    HW2 7362   4.324   0.375   3.857
 2155SOL     OW 7363   6.025   3.614   0.766
 2155SOL    HW1 7364   5.981   3.610   0.676
 2155SOL    HW2 7365   6.024   3.523   0.807
 2156SOL     OW 7366   5.892   5.335   2.372
 2156SOL    HW1 7367   5.894   5.291   2.462
 2156SOL    HW2 7368   5.945   5.419   2.375
 2157SOL     OW 7369   5.379   1.455   4.264
 2157SOL    HW1 7370   5.340   1.384   4.207
 2157SOL    HW2 7371   5.374   1.543   4.216
 2158SOL     OW 7372   4.419   0.949   3.626
 2158SOL    HW1 7373   4.344   0.892   3.661
 2158SOL    HW2 7374   4.394   1.045   3.633
 2159SOL     OW 7375   2.206   1.906   4.480
 2159SOL    HW1 7376   2.277   1.848   4.440
 2159SOL    HW2 7377   2.219   2.001   4.449
 2160SOL     OW 7378   2.093   4.253   1.142
 2160SOL    HW1 7379   2.170   4.315   1.159
 2160SOL    HW2 7380   2.022   4.300   1.090
 2161SOL     OW 7381   4.124   2.179   2.209
 2161SOL    HW1 7382   4.047   2.161   2.146
 2161SOL    HW2 7383   4.115   2.120   2.290
 2162SOL     OW 7384   1.602   1.250   2.995
 2162SOL    HW1 7385   1.627   1.338   2.954
 2162SOL    HW2 7386   1.530   1.207   2.940
 2163SOL     OW 7387   4.712   1.710   0.693
 2163SOL    HW1 7388   4.773   1.646   0.646
 2163SOL    HW2 7389   4.701   1.681   0.788
 2164SOL     OW 7390   6.470   6.938   2.301
 2164SOL    HW1 7391   6.538   6.978   2.240
 2164SOL    HW2 7392   6.489   6.840   2.312
 2165SOL     OW 7393   1.845   0.149   1.741
 2165SOL    HW1 7394   1.812   0.178   1.651
 2165SOL    HW2 7395   1.790   0.072   1.774
 2166SOL     OW 7396   5.908   2.376   4.783
 2166SOL    HW1 7397   5.955   2.464   4.785
 2166SOL    HW2 7398   5.965   2.307   4.828
 2167SOL     OW 7399   3.303   1.418   1.192
 2167SOL    HW1 7400   3.209   1.392   1.214
 2167SOL    HW2 7401   3.322   1.510   1.227
 2168SOL     OW 7402   5.736   6.408   4.416
 2168SOL    HW1 7403   5.785   6.413   4.329
 2168SOL    HW2 7404   5.781   6.342   4.476
 2169SOL     OW 7405   4.973   2.764   5.346
 2169SOL    HW1 7406   4.939   2.747   5.254
 2169SOL    HW2 7407   4.895   2.769   5.410
 2170SOL     OW 7408   4.746   5.663   4.700
 2170SOL    HW1 7409   4.843   5.682   4.719
 2170SOL    HW2 7410   4.689   5.711   4.766
 2171SOL     OW 7411   0.585   2.999   0.164
 2171SOL    HW1 7412   0.682   3.023   0.175
 2171SOL    HW2 7413   0.542   2.991   0.254
 2172SOL     OW 7414   2.823   0.652   3.152
 2172SOL    HW1 7415   2.836   0.622   3.247
 2172SOL    HW2 7416   2.803   0.750   3.152
 2173SOL     OW 7417   4.610   1.764   4.611
 2173SOL    HW1 7418   4.697   1.756   4.658
 2173SOL    HW2 7419   4.536   1.738   4.673
 2174SOL     OW 7420   1.147   6.246   5.501
 2174SOL    HW1 7421   1.153   6.198   5.589
 2174SOL    HW2 7422   1.063   6.300   5.498
 2175SOL     OW 7423   0.954   0.649   6.962
 2175SOL    HW1 7424   0.912   0.719   7.019
 2175SOL    HW2 7425   1.002   0.692   6.885
 2176SOL     OW 7426   2.276   2.303   2.248
 2176SOL    HW1 7427   2.339   2.275   2.321
 2176SOL    HW2 7428   2.243   2.223   2.200
 2177SOL     OW 7429   1.070   2.107   1.933
 2177SOL    HW1 7430   1.085   2.017   1.892
 2177SOL    HW2 7431   0.976   2.114   1.965
 2178SOL     OW 7432   6.050   5.747   0.493
 2178SOL    HW1 7433   6.022   5.716   0.403
 2178SOL    HW2 7434   6.128   5.693   0.525
 2179SOL     OW 7435   1.999   3.655   4.001
 2179SOL    HW1 7436   2.037   3.729   3.945
 2179SOL    HW2 7437   2.031   3.665   4.095
 2180SOL     OW 7438   3.027   3.093   2.858
 2180SOL    HW1 7439   3.009   3.160   2.785
 2180SOL    HW2 7440   2.952   3.028   2.862
 2181SOL     OW 7441   3.756   6.696   1.483
 2181SOL    HW1 7442   3.828   6.722   1.419
 2181SOL    HW2 7443   3.668   6.690   1.435
 2182SOL     OW 7444   4.673   4.555   0.482
 2182SOL    HW1 7445   4.711   4.502   0.406
 2182SOL    HW2 7446   4.573   4.549   0.480
 2183SOL     OW 7447   4.638   2.675   1.770
 2183SOL    HW1 7448   4.668   2.756   1.721
 2183SOL    HW2 7449   4.714   2.610   1.778
 2184SOL     OW 7450   4.445   2.484   5.801
 2184SOL    HW1 7451   4.348   2.492   5.776
 2184SOL    HW2 7452   4.453   2.474   5.900
 2185SOL     OW 7453   6.759   6.773   1.897
 2185SOL    HW1 7454   6.738   6.681   1.928
 2185SOL    HW2 7455   6.750   6.837   1.973
 2186SOL     OW 7456   6.385   4.781   3.095
 2186SOL    HW1 7457   6.388   4.775   2.996
 2186SOL    HW2 7458   6.469   4.743   3.134
 2187SOL     OW 7459   6.271   6.867   6.870
 2187SOL    HW1 7460   6.177   6.876   6.902
 2187SOL    HW2 7461   6.292   6.770   6.856
 2188SOL     OW 7462   4.688   2.762   3.394
 2188SOL    HW1 7463   4.635   2.750   3.478
 2188SOL    HW2 7464   4.627   2.759   3.315
 2189SOL     OW 7465   3.161   0.152   6.086
 2189SOL    HW1 7466   3.166   0.112   5.995
 2189SOL    HW2 7467   3.145   0.080   6.153
 2190SOL     OW 7468   6.023   3.433   1.243
 2190SOL    HW1 7469   6.061   3.360   1.299
 2190SOL    HW2 7470   6.034   3.521   1.290
 2191SOL     OW 7471   3.495   0.631   0.562
 2191SOL    HW1 7472   3.405   0.635   0.606
 2191SOL    HW2 7473   3.482   0.624   0.463
 2192SOL     OW 7474   4.051   6.545   1.977
 2192SOL    HW1 7475   4.133   6.576   2.025
 2192SOL    HW2 7476   4.073   6.527   1.881
 2193SOL     OW 7477   0.095   6.093   4.209
 2193SOL    HW1 7478   0.057   6.047   4.290
 2193SOL    HW2 7479   0.100   6.191   4.227
 2194SOL     OW 7480   2.085   6.776   3.293
 2194SOL    HW1 7481   2.183   6.769   3.278
 2194SOL    HW2 7482   2.037   6.720   3.225
 2195SOL     OW 7483   0.514   4.672   2.750
 2195SOL    HW1 7484   0.436   4.615   2.774
 2195SOL    HW2 7485   0.486   4.743   2.685
 2196SOL     OW 7486   4.552   3.922   6.529
 2196SOL    HW1 7487   4.606   3.885   6.605
 2196SOL    HW2 7488   4.473   3.971   6.566
 2197SOL     OW 7489   4.632   3.157   0.620
 2197SOL    HW1 7490   4.579   3.084   0.578
 2197SOL    HW2 7491   4.571   3.221   0.666
 2198SOL     OW 7492   1.083   4.675   6.598
 2198SOL    HW1 7493   0.984   4.675   6.606
 2198SOL    HW2 7494   1.119   4.583   6.616
 2199SOL     OW 7495   3.578   2.028   3.800
 2199SOL    HW1 7496   3.648   1.963   3.769
 2199SOL    HW2 7497   3.535   2.072   3.721
 2200SOL     OW 7498   4.258   0.509   3.983
 2200SOL    HW1 7499   4.194   0.444   4.025
 2200SOL    HW2 7500   4.211   0.594   3.963
 2201SOL     OW 7501   5.178   4.993   3.758
 2201SOL    HW1 7502   5.139   5.076   3.718
 2201SOL    HW2 7503   5.254   5.018   3.818
 2202SOL     OW 7504   4.688   5.962   4.078
 2202SOL    HW1 7505   4.639   5.880   4.109
 2202SOL    HW2 7506   4.699   5.959   3.979
 2203SOL     OW 7507   1.949   1.790   3.278
 2203SOL    HW1 7508   1.916   1.884   3.275
 2203SOL    HW2 7509   2.046   1.788   3.253
 2204SOL     OW 7510   4.061   2.249   0.860
 2204SOL    HW1 7511   4.066   2.150   0.862
 2204SOL    HW2 7512   3.992   2.281   0.925
 2205SOL     OW 7513   3.280   0.079   2.209
 2205SOL    HW1 7514   3.370   0.093   2.169
 2205SOL    HW2 7515   3.210   0.111   2.145
 2206SOL     OW 7516   1.704   4.755   6.865
 2206SOL    HW1 7517   1.782   4.694   6.880
 2206SOL    HW2 7518   1.620   4.702   6.862
 2207SOL     OW 7519   6.728   4.146   5.361
 2207SOL    HW1 7520   6.747   4.055   5.397
 2207SOL    HW2 7521   6.640   4.178   5.397
 2208SOL     OW 7522   6.735   5.199   2.299
 2208SOL    HW1 7523   6.694   5.151   2.222
 2208SOL    HW2 7524   6.821   5.155   2.323
 2209SOL     OW 7525   6.584   0.205   2.274
 2209SOL    HW1 7526   6.546   0.293   2.301
 2209SOL    HW2 7527   6.510   0.140   2.256
 2210SOL     OW 7528   2.581   4.515   3.457
 2210SOL    HW1 7529   2.645   4.584   3.492
 2210SOL    HW2 7530   2.603   4.495   3.362
 2211SOL     OW 7531   5.488   0.770   5.399
 2211SOL    HW1 7532   5.484   0.696   5.466
 2211SOL    HW2 7533   5.468   0.857   5.443
 2212SOL     OW 7534   2.335   5.814   6.386
 2212SOL    HW1 7535   2.258   5.762   6.349
 2212SOL    HW2 7536   2.303   5.874   6.459
 2213SOL     OW 7537   4.344   1.085   3.329
 2213SOL    HW1 7538   4.431   1.037   3.337
 2213SOL    HW2 7539   4.311   1.079   3.235
 2214SOL     OW 7540   4.226   6.968   3.840
 2214SOL    HW1 7541   4.279   0.003   3.775
 2214SOL    HW2 7542   4.235   6.871   3.817
 2215SOL     OW 7543   6.141   2.220   6.534
 2215SOL    HW1 7544   6.113   2.161   6.609
 2215SOL    HW2 7545   6.164   2.164   6.454
 2216SOL     OW 7546   3.334   1.223   2.522
 2216SOL    HW1 7547   3.260   1.229   2.588
 2216SOL    HW2 7548   3.401   1.295   2.540
 2217SOL     OW 7549   2.647   6.651   1.065
 2217SOL    HW1 7550   2.698   6.683   1.145
 2217SOL    HW2 7551   2.684   6.563   1.035
 2218SOL     OW 7552   6.484   1.164   2.371
 2218SOL    HW1 7553   6.435   1.250   2.384
 2218SOL    HW2 7554   6.498   1.120   2.460
 2219SOL     OW 7555   1.913   2.181   3.067
 2219SOL    HW1 7556   1.903   2.252   3.137
 2219SOL    HW2 7557   1.867   2.098   3.099
 2220SOL     OW 7558   1.974   6.194   3.395
 2220SOL    HW1 7559   1.897   6.181   3.333
 2220SOL    HW2 7560   1.990   6.292   3.409
 2221SOL     OW 7561   0.229   6.996   4.738
 2221SOL    HW1 7562   0.240   6.935   4.660
 2221SOL    HW2 7563   0.132   7.015   4.753
 2222SOL     OW 7564   5.224   5.905   3.524
 2222SOL    HW1 7565   5.186   5.815   3.506
 2222SOL    HW2 7566   5.239   5.953   3.437
 2223SOL     OW 7567   6.087   6.579   2.051
 2223SOL    HW1 7568   6.009   6.640   2.035
 2223SOL    HW2 7569   6.127   6.599   2.140
 2224SOL     OW 7570   0.257   5.659   1.331
 2224SOL    HW1 7571   0.317   5.591   1.375
 2224SOL    HW2 7572   0.162   5.634   1.349
 2225SOL     OW 7573   0.299   4.564   1.263
 2225SOL    HW1 7574   0.226   4.632   1.260
 2225SOL    HW2 7575   0.386   4.607   1.239
 2226SOL     OW 7576   3.515   4.068   3.066
 2226SOL    HW1 7577   3.471   4.120   3.140
 2226SOL    HW2 7578   3.502   3.970   3.083
 2227SOL     OW 7579   1.844   1.547   5.382
 2227SOL    HW1 7580   1.802   1.619   5.438
 2227SOL    HW2 7581   1.829   1.567   5.285
 2228SOL     OW 7582   1.062   4.654   4.130
 2228SOL    HW1 7583   1.007   4.710   4.191
 2228SOL    HW2 7584   1.002   4.601   4.070
 2229SOL     OW 7585   5.287   5.550   2.534
 2229SOL    HW1 7586   5.287   5.581   2.629
 2229SOL    HW2 7587   5.378   5.562   2.494
 2230SOL     OW 7588   1.668   5.368   2.957
 2230SOL    HW1 7589   1.706   5.281   2.987
 2230SOL    HW2 7590   1.698   5.440   3.020
 2231SOL     OW 7591   1.908   6.161   0.724
 2231SOL    HW1 7592   1.944   6.252   0.745
 2231SOL    HW2 7593   1.869   6.161   0.632
 2232SOL     OW 7594   6.206   2.482   3.674
 2232SOL    HW1 7595   6.224   2.552   3.605
 2232SOL    HW2 7596   6.255   2.398   3.650
 2233SOL     OW 7597   3.590   1.501   0.657
 2233SOL    HW1 7598   3.589   1.582   0.715
 2233SOL    HW2 7599   3.496   1.477   0.633
 2234SOL     OW 7600   4.429   2.601   1.193
 2234SOL    HW1 7601   4.433   2.517   1.247
 2234SOL    HW2 7602   4.483   2.589   1.110
 2235SOL     OW 7603   1.887   3.210   1.798
 2235SOL    HW1 7604   1.852   3.125   1.836
 2235SOL    HW2 7605   1.813   3.261   1.755
 2236SOL     OW 7606   1.533   3.612   4.982
 2236SOL    HW1 7607   1.506   3.703   5.014
 2236SOL    HW2 7608   1.584   3.565   5.054
 2237SOL     OW 7609   5.969   2.212   3.185
 2237SOL    HW1 7610   5.931   2.123   3.158
 2237SOL    HW2 7611   5.901   2.263   3.237
 2238SOL     OW 7612   4.849   6.208   6.818
 2238SOL    HW1 7613   4.913   6.180   6.890
 2238SOL    HW2 7614   4.766   6.153   6.826
 2239SOL     OW 7615   6.599   5.842   1.315
 2239SOL    HW1 7616   6.550   5.887   1.390
 2239SOL    HW2 7617   6.543   5.846   1.232
 2240SOL     OW 7618   0.722   3.751   1.856
 2240SOL    HW1 7619   0.774   3.748   1.771
 2240SOL    HW2 7620   0.682   3.842   1.867
 2241SOL     OW 7621   0.364   0.270   3.726
 2241SOL    HW1 7622   0.404   0.329   3.796
 2241SOL    HW2 7623   0.267   0.290   3.717
 2242SOL     OW 7624   2.133   1.400   3.320
 2242SOL    HW1 7625   2.034   1.399   3.302
 2242SOL    HW2 7626   2.172   1.487   3.291
 2243SOL     OW 7627   0.809   0.556   4.511
 2243SOL    HW1 7628   0.895   0.594   4.546
 2243SOL    HW2 7629   0.750   0.630   4.479
 2244SOL     OW 7630   3.246   0.695   4.292
 2244SOL    HW1 7631   3.185   0.733   4.222
 2244SOL    HW2 7632   3.311   0.632   4.250
 2245SOL     OW 7633   0.617   2.064   1.515
 2245SOL    HW1 7634   0.708   2.025   1.527
 2245SOL    HW2 7635   0.565   2.008   1.450
 2246SOL     OW 7636   0.535   4.912   4.709
 2246SOL    HW1 7637   0.446   4.871   4.729
 2246SOL    HW2 7638   0.605   4.867   4.764
 2247SOL     OW 7639   2.374   2.154   3.708
 2247SOL    HW1 7640   2.290   2.189   3.748
 2247SOL    HW2 7641   2.439   2.229   3.693
 2248SOL     OW 7642   4.871   4.085   5.638
 2248SOL    HW1 7643   4.933   4.154   5.600
 2248SOL    HW2 7644   4.882   4.082   5.738
 2249SOL     OW 7645   5.269   6.221   4.907
 2249SOL    HW1 7646   5.268   6.319   4.927
 2249SOL    HW2 7647   5.363   6.188   4.901
 2250SOL     OW 7648   4.331   4.841   2.574
 2250SOL    HW1 7649   4.414   4.793   2.547
 2250SOL    HW2 7650   4.348   4.940   2.576
 2251SOL     OW 7651   0.714   1.929   5.911
 2251SOL    HW1 7652   0.656   1.880   5.847
 2251SOL    HW2 7653   0.792   1.872   5.936
 2252SOL     OW 7654   4.102   1.260   6.007
 2252SOL    HW1 7655   4.155   1.330   6.054
 2252SOL    HW2 7656   4.064   1.298   5.923
 2253SOL     OW 7657   0.528   3.958   1.323
 2253SOL    HW1 7658   0.620   3.940   1.357
 2253SOL    HW2 7659   0.502   3.886   1.258
 2254SOL     OW 7660   1.395   5.586   5.920
 2254SOL    HW1 7661   1.449   5.664   5.950
 2254SOL    HW2 7662   1.339   5.552   5.995
 2255SOL     OW 7663   0.034   4.450   6.591
 2255SOL    HW1 7664   0.090   4.452   6.674
 2255SOL    HW2 7665   6.976   4.387   6.605
 2256SOL     OW 7666   2.782   6.144   2.585
 2256SOL    HW1 7667   2.823   6.073   2.640
 2256SOL    HW2 7668   2.688   6.161   2.616
 2257SOL     OW 7669   0.760   5.091   6.033
 2257SOL    HW1 7670   0.767   5.185   6.066
 2257SOL    HW2 7671   0.851   5.052   6.023
 2258SOL     OW 7672   2.066   6.462   6.134
 2258SOL    HW1 7673   1.994   6.451   6.203
 2258SOL    HW2 7674   2.062   6.385   6.070
 2259SOL     OW 7675   6.002   1.876   6.435
 2259SOL    HW1 7676   5.903   1.884   6.425
 2259SOL    HW2 7677   6.047   1.946   6.380
 2260SOL     OW 7678   4.722   3.196   1.434
 2260SOL    HW1 7679   4.624   3.181   1.442
 2260SOL    HW2 7680   4.745   3.219   1.339
 2261SOL     OW 7681   2.058   6.373   5.405
 2261SOL    HW1 7682   2.118   6.295   5.416
 2261SOL    HW2 7683   2.112   6.457   5.404
 2262SOL     OW 7684   2.727   1.891   4.553
 2262SOL    HW1 7685   2.824   1.907   4.570
 2262SOL    HW2 7686   2.683   1.978   4.527
 2263SOL     OW 7687   0.621   4.441   5.801
 2263SOL    HW1 7688   0.526   4.413   5.784
 2263SOL    HW2 7689   0.627   4.541   5.800
 2264SOL     OW 7690   3.112   3.041   4.458
 2264SOL    HW1 7691   3.081   3.136   4.459
 2264SOL    HW2 7692   3.136   3.012   4.551
 2265SOL     OW 7693   6.844   6.054   4.129
 2265SOL    HW1 7694   6.781   5.980   4.154
 2265SOL    HW2 7695   6.925   6.050   4.186
 2266SOL     OW 7696   0.024   0.594   5.379
 2266SOL    HW1 7697   0.007   0.512   5.434
 2266SOL    HW2 7698   7.000   0.583   5.289
 2267SOL     OW 7699   6.338   1.846   4.984
 2267SOL    HW1 7700   6.427   1.824   4.945
 2267SOL    HW2 7701   6.302   1.766   5.032
 2268SOL     OW 7702   0.592   6.799   0.433
 2268SOL    HW1 7703   0.513   6.860   0.436
 2268SOL    HW2 7704   0.622   6.779   0.526
 2269SOL     OW 7705   6.701   6.155   2.450
 2269SOL    HW1 7706   6.665   6.188   2.538
 2269SOL    HW2 7707   6.657   6.068   2.427
 2270SOL     OW 7708   2.926   3.251   3.254
 2270SOL    HW1 7709   2.886   3.217   3.169
 2270SOL    HW2 7710   3.008   3.197   3.275
 2271SOL     OW 7711   1.428   4.031   2.630
 2271SOL    HW1 7712   1.387   3.943   2.653
 2271SOL    HW2 7713   1.357   4.095   2.601
 2272SOL     OW 7714   4.448   0.659   6.204
 2272SOL    HW1 7715   4.509   0.693   6.275
 2272SOL    HW2 7716   4.423   0.564   6.224
 2273SOL     OW 7717   6.950   0.849   1.783
 2273SOL    HW1 7718   6.872   0.790   1.807
 2273SOL    HW2 7719   6.926   0.905   1.704
 2274SOL     OW 7720   6.563   5.071   3.629
 2274SOL    HW1 7721   6.492   5.043   3.694
 2274SOL    HW2 7722   6.642   5.011   3.639
 2275SOL     OW 7723   4.466   6.271   3.950
 2275SOL    HW1 7724   4.561   6.248   3.971
 2275SOL    HW2 7725   4.419   6.191   3.914
 2276SOL     OW 7726   3.481   5.882   3.445
 2276SOL    HW1 7727   3.431   5.825   3.379
 2276SOL    HW2 7728   3.530   5.954   3.397
 2277SOL     OW 7729   3.397   2.938   2.635
 2277SOL    HW1 7730   3.437   2.882   2.563
 2277SOL    HW2 7731   3.309   2.975   2.604
 2278SOL     OW 7732   4.366   5.014   1.720
 2278SOL    HW1 7733   4.276   5.020   1.765
 2278SOL    HW2 7734   4.383   5.099   1.671
 2279SOL     OW 7735   6.009   4.167   5.706
 2279SOL    HW1 7736   5.993   4.193   5.801
 2279SOL    HW2 7737   5.943   4.213   5.647
 2280SOL     OW 7738   5.783   0.876   5.732
 2280SOL    HW1 7739   5.847   0.866   5.655
 2280SOL    HW2 7740   5.775   0.788   5.780
 2281SOL     OW 7741   2.292   0.516   0.328
 2281SOL    HW1 7742   2.267   0.565   0.245
 2281SOL    HW2 7743   2.211   0.509   0.388
 2282SOL     OW 7744   3.262   0.387   2.691
 2282SOL    HW1 7745   3.257   0.478   2.648
 2282SOL    HW2 7746   3.262   0.317   2.620
 2283SOL     OW 7747   1.043   3.053   1.251
 2283SOL    HW1 7748   1.077   2.963   1.278
 2283SOL    HW2 7749   0.986   3.044   1.170
 2284SOL     OW 7750   1.772   2.549   0.807
 2284SOL    HW1 7751   1.853   2.601   0.784
 2284SOL    HW2 7752   1.690   2.606   0.795
 2285SOL     OW 7753   2.559   2.879   0.450
 2285SOL    HW1 7754   2.611   2.870   0.535
 2285SOL    HW2 7755   2.622   2.884   0.372
 2286SOL     OW 7756   6.506   5.585   4.226
 2286SOL    HW1 7757   6.439   5.645   4.184
 2286SOL    HW2 7758   6.462   5.530   4.297
 2287SOL     OW 7759   2.814   1.887   1.262
 2287SOL    HW1 7760   2.806   1.860   1.358
 2287SOL    HW2 7761   2.884   1.830   1.218
 2288SOL     OW 7762   3.261   5.529   4.654
 2288SOL    HW1 7763   3.207   5.460   4.703
 2288SOL    HW2 7764   3.298   5.595   4.720
 2289SOL     OW 7765   4.197   0.218   5.563
 2289SOL    HW1 7766   4.154   0.217   5.473
 2289SOL    HW2 7767   4.126   0.212   5.633
 2290SOL     OW 7768   2.158   3.902   6.060
 2290SOL    HW1 7769   2.202   3.875   5.974
 2290SOL    HW2 7770   2.068   3.941   6.040
 2291SOL     OW 7771   3.719   1.986   0.538
 2291SOL    HW1 7772   3.812   2.000   0.505
 2291SOL    HW2 7773   3.707   2.030   0.627
 2292SOL     OW 7774   5.139   2.475   2.677
 2292SOL    HW1 7775   5.161   2.482   2.580
 2292SOL    HW2 7776   5.045   2.505   2.693
 2293SOL     OW 7777   0.027   0.720   6.456
 2293SOL    HW1 7778   0.015   0.800   6.514
 2293SOL    HW2 7779   6.999   0.642   6.498
 2294SOL     OW 7780   0.110   2.725   5.317
 2294SOL    HW1 7781   0.187   2.714   5.380
 2294SOL    HW2 7782   0.028   2.747   5.369
 2295SOL     OW 7783   5.626   5.737   0.291
 2295SOL    HW1 7784   5.563   5.751   0.367
 2295SOL    HW2 7785   5.645   5.639   0.282
 2296SOL     OW 7786   3.966   5.877   4.655
 2296SOL    HW1 7787   3.932   5.895   4.563
 2296SOL    HW2 7788   4.028   5.951   4.682
 2297SOL     OW 7789   6.209   2.591   0.238
 2297SOL    HW1 7790   6.142   2.519   0.257
 2297SOL    HW2 7791   6.187   2.672   0.293
 2298SOL     OW 7792   2.207   4.038   4.778
 2298SOL    HW1 7793   2.261   4.001   4.854
 2298SOL    HW2 7794   2.110   4.034   4.801
 2299SOL     OW 7795   6.190   3.713   4.833
 2299SOL    HW1 7796   6.238   3.630   4.806
 2299SOL    HW2 7797   6.212   3.787   4.770
 2300SOL     OW 7798   3.685   0.932   2.587
 2300SOL    HW1 7799   3.619   0.873   2.633
 2300SOL    HW2 7800   3.669   1.027   2.613
 2301SOL     OW 7801   4.465   3.115   6.158
 2301SOL    HW1 7802   4.529   3.064   6.101
 2301SOL    HW2 7803   4.479   3.213   6.144
 2302SOL     OW 7804   0.308   3.696   5.034
 2302SOL    HW1 7805   0.407   3.683   5.032
 2302SOL    HW2 7806   0.266   3.623   5.088
 2303SOL     OW 7807   2.289   2.644   6.565
 2303SOL    HW1 7808   2.216   2.688   6.514
 2303SOL    HW2 7809   2.365   2.621   6.503
 2304SOL     OW 7810   3.617   0.310   3.521
 2304SOL    HW1 7811   3.602   0.248   3.598
 2304SOL    HW2 7812   3.535   0.364   3.506
 2305SOL     OW 7813   2.761   5.999   4.941
 2305SOL    HW1 7814   2.826   5.924   4.950
 2305SOL    HW2 7815   2.687   5.972   4.880
 2306SOL     OW 7816   0.942   4.555   5.552
 2306SOL    HW1 7817   1.018   4.601   5.504
 2306SOL    HW2 7818   0.871   4.622   5.573
 2307SOL     OW 7819   5.913   3.898   5.754
 2307SOL    HW1 7820   5.961   3.985   5.743
 2307SOL    HW2 7821   5.884   3.865   5.665
 2308SOL     OW 7822   0.908   6.403   2.724
 2308SOL    HW1 7823   0.884   6.455   2.806
 2308SOL    HW2 7824   1.005   6.413   2.705
 2309SOL     OW 7825   1.588   1.154   4.399
 2309SOL    HW1 7826   1.505   1.199   4.365
 2309SOL    HW2 7827   1.668   1.208   4.375
 2310SOL     OW 7828   4.901   5.959   0.719
 2310SOL    HW1 7829   4.921   5.886   0.785
 2310SOL    HW2 7830   4.860   5.920   0.637
 2311SOL     OW 7831   2.798   5.857   0.334
 2311SOL    HW1 7832   2.773   5.824   0.425
 2311SOL    HW2 7833   2.716   5.868   0.278
 2312SOL     OW 7834   2.737   5.173   1.689
 2312SOL    HW1 7835   2.806   5.101   1.699
 2312SOL    HW2 7836   2.702   5.198   1.779
 2313SOL     OW 7837   4.796   4.850   1.272
 2313SOL    HW1 7838   4.797   4.760   1.227
 2313SOL    HW2 7839   4.767   4.839   1.368
 2314SOL     OW 7840   2.115   4.889   2.491
 2314SOL    HW1 7841   2.033   4.874   2.545
 2314SOL    HW2 7842   2.196   4.881   2.550
 2315SOL     OW 7843   3.768   1.968   6.451
 2315SOL    HW1 7844   3.703   1.954   6.377
 2315SOL    HW2 7845   3.767   1.888   6.512
 2316SOL     OW 7846   6.079   4.030   1.708
 2316SOL    HW1 7847   6.162   4.060   1.661
 2316SOL    HW2 7848   6.102   3.954   1.769
 2317SOL     OW 7849   0.392   6.849   3.693
 2317SOL    HW1 7850   0.454   6.782   3.652
 2317SOL    HW2 7851   0.378   6.925   3.629
 2318SOL     OW 7852   6.725   1.763   3.574
 2318SOL    HW1 7853   6.731   1.795   3.668
 2318SOL    HW2 7854   6.817   1.758   3.534
 2319SOL     OW 7855   0.677   5.941   3.214
 2319SOL    HW1 7856   0.713   5.888   3.291
 2319SOL    HW2 7857   0.583   5.968   3.232
 2320SOL     OW 7858   6.715   4.819   3.607
 2320SOL    HW1 7859   6.766   4.783   3.529
 2320SOL    HW2 7860   6.724   4.758   3.685
 2321SOL     OW 7861   2.769   4.718   3.478
 2321SOL    HW1 7862   2.790   4.776   3.399
 2321SOL    HW2 7863   2.820   4.750   3.557
 2322SOL     OW 7864   2.128   1.757   5.191
 2322SOL    HW1 7865   2.115   1.856   5.189
 2322SOL    HW2 7866   2.099   1.718   5.104
 2323SOL     OW 7867   5.630   3.430   1.393
 2323SOL    HW1 7868   5.639   3.402   1.297
 2323SOL    HW2 7869   5.536   3.414   1.423
 2324SOL     OW 7870   0.034   5.466   4.105
 2324SOL    HW1 7871   0.013   5.563   4.117
 2324SOL    HW2 7872   6.975   5.411   4.133
 2325SOL     OW 7873   6.751   1.739   0.754
 2325SOL    HW1 7874   6.799   1.654   0.775
 2325SOL    HW2 7875   6.747   1.751   0.655
 2326SOL     OW 7876   0.523   5.330   6.871
 2326SOL    HW1 7877   0.538   5.351   6.775
 2326SOL    HW2 7878   0.605   5.288   6.910
 2327SOL     OW 7879   4.559   1.066   2.773
 2327SOL    HW1 7880   4.495   1.031   2.704
 2327SOL    HW2 7881   4.588   0.992   2.833
 2328SOL     OW 7882   6.236   5.735   3.713
 2328SOL    HW1 7883   6.197   5.678   3.785
 2328SOL    HW2 7884   6.188   5.822   3.708
 2329SOL     OW 7885   1.408   6.640   3.402
 2329SOL    HW1 7886   1.421   6.622   3.500
 2329SOL    HW2 7887   1.428   6.557   3.350
 2330SOL     OW 7888   1.614   3.915   6.651
 2330SOL    HW1 7889   1.568   3.827   6.649
 2330SOL    HW2 7890   1.652   3.935   6.561
 2331SOL     OW 7891   1.413   4.275   5.105
 2331SOL    HW1 7892   1.451   4.259   5.014
 2331SOL    HW2 7893   1.477   4.241   5.174
 2332SOL     OW 7894   6.659   3.432   6.885
 2332SOL    HW1 7895   6.661   3.485   6.970
 2332SOL    HW2 7896   6.699   3.487   6.811
 2333SOL     OW 7897   2.329   4.861   3.864
 2333SOL    HW1 7898   2.305   4.944   3.915
 2333SOL    HW2 7899   2.423   4.869   3.831
 2334SOL     OW 7900   1.891   0.106   6.081
 2334SOL    HW1 7901   1.869   0.121   5.984
 2334SOL    HW2 7902   1.980   0.147   6.101
 2335SOL     OW 7903   5.065   4.450   4.551
 2335SOL    HW1 7904   5.154   4.471   4.592
 2335SOL    HW2 7905   4.992   4.474   4.616
 2336SOL     OW 7906   4.310   1.164   5.752
 2336SOL    HW1 7907   4.345   1.255   5.730
 2336SOL    HW2 7908   4.217   1.155   5.718
 2337SOL     OW 7909   5.951   0.678   5.124
 2337SOL    HW1 7910   5.891   0.685   5.204
 2337SOL    HW2 7911   6.035   0.630   5.150
 2338SOL     OW 7912   1.846   6.942   0.013
 2338SOL    HW1 7913   1.945   6.930   0.007
 2338SOL    HW2 7914   1.802   6.896   6.956
 2339SOL     OW 7915   3.369   4.261   5.737
 2339SOL    HW1 7916   3.393   4.350   5.778
 2339SOL    HW2 7917   3.369   4.269   5.637
 2340SOL     OW 7918   4.453   5.199   4.204
 2340SOL    HW1 7919   4.504   5.199   4.118
 2340SOL    HW2 7920   4.386   5.124   4.203
 2341SOL     OW 7921   0.963   3.814   6.068
 2341SOL    HW1 7922   0.954   3.868   6.152
 2341SOL    HW2 7923   1.024   3.862   6.005
 2342SOL     OW 7924   4.646   1.172   5.085
 2342SOL    HW1 7925   4.640   1.179   4.985
 2342SOL    HW2 7926   4.720   1.231   5.118
 2343SOL     OW 7927   0.620   6.073   1.552
 2343SOL    HW1 7928   0.606   6.026   1.465
 2343SOL    HW2 7929   0.695   6.139   1.543
 2344SOL     OW 7930   1.834   0.225   2.796
 2344SOL    HW1 7931   1.920   0.179   2.820
 2344SOL    HW2 7932   1.854   0.315   2.758
 2345SOL     OW 7933   1.288   2.567   1.798
 2345SOL    HW1 7934   1.191   2.584   1.816
 2345SOL    HW2 7935   1.331   2.529   1.880
 2346SOL     OW 7936   5.841   3.118   4.974
 2346SOL    HW1 7937   5.864   3.062   4.894
 2346SOL    HW2 7938   5.757   3.169   4.956
 2347SOL     OW 7939   1.836   4.437   1.331
 2347SOL    HW1 7940   1.744   4.463   1.359
 2347SOL    HW2 7941   1.851   4.340   1.351
 2348SOL     OW 7942   3.147   6.948   1.721
 2348SOL    HW1 7943   3.231   6.959   1.774
 2348SOL    HW2 7944   3.135   0.009   1.663
 2349SOL     OW 7945   5.833   2.658   6.871
 2349SOL    HW1 7946   5.849   2.581   6.934
 2349SOL    HW2 7947   5.912   2.719   6.873
 2350SOL     OW 7948   2.593   5.636   5.402
 2350SOL    HW1 7949   2.634   5.716   5.446
 2350SOL    HW2 7950   2.632   5.553   5.442
 2351SOL     OW 7951   1.774   5.503   3.185
 2351SOL    HW1 7952   1.858   5.548   3.216
 2351SOL    HW2 7953   1.791   5.405   3.175
 2352SOL     OW 7954   5.934   6.095   6.145
 2352SOL    HW1 7955   5.886   6.071   6.060
 2352SOL    HW2 7956   5.872   6.147   6.204
 2353SOL     OW 7957   3.340   2.996   6.710
 2353SOL    HW1 7958   3.323   2.898   6.700
 2353SOL    HW2 7959   3.271   3.047   6.659
 2354SOL     OW 7960   3.155   1.575   2.512
 2354SOL    HW1 7961   3.155   1.599   2.415
 2354SOL    HW2 7962   3.064   1.545   2.540
 2355SOL     OW 7963   6.483   1.551   2.049
 2355SOL    HW1 7964   6.523   1.468   2.088
 2355SOL    HW2 7965   6.517   1.566   1.957
 2356SOL     OW 7966   3.862   5.253   3.915
 2356SOL    HW1 7967   3.959   5.273   3.928
 2356SOL    HW2 7968   3.848   5.154   3.917
 2357SOL     OW 7969   0.463   5.689   0.955
 2357SOL    HW1 7970   0.453   5.614   0.890
 2357SOL    HW2 7971   0.552   5.734   0.941
 2358SOL     OW 7972   2.152   1.008   5.015
 2358SOL    HW1 7973   2.065   0.990   5.061
 2358SOL    HW2 7974   2.212   0.929   5.027
 2359SOL     OW 7975   3.682   2.783   5.553
 2359SOL    HW1 7976   3.661   2.700   5.501
 2359SOL    HW2 7977   3.609   2.849   5.541
 2360SOL     OW 7978   3.646   5.091   1.960
 2360SOL    HW1 7979   3.690   5.173   1.922
 2360SOL    HW2 7980   3.621   5.030   1.885
 2361SOL     OW 7981   3.387   4.705   0.913
 2361SOL    HW1 7982   3.384   4.789   0.967
 2361SOL    HW2 7983   3.387   4.727   0.816
 2362SOL     OW 7984   2.919   4.912   4.305
 2362SOL    HW1 7985   2.991   4.874   4.364
 2362SOL    HW2 7986   2.874   4.838   4.256
 2363SOL     OW 7987   2.646   3.815   1.722
 2363SOL    HW1 7988   2.730   3.854   1.759
 2363SOL    HW2 7989   2.641   3.718   1.746
 2364SOL     OW 7990   4.475   0.607   2.834
 2364SOL    HW1 7991   4.424   0.692   2.827
 2364SOL    HW2 7992   4.415   0.530   2.810
 2365SOL     OW 7993   5.857   3.576   2.755
 2365SOL    HW1 7994   5.820   3.568   2.662
 2365SOL    HW2 7995   5.856   3.486   2.799
 2366SOL     OW 7996   4.341   5.335   4.701
 2366SOL    HW1 7997   4.251   5.296   4.719
 2366SOL    HW2 7998   4.355   5.343   4.603
 2367SOL     OW 7999   5.981   4.555   5.718
 2367SOL    HW1 8000   5.950   4.481   5.779
 2367SOL    HW2 8001   5.990   4.519   5.625
 2368SOL     OW 8002   5.397   1.710   5.071
 2368SOL    HW1 8003   5.435   1.636   5.126
 2368SOL    HW2 8004   5.320   1.751   5.120
 2369SOL     OW 8005   4.355   2.269   3.951
 2369SOL    HW1 8006   4.415   2.194   3.924
 2369SOL    HW2 8007   4.334   2.326   3.872
 2370SOL     OW 8008   3.948   2.076   0.436
 2370SOL    HW1 8009   4.008   2.021   0.378
 2370SOL    HW2 8010   3.974   2.172   0.430
 2371SOL     OW 8011   2.036   6.530   3.417
 2371SOL    HW1 8012   2.084   6.587   3.483
 2371SOL    HW2 8013   2.043   6.572   3.326
 2372SOL     OW 8014   5.517   6.382   6.889
 2372SOL    HW1 8015   5.437   6.322   6.894
 2372SOL    HW2 8016   5.542   6.411   6.981
 2373SOL     OW 8017   6.324   4.321   6.235
 2373SOL    HW1 8018   6.310   4.237   6.287
 2373SOL    HW2 8019   6.392   4.305   6.164
 2374SOL     OW 8020   0.698   5.198   2.821
 2374SOL    HW1 8021   0.666   5.281   2.867
 2374SOL    HW2 8022   0.757   5.223   2.744
 2375SOL     OW 8023   2.200   0.347   4.514
 2375SOL    HW1 8024   2.117   0.291   4.527
 2375SOL    HW2 8025   2.177   0.427   4.459
 2376SOL     OW 8026   5.917   3.045   4.243
 2376SOL    HW1 8027   5.911   2.957   4.290
 2376SOL    HW2 8028   5.825   3.078   4.224
 2377SOL     OW 8029   3.962   4.830   5.822
 2377SOL    HW1 8030   3.871   4.793   5.807
 2377SOL    HW2 8031   3.955   4.922   5.862
 2378SOL     OW 8032   0.685   0.037   0.642
 2378SOL    HW1 8033   0.717   0.092   0.720
 2378SOL    HW2 8034   0.702   6.960   0.661
 2379SOL     OW 8035   0.917   4.404   3.512
 2379SOL    HW1 8036   0.936   4.321   3.460
 2379SOL    HW2 8037   0.828   4.440   3.485
 2380SOL     OW 8038   4.674   5.498   6.262
 2380SOL    HW1 8039   4.732   5.470   6.184
 2380SOL    HW2 8040   4.587   5.532   6.228
 2381SOL     OW 8041   2.226   4.650   4.024
 2381SOL    HW1 8042   2.273   4.573   3.981
 2381SOL    HW2 8043   2.258   4.735   3.984
 2382SOL     OW 8044   6.244   5.670   2.392
 2382SOL    HW1 8045   6.240   5.702   2.297
 2382SOL    HW2 8046   6.298   5.734   2.446
 2383SOL     OW 8047   4.568   3.542   5.990
 2383SOL    HW1 8048   4.642   3.588   5.941
 2383SOL    HW2 8049   4.483   3.549   5.937
 2384SOL     OW 8050   1.117   2.419   3.154
 2384SOL    HW1 8051   1.023   2.442   3.180
 2384SOL    HW2 8052   1.147   2.482   3.082
 2385SOL     OW 8053   1.053   0.811   0.895
 2385SOL    HW1 8054   1.152   0.807   0.909
 2385SOL    HW2 8055   1.007   0.751   0.961
 2386SOL     OW 8056   0.037   5.035   6.466
 2386SOL    HW1 8057   0.021   5.038   6.565
 2386SOL    HW2 8058   0.059   5.127   6.434
 2387SOL     OW 8059   6.233   0.300   3.039
 2387SOL    HW1 8060   6.154   0.277   2.983
 2387SOL    HW2 8061   6.280   0.379   3.001
 2388SOL     OW 8062   1.942   5.070   3.768
 2388SOL    HW1 8063   1.886   4.991   3.793
 2388SOL    HW2 8064   1.943   5.078   3.668
 2389SOL     OW 8065   3.308   0.028   2.894
 2389SOL    HW1 8066   3.220   7.000   2.901
 2389SOL    HW2 8067   3.295   0.125   2.914
 2390SOL     OW 8068   5.018   3.171   4.958
 2390SOL    HW1 8069   5.029   3.123   4.871
 2390SOL    HW2 8070   4.922   3.169   4.986
 2391SOL     OW 8071   2.328   4.355   6.728
 2391SOL    HW1 8072   2.362   4.418   6.659
 2391SOL    HW2 8073   2.277   4.281   6.684
 2392SOL     OW 8074   4.077   5.073   5.629
 2392SOL    HW1 8075   4.138   5.002   5.593
 2392SOL    HW2 8076   4.130   5.155   5.651
 2393SOL     OW 8077   4.946   5.026   0.671
 2393SOL    HW1 8078   5.035   5.009   0.628
 2393SOL    HW2 8079   4.955   5.101   0.736
 2394SOL     OW 8080   0.006   2.480   2.881
 2394SOL    HW1 8081   7.007   2.452   2.975
 2394SOL    HW2 8082   6.943   2.521   2.842
 2395SOL     OW 8083   0.421   3.140   3.404
 2395SOL    HW1 8084   0.326   3.164   3.426
 2395SOL    HW2 8085   0.426   3.107   3.310
 2396SOL     OW 8086   0.351   0.414   5.485
 2396SOL    HW1 8087   0.274   0.350   5.486
 2396SOL    HW2 8088   0.357   0.460   5.574
 2397SOL     OW 8089   2.836   4.931   5.744
 2397SOL    HW1 8090   2.789   4.843   5.746
 2397SOL    HW2 8091   2.928   4.919   5.709
 2398SOL     OW 8092   3.602   6.329   5.081
 2398SOL    HW1 8093   3.680   6.362   5.028
 2398SOL    HW2 8094   3.582   6.393   5.154
 2399SOL     OW 8095   2.888   1.344   2.049
 2399SOL    HW1 8096   2.837   1.429   2.032
 2399SOL    HW2 8097   2.986   1.361   2.040
 2400SOL     OW 8098   0.974   1.886   6.183
 2400SOL    HW1 8099   0.928   1.811   6.230
 2400SOL    HW2 8100   1.007   1.855   6.094
 2401SOL     OW 8101   1.307   6.681   0.348
 2401SOL    HW1 8102   1.217   6.718   0.325
 2401SOL    HW2 8103   1.372   6.755   0.359
 2402SOL     OW 8104   0.864   2.972   1.509
 2402SOL    HW1 8105   0.960   2.979   1.483
 2402SOL    HW2 8106   0.844   2.880   1.542
 2403SOL     OW 8107   3.286   4.140   5.127
 2403SOL    HW1 8108   3.236   4.055   5.110
 2403SOL    HW2 8109   3.224   4.209   5.165
 2404SOL     OW 8110   6.586   1.932   1.459
 2404SOL    HW1 8111   6.610   1.862   1.526
 2404SOL    HW2 8112   6.555   2.014   1.506
 2405SOL     OW 8113   2.654   3.540   0.818
 2405SOL    HW1 8114   2.583   3.540   0.888
 2405SOL    HW2 8115   2.617   3.498   0.734
 2406SOL     OW 8116   4.725   5.904   5.482
 2406SOL    HW1 8117   4.810   5.939   5.443
 2406SOL    HW2 8118   4.649   5.962   5.452
 2407SOL     OW 8119   2.288   1.946   3.592
 2407SOL    HW1 8120   2.210   1.899   3.632
 2407SOL    HW2 8121   2.285   2.043   3.617
 2408SOL     OW 8122   4.495   6.361   5.664
 2408SOL    HW1 8123   4.485   6.437   5.728
 2408SOL    HW2 8124   4.528   6.395   5.576
 2409SOL     OW 8125   1.874   2.651   6.800
 2409SOL    HW1 8126   1.869   2.738   6.750
 2409SOL    HW2 8127   1.802   2.649   6.869
 2410SOL     OW 8128   6.816   3.187   4.936
 2410SOL    HW1 8129   6.784   3.237   5.017
 2410SOL    HW2 8130   6.912   3.163   4.948
 2411SOL     OW 8131   3.196   0.970   0.879
 2411SOL    HW1 8132   3.250   0.904   0.931
 2411SOL    HW2 8133   3.126   0.923   0.826
 2412SOL     OW 8134   3.763   2.480   0.234
 2412SOL    HW1 8135   3.699   2.433   0.296
 2412SOL    HW2 8136   3.723   2.486   0.143
 2413SOL     OW 8137   0.222   3.613   6.535
 2413SOL    HW1 8138   0.318   3.637   6.553
 2413SOL    HW2 8139   0.214   3.514   6.523
 2414SOL     OW 8140   6.108   1.954   5.106
 2414SOL    HW1 8141   6.125   1.999   5.194
 2414SOL    HW2 8142   6.195   1.936   5.060
 2415SOL     OW 8143   3.199   3.877   5.361
 2415SOL    HW1 8144   3.290   3.919   5.364
 2415SOL    HW2 8145   3.175   3.845   5.453
 2416SOL     OW 8146   6.471   3.156   3.157
 2416SOL    HW1 8147   6.395   3.100   3.189
 2416SOL    HW2 8148   6.490   3.136   3.061
 2417SOL     OW 8149   3.548   2.731   1.793
 2417SOL    HW1 8150   3.491   2.649   1.786
 2417SOL    HW2 8151   3.529   2.778   1.879
 2418SOL     OW 8152   6.180   3.702   6.556
 2418SOL    HW1 8153   6.114   3.633   6.526
 2418SOL    HW2 8154   6.136   3.792   6.556
 2419SOL     OW 8155   2.897   1.399   2.830
 2419SOL    HW1 8156   2.952   1.481   2.845
 2419SOL    HW2 8157   2.852   1.404   2.741
 2420SOL     OW 8158   0.407   2.915   1.420
 2420SOL    HW1 8159   0.458   2.969   1.353
 2420SOL    HW2 8160   0.313   2.904   1.389
 2421SOL     OW 8161   2.707   0.590   3.407
 2421SOL    HW1 8162   2.608   0.586   3.401
 2421SOL    HW2 8163   2.746   0.501   3.382
 2422SOL     OW 8164   3.877   0.121   0.210
 2422SOL    HW1 8165   3.955   0.129   0.149
 2422SOL    HW2 8166   3.850   0.212   0.242
 2423SOL     OW 8167   3.598   5.155   5.174
 2423SOL    HW1 8168   3.659   5.214   5.228
 2423SOL    HW2 8169   3.581   5.070   5.223
 2424SOL     OW 8170   5.155   0.346   6.392
 2424SOL    HW1 8171   5.196   0.426   6.436
 2424SOL    HW2 8172   5.135   0.277   6.461
 2425SOL     OW 8173   5.218   5.108   4.871
 2425SOL    HW1 8174   5.199   5.205   4.862
 2425SOL    HW2 8175   5.317   5.093   4.866
 2426SOL     OW 8176   3.104   2.135   5.313
 2426SOL    HW1 8177   3.088   2.158   5.217
 2426SOL    HW2 8178   3.018   2.141   5.364
 2427SOL     OW 8179   4.844   2.592   6.889
 2427SOL    HW1 8180   4.797   2.648   6.957
 2427SOL    HW2 8181   4.932   2.563   6.925
 2428SOL     OW 8182   1.872   1.812   1.950
 2428SOL    HW1 8183   1.808   1.873   1.999
 2428SOL    HW2 8184   1.889   1.849   1.859
 2429SOL     OW 8185   4.850   5.077   1.567
 2429SOL    HW1 8186   4.924   5.127   1.613
 2429SOL    HW2 8187   4.835   5.116   1.476
 2430SOL     OW 8188   6.932   5.876   6.531
 2430SOL    HW1 8189   6.924   5.811   6.455
 2430SOL    HW2 8190   6.918   5.829   6.617
 2431SOL     OW 8191   2.218   2.956   1.247
 2431SOL    HW1 8192   2.252   2.912   1.164
 2431SOL    HW2 8193   2.123   2.930   1.263
 2432SOL     OW 8194   3.271   5.928   2.896
 2432SOL    HW1 8195   3.182   5.889   2.920
 2432SOL    HW2 8196   3.265   6.028   2.897
 2433SOL     OW 8197   7.000   4.324   4.296
 2433SOL    HW1 8198   7.003   4.233   4.338
 2433SOL    HW2 8199   0.067   4.372   4.314
 2434SOL     OW 8200   3.641   2.153   2.733
 2434SOL    HW1 8201   3.601   2.077   2.783
 2434SOL    HW2 8202   3.718   2.190   2.785
 2435SOL     OW 8203   5.574   6.411   5.987
 2435SOL    HW1 8204   5.499   6.365   5.939
 2435SOL    HW2 8205   5.609   6.486   5.930
 2436SOL     OW 8206   0.446   2.954   6.918
 2436SOL    HW1 8207   0.508   3.007   6.860
 2436SOL    HW2 8208   0.472   2.965   7.014
 2437SOL     OW 8209   0.658   4.952   1.421
 2437SOL    HW1 8210   0.628   5.043   1.393
 2437SOL    HW2 8211   0.619   4.930   1.510
 2438SOL     OW 8212   4.033   1.779   4.551
 2438SOL    HW1 8213   4.093   1.839   4.500
 2438SOL    HW2 8214   4.066   1.685   4.544
 2439SOL     OW 8215   0.683   5.940   6.494
 2439SOL    HW1 8216   0.744   5.904   6.565
 2439SOL    HW2 8217   0.611   5.994   6.537
 2440SOL     OW 8218   0.367   2.442   5.496
 2440SOL    HW1 8219   0.356   2.407   5.589
 2440SOL    HW2 8220   0.345   2.540   5.495
 2441SOL     OW 8221   6.786   6.966   6.973
 2441SOL    HW1 8222   6.687   6.972   6.958
 2441SOL    HW2 8223   6.804   6.937   0.048
 2442SOL     OW 8224   5.398   2.954   3.342
 2442SOL    HW1 8225   5.396   2.897   3.425
 2442SOL    HW2 8226   5.350   2.906   3.268
 2443SOL     OW 8227   0.928   3.313   1.295
 2443SOL    HW1 8228   0.933   3.214   1.280
 2443SOL    HW2 8229   0.928   3.332   1.393
 2444SOL     OW 8230   3.516   5.161   2.790
 2444SOL    HW1 8231   3.613   5.134   2.786
 2444SOL    HW2 8232   3.508   5.258   2.770
 2445SOL     OW 8233   0.851   1.743   1.503
 2445SOL    HW1 8234   0.925   1.768   1.440
 2445SOL    HW2 8235   0.852   1.805   1.581
 2446SOL     OW 8236   6.469   5.474   0.847
 2446SOL    HW1 8237   6.546   5.481   0.783
 2446SOL    HW2 8238   6.405   5.404   0.815
 2447SOL     OW 8239   1.847   6.904   6.493
 2447SOL    HW1 8240   1.751   6.914   6.518
 2447SOL    HW2 8241   1.885   6.994   6.470
 2448SOL     OW 8242   4.897   0.545   4.531
 2448SOL    HW1 8243   4.963   0.470   4.539
 2448SOL    HW2 8244   4.931   0.625   4.581
 2449SOL     OW 8245   2.029   3.772   1.306
 2449SOL    HW1 8246   2.014   3.855   1.252
 2449SOL    HW2 8247   2.115   3.781   1.356
 2450SOL     OW 8248   6.819   6.393   5.760
 2450SOL    HW1 8249   6.799   6.363   5.853
 2450SOL    HW2 8250   6.790   6.488   5.748
 2451SOL     OW 8251   1.473   0.386   0.272
 2451SOL    HW1 8252   1.455   0.332   0.354
 2451SOL    HW2 8253   1.529   0.465   0.297
 2452SOL     OW 8254   1.802   2.410   3.857
 2452SOL    HW1 8255   1.809   2.501   3.899
 2452SOL    HW2 8256   1.745   2.416   3.775
 2453SOL     OW 8257   0.824   2.139   6.822
 2453SOL    HW1 8258   0.866   2.070   6.764
 2453SOL    HW2 8259   0.836   2.230   6.781
 2454SOL     OW 8260   2.177   6.426   0.380
 2454SOL    HW1 8261   2.231   6.415   0.464
 2454SOL    HW2 8262   2.147   6.521   0.372
 2455SOL     OW 8263   4.897   2.116   6.252
 2455SOL    HW1 8264   4.938   2.046   6.310
 2455SOL    HW2 8265   4.968   2.162   6.199
 2456SOL     OW 8266   1.316   3.252   5.697
 2456SOL    HW1 8267   1.306   3.196   5.779
 2456SOL    HW2 8268   1.382   3.209   5.636
 2457SOL     OW 8269   5.900   1.629   5.857
 2457SOL    HW1 8270   5.871   1.703   5.918
 2457SOL    HW2 8271   5.964   1.569   5.906
 2458SOL     OW 8272   1.083   0.088   1.769
 2458SOL    HW1 8273   1.075   7.014   1.735
 2458SOL    HW2 8274   1.007   0.108   1.831
 2459SOL     OW 8275   1.387   6.842   1.120
 2459SOL    HW1 8276   1.442   6.925   1.125
 2459SOL    HW2 8277   1.412   6.790   1.038
 2460SOL     OW 8278   0.337   1.056   4.440
 2460SOL    HW1 8279   0.364   0.961   4.454
 2460SOL    HW2 8280   0.241   1.060   4.412
 2461SOL     OW 8281   2.210   1.850   3.200
 2461SOL    HW1 8282   2.289   1.823   3.256
 2461SOL    HW2 8283   2.238   1.918   3.133
 2462SOL     OW 8284   0.299   5.277   0.670
 2462SOL    HW1 8285   0.312   5.259   0.768
 2462SOL    HW2 8286   0.277   5.373   0.656
 2463SOL     OW 8287   6.889   5.970   0.378
 2463SOL    HW1 8288   6.947   5.896   0.343
 2463SOL    HW2 8289   6.905   6.053   0.324
 2464SOL     OW 8290   0.740   2.646   4.744
 2464SOL    HW1 8291   0.724   2.725   4.684
 2464SOL    HW2 8292   0.786   2.677   4.827
 2465SOL     OW 8293   0.020   1.489   0.203
 2465SOL    HW1 8294   0.043   1.471   0.107
 2465SOL    HW2 8295   0.070   1.569   0.235
 2466SOL     OW 8296   1.173   1.771   1.000
 2466SOL    HW1 8297   1.132   1.809   0.917
 2466SOL    HW2 8298   1.107   1.710   1.044
 2467SOL     OW 8299   5.239   2.804   4.797
 2467SOL    HW1 8300   5.161   2.865   4.787
 2467SOL    HW2 8301   5.310   2.850   4.850
 2468SOL     OW 8302   3.289   6.661   4.462
 2468SOL    HW1 8303   3.207   6.689   4.411
 2468SOL    HW2 8304   3.261   6.614   4.546
 2469SOL     OW 8305   3.110   1.857   6.057
 2469SOL    HW1 8306   3.044   1.844   5.984
 2469SOL    HW2 8307   3.080   1.932   6.117
 2470SOL     OW 8308   1.838   5.226   6.163
 2470SOL    HW1 8309   1.843   5.128   6.180
 2470SOL    HW2 8310   1.842   5.275   6.250
 2471SOL     OW 8311   2.754   6.404   2.518
 2471SOL    HW1 8312   2.754   6.306   2.539
 2471SOL    HW2 8313   2.767   6.418   2.420
 2472SOL     OW 8314   4.967   0.519   2.819
 2472SOL    HW1 8315   4.980   0.501   2.917
 2472SOL    HW2 8316   4.870   0.516   2.797
 2473SOL     OW 8317   0.788   3.883   4.789
 2473SOL    HW1 8318   0.751   3.945   4.858
 2473SOL    HW2 8319   0.764   3.916   4.698
 2474SOL     OW 8320   1.713   0.480   1.070
 2474SOL    HW1 8321   1.804   0.486   1.112
 2474SOL    HW2 8322   1.644   0.500   1.139
 2475SOL     OW 8323   5.851   2.116   0.315
 2475SOL    HW1 8324   5.787   2.066   0.375
 2475SOL    HW2 8325   5.801   2.152   0.236
 2476SOL     OW 8326   4.596   6.847   0.126
 2476SOL    HW1 8327   4.622   6.759   0.087
 2476SOL    HW2 8328   4.642   6.860   0.214
 2477SOL     OW 8329   3.994   1.278   4.006
 2477SOL    HW1 8330   4.022   1.346   4.074
 2477SOL    HW2 8331   3.939   1.322   3.936
 2478SOL     OW 8332   3.386   0.504   4.133
 2478SOL    HW1 8333   3.381   0.539   4.039
 2478SOL    HW2 8334   3.473   0.531   4.174
 2479SOL     OW 8335   6.626   4.147   2.479
 2479SOL    HW1 8336   6.676   4.231   2.505
 2479SOL    HW2 8337   6.570   4.117   2.556
 2480SOL     OW 8338   2.769   2.007   1.688
 2480SOL    HW1 8339   2.677   1.987   1.722
 2480SOL    HW2 8340   2.829   2.028   1.765
 2481SOL     OW 8341   2.937   0.227   2.479
 2481SOL    HW1 8342   3.015   0.167   2.462
 2481SOL    HW2 8343   2.958   0.320   2.447
 2482SOL     OW 8344   0.184   3.087   6.884
 2482SOL    HW1 8345   0.199   3.183   6.904
 2482SOL    HW2 8346   0.269   3.036   6.895
 2483SOL     OW 8347   2.782   1.694   0.980
 2483SOL    HW1 8348   2.715   1.749   0.931
 2483SOL    HW2 8349   2.872   1.706   0.939
 2484SOL     OW 8350   4.384   1.164   6.020
 2484SOL    HW1 8351   4.420   1.071   6.030
 2484SOL    HW2 8352   4.336   1.172   5.933
 2485SOL     OW 8353   0.621   1.400   6.965
 2485SOL    HW1 8354   0.675   1.359   0.019
 2485SOL    HW2 8355   0.624   1.500   6.974
 2486SOL     OW 8356   6.414   5.815   2.571
 2486SOL    HW1 8357   6.380   5.888   2.630
 2486SOL    HW2 8358   6.437   5.735   2.627
 2487SOL     OW 8359   3.997   6.567   6.768
 2487SOL    HW1 8360   3.909   6.588   6.727
 2487SOL    HW2 8361   3.984   6.544   6.865
 2488SOL     OW 8362   0.551   3.716   0.530
 2488SOL    HW1 8363   0.608   3.675   0.601
 2488SOL    HW2 8364   0.486   3.780   0.572
 2489SOL     OW 8365   5.961   5.811   4.650
 2489SOL    HW1 8366   6.014   5.859   4.720
 2489SOL    HW2 8367   5.964   5.713   4.666
 2490SOL     OW 8368   3.315   5.869   2.569
 2490SOL    HW1 8369   3.261   5.950   2.591
 2490SOL    HW2 8370   3.408   5.880   2.604
 2491SOL     OW 8371   3.964   4.408   1.669
 2491SOL    HW1 8372   3.881   4.463   1.663
 2491SOL    HW2 8373   3.940   4.311   1.665
 2492SOL     OW 8374   6.819   4.613   2.170
 2492SOL    HW1 8375   6.799   4.707   2.196
 2492SOL    HW2 8376   6.870   4.612   2.084
 2493SOL     OW 8377   5.960   6.413   0.529
 2493SOL    HW1 8378   5.903   6.334   0.507
 2493SOL    HW2 8379   6.056   6.392   0.511
 2494SOL     OW 8380   6.978   3.646   1.562
 2494SOL    HW1 8381   6.979   3.711   1.638
 2494SOL    HW2 8382   6.904   3.581   1.576
 2495SOL     OW 8383   6.881   2.952   2.306
 2495SOL    HW1 8384   6.820   2.908   2.240
 2495SOL    HW2 8385   6.911   2.885   2.373
 2496SOL     OW 8386   5.025   3.809   5.552
 2496SOL    HW1 8387   5.021   3.846   5.459
 2496SOL    HW2 8388   5.033   3.884   5.617
 2497SOL     OW 8389   0.655   0.121   3.797
 2497SOL    HW1 8390   0.557   0.120   3.776
 2497SOL    HW2 8391   0.668   0.150   3.892
 2498SOL     OW 8392   2.230   3.142   4.500
 2498SOL    HW1 8393   2.158   3.210   4.486
 2498SOL    HW2 8394   2.309   3.164   4.442
 2499SOL     OW 8395   5.774   3.038   1.084
 2499SOL    HW1 8396   5.735   2.949   1.060
 2499SOL    HW2 8397   5.827   3.073   1.007
 2500SOL     OW 8398   3.886   3.937   2.657
 2500SOL    HW1 8399   3.860   3.896   2.744
 2500SOL    HW2 8400   3.803   3.960   2.605
 2501SOL     OW 8401   6.332   5.157   4.149
 2501SOL    HW1 8402   6.373   5.227   4.090
 2501SOL    HW2 8403   6.404   5.100   4.188
 2502SOL     OW 8404   2.339   6.027   3.428
 2502SOL    HW1 8405   2.417   6.085   3.453
 2502SOL    HW2 8406   2.278   6.078   3.367
 2503SOL     OW 8407   2.236   7.006   5.348
 2503SOL    HW1 8408   2.227   0.074   5.299
 2503SOL    HW2 8409   2.209   6.931   5.287
 2504SOL     OW 8410   4.024   1.232   3.149
 2504SOL    HW1 8411   3.979   1.279   3.072
 2504SOL    HW2 8412   4.030   1.294   3.227
 2505SOL     OW 8413   5.617   4.532   4.552
 2505SOL    HW1 8414   5.549   4.459   4.564
 2505SOL    HW2 8415   5.665   4.518   4.465
 2506SOL     OW 8416   6.116   4.714   6.510
 2506SOL    HW1 8417   6.140   4.622   6.479
 2506SOL    HW2 8418   6.017   4.725   6.508
 2507SOL     OW 8419   5.836   3.576   3.736
 2507SOL    HW1 8420   5.737   3.588   3.724
 2507SOL    HW2 8421   5.885   3.628   3.666
 2508SOL     OW 8422   5.578   0.722   4.101
 2508SOL    HW1 8423   5.558   0.707   4.004
 2508SOL    HW2 8424   5.601   0.635   4.144
 2509SOL     OW 8425   0.098   3.591   5.943
 2509SOL    HW1 8426   0.179   3.582   5.885
 2509SOL    HW2 8427   0.023   3.537   5.905
 2510SOL     OW 8428   3.387   4.088   2.288
 2510SOL    HW1 8429   3.299   4.065   2.246
 2510SOL    HW2 8430   3.448   4.129   2.220
 2511SOL     OW 8431   2.175   0.899   4.415
 2511SOL    HW1 8432   2.116   0.947   4.479
 2511SOL    HW2 8433   2.165   0.938   4.324
 2512SOL     OW 8434   2.961   4.810   3.672
 2512SOL    HW1 8435   3.046   4.799   3.723
 2512SOL    HW2 8436   2.915   4.894   3.703
 2513SOL     OW 8437   1.968   5.518   6.452
 2513SOL    HW1 8438   2.017   5.431   6.459
 2513SOL    HW2 8439   1.872   5.500   6.431
 2514SOL     OW 8440   0.928   2.785   2.532
 2514SOL    HW1 8441   0.920   2.811   2.436
 2514SOL    HW2 8442   1.011   2.824   2.571
 2515SOL     OW 8443   0.258   1.865   0.976
 2515SOL    HW1 8444   0.319   1.854   1.054
 2515SOL    HW2 8445   0.306   1.840   0.892
 2516SOL     OW 8446   6.925   2.412   4.584
 2516SOL    HW1 8447   6.980   2.492   4.608
 2516SOL    HW2 8448   6.846   2.407   4.645
 2517SOL     OW 8449   0.275   1.571   4.489
 2517SOL    HW1 8450   0.261   1.596   4.393
 2517SOL    HW2 8451   0.223   1.633   4.548
 2518SOL     OW 8452   3.181   3.434   0.828
 2518SOL    HW1 8453   3.084   3.430   0.850
 2518SOL    HW2 8454   3.234   3.456   0.910
 2519SOL     OW 8455   1.319   1.115   0.165
 2519SOL    HW1 8456   1.251   1.053   0.124
 2519SOL    HW2 8457   1.272   1.188   0.214
 2520SOL     OW 8458   2.992   2.858   1.226
 2520SOL    HW1 8459   2.987   2.833   1.130
 2520SOL    HW2 8460   2.905   2.899   1.254
 2521SOL     OW 8461   5.753   1.449   4.849
 2521SOL    HW1 8462   5.762   1.502   4.765
 2521SOL    HW2 8463   5.709   1.361   4.829
 2522SOL     OW 8464   2.004   2.163   0.515
 2522SOL    HW1 8465   2.051   2.094   0.459
 2522SOL    HW2 8466   2.029   2.254   0.482
 2523SOL     OW 8467   0.986   5.457   5.329
 2523SOL    HW1 8468   0.975   5.538   5.272
 2523SOL    HW2 8469   0.912   5.393   5.311
 2524SOL     OW 8470   0.867   2.398   4.711
 2524SOL    HW1 8471   0.833   2.489   4.691
 2524SOL    HW2 8472   0.966   2.396   4.699
 2525SOL     OW 8473   6.435   2.849   6.424
 2525SOL    HW1 8474   6.398   2.896   6.344
 2525SOL    HW2 8475   6.501   2.908   6.469
 2526SOL     OW 8476   2.433   1.201   1.091
 2526SOL    HW1 8477   2.506   1.157   1.143
 2526SOL    HW2 8478   2.454   1.298   1.078
 2527SOL     OW 8479   4.106   5.344   0.313
 2527SOL    HW1 8480   4.149   5.347   0.223
 2527SOL    HW2 8481   4.176   5.357   0.384
 2528SOL     OW 8482   4.598   5.574   6.594
 2528SOL    HW1 8483   4.646   5.637   6.655
 2528SOL    HW2 8484   4.556   5.625   6.519
 2529SOL     OW 8485   6.975   6.091   5.836
 2529SOL    HW1 8486   0.041   6.038   5.828
 2529SOL    HW2 8487   6.998   6.186   5.859
 2530SOL     OW 8488   2.043   5.923   6.729
 2530SOL    HW1 8489   1.981   5.896   6.803
 2530SOL    HW2 8490   2.111   5.987   6.764
 2531SOL     OW 8491   0.221   3.925   6.203
 2531SOL    HW1 8492   0.260   3.834   6.192
 2531SOL    HW2 8493   0.155   3.941   6.129
 2532SOL     OW 8494   5.136   6.228   3.376
 2532SOL    HW1 8495   5.043   6.205   3.405
 2532SOL    HW2 8496   5.177   6.148   3.332
 2533SOL     OW 8497   4.703   0.669   4.039
 2533SOL    HW1 8498   4.735   0.691   4.131
 2533SOL    HW2 8499   4.633   0.598   4.044
 2534SOL     OW 8500   4.342   1.598   2.587
 2534SOL    HW1 8501   4.385   1.526   2.641
 2534SOL    HW2 8502   4.394   1.612   2.502
 2535SOL     OW 8503   3.575   2.885   6.328
 2535SOL    HW1 8504   3.617   2.843   6.247
 2535SOL    HW2 8505   3.476   2.886   6.316
 2536SOL     OW 8506   0.932   0.421   0.876
 2536SOL    HW1 8507   0.870   0.425   0.954
 2536SOL    HW2 8508   1.023   0.454   0.903
 2537SOL     OW 8509   4.374   6.601   4.892
 2537SOL    HW1 8510   4.451   6.661   4.916
 2537SOL    HW2 8511   4.369   6.592   4.793
 2538SOL     OW 8512   5.987   3.963   3.903
 2538SOL    HW1 8513   5.893   3.996   3.894
 2538SOL    HW2 8514   6.002   3.932   3.997
 2539SOL     OW 8515   5.253   2.112   4.857
 2539SOL    HW1 8516   5.234   2.046   4.785
 2539SOL    HW2 8517   5.242   2.068   4.946
 2540SOL     OW 8518   2.443   2.447   1.599
 2540SOL    HW1 8519   2.498   2.530   1.590
 2540SOL    HW2 8520   2.455   2.389   1.519
 2541SOL     OW 8521   2.897   0.027   4.364
 2541SOL    HW1 8522   2.935   0.089   4.295
 2541SOL    HW2 8523   2.971   6.990   4.402
 2542SOL     OW 8524   1.771   5.541   6.027
 2542SOL    HW1 8525   1.698   5.499   6.081
 2542SOL    HW2 8526   1.796   5.479   5.952
 2543SOL     OW 8527   1.086   0.915   3.826
 2543SOL    HW1 8528   1.041   0.828   3.845
 2543SOL    HW2 8529   1.184   0.902   3.820
 2544SOL     OW 8530   0.871   5.968   6.277
 2544SOL    HW1 8531   0.923   5.887   6.251
 2544SOL    HW2 8532   0.818   5.949   6.360
 2545SOL     OW 8533   2.793   6.543   2.777
 2545SOL    HW1 8534   2.784   6.531   2.678
 2545SOL    HW2 8535   2.763   6.460   2.823
 2546SOL     OW 8536   7.000   1.135   1.975
 2546SOL    HW1 8537   6.952   1.161   1.892
 2546SOL    HW2 8538   0.065   1.087   1.952
 2547SOL     OW 8539   0.164   4.148   4.934
 2547SOL    HW1 8540   0.194   4.079   4.999
 2547SOL    HW2 8541   0.120   4.223   4.982
 2548SOL     OW 8542   6.902   0.812   5.888
 2548SOL    HW1 8543   6.804   0.807   5.904
 2548SOL    HW2 8544   6.931   0.907   5.890
 2549SOL     OW 8545   5.457   2.058   3.174
 2549SOL    HW1 8546   5.384   2.126   3.170
 2549SOL    HW2 8547   5.436   1.982   3.112
 2550SOL     OW 8548   5.404   4.974   0.136
 2550SOL    HW1 8549   5.378   5.039   0.065
 2550SOL    HW2 8550   5.453   4.897   0.095
 2551SOL     OW 8551   1.147   4.407   6.102
 2551SOL    HW1 8552   1.186   4.456   6.180
 2551SOL    HW2 8553   1.085   4.336   6.134
 2552SOL     OW 8554   1.565   6.019   3.321
 2552SOL    HW1 8555   1.561   6.047   3.416
 2552SOL    HW2 8556   1.562   5.919   3.315
 2553SOL     OW 8557   4.624   2.835   0.533
 2553SOL    HW1 8558   4.555   2.855   0.603
 2553SOL    HW2 8559   4.581   2.842   0.442
 2554SOL     OW 8560   0.966   1.792   0.785
 2554SOL    HW1 8561   0.876   1.768   0.821
 2554SOL    HW2 8562   1.003   1.714   0.733
 2555SOL     OW 8563   0.165   0.106   6.014
 2555SOL    HW1 8564   0.231   0.149   6.075
 2555SOL    HW2 8565   0.209   0.031   5.965
 2556SOL     OW 8566   4.357   5.254   0.007
 2556SOL    HW1 8567   4.276   5.213   6.984
 2556SOL    HW2 8568   4.438   5.200   7.001
 2557SOL     OW 8569   2.371   4.752   6.910
 2557SOL    HW1 8570   2.418   4.667   6.934
 2557SOL    HW2 8571   2.288   4.761   6.966
 2558SOL     OW 8572   4.142   0.909   5.245
 2558SOL    HW1 8573   4.203   0.935   5.171
 2558SOL    HW2 8574   4.188   0.842   5.304
 2559SOL     OW 8575   0.212   4.969   5.121
 2559SOL    HW1 8576   0.268   5.003   5.197
 2559SOL    HW2 8577   0.238   5.017   5.037
 2560SOL     OW 8578   6.654   0.470   0.446
 2560SOL    HW1 8579   6.597   0.530   0.502
 2560SOL    HW2 8580   6.741   0.516   0.425
 2561SOL     OW 8581   2.998   5.960   4.314
 2561SOL    HW1 8582   3.045   5.872   4.304
 2561SOL    HW2 8583   3.019   6.017   4.235
 2562SOL     OW 8584   2.201   3.866   0.255
 2562SOL    HW1 8585   2.122   3.927   0.253
 2562SOL    HW2 8586   2.274   3.903   0.198
 2563SOL     OW 8587   1.556   0.597   1.667
 2563SOL    HW1 8588   1.599   0.679   1.629
 2563SOL    HW2 8589   1.497   0.623   1.744
 2564SOL     OW 8590   1.560   6.274   2.111
 2564SOL    HW1 8591   1.660   6.281   2.113
 2564SOL    HW2 8592   1.531   6.200   2.173
 2565SOL     OW 8593   1.467   1.147   1.085
 2565SOL    HW1 8594   1.395   1.197   1.133
 2565SOL    HW2 8595   1.487   1.193   0.998
 2566SOL     OW 8596   2.470   6.291   5.111
 2566SOL    HW1 8597   2.410   6.305   5.190
 2566SOL    HW2 8598   2.512   6.200   5.117
 2567SOL     OW 8599   1.280   0.780   0.356
 2567SOL    HW1 8600   1.209   0.793   0.425
 2567SOL    HW2 8601   1.279   0.686   0.323
 2568SOL     OW 8602   5.751   3.736   0.241
 2568SOL    HW1 8603   5.836   3.751   0.191
 2568SOL    HW2 8604   5.736   3.637   0.251
 2569SOL     OW 8605   2.486   0.970   2.171
 2569SOL    HW1 8606   2.571   1.015   2.198
 2569SOL    HW2 8607   2.410   1.012   2.219
 2570SOL     OW 8608   6.381   2.451   6.249
 2570SOL    HW1 8609   6.284   2.473   6.261
 2570SOL    HW2 8610   6.434   2.492   6.323
 2571SOL     OW 8611   1.162   4.100   4.053
 2571SOL    HW1 8612   1.226   4.100   3.976
 2571SOL    HW2 8613   1.085   4.161   4.032
 2572SOL     OW 8614   1.340   4.991   3.279
 2572SOL    HW1 8615   1.357   4.948   3.190
 2572SOL    HW2 8616   1.378   4.934   3.351
 2573SOL     OW 8617   1.261   0.547   0.242
 2573SOL    HW1 8618   1.164   0.525   0.256
 2573SOL    HW2 8619   1.313   0.462   0.232
 2574SOL     OW 8620   6.771   3.489   1.597
 2574SOL    HW1 8621   6.733   3.467   1.507
 2574SOL    HW2 8622   6.708   3.549   1.647
 2575SOL     OW 8623   1.016   0.217   4.997
 2575SOL    HW1 8624   1.003   0.216   5.096
 2575SOL    HW2 8625   1.036   0.125   4.965
 2576SOL     OW 8626   4.227   6.310   5.835
 2576SOL    HW1 8627   4.306   6.308   5.773
 2576SOL    HW2 8628   4.212   6.404   5.867
 2577SOL     OW 8629   1.838   3.901   2.481
 2577SOL    HW1 8630   1.918   3.866   2.530
 2577SOL    HW2 8631   1.864   3.984   2.431
 2578SOL     OW 8632   3.946   1.415   2.026
 2578SOL    HW1 8633   3.985   1.404   1.934
 2578SOL    HW2 8634   4.011   1.465   2.084
 2579SOL     OW 8635   0.344   6.382   2.919
 2579SOL    HW1 8636   0.368   6.403   3.014
 2579SOL    HW2 8637   0.348   6.466   2.864
 2580SOL     OW 8638   2.852   2.155   5.391
 2580SOL    HW1 8639   2.795   2.159   5.474
 2580SOL    HW2 8640   2.807   2.097   5.323
 2581SOL     OW 8641   3.696   0.510   5.678
 2581SOL    HW1 8642   3.627   0.492   5.748
 2581SOL    HW2 8643   3.715   0.608   5.674
 2582SOL     OW 8644   0.340   3.505   0.575
 2582SOL    HW1 8645   0.412   3.564   0.538
 2582SOL    HW2 8646   0.330   3.424   0.517
 2583SOL     OW 8647   5.205   0.983   0.924
 2583SOL    HW1 8648   5.152   0.905   0.891
 2583SOL    HW2 8649   5.285   0.996   0.864
 2584SOL     OW 8650   3.243   4.448   6.597
 2584SOL    HW1 8651   3.278   4.365   6.639
 2584SOL    HW2 8652   3.306   4.480   6.526
 2585SOL     OW 8653   2.073   5.245   0.191
 2585SOL    HW1 8654   2.105   5.258   0.285
 2585SOL    HW2 8655   2.139   5.188   0.141
 2586SOL     OW 8656   1.887   1.332   2.895
 2586SOL    HW1 8657   1.844   1.261   2.952
 2586SOL    HW2 8658   1.816   1.395   2.863
 2587SOL     OW 8659   6.026   0.944   4.169
 2587SOL    HW1 8660   6.031   0.871   4.238
 2587SOL    HW2 8661   6.001   0.905   4.081
 2588SOL     OW 8662   5.012   1.896   6.400
 2588SOL    HW1 8663   5.003   1.859   6.307
 2588SOL    HW2 8664   4.938   1.861   6.457
 2589SOL     OW 8665   1.277   5.806   0.521
 2589SOL    HW1 8666   1.298   5.885   0.579
 2589SOL    HW2 8667   1.206   5.832   0.455
 2590SOL     OW 8668   2.552   4.977   0.642
 2590SOL    HW1 8669   2.475   5.018   0.690
 2590SOL    HW2 8670   2.521   4.896   0.592
 2591SOL     OW 8671   4.893   6.252   3.175
 2591SOL    HW1 8672   4.865   6.348   3.168
 2591SOL    HW2 8673   4.898   6.225   3.271
 2592SOL     OW 8674   3.320   3.513   0.582
 2592SOL    HW1 8675   3.270   3.520   0.668
 2592SOL    HW2 8676   3.352   3.604   0.555
 2593SOL     OW 8677   2.652   4.539   6.277
 2593SOL    HW1 8678   2.726   4.601   6.253
 2593SOL    HW2 8679   2.614   4.498   6.194
 2594SOL     OW 8680   2.290   2.996   3.248
 2594SOL    HW1 8681   2.308   2.967   3.154
 2594SOL    HW2 8682   2.312   2.921   3.310
 2595SOL     OW 8683   1.403   0.850   2.864
 2595SOL    HW1 8684   1.360   0.809   2.944
 2595SOL    HW2 8685   1.422   0.946   2.881
 2596SOL     OW 8686   6.947   0.979   1.185
 2596SOL    HW1 8687   6.974   1.069   1.152
 2596SOL    HW2 8688   0.009   0.921   1.193
 2597SOL     OW 8689   6.241   6.099   0.637
 2597SOL    HW1 8690   6.310   6.118   0.567
 2597SOL    HW2 8691   6.199   6.010   0.619
 2598SOL     OW 8692   4.779   2.787   2.017
 2598SOL    HW1 8693   4.764   2.879   2.053
 2598SOL    HW2 8694   4.776   2.791   1.917
 2599SOL     OW 8695   2.390   5.581   1.713
 2599SOL    HW1 8696   2.404   5.645   1.788
 2599SOL    HW2 8697   2.303   5.601   1.668
 2600SOL     OW 8698   5.597   5.524   4.164
 2600SOL    HW1 8699   5.536   5.583   4.110
 2600SOL    HW2 8700   5.629   5.448   4.107
 2601SOL     OW 8701   6.874   1.449   3.424
 2601SOL    HW1 8702   6.942   1.457   3.351
 2601SOL    HW2 8703   6.809   1.525   3.418
 2602SOL     OW 8704   1.785   4.678   3.330
 2602SOL    HW1 8705   1.737   4.654   3.414
 2602SOL    HW2 8706   1.806   4.595   3.279
 2603SOL     OW 8707   1.330   5.885   1.540
 2603SOL    HW1 8708   1.246   5.885   1.594
 2603SOL    HW2 8709   1.344   5.795   1.500
 2604SOL     OW 8710   5.059   3.423   3.030
 2604SOL    HW1 8711   5.020   3.359   2.965
 2604SOL    HW2 8712   5.003   3.425   3.113
 2605SOL     OW 8713   1.212   2.086   0.924
 2605SOL    HW1 8714   1.248   2.161   0.868
 2605SOL    HW2 8715   1.244   1.999   0.886
 2606SOL     OW 8716   5.266   3.630   1.014
 2606SOL    HW1 8717   5.342   3.610   1.076
 2606SOL    HW2 8718   5.226   3.718   1.039
 2607SOL     OW 8719   2.471   2.825   1.778
 2607SOL    HW1 8720   2.386   2.876   1.769
 2607SOL    HW2 8721   2.467   2.769   1.861
 2608SOL     OW 8722   3.337   4.834   5.135
 2608SOL    HW1 8723   3.277   4.768   5.182
 2608SOL    HW2 8724   3.410   4.862   5.197
 2609SOL     OW 8725   0.278   1.264   1.508
 2609SOL    HW1 8726   0.209   1.336   1.507
 2609SOL    HW2 8727   0.267   1.208   1.590
 2610SOL     OW 8728   1.286   4.700   4.966
 2610SOL    HW1 8729   1.206   4.671   4.914
 2610SOL    HW2 8730   1.310   4.628   5.031
 2611SOL     OW 8731   5.391   2.336   5.322
 2611SOL    HW1 8732   5.450   2.261   5.293
 2611SOL    HW2 8733   5.296   2.309   5.312
 2612SOL     OW 8734   6.494   5.836   0.346
 2612SOL    HW1 8735   6.557   5.851   0.270
 2612SOL    HW2 8736   6.436   5.757   0.326
 2613SOL     OW 8737   2.037   0.209   0.625
 2613SOL    HW1 8738   1.951   0.189   0.672
 2613SOL    HW2 8739   2.031   0.177   0.531
 2614SOL     OW 8740   6.365   1.860   0.641
 2614SOL    HW1 8741   6.380   1.944   0.692
 2614SOL    HW2 8742   6.448   1.837   0.590
 2615SOL     OW 8743   1.364   3.004   6.870
 2615SOL    HW1 8744   1.401   3.085   6.826
 2615SOL    HW2 8745   1.265   3.000   6.856
 2616SOL     OW 8746   1.172   1.691   5.392
 2616SOL    HW1 8747   1.176   1.713   5.295
 2616SOL    HW2 8748   1.142   1.771   5.444
 2617SOL     OW 8749   5.842   0.330   6.960
 2617SOL    HW1 8750   5.784   0.268   6.907
 2617SOL    HW2 8751   5.786   0.384   0.003
 2618SOL     OW 8752   1.830   0.128   0.219
 2618SOL    HW1 8753   1.850   0.092   0.128
 2618SOL    HW2 8754   1.778   0.213   0.212
 2619SOL     OW 8755   4.331   0.866   2.831
 2619SOL    HW1 8756   4.240   0.900   2.808
 2619SOL    HW2 8757   4.359   0.903   2.919
 2620SOL     OW 8758   5.748   2.524   2.001
 2620SOL    HW1 8759   5.796   2.539   2.088
 2620SOL    HW2 8760   5.667   2.582   1.997
 2621SOL     OW 8761   2.506   6.226   0.899
 2621SOL    HW1 8762   2.431   6.252   0.838
 2621SOL    HW2 8763   2.567   6.162   0.851
 2622SOL     OW 8764   2.134   3.317   6.947
 2622SOL    HW1 8765   2.222   3.352   6.916
 2622SOL    HW2 8766   2.075   3.393   6.974
 2623SOL     OW 8767   0.244   1.907   4.018
 2623SOL    HW1 8768   0.224   2.000   3.986
 2623SOL    HW2 8769   0.173   1.878   4.082
 2624SOL     OW 8770   1.589   1.028   5.532
 2624SOL    HW1 8771   1.590   1.114   5.584
 2624SOL    HW2 8772   1.551   1.044   5.441
 2625SOL     OW 8773   2.985   5.267   6.253
 2625SOL    HW1 8774   2.934   5.249   6.169
 2625SOL    HW2 8775   2.921   5.277   6.329
 2626SOL     OW 8776   6.779   6.729   0.501
 2626SOL    HW1 8777   6.755   6.632   0.510
 2626SOL    HW2 8778   6.879   6.738   0.500
 2627SOL     OW 8779   2.342   0.197   5.736
 2627SOL    HW1 8780   2.441   0.204   5.721
 2627SOL    HW2 8781   2.301   0.287   5.726
 2628SOL     OW 8782   6.810   5.568   1.651
 2628SOL    HW1 8783   6.856   5.655   1.671
 2628SOL    HW2 8784   6.713   5.575   1.673
 2629SOL     OW 8785   3.307   3.597   2.393
 2629SOL    HW1 8786   3.304   3.569   2.297
 2629SOL    HW2 8787   3.400   3.622   2.418
 2630SOL     OW 8788   2.997   1.453   4.860
 2630SOL    HW1 8789   3.028   1.362   4.836
 2630SOL    HW2 8790   2.963   1.500   4.778
 2631SOL     OW 8791   5.402   5.504   0.372
 2631SOL    HW1 8792   5.336   5.439   0.409
 2631SOL    HW2 8793   5.420   5.575   0.440
 2632SOL     OW 8794   4.471   5.283   2.202
 2632SOL    HW1 8795   4.433   5.198   2.166
 2632SOL    HW2 8796   4.565   5.267   2.233
 2633SOL     OW 8797   6.738   2.920   6.100
 2633SOL    HW1 8798   6.757   3.017   6.085
 2633SOL    HW2 8799   6.742   2.871   6.013
 2634SOL     OW 8800   2.119   1.770   6.152
 2634SOL    HW1 8801   2.071   1.711   6.217
 2634SOL    HW2 8802   2.193   1.718   6.109
 2635SOL     OW 8803   4.176   5.666   3.316
 2635SOL    HW1 8804   4.078   5.675   3.301
 2635SOL    HW2 8805   4.222   5.651   3.228
 2636SOL     OW 8806   3.228   6.969   5.934
 2636SOL    HW1 8807   3.257   6.974   5.838
 2636SOL    HW2 8808   3.288   6.906   5.984
 2637SOL     OW 8809   6.559   1.172   3.007
 2637SOL    HW1 8810   6.634   1.172   2.940
 2637SOL    HW2 8811   6.514   1.261   3.007
 2638SOL     OW 8812   0.292   6.366   4.976
 2638SOL    HW1 8813   0.361   6.391   4.907
 2638SOL    HW2 8814   0.313   6.276   5.013
 2639SOL     OW 8815   5.197   5.403   4.979
 2639SOL    HW1 8816   5.103   5.380   5.003
 2639SOL    HW2 8817   5.203   5.501   4.958
 2640SOL     OW 8818   1.961   0.670   2.899
 2640SOL    HW1 8819   1.890   0.729   2.938
 2640SOL    HW2 8820   2.029   0.648   2.969
 2641SOL     OW 8821   5.479   2.328   0.929
 2641SOL    HW1 8822   5.571   2.290   0.924
 2641SOL    HW2 8823   5.414   2.255   0.950
 2642SOL     OW 8824   0.016   0.704   2.931
 2642SOL    HW1 8825   0.058   0.786   2.969
 2642SOL    HW2 8826   6.939   0.723   2.910
 2643SOL     OW 8827   1.565   4.839   4.451
 2643SOL    HW1 8828   1.645   4.872   4.501
 2643SOL    HW2 8829   1.546   4.900   4.374
 2644SOL     OW 8830   5.437   5.368   3.591
 2644SOL    HW1 8831   5.523   5.402   3.627
 2644SOL    HW2 8832   5.361   5.406   3.643
 2645SOL     OW 8833   4.542   5.508   2.657
 2645SOL    HW1 8834   4.481   5.556   2.720
 2645SOL    HW2 8835   4.537   5.410   2.675
 2646SOL     OW 8836   1.400   1.368   6.732
 2646SOL    HW1 8837   1.344   1.368   6.649
 2646SOL    HW2 8838   1.346   1.405   6.808
 2647SOL     OW 8839   4.339   0.297   2.814
 2647SOL    HW1 8840   4.308   0.205   2.839
 2647SOL    HW2 8841   4.262   0.360   2.816
 2648SOL     OW 8842   2.028   0.493   5.931
 2648SOL    HW1 8843   1.967   0.566   5.962
 2648SOL    HW2 8844   1.979   0.406   5.932
 2649SOL     OW 8845   5.543   1.834   3.753
 2649SOL    HW1 8846   5.483   1.775   3.808
 2649SOL    HW2 8847   5.533   1.810   3.657
 2650SOL     OW 8848   1.791   6.638   4.439
 2650SOL    HW1 8849   1.871   6.609   4.387
 2650SOL    HW2 8850   1.734   6.697   4.383
 2651SOL     OW 8851   3.232   1.819   2.794
 2651SOL    HW1 8852   3.198   1.872   2.716
 2651SOL    HW2 8853   3.331   1.833   2.802
 2652SOL     OW 8854   4.243   3.398   6.149
 2652SOL    HW1 8855   4.283   3.374   6.061
 2652SOL    HW2 8856   4.143   3.400   6.140
 2653SOL     OW 8857   2.295   6.694   0.277
 2653SOL    HW1 8858   2.303   6.693   0.377
 2653SOL    HW2 8859   2.382   6.723   0.238
 2654SOL     OW 8860   6.577   0.034   1.192
 2654SOL    HW1 8861   6.484   0.021   1.157
 2654SOL    HW2 8862   6.628   6.968   1.184
 2655SOL     OW 8863   5.606   6.454   3.816
 2655SOL    HW1 8864   5.704   6.469   3.815
 2655SOL    HW2 8865   5.559   6.542   3.804
 2656SOL     OW 8866   5.189   0.242   4.892
 2656SOL    HW1 8867   5.287   0.262   4.886
 2656SOL    HW2 8868   5.175   0.143   4.888
 2657SOL     OW 8869   1.661   3.390   5.541
 2657SOL    HW1 8870   1.716   3.392   5.625
 2657SOL    HW2 8871   1.679   3.306   5.491
 2658SOL     OW 8872   3.319   4.214   0.701
 2658SOL    HW1 8873   3.338   4.117   0.692
 2658SOL    HW2 8874   3.382   4.256   0.767
 2659SOL     OW 8875   0.465   2.099   5.595
 2659SOL    HW1 8876   0.466   2.198   5.583
 2659SOL    HW2 8877   0.397   2.058   5.534
 2660SOL     OW 8878   1.069   1.566   0.383
 2660SOL    HW1 8879   1.155   1.601   0.420
 2660SOL    HW2 8880   1.014   1.643   0.349
 2661SOL     OW 8881   2.173   1.130   1.873
 2661SOL    HW1 8882   2.257   1.135   1.927
 2661SOL    HW2 8883   2.093   1.132   1.934
 2662SOL     OW 8884   2.994   1.359   1.239
 2662SOL    HW1 8885   2.899   1.382   1.261
 2662SOL    HW2 8886   2.995   1.299   1.159
 2663SOL     OW 8887   3.707   0.190   1.001
 2663SOL    HW1 8888   3.683   0.133   0.923
 2663SOL    HW2 8889   3.690   0.286   0.979
 2664SOL     OW 8890   4.599   3.185   5.584
 2664SOL    HW1 8891   4.526   3.220   5.643
 2664SOL    HW2 8892   4.589   3.224   5.492
 2665SOL     OW 8893   1.284   3.589   4.465
 2665SOL    HW1 8894   1.200   3.597   4.413
 2665SOL    HW2 8895   1.356   3.644   4.422
 2666SOL     OW 8896   1.880   3.550   1.870
 2666SOL    HW1 8897   1.886   3.568   1.772
 2666SOL    HW2 8898   1.859   3.634   1.919
 2667SOL     OW 8899   6.227   2.415   4.454
 2667SOL    HW1 8900   6.287   2.491   4.481
 2667SOL    HW2 8901   6.140   2.423   4.501
 2668SOL     OW 8902   6.251   0.654   3.576
 2668SOL    HW1 8903   6.179   0.683   3.638
 2668SOL    HW2 8904   6.274   0.558   3.593
 2669SOL     OW 8905   2.551   1.965   1.847
 2669SOL    HW1 8906   2.550   1.948   1.946
 2669SOL    HW2 8907   2.500   2.049   1.828
 2670SOL     OW 8908   0.390   6.860   1.587
 2670SOL    HW1 8909   0.466   6.797   1.601
 2670SOL    HW2 8910   0.420   6.953   1.609
 2671SOL     OW 8911   4.965   4.011   6.404
 2671SOL    HW1 8912   4.980   3.935   6.340
 2671SOL    HW2 8913   4.893   4.071   6.367
 2672SOL     OW 8914   1.856   1.107   2.450
 2672SOL    HW1 8915   1.831   1.053   2.530
 2672SOL    HW2 8916   1.869   1.047   2.371
 2673SOL     OW 8917   3.079   0.771   3.817
 2673SOL    HW1 8918   2.980   0.771   3.829
 2673SOL    HW2 8919   3.102   0.805   3.725
 2674SOL     OW 8920   5.260   5.922   2.825
 2674SOL    HW1 8921   5.184   5.863   2.798
 2674SOL    HW2 8922   5.302   5.961   2.743
 2675SOL     OW 8923   4.845   1.137   3.808
 2675SOL    HW1 8924   4.784   1.187   3.747
 2675SOL    HW2 8925   4.795   1.063   3.852
 2676SOL     OW 8926   3.708   3.666   5.355
 2676SOL    HW1 8927   3.626   3.639   5.404
 2676SOL    HW2 8928   3.698   3.645   5.258
 2677SOL     OW 8929   1.670   5.288   1.345
 2677SOL    HW1 8930   1.588   5.324   1.301
 2677SOL    HW2 8931   1.698   5.349   1.419
 2678SOL     OW 8932   3.509   1.930   1.856
 2678SOL    HW1 8933   3.560   1.924   1.941
 2678SOL    HW2 8934   3.421   1.883   1.865
 2679SOL     OW 8935   2.232   4.448   2.720
 2679SOL    HW1 8936   2.142   4.478   2.687
 2679SOL    HW2 8937   2.300   4.517   2.695
 2680SOL     OW 8938   6.104   1.761   6.670
 2680SOL    HW1 8939   6.051   1.818   6.608
 2680SOL    HW2 8940   6.049   1.741   6.751
 2681SOL     OW 8941   2.266   2.890   3.002
 2681SOL    HW1 8942   2.273   2.886   2.903
 2681SOL    HW2 8943   2.282   2.799   3.041
 2682SOL     OW 8944   3.696   4.032   2.496
 2682SOL    HW1 8945   3.628   3.965   2.467
 2682SOL    HW2 8946   3.745   4.067   2.416
 2683SOL     OW 8947   1.785   3.082   1.435
 2683SOL    HW1 8948   1.702   3.029   1.454
 2683SOL    HW2 8949   1.759   3.174   1.404
 2684SOL     OW 8950   5.554   0.166   3.595
 2684SOL    HW1 8951   5.619   0.158   3.671
 2684SOL    HW2 8952   5.602   0.150   3.509
 2685SOL     OW 8953   1.856   6.828   5.900
 2685SOL    HW1 8954   1.822   6.753   5.956
 2685SOL    HW2 8955   1.924   6.881   5.951
 2686SOL     OW 8956   2.419   2.115   5.679
 2686SOL    HW1 8957   2.378   2.205   5.664
 2686SOL    HW2 8958   2.503   2.126   5.732
 2687SOL     OW 8959   3.756   2.579   1.721
 2687SOL    HW1 8960   3.686   2.649   1.739
 2687SOL    HW2 8961   3.724   2.491   1.756
 2688SOL     OW 8962   4.708   2.077   0.397
 2688SOL    HW1 8963   4.663   2.005   0.451
 2688SOL    HW2 8964   4.649   2.158   0.394
 2689SOL     OW 8965   0.510   3.854   2.069
 2689SOL    HW1 8966   0.472   3.777   2.018
 2689SOL    HW2 8967   0.446   3.931   2.068
 2690SOL     OW 8968   5.419   0.998   4.492
 2690SOL    HW1 8969   5.456   1.009   4.400
 2690SOL    HW2 8970   5.336   0.942   4.489
 2691SOL     OW 8971   5.568   3.647   3.745
 2691SOL    HW1 8972   5.490   3.585   3.735
 2691SOL    HW2 8973   5.540   3.728   3.796
 2692SOL     OW 8974   1.131   5.857   0.925
 2692SOL    HW1 8975   1.204   5.924   0.916
 2692SOL    HW2 8976   1.167   5.773   0.966
 2693SOL     OW 8977   1.199   6.115   2.755
 2693SOL    HW1 8978   1.106   6.082   2.740
 2693SOL    HW2 8979   1.264   6.048   2.720
 2694SOL     OW 8980   2.725   0.698   2.773
 2694SOL    HW1 8981   2.645   0.746   2.738
 2694SOL    HW2 8982   2.754   0.740   2.859
 2695SOL     OW 8983   6.793   6.439   2.797
 2695SOL    HW1 8984   6.839   6.500   2.733
 2695SOL    HW2 8985   6.859   6.376   2.837
 2696SOL     OW 8986   3.584   4.719   5.895
 2696SOL    HW1 8987   3.640   4.660   5.954
 2696SOL    HW2 8988   3.490   4.685   5.894
 2697SOL     OW 8989   4.691   2.719   0.043
 2697SOL    HW1 8990   4.717   2.768   0.127
 2697SOL    HW2 8991   4.594   2.699   0.044
 2698SOL     OW 8992   2.158   5.650   0.646
 2698SOL    HW1 8993   2.093   5.577   0.627
 2698SOL    HW2 8994   2.109   5.736   0.656
 2699SOL     OW 8995   2.833   0.054   2.724
 2699SOL    HW1 8996   2.834   6.984   2.679
 2699SOL    HW2 8997   2.867   0.123   2.661
 2700SOL     OW 8998   5.106   2.010   0.957
 2700SOL    HW1 8999   5.069   1.972   0.872
 2700SOL    HW2 9000   5.031   2.021   1.023
 2701SOL     OW 9001   5.367   4.255   5.452
 2701SOL    HW1 9002   5.461   4.263   5.419
 2701SOL    HW2 9003   5.366   4.203   5.537
 2702SOL     OW 9004   1.602   2.402   5.234
 2702SOL    HW1 9005   1.534   2.335   5.206
 2702SOL    HW2 9006   1.642   2.374   5.322
 2703SOL     OW 9007   2.528   5.918   1.526
 2703SOL    HW1 9008   2.457   5.941   1.592
 2703SOL    HW2 9009   2.523   5.820   1.505
 2704SOL     OW 9010   4.354   0.693   3.415
 2704SOL    HW1 9011   4.302   0.726   3.337
 2704SOL    HW2 9012   4.331   0.747   3.496
 2705SOL     OW 9013   1.203   0.449   5.501
 2705SOL    HW1 9014   1.114   0.411   5.477
 2705SOL    HW2 9015   1.194   0.506   5.583
 2706SOL     OW 9016   0.936   4.931   4.733
 2706SOL    HW1 9017   1.020   4.879   4.722
 2706SOL    HW2 9018   0.862   4.871   4.763
 2707SOL     OW 9019   3.857   0.881   3.080
 2707SOL    HW1 9020   3.888   0.936   3.157
 2707SOL    HW2 9021   3.904   0.793   3.081
 2708SOL     OW 9022   5.398   3.298   5.180
 2708SOL    HW1 9023   5.444   3.287   5.092
 2708SOL    HW2 9024   5.402   3.213   5.231
 2709SOL     OW 9025   4.841   1.316   5.424
 2709SOL    HW1 9026   4.778   1.265   5.482
 2709SOL    HW2 9027   4.794   1.346   5.341
 2710SOL     OW 9028   1.060   2.973   4.113
 2710SOL    HW1 9029   1.045   2.915   4.193
 2710SOL    HW2 9030   1.102   2.920   4.040
 2711SOL     OW 9031   4.583   0.772   1.154
 2711SOL    HW1 9032   4.525   0.812   1.083
 2711SOL    HW2 9033   4.556   0.808   1.243
 2712SOL     OW 9034   4.629   6.389   1.622
 2712SOL    HW1 9035   4.701   6.337   1.575
 2712SOL    HW2 9036   4.552   6.402   1.560
 2713SOL     OW 9037   4.189   4.532   5.395
 2713SOL    HW1 9038   4.251   4.499   5.324
 2713SOL    HW2 9039   4.239   4.592   5.458
 2714SOL     OW 9040   3.325   4.079   5.954
 2714SOL    HW1 9041   3.339   4.111   5.860
 2714SOL    HW2 9042   3.250   4.129   5.995
 2715SOL     OW 9043   4.151   6.789   0.288
 2715SOL    HW1 9044   4.177   6.814   0.195
 2715SOL    HW2 9045   4.101   6.865   0.330
 2716SOL     OW 9046   4.609   0.896   1.910
 2716SOL    HW1 9047   4.626   0.988   1.947
 2716SOL    HW2 9048   4.672   0.831   1.952
 2717SOL     OW 9049   0.297   1.840   1.895
 2717SOL    HW1 9050   0.278   1.757   1.948
 2717SOL    HW2 9051   0.211   1.881   1.866
 2718SOL     OW 9052   6.002   1.233   6.657
 2718SOL    HW1 9053   6.012   1.208   6.754
 2718SOL    HW2 9054   5.976   1.153   6.604
 2719SOL     OW 9055   1.016   4.123   4.375
 2719SOL    HW1 9056   1.011   4.136   4.474
 2719SOL    HW2 9057   1.040   4.210   4.331
 2720SOL     OW 9058   2.006   4.903   6.370
 2720SOL    HW1 9059   1.998   4.804   6.356
 2720SOL    HW2 9060   1.974   4.926   6.462
 2721SOL     OW 9061   2.696   5.914   3.662
 2721SOL    HW1 9062   2.697   5.905   3.761
 2721SOL    HW2 9063   2.604   5.937   3.631
 2722SOL     OW 9064   3.172   4.703   6.684
 2722SOL    HW1 9065   3.228   4.711   6.766
 2722SOL    HW2 9066   3.183   4.612   6.644
 2723SOL     OW 9067   4.805   4.960   0.452
 2723SOL    HW1 9068   4.799   4.860   0.460
 2723SOL    HW2 9069   4.858   4.996   0.529
 2724SOL     OW 9070   0.169   6.023   0.978
 2724SOL    HW1 9071   0.086   6.070   1.008
 2724SOL    HW2 9072   0.186   5.944   1.036
 2725SOL     OW 9073   5.995   4.036   3.114
 2725SOL    HW1 9074   6.006   3.939   3.089
 2725SOL    HW2 9075   5.950   4.085   3.039
 2726SOL     OW 9076   6.390   2.197   2.327
 2726SOL    HW1 9077   6.309   2.224   2.378
 2726SOL    HW2 9078   6.420   2.272   2.268
 2727SOL     OW 9079   1.407   4.788   3.851
 2727SOL    HW1 9080   1.320   4.739   3.840
 2727SOL    HW2 9081   1.479   4.722   3.873
 2728SOL     OW 9082   4.365   4.415   6.546
 2728SOL    HW1 9083   4.267   4.400   6.547
 2728SOL    HW2 9084   4.386   4.508   6.575
 2729SOL     OW 9085   0.426   0.055   0.802
 2729SOL    HW1 9086   0.506   0.037   0.745
 2729SOL    HW2 9087   0.358   7.002   0.786
 2730SOL     OW 9088   1.004   5.396   2.805
 2730SOL    HW1 9089   1.024   5.338   2.884
 2730SOL    HW2 9090   1.020   5.344   2.721
 2731SOL     OW 9091   3.998   3.607   5.371
 2731SOL    HW1 9092   3.976   3.698   5.333
 2731SOL    HW2 9093   4.093   3.607   5.403
 2732SOL     OW 9094   4.635   0.972   2.265
 2732SOL    HW1 9095   4.634   1.023   2.179
 2732SOL    HW2 9096   4.610   0.877   2.248
 2733SOL     OW 9097   0.507   0.412   0.435
 2733SOL    HW1 9098   0.449   0.337   0.402
 2733SOL    HW2 9099   0.547   0.386   0.523
 2734SOL     OW 9100   3.555   0.097   1.998
 2734SOL    HW1 9101   3.634   0.069   1.944
 2734SOL    HW2 9102   3.525   0.188   1.969
 2735SOL     OW 9103   0.739   3.000   3.174
 2735SOL    HW1 9104   0.832   2.966   3.161
 2735SOL    HW2 9105   0.709   2.980   3.267
 2736SOL     OW 9106   5.397   4.421   2.364
 2736SOL    HW1 9107   5.424   4.392   2.456
 2736SOL    HW2 9108   5.315   4.479   2.371
 2737SOL     OW 9109   2.638   0.483   6.203
 2737SOL    HW1 9110   2.713   0.424   6.231
 2737SOL    HW2 9111   2.620   0.471   6.106
 2738SOL     OW 9112   5.208   5.895   1.336
 2738SOL    HW1 9113   5.281   5.896   1.405
 2738SOL    HW2 9114   5.196   5.801   1.302
 2739SOL     OW 9115   0.487   5.374   1.786
 2739SOL    HW1 9116   0.421   5.369   1.860
 2739SOL    HW2 9117   0.574   5.333   1.817
 2740SOL     OW 9118   6.262   5.818   5.086
 2740SOL    HW1 9119   6.237   5.731   5.128
 2740SOL    HW2 9120   6.225   5.893   5.140
 2741SOL     OW 9121   6.893   6.600   0.146
 2741SOL    HW1 9122   6.886   6.543   0.064
 2741SOL    HW2 9123   6.915   6.543   0.225
 2742SOL     OW 9124   2.889   4.914   1.675
 2742SOL    HW1 9125   2.830   4.918   1.755
 2742SOL    HW2 9126   2.908   4.818   1.653
 2743SOL     OW 9127   5.145   2.058   3.403
 2743SOL    HW1 9128   5.201   1.984   3.440
 2743SOL    HW2 9129   5.080   2.021   3.336
 2744SOL     OW 9130   3.289   3.642   2.683
 2744SOL    HW1 9131   3.260   3.735   2.659
 2744SOL    HW2 9132   3.380   3.625   2.646
 2745SOL     OW 9133   0.809   6.219   6.816
 2745SOL    HW1 9134   0.740   6.189   6.881
 2745SOL    HW2 9135   0.882   6.151   6.810
 2746SOL     OW 9136   1.568   0.882   4.296
 2746SOL    HW1 9137   1.667   0.873   4.301
 2746SOL    HW2 9138   1.538   0.960   4.352
 2747SOL     OW 9139   5.274   5.028   0.552
 2747SOL    HW1 9140   5.219   4.945   0.548
 2747SOL    HW2 9141   5.358   5.016   0.498
 2748SOL     OW 9142   4.255   0.345   0.216
 2748SOL    HW1 9143   4.216   0.353   0.308
 2748SOL    HW2 9144   4.250   0.433   0.170
 2749SOL     OW 9145   4.481   1.028   6.739
 2749SOL    HW1 9146   4.539   1.034   6.657
 2749SOL    HW2 9147   4.386   1.012   6.711
 2750SOL     OW 9148   2.034   6.130   1.667
 2750SOL    HW1 9149   1.991   6.057   1.613
 2750SOL    HW2 9150   2.112   6.167   1.617
 2751SOL     OW 9151   6.206   5.777   1.824
 2751SOL    HW1 9152   6.209   5.704   1.755
 2751SOL    HW2 9153   6.299   5.793   1.859
 2752SOL     OW 9154   4.288   5.254   6.674
 2752SOL    HW1 9155   4.238   5.170   6.693
 2752SOL    HW2 9156   4.385   5.242   6.694
 2753SOL     OW 9157   4.387   5.218   5.307
 2753SOL    HW1 9158   4.435   5.234   5.221
 2753SOL    HW2 9159   4.453   5.213   5.382
 2754SOL     OW 9160   0.933   0.913   4.170
 2754SOL    HW1 9161   0.925   0.815   4.151
 2754SOL    HW2 9162   0.893   0.933   4.259
 2755SOL     OW 9163   3.448   0.534   2.061
 2755SOL    HW1 9164   3.364   0.523   2.114
 2755SOL    HW2 9165   3.437   0.607   1.994
 2756SOL     OW 9166   4.675   5.330   5.835
 2756SOL    HW1 9167   4.606   5.272   5.879
 2756SOL    HW2 9168   4.706   5.287   5.750
 2757SOL     OW 9169   1.051   4.709   0.480
 2757SOL    HW1 9170   1.073   4.628   0.426
 2757SOL    HW2 9171   1.078   4.791   0.428
 2758SOL     OW 9172   5.430   0.126   5.843
 2758SOL    HW1 9173   5.392   0.044   5.800
 2758SOL    HW2 9174   5.482   0.178   5.776
 2759SOL     OW 9175   4.417   4.908   3.117
 2759SOL    HW1 9176   4.461   4.990   3.080
 2759SOL    HW2 9177   4.486   4.839   3.138
 2760SOL     OW 9178   0.518   6.688   3.324
 2760SOL    HW1 9179   0.514   6.647   3.233
 2760SOL    HW2 9180   0.594   6.754   3.327
 2761SOL     OW 9181   2.547   4.563   5.203
 2761SOL    HW1 9182   2.623   4.575   5.140
 2761SOL    HW2 9183   2.564   4.614   5.287
 2762SOL     OW 9184   1.727   2.205   5.729
 2762SOL    HW1 9185   1.776   2.177   5.646
 2762SOL    HW2 9186   1.757   2.148   5.806
 2763SOL     OW 9187   5.891   0.502   1.861
 2763SOL    HW1 9188   5.845   0.591   1.859
 2763SOL    HW2 9189   5.922   0.479   1.768
 2764SOL     OW 9190   6.235   0.376   1.102
 2764SOL    HW1 9191   6.306   0.418   1.158
 2764SOL    HW2 9192   6.146   0.386   1.146
 2765SOL     OW 9193   5.152   1.444   3.621
 2765SOL    HW1 9194   5.146   1.536   3.661
 2765SOL    HW2 9195   5.118   1.446   3.527
 2766SOL     OW 9196   4.896   6.434   2.295
 2766SOL    HW1 9197   4.886   6.532   2.275
 2766SOL    HW2 9198   4.993   6.409   2.292
 2767SOL     OW 9199   6.862   4.108   5.136
 2767SOL    HW1 9200   6.864   4.009   5.123
 2767SOL    HW2 9201   6.818   4.130   5.223
 2768SOL     OW 9202   5.558   0.541   5.867
 2768SOL    HW1 9203   5.518   0.626   5.902
 2768SOL    HW2 9204   5.501   0.463   5.896
 2769SOL     OW 9205   1.138   3.941   1.495
 2769SOL    HW1 9206   1.131   4.012   1.565
 2769SOL    HW2 9207   1.073   3.961   1.421
 2770SOL     OW 9208   4.451   6.685   2.450
 2770SOL    HW1 9209   4.358   6.681   2.486
 2770SOL    HW2 9210   4.505   6.610   2.489
 2771SOL     OW 9211   4.288   0.769   1.602
 2771SOL    HW1 9212   4.195   0.761   1.568
 2771SOL    HW2 9213   4.287   0.805   1.695
 2772SOL     OW 9214   3.608   1.011   0.874
 2772SOL    HW1 9215   3.592   0.919   0.909
 2772SOL    HW2 9216   3.568   1.018   0.782
 2773SOL     OW 9217   3.507   4.900   1.456
 2773SOL    HW1 9218   3.415   4.918   1.422
 2773SOL    HW2 9219   3.523   4.801   1.457
 2774SOL     OW 9220   4.913   2.941   1.816
 2774SOL    HW1 9221   4.992   2.938   1.877
 2774SOL    HW2 9222   4.846   3.007   1.851
 2775SOL     OW 9223   0.694   0.183   2.074
 2775SOL    HW1 9224   0.644   0.140   1.998
 2775SOL    HW2 9225   0.638   0.179   2.157
 2776SOL     OW 9226   2.626   5.891   0.080
 2776SOL    HW1 9227   2.602   5.818   0.016
 2776SOL    HW2 9228   2.617   5.980   0.035
 2777SOL     OW 9229   1.206   2.548   4.136
 2777SOL    HW1 9230   1.175   2.456   4.114
 2777SOL    HW2 9231   1.186   2.609   4.059
 2778SOL     OW 9232   3.426   2.281   5.313
 2778SOL    HW1 9233   3.352   2.340   5.281
 2778SOL    HW2 9234   3.420   2.192   5.267
 2779SOL     OW 9235   6.231   0.671   0.558
 2779SOL    HW1 9236   6.290   0.607   0.607
 2779SOL    HW2 9237   6.224   0.644   0.462
 2780SOL     OW 9238   3.281   6.708   6.352
 2780SOL    HW1 9239   3.346   6.759   6.409
 2780SOL    HW2 9240   3.194   6.756   6.350
 2781SOL     OW 9241   5.658   3.694   6.473
 2781SOL    HW1 9242   5.572   3.711   6.522
 2781SOL    HW2 9243   5.735   3.729   6.526
 2782SOL     OW 9244   3.544   0.464   5.893
 2782SOL    HW1 9245   3.554   0.366   5.906
 2782SOL    HW2 9246   3.450   0.491   5.914
 2783SOL     OW 9247   0.565   3.989   5.178
 2783SOL    HW1 9248   0.631   4.026   5.112
 2783SOL    HW2 9249   0.606   3.988   5.269
 2784SOL     OW 9250   2.874   1.788   1.539
 2784SOL    HW1 9251   2.834   1.860   1.596
 2784SOL    HW2 9252   2.814   1.708   1.539
 2785SOL     OW 9253   5.624   2.451   2.421
 2785SOL    HW1 9254   5.705   2.471   2.366
 2785SOL    HW2 9255   5.590   2.535   2.463
 2786SOL     OW 9256   3.883   0.604   1.044
 2786SOL    HW1 9257   3.977   0.574   1.032
 2786SOL    HW2 9258   3.823   0.524   1.052
 2787SOL     OW 9259   1.615   4.347   5.756
 2787SOL    HW1 9260   1.533   4.315   5.804
 2787SOL    HW2 9261   1.599   4.439   5.721
 2788SOL     OW 9262   2.017   2.441   0.433
 2788SOL    HW1 9263   1.930   2.486   0.449
 2788SOL    HW2 9264   2.071   2.494   0.368
 2789SOL     OW 9265   6.897   3.350   3.322
 2789SOL    HW1 9266   6.829   3.281   3.346
 2789SOL    HW2 9267   6.884   3.378   3.227
 2790SOL     OW 9268   2.917   6.259   4.970
 2790SOL    HW1 9269   2.893   6.275   5.066
 2790SOL    HW2 9270   2.893   6.166   4.944
 2791SOL     OW 9271   2.109   3.651   2.140
 2791SOL    HW1 9272   2.164   3.584   2.090
 2791SOL    HW2 9273   2.015   3.649   2.107
 2792SOL     OW 9274   0.173   1.683   6.314
 2792SOL    HW1 9275   0.221   1.705   6.229
 2792SOL    HW2 9276   0.074   1.679   6.295
 2793SOL     OW 9277   4.953   0.707   4.869
 2793SOL    HW1 9278   5.023   0.636   4.880
 2793SOL    HW2 9279   4.975   0.763   4.789
 2794SOL     OW 9280   0.762   1.165   2.322
 2794SOL    HW1 9281   0.666   1.147   2.346
 2794SOL    HW2 9282   0.804   1.220   2.394
 2795SOL     OW 9283   1.240   3.292   0.810
 2795SOL    HW1 9284   1.244   3.230   0.888
 2795SOL    HW2 9285   1.287   3.377   0.833
 2796SOL     OW 9286   4.088   5.034   2.475
 2796SOL    HW1 9287   4.046   5.122   2.453
 2796SOL    HW2 9288   4.188   5.043   2.471
 2797SOL     OW 9289   5.003   4.550   5.154
 2797SOL    HW1 9290   5.056   4.537   5.238
 2797SOL    HW2 9291   5.054   4.609   5.092
 2798SOL     OW 9292   2.168   3.787   3.164
 2798SOL    HW1 9293   2.166   3.878   3.123
 2798SOL    HW2 9294   2.171   3.718   3.092
 2799SOL     OW 9295   6.884   5.707   6.773
 2799SOL    HW1 9296   6.975   5.667   6.784
 2799SOL    HW2 9297   6.857   5.754   6.857
 2800SOL     OW 9298   2.932   0.701   6.409
 2800SOL    HW1 9299   2.884   0.622   6.448
 2800SOL    HW2 9300   3.013   0.721   6.464
 2801SOL     OW 9301   4.178   5.407   1.951
 2801SOL    HW1 9302   4.175   5.314   1.989
 2801SOL    HW2 9303   4.274   5.436   1.944
 2802SOL     OW 9304   6.274   0.003   6.397
 2802SOL    HW1 9305   6.366   6.982   6.399
 2802SOL    HW2 9306   6.228   7.003   6.484
 2803SOL     OW 9307   2.661   6.069   4.611
 2803SOL    HW1 9308   2.635   5.986   4.661
 2803SOL    HW2 9309   2.584   6.133   4.611
 2804SOL     OW 9310   0.498   5.173   2.455
 2804SOL    HW1 9311   0.480   5.231   2.375
 2804SOL    HW2 9312   0.589   5.133   2.447
 2805SOL     OW 9313   6.698   4.620   6.469
 2805SOL    HW1 9314   6.790   4.610   6.432
 2805SOL    HW2 9315   6.642   4.673   6.405
 2806SOL     OW 9316   5.606   4.089   2.693
 2806SOL    HW1 9317   5.679   4.042   2.644
 2806SOL    HW2 9318   5.551   4.022   2.743
 2807SOL     OW 9319   3.829   4.970   4.000
 2807SOL    HW1 9320   3.750   4.915   4.028
 2807SOL    HW2 9321   3.913   4.922   4.024
 2808SOL     OW 9322   4.576   0.172   4.046
 2808SOL    HW1 9323   4.651   0.156   3.982
 2808SOL    HW2 9324   4.599   0.249   4.105
 2809SOL     OW 9325   5.440   1.983   0.521
 2809SOL    HW1 9326   5.378   2.062   0.516
 2809SOL    HW2 9327   5.394   1.907   0.566
 2810SOL     OW 9328   3.022   1.227   6.007
 2810SOL    HW1 9329   2.983   1.181   5.927
 2810SOL    HW2 9330   3.009   1.170   6.088
 2811SOL     OW 9331   0.256   0.629   4.186
 2811SOL    HW1 9332   0.186   0.680   4.237
 2811SOL    HW2 9333   0.338   0.619   4.243
 2812SOL     OW 9334   4.924   4.525   2.639
 2812SOL    HW1 9335   4.844   4.565   2.685
 2812SOL    HW2 9336   5.005   4.538   2.697
 2813SOL     OW 9337   6.662   1.872   6.121
 2813SOL    HW1 9338   6.648   1.884   6.023
 2813SOL    HW2 9339   6.626   1.783   6.149
 2814SOL     OW 9340   5.809   4.758   5.776
 2814SOL    HW1 9341   5.861   4.679   5.745
 2814SOL    HW2 9342   5.712   4.743   5.758
 2815SOL     OW 9343   1.411   1.266   4.160
 2815SOL    HW1 9344   1.311   1.270   4.162
 2815SOL    HW2 9345   1.444   1.307   4.075
 2816SOL     OW 9346   4.215   6.260   3.462
 2816SOL    HW1 9347   4.232   6.175   3.413
 2816SOL    HW2 9348   4.204   6.240   3.559
 2817SOL     OW 9349   1.522   1.100   1.434
 2817SOL    HW1 9350   1.568   1.173   1.485
 2817SOL    HW2 9351   1.558   1.097   1.341
 2818SOL     OW 9352   1.445   2.283   6.554
 2818SOL    HW1 9353   1.512   2.332   6.498
 2818SOL    HW2 9354   1.354   2.296   6.516
 2819SOL     OW 9355   6.422   3.515   2.293
 2819SOL    HW1 9356   6.378   3.515   2.204
 2819SOL    HW2 9357   6.357   3.543   2.363
 2820SOL     OW 9358   5.541   3.261   4.028
 2820SOL    HW1 9359   5.610   3.315   3.981
 2820SOL    HW2 9360   5.584   3.183   4.074
 2821SOL     OW 9361   1.777   3.726   2.787
 2821SOL    HW1 9362   1.796   3.678   2.702
 2821SOL    HW2 9363   1.724   3.808   2.768
 2822SOL     OW 9364   3.595   2.381   0.449
 2822SOL    HW1 9365   3.581   2.474   0.483
 2822SOL    HW2 9366   3.533   2.364   0.373
 2823SOL     OW 9367   1.201   0.885   4.419
 2823SOL    HW1 9368   1.175   0.901   4.324
 2823SOL    HW2 9369   1.224   0.972   4.462
 2824SOL     OW 9370   3.485   2.969   5.959
 2824SOL    HW1 9371   3.546   2.894   5.935
 2824SOL    HW2 9372   3.395   2.932   5.984
 2825SOL     OW 9373   5.492   6.318   0.866
 2825SOL    HW1 9374   5.550   6.279   0.794
 2825SOL    HW2 9375   5.546   6.329   0.949
 2826SOL     OW 9376   5.627   4.123   5.230
 2826SOL    HW1 9377   5.698   4.056   5.211
 2826SOL    HW2 9378   5.537   4.081   5.218
 2827SOL     OW 9379   0.548   6.783   6.049
 2827SOL    HW1 9380   0.454   6.773   6.082
 2827SOL    HW2 9381   0.602   6.833   6.117
 2828SOL     OW 9382   3.576   2.494   6.101
 2828SOL    HW1 9383   3.575   2.477   6.003
 2828SOL    HW2 9384   3.623   2.581   6.119
 2829SOL     OW 9385   2.812   1.167   0.109
 2829SOL    HW1 9386   2.812   1.266   0.126
 2829SOL    HW2 9387   2.741   1.123   0.163
 2830SOL     OW 9388   3.315   4.018   0.142
 2830SOL    HW1 9389   3.266   4.087   0.196
 2830SOL    HW2 9390   3.326   4.052   0.049
 2831SOL     OW 9391   6.257   6.500   4.252
 2831SOL    HW1 9392   6.237   6.567   4.180
 2831SOL    HW2 9393   6.172   6.454   4.279
 2832SOL     OW 9394   0.621   0.837   2.337
 2832SOL    HW1 9395   0.648   0.750   2.296
 2832SOL    HW2 9396   0.687   0.864   2.407
 2833SOL     OW 9397   5.581   2.647   2.595
 2833SOL    HW1 9398   5.512   2.616   2.659
 2833SOL    HW2 9399   5.549   2.728   2.547
 2834SOL     OW 9400   4.710   1.131   4.809
 2834SOL    HW1 9401   4.808   1.125   4.829
 2834SOL    HW2 9402   4.697   1.180   4.722
 2835SOL     OW 9403   6.202   6.470   2.881
 2835SOL    HW1 9404   6.166   6.550   2.833
 2835SOL    HW2 9405   6.266   6.500   2.952
 2836SOL     OW 9406   6.519   6.735   1.571
 2836SOL    HW1 9407   6.516   6.723   1.472
 2836SOL    HW2 9408   6.613   6.729   1.603
 2837SOL     OW 9409   5.873   2.257   4.309
 2837SOL    HW1 9410   5.906   2.182   4.251
 2837SOL    HW2 9411   5.775   2.269   4.296
 2838SOL     OW 9412   1.796   4.859   4.129
 2838SOL    HW1 9413   1.712   4.857   4.182
 2838SOL    HW2 9414   1.857   4.930   4.165
 2839SOL     OW 9415   5.054   2.864   1.512
 2839SOL    HW1 9416   5.109   2.785   1.481
 2839SOL    HW2 9417   4.967   2.831   1.547
 2840SOL     OW 9418   0.589   2.710   5.300
 2840SOL    HW1 9419   0.577   2.673   5.392
 2840SOL    HW2 9420   0.661   2.659   5.253
 2841SOL     OW 9421   0.065   5.871   0.194
 2841SOL    HW1 9422   0.088   5.817   0.113
 2841SOL    HW2 9423   0.127   5.847   0.269
 2842SOL     OW 9424   5.276   3.185   2.712
 2842SOL    HW1 9425   5.182   3.218   2.720
 2842SOL    HW2 9426   5.275   3.090   2.681
 2843SOL     OW 9427   3.899   0.509   3.774
 2843SOL    HW1 9428   3.822   0.498   3.836
 2843SOL    HW2 9429   3.946   0.422   3.763
 2844SOL     OW 9430   1.425   3.853   4.745
 2844SOL    HW1 9431   1.419   3.871   4.844
 2844SOL    HW2 9432   1.382   3.765   4.725
 2845SOL     OW 9433   0.725   4.192   6.337
 2845SOL    HW1 9434   0.729   4.265   6.404
 2845SOL    HW2 9435   0.703   4.230   6.247
 2846SOL     OW 9436   5.482   1.025   5.818
 2846SOL    HW1 9437   5.398   0.977   5.792
 2846SOL    HW2 9438   5.548   0.959   5.855
 2847SOL     OW 9439   4.023   4.882   4.505
 2847SOL    HW1 9440   3.987   4.949   4.440
 2847SOL    HW2 9441   3.981   4.897   4.594
 2848SOL     OW 9442   1.897   6.897   6.211
 2848SOL    HW1 9443   1.869   6.967   6.146
 2848SOL    HW2 9444   1.854   6.915   6.300
 2849SOL     OW 9445   2.245   2.452   1.313
 2849SOL    HW1 9446   2.202   2.477   1.226
 2849SOL    HW2 9447   2.216   2.517   1.384
 2850SOL     OW 9448   4.677   1.168   0.340
 2850SOL    HW1 9449   4.738   1.236   0.381
 2850SOL    HW2 9450   4.636   1.112   0.412
 2851SOL     OW 9451   3.306   6.062   5.145
 2851SOL    HW1 9452   3.340   6.084   5.054
 2851SOL    HW2 9453   3.382   6.056   5.209
 2852SOL     OW 9454   0.218   2.222   6.583
 2852SOL    HW1 9455   0.219   2.308   6.532
 2852SOL    HW2 9456   0.186   2.148   6.523
 2853SOL     OW 9457   3.814   3.034   1.311
 2853SOL    HW1 9458   3.878   2.989   1.374
 2853SOL    HW2 9459   3.853   3.033   1.218
 2854SOL     OW 9460   0.415   1.330   3.995
 2854SOL    HW1 9461   0.426   1.317   4.093
 2854SOL    HW2 9462   0.483   1.275   3.946
 2855SOL     OW 9463   3.016   1.790   3.616
 2855SOL    HW1 9464   3.056   1.818   3.703
 2855SOL    HW2 9465   2.917   1.803   3.620
 2856SOL     OW 9466   3.113   1.520   5.198
 2856SOL    HW1 9467   3.189   1.583   5.219
 2856SOL    HW2 9468   3.148   1.444   5.143
 2857SOL     OW 9469   3.076   3.492   5.695
 2857SOL    HW1 9470   2.990   3.465   5.737
 2857SOL    HW2 9471   3.152   3.450   5.744
 2858SOL     OW 9472   5.311   2.790   3.091
 2858SOL    HW1 9473   5.380   2.718   3.094
 2858SOL    HW2 9474   5.228   2.758   3.137
 2859SOL     OW 9475   6.295   5.095   0.096
 2859SOL    HW1 9476   6.378   5.128   0.142
 2859SOL    HW2 9477   6.321   5.042   0.015
 2860SOL     OW 9478   4.358   2.071   0.735
 2860SOL    HW1 9479   4.283   2.119   0.781
 2860SOL    HW2 9480   4.435   2.134   0.724
 2861SOL     OW 9481   4.402   4.203   5.755
 2861SOL    HW1 9482   4.332   4.156   5.809
 2861SOL    HW2 9483   4.482   4.221   5.812
 2862SOL     OW 9484   6.610   6.444   3.174
 2862SOL    HW1 9485   6.661   6.470   3.256
 2862SOL    HW2 9486   6.562   6.358   3.191
 2863SOL     OW 9487   6.195   6.238   6.946
 2863SOL    HW1 9488   6.149   6.184   7.017
 2863SOL    HW2 9489   6.189   6.189   6.859
 2864SOL     OW 9490   4.447   2.136   0.157
 2864SOL    HW1 9491   4.409   2.115   0.247
 2864SOL    HW2 9492   4.473   2.232   0.154
 2865SOL     OW 9493   4.729   4.884   5.150
 2865SOL    HW1 9494   4.753   4.969   5.103
 2865SOL    HW2 9495   4.769   4.885   5.242
 2866SOL     OW 9496   0.894   0.059   6.469
 2866SOL    HW1 9497   0.893   0.035   6.372
 2866SOL    HW2 9498   0.980   0.028   6.510
 2867SOL     OW 9499   6.264   3.990   4.746
 2867SOL    HW1 9500   6.222   4.069   4.702
 2867SOL    HW2 9501   6.294   3.925   4.677
 2868SOL     OW 9502   2.287   5.077   4.776
 2868SOL    HW1 9503   2.242   5.149   4.723
 2868SOL    HW2 9504   2.237   4.991   4.765
 2869SOL     OW 9505   5.744   1.655   2.759
 2869SOL    HW1 9506   5.709   1.653   2.665
 2869SOL    HW2 9507   5.834   1.613   2.762
 2870SOL     OW 9508   4.418   1.730   1.693
 2870SOL    HW1 9509   4.338   1.748   1.750
 2870SOL    HW2 9510   4.389   1.714   1.598
 2871SOL     OW 9511   1.171   1.319   5.846
 2871SOL    HW1 9512   1.145   1.394   5.906
 2871SOL    HW2 9513   1.252   1.344   5.794
 2872SOL     OW 9514   1.299   0.608   4.186
 2872SOL    HW1 9515   1.378   0.569   4.138
 2872SOL    HW2 9516   1.221   0.609   4.124
 2873SOL     OW 9517   6.238   4.933   2.559
 2873SOL    HW1 9518   6.249   5.027   2.525
 2873SOL    HW2 9519   6.147   4.924   2.600
 2874SOL     OW 9520   5.172   2.045   1.759
 2874SOL    HW1 9521   5.115   2.050   1.677
 2874SOL    HW2 9522   5.197   1.950   1.776
 2875SOL     OW 9523   2.532   5.406   0.488
 2875SOL    HW1 9524   2.618   5.369   0.454
 2875SOL    HW2 9525   2.463   5.403   0.416
 2876SOL     OW 9526   5.721   1.853   1.765
 2876SOL    HW1 9527   5.793   1.806   1.714
 2876SOL    HW2 9528   5.671   1.914   1.703
 2877SOL     OW 9529   1.438   3.572   5.346
 2877SOL    HW1 9530   1.519   3.543   5.295
 2877SOL    HW2 9531   1.434   3.522   5.433
 2878SOL     OW 9532   5.032   4.783   0.889
 2878SOL    HW1 9533   5.131   4.792   0.883
 2878SOL    HW2 9534   4.990   4.828   0.810
 2879SOL     OW 9535   5.230   4.716   6.967
 2879SOL    HW1 9536   5.152   4.658   6.943
 2879SOL    HW2 9537   5.215   4.758   0.037
 2880SOL     OW 9538   1.461   6.924   3.682
 2880SOL    HW1 9539   1.489   6.972   3.598
 2880SOL    HW2 9540   1.501   6.833   3.683
 2881SOL     OW 9541   6.853   0.370   6.960
 2881SOL    HW1 9542   6.938   0.374   6.907
 2881SOL    HW2 9543   6.853   0.442   0.010
 2882SOL     OW 9544   6.428   4.404   3.297
 2882SOL    HW1 9545   6.427   4.423   3.395
 2882SOL    HW2 9546   6.381   4.317   3.279
 2883SOL     OW 9547   3.178   6.577   2.391
 2883SOL    HW1 9548   3.232   6.659   2.375
 2883SOL    HW2 9549   3.091   6.602   2.434
 2884SOL     OW 9550   2.267   4.877   3.148
 2884SOL    HW1 9551   2.221   4.795   3.182
 2884SOL    HW2 9552   2.366   4.864   3.154
 2885SOL     OW 9553   1.123   2.319   4.679
 2885SOL    HW1 9554   1.189   2.328   4.753
 2885SOL    HW2 9555   1.139   2.234   4.629
 2886SOL     OW 9556   2.710   2.712   6.358
 2886SOL    HW1 9557   2.702   2.803   6.397
 2886SOL    HW2 9558   2.806   2.694   6.336
 2887SOL     OW 9559   2.515   0.429   5.426
 2887SOL    HW1 9560   2.609   0.460   5.436
 2887SOL    HW2 9561   2.513   0.343   5.375
 2888SOL     OW 9562   0.436   5.576   6.992
 2888SOL    HW1 9563   0.467   5.497   6.938
 2888SOL    HW2 9564   0.362   5.623   6.943
 2889SOL     OW 9565   1.510   1.150   0.590
 2889SOL    HW1 9566   1.522   1.180   0.685
 2889SOL    HW2 9567   1.425   1.098   0.582
 2890SOL     OW 9568   2.515   0.654   0.312
 2890SOL    HW1 9569   2.423   0.614   0.318
 2890SOL    HW2 9570   2.524   0.704   0.226
 2891SOL     OW 9571   3.079   4.746   5.288
 2891SOL    HW1 9572   3.064   4.658   5.243
 2891SOL    HW2 9573   2.998   4.804   5.277
 2892SOL     OW 9574   4.042   4.061   5.151
 2892SOL    HW1 9575   4.116   4.102   5.205
 2892SOL    HW2 9576   4.080   3.994   5.088
 2893SOL     OW 9577   2.720   0.544   5.116
 2893SOL    HW1 9578   2.777   0.584   5.044
 2893SOL    HW2 9579   2.751   0.452   5.137
 2894SOL     OW 9580   3.945   3.151   2.325
 2894SOL    HW1 9581   3.934   3.201   2.411
 2894SOL    HW2 9582   3.983   3.213   2.256
 2895SOL     OW 9583   3.827   2.741   0.218
 2895SOL    HW1 9584   3.827   2.792   0.132
 2895SOL    HW2 9585   3.799   2.646   0.201
 2896SOL     OW 9586   1.190   4.831   6.960
 2896SOL    HW1 9587   1.231   4.788   0.021
 2896SOL    HW2 9588   1.204   4.772   6.881
 2897SOL     OW 9589   0.145   0.247   3.147
 2897SOL    HW1 9590   0.173   0.335   3.185
 2897SOL    HW2 9591   0.178   0.173   3.205
 2898SOL     OW 9592   1.933   5.187   2.643
 2898SOL    HW1 9593   1.893   5.212   2.731
 2898SOL    HW2 9594   1.945   5.088   2.639
 2899SOL     OW 9595   5.488   0.972   0.841
 2899SOL    HW1 9596   5.552   0.955   0.766
 2899SOL    HW2 9597   5.514   1.055   0.889
 2900SOL     OW 9598   2.414   5.750   6.825
 2900SOL    HW1 9599   2.467   5.682   6.875
 2900SOL    HW2 9600   2.393   5.715   6.734
 2901SOL     OW 9601   2.901   6.946   1.344
 2901SOL    HW1 9602   2.944   7.011   1.280
 2901SOL    HW2 9603   2.972   6.902   1.399
 2902SOL     OW 9604   4.604   5.376   1.420
 2902SOL    HW1 9605   4.540   5.434   1.369
 2902SOL    HW2 9606   4.690   5.368   1.369
 2903SOL     OW 9607   3.146   2.393   1.707
 2903SOL    HW1 9608   3.071   2.415   1.768
 2903SOL    HW2 9609   3.148   2.294   1.691
 2904SOL     OW 9610   2.792   2.162   4.353
 2904SOL    HW1 9611   2.842   2.205   4.278
 2904SOL    HW2 9612   2.768   2.232   4.421
 2905SOL     OW 9613   0.997   2.465   2.148
 2905SOL    HW1 9614   1.057   2.386   2.132
 2905SOL    HW2 9615   1.054   2.545   2.169
 2906SOL     OW 9616   5.070   5.286   2.752
 2906SOL    HW1 9617   5.150   5.230   2.734
 2906SOL    HW2 9618   5.097   5.368   2.804
 2907SOL     OW 9619   6.010   0.179   4.764
 2907SOL    HW1 9620   6.077   0.241   4.723
 2907SOL    HW2 9621   5.926   0.180   4.710
 2908SOL     OW 9622   4.284   6.161   4.618
 2908SOL    HW1 9623   4.244   6.216   4.545
 2908SOL    HW2 9624   4.241   6.183   4.705
 2909SOL     OW 9625   2.326   5.830   6.102
 2909SOL    HW1 9626   2.303   5.860   6.195
 2909SOL    HW2 9627   2.334   5.731   6.100
 2910SOL     OW 9628   3.795   5.303   5.331
 2910SOL    HW1 9629   3.817   5.241   5.407
 2910SOL    HW2 9630   3.764   5.390   5.368
 2911SOL     OW 9631   2.746   4.697   2.978
 2911SOL    HW1 9632   2.729   4.617   3.036
 2911SOL    HW2 9633   2.694   4.687   2.893
 2912SOL     OW 9634   2.927   5.290   1.118
 2912SOL    HW1 9635   2.843   5.287   1.173
 2912SOL    HW2 9636   2.905   5.321   1.025
 2913SOL     OW 9637   0.137   2.900   1.374
 2913SOL    HW1 9638   0.094   2.841   1.306
 2913SOL    HW2 9639   0.077   2.910   1.453
 2914SOL     OW 9640   5.108   4.315   6.616
 2914SOL    HW1 9641   5.182   4.250   6.601
 2914SOL    HW2 9642   5.022   4.266   6.629
 2915SOL     OW 9643   4.524   0.883   3.089
 2915SOL    HW1 9644   4.568   0.918   3.171
 2915SOL    HW2 9645   4.593   0.866   3.018
 2916SOL     OW 9646   4.823   0.682   4.302
 2916SOL    HW1 9647   4.842   0.629   4.384
 2916SOL    HW2 9648   4.903   0.736   4.277
 2917SOL     OW 9649   3.821   0.538   2.369
 2917SOL    HW1 9650   3.814   0.620   2.426
 2917SOL    HW2 9651   3.730   0.512   2.337
 2918SOL     OW 9652   1.574   3.172   4.527
 2918SOL    HW1 9653   1.564   3.080   4.489
 2918SOL    HW2 9654   1.572   3.168   4.626
 2919SOL     OW 9655   5.690   5.145   0.284
 2919SOL    HW1 9656   5.679   5.072   0.352
 2919SOL    HW2 9657   5.624   5.131   0.210
 2920SOL     OW 9658   4.295   1.302   2.856
 2920SOL    HW1 9659   4.331   1.279   2.766
 2920SOL    HW2 9660   4.364   1.354   2.907
 2921SOL     OW 9661   6.518   0.970   0.062
 2921SOL    HW1 9662   6.609   0.928   0.073
 2921SOL    HW2 9663   6.506   1.042   0.130
 2922SOL     OW 9664   4.685   0.396   4.261
 2922SOL    HW1 9665   4.716   0.489   4.245
 2922SOL    HW2 9666   4.606   0.398   4.323
 2923SOL     OW 9667   0.167   4.405   0.488
 2923SOL    HW1 9668   0.132   4.403   0.394
 2923SOL    HW2 9669   0.094   4.435   0.549
 2924SOL     OW 9670   6.301   6.585   6.767
 2924SOL    HW1 9671   6.327   6.555   6.858
 2924SOL    HW2 9672   6.244   6.515   6.723
 2925SOL     OW 9673   6.562   4.723   0.693
 2925SOL    HW1 9674   6.564   4.674   0.780
 2925SOL    HW2 9675   6.590   4.662   0.619
 2926SOL     OW 9676   0.282   1.705   2.844
 2926SOL    HW1 9677   0.309   1.695   2.940
 2926SOL    HW2 9678   0.360   1.687   2.785
 2927SOL     OW 9679   6.914   2.928   2.646
 2927SOL    HW1 9680   6.819   2.904   2.669
 2927SOL    HW2 9681   6.914   3.007   2.585
 2928SOL     OW 9682   5.441   5.969   0.674
 2928SOL    HW1 9683   5.473   5.927   0.759
 2928SOL    HW2 9684   5.346   5.997   0.685
 2929SOL     OW 9685   0.007   0.635   5.687
 2929SOL    HW1 9686   6.950   0.574   5.664
 2929SOL    HW2 9687   7.001   0.694   5.762
 2930SOL     OW 9688   2.361   7.017   4.217
 2930SOL    HW1 9689   2.296   0.017   4.290
 2930SOL    HW2 9690   2.443   0.053   4.230
 2931SOL     OW 9691   4.713   4.557   6.502
 2931SOL    HW1 9692   4.654   4.490   6.457
 2931SOL    HW2 9693   4.801   4.515   6.523
 2932SOL     OW 9694   0.666   4.955   1.884
 2932SOL    HW1 9695   0.614   4.989   1.963
 2932SOL    HW2 9696   0.648   5.014   1.805
 2933SOL     OW 9697   4.634   2.277   3.190
 2933SOL    HW1 9698   4.578   2.348   3.233
 2933SOL    HW2 9699   4.730   2.294   3.209
 2934SOL     OW 9700   1.771   1.101   1.745
 2934SOL    HW1 9701   1.728   1.177   1.697
 2934SOL    HW2 9702   1.703   1.053   1.801
 2935SOL     OW 9703   0.126   1.229   1.159
 2935SOL    HW1 9704   0.191   1.175   1.105
 2935SOL    HW2 9705   0.168   1.256   1.246
 2936SOL     OW 9706   4.296   4.789   1.577
 2936SOL    HW1 9707   4.321   4.863   1.639
 2936SOL    HW2 9708   4.259   4.712   1.629
 2937SOL     OW 9709   2.640   4.535   0.595
 2937SOL    HW1 9710   2.653   4.442   0.562
 2937SOL    HW2 9711   2.662   4.540   0.692
 2938SOL     OW 9712   4.663   5.691   0.087
 2938SOL    HW1 9713   4.679   5.606   0.136
 2938SOL    HW2 9714   4.565   5.706   0.075
 2939SOL     OW 9715   6.586   6.380   6.549
 2939SOL    HW1 9716   6.601   6.290   6.591
 2939SOL    HW2 9717   6.592   6.371   6.450
 2940SOL     OW 9718   3.819   0.158   5.539
 2940SOL    HW1 9719   3.848   0.124   5.450
 2940SOL    HW2 9720   3.737   0.215   5.528
 2941SOL     OW 9721   3.856   1.179   5.403
 2941SOL    HW1 9722   3.825   1.269   5.373
 2941SOL    HW2 9723   3.782   1.133   5.452
 2942SOL     OW 9724   2.895   6.536   3.646
 2942SOL    HW1 9725   2.949   6.555   3.728
 2942SOL    HW2 9726   2.955   6.534   3.566
 2943SOL     OW 9727   5.405   4.410   2.919
 2943SOL    HW1 9728   5.492   4.363   2.937
 2943SOL    HW2 9729   5.356   4.423   3.005
 2944SOL     OW 9730   5.260   5.302   0.566
 2944SOL    HW1 9731   5.257   5.202   0.560
 2944SOL    HW2 9732   5.197   5.333   0.637
 2945SOL     OW 9733   3.442   3.703   4.285
 2945SOL    HW1 9734   3.389   3.686   4.202
 2945SOL    HW2 9735   3.420   3.633   4.353
 2946SOL     OW 9736   1.474   6.123   5.229
 2946SOL    HW1 9737   1.551   6.077   5.273
 2946SOL    HW2 9738   1.468   6.093   5.133
 2947SOL     OW 9739   6.887   5.286   7.004
 2947SOL    HW1 9740   6.919   5.308   6.912
 2947SOL    HW2 9741   6.917   5.357   0.048
 2948SOL     OW 9742   6.615   3.255   5.334
 2948SOL    HW1 9743   6.674   3.302   5.268
 2948SOL    HW2 9744   6.630   3.156   5.328
 2949SOL     OW 9745   0.639   6.804   1.007
 2949SOL    HW1 9746   0.696   6.733   0.966
 2949SOL    HW2 9747   0.606   6.774   1.096
 2950SOL     OW 9748   5.351   3.888   4.983
 2950SOL    HW1 9749   5.359   3.868   4.886
 2950SOL    HW2 9750   5.433   3.858   5.031
 2951SOL     OW 9751   6.535   0.674   0.010
 2951SOL    HW1 9752   6.531   0.768   6.996
 2951SOL    HW2 9753   6.470   0.617   6.978
 2952SOL     OW 9754   0.546   3.562   1.943
 2952SOL    HW1 9755   0.613   3.632   1.919
 2952SOL    HW2 9756   0.587   3.471   1.932
 2953SOL     OW 9757   5.719   1.701   2.002
 2953SOL    HW1 9758   5.650   1.629   2.004
 2953SOL    HW2 9759   5.682   1.782   1.958
 2954SOL     OW 9760   4.663   6.316   1.891
 2954SOL    HW1 9761   4.649   6.347   1.797
 2954SOL    HW2 9762   4.751   6.352   1.924
 2955SOL     OW 9763   5.849   1.705   1.557
 2955SOL    HW1 9764   5.753   1.710   1.530
 2955SOL    HW2 9765   5.905   1.678   1.478
 2956SOL     OW 9766   5.194   6.008   3.257
 2956SOL    HW1 9767   5.278   5.967   3.222
 2956SOL    HW2 9768   5.115   5.954   3.228
 2957SOL     OW 9769   0.944   5.025   1.542
 2957SOL    HW1 9770   0.961   5.116   1.506
 2957SOL    HW2 9771   0.950   4.958   1.469
 2958SOL     OW 9772   2.281   4.960   6.312
 2958SOL    HW1 9773   2.324   5.048   6.328
 2958SOL    HW2 9774   2.190   4.960   6.354
 2959SOL     OW 9775   3.171   5.668   6.673
 2959SOL    HW1 9776   3.162   5.572   6.647
 2959SOL    HW2 9777   3.237   5.676   6.748
 2960SOL     OW 9778   3.086   1.465   0.055
 2960SOL    HW1 9779   3.101   1.401   6.999
 2960SOL    HW2 9780   3.168   1.470   0.112
 2961SOL     OW 9781   5.296   1.033   3.851
 2961SOL    HW1 9782   5.287   1.120   3.900
 2961SOL    HW2 9783   5.393   1.016   3.832
 2962SOL     OW 9784   4.247   0.274   2.453
 2962SOL    HW1 9785   4.225   0.245   2.360
 2962SOL    HW2 9786   4.282   0.196   2.504
 2963SOL     OW 9787   2.217   2.916   4.864
 2963SOL    HW1 9788   2.279   2.957   4.931
 2963SOL    HW2 9789   2.237   2.818   4.856
 2964SOL     OW 9790   2.110   6.064   0.013
 2964SOL    HW1 9791   2.060   6.112   0.085
 2964SOL    HW2 9792   2.170   5.995   0.053
 2965SOL     OW 9793   1.283   3.031   5.838
 2965SOL    HW1 9794   1.270   3.030   5.937
 2965SOL    HW2 9795   1.201   2.996   5.794
 2966SOL     OW 9796   4.626   5.261   2.510
 2966SOL    HW1 9797   4.679   5.345   2.529
 2966SOL    HW2 9798   4.618   5.207   2.593
 2967SOL     OW 9799   5.574   2.840   4.495
 2967SOL    HW1 9800   5.533   2.825   4.405
 2967SOL    HW2 9801   5.645   2.909   4.489
 2968SOL     OW 9802   6.598   4.520   4.172
 2968SOL    HW1 9803   6.507   4.479   4.173
 2968SOL    HW2 9804   6.652   4.479   4.099
 2969SOL     OW 9805   3.484   1.408   5.121
 2969SOL    HW1 9806   3.400   1.389   5.070
 2969SOL    HW2 9807   3.500   1.507   5.122
 2970SOL     OW 9808   1.204   4.070   6.129
 2970SOL    HW1 9809   1.182   4.004   6.057
 2970SOL    HW2 9810   1.120   4.096   6.176
 2971SOL     OW 9811   5.732   3.060   1.926
 2971SOL    HW1 9812   5.742   3.155   1.899
 2971SOL    HW2 9813   5.653   3.051   1.987
 2972SOL     OW 9814   0.643   4.671   4.148
 2972SOL    HW1 9815   0.674   4.766   4.141
 2972SOL    HW2 9816   0.590   4.659   4.232
 2973SOL     OW 9817   5.768   0.201   4.101
 2973SOL    HW1 9818   5.828   0.256   4.159
 2973SOL    HW2 9819   5.673   0.214   4.130
 2974SOL     OW 9820   6.197   4.045   1.299
 2974SOL    HW1 9821   6.191   4.088   1.209
 2974SOL    HW2 9822   6.114   4.063   1.350
 2975SOL     OW 9823   6.142   1.865   3.925
 2975SOL    HW1 9824   6.234   1.846   3.890
 2975SOL    HW2 9825   6.092   1.921   3.859
 2976SOL     OW 9826   2.425   5.734   1.245
 2976SOL    HW1 9827   2.524   5.738   1.232
 2976SOL    HW2 9828   2.392   5.642   1.225
 2977SOL     OW 9829   2.124   0.079   3.338
 2977SOL    HW1 9830   2.121   7.010   3.292
 2977SOL    HW2 9831   2.180   0.072   3.421
 2978SOL     OW 9832   2.138   0.104   6.604
 2978SOL    HW1 9833   2.066   0.130   6.540
 2978SOL    HW2 9834   2.145   0.005   6.608
 2979SOL     OW 9835   2.214   1.147   3.269
 2979SOL    HW1 9836   2.218   1.247   3.280
 2979SOL    HW2 9837   2.122   1.115   3.292
 2980SOL     OW 9838   6.014   0.307   3.647
 2980SOL    HW1 9839   5.934   0.259   3.683
 2980SOL    HW2 9840   5.990   0.356   3.564
 2981SOL     OW 9841   1.042   0.824   5.710
 2981SOL    HW1 9842   0.988   0.822   5.794
 2981SOL    HW2 9843   0.983   0.848   5.633
 2982SOL     OW 9844   5.222   5.954   2.075
 2982SOL    HW1 9845   5.197   5.910   1.989
 2982SOL    HW2 9846   5.261   6.044   2.056
 2983SOL     OW 9847   0.648   1.472   3.073
 2983SOL    HW1 9848   0.721   1.452   3.138
 2983SOL    HW2 9849   0.680   1.455   2.980
 2984SOL     OW 9850   6.401   4.379   1.740
 2984SOL    HW1 9851   6.486   4.333   1.714
 2984SOL    HW2 9852   6.423   4.468   1.780
 2985SOL     OW 9853   6.545   2.175   3.166
 2985SOL    HW1 9854   6.500   2.263   3.177
 2985SOL    HW2 9855   6.608   2.179   3.089
 2986SOL     OW 9856   2.067   3.349   4.423
 2986SOL    HW1 9857   2.031   3.428   4.473
 2986SOL    HW2 9858   2.002   3.323   4.351
 2987SOL     OW 9859   5.223   1.614   4.891
 2987SOL    HW1 9860   5.276   1.659   4.963
 2987SOL    HW2 9861   5.217   1.675   4.811
 2988SOL     OW 9862   0.427   1.192   2.629
 2988SOL    HW1 9863   0.336   1.151   2.618
 2988SOL    HW2 9864   0.479   1.139   2.696
 2989SOL     OW 9865   0.276   5.240   0.944
 2989SOL    HW1 9866   0.212   5.165   0.928
 2989SOL    HW2 9867   0.225   5.324   0.961
 2990SOL     OW 9868   2.762   1.351   0.919
 2990SOL    HW1 9869   2.834   1.412   0.886
 2990SOL    HW2 9870   2.798   1.294   0.993
 2991SOL     OW 9871   6.168   4.431   0.204
 2991SOL    HW1 9872   6.250   4.480   0.231
 2991SOL    HW2 9873   6.160   4.433   0.104
 2992SOL     OW 9874   3.598   4.864   6.581
 2992SOL    HW1 9875   3.656   4.914   6.645
 2992SOL    HW2 9876   3.597   4.912   6.493
 2993SOL     OW 9877   1.181   3.826   6.882
 2993SOL    HW1 9878   1.087   3.843   6.853
 2993SOL    HW2 9879   1.184   3.743   6.939
 2994SOL     OW 9880   4.308   6.797   6.259
 2994SOL    HW1 9881   4.304   6.896   6.274
 2994SOL    HW2 9882   4.303   6.750   6.347
 2995SOL     OW 9883   2.659   0.700   5.357
 2995SOL    HW1 9884   2.702   0.789   5.344
 2995SOL    HW2 9885   2.626   0.666   5.269
 2996SOL     OW 9886   4.414   6.366   6.134
 2996SOL    HW1 9887   4.365   6.352   6.048
 2996SOL    HW2 9888   4.473   6.447   6.125
 2997SOL     OW 9889   3.554   5.766   0.605
 2997SOL    HW1 9890   3.467   5.799   0.568
 2997SOL    HW2 9891   3.619   5.842   0.609
 2998SOL     OW 9892   6.543   3.719   6.317
 2998SOL    HW1 9893   6.453   3.691   6.284
 2998SOL    HW2 9894   6.575   3.798   6.265
 2999SOL     OW 9895   3.041   1.401   1.553
 2999SOL    HW1 9896   3.021   1.400   1.455
 2999SOL    HW2 9897   3.134   1.367   1.568
 3000SOL     OW 9898   1.424   2.186   5.151
 3000SOL    HW1 9899   1.354   2.207   5.082
 3000SOL    HW2 9900   1.446   2.088   5.148
 3001SOL     OW 9901   4.891   5.894   5.999
 3001SOL    HW1 9902   4.963   5.921   5.935
 3001SOL    HW2 9903   4.924   5.818   6.055
 3002SOL     OW 9904   3.383   0.003   5.437
 3002SOL    HW1 9905   3.330   0.028   5.357
 3002SOL    HW2 9906   3.480   7.019   5.414
 3003SOL     OW 9907   1.468   0.328   5.630
 3003SOL    HW1 9908   1.505   0.358   5.542
 3003SOL    HW2 9909   1.368   0.328   5.626
 3004SOL     OW 9910   0.213   3.293   6.071
 3004SOL    HW1 9911   0.248   3.316   6.162
 3004SOL    HW2 9912   0.195   3.377   6.020
 3005SOL     OW 9913   4.655   2.119   0.951
 3005SOL    HW1 9914   4.580   2.054   0.945
 3005SOL    HW2 9915   4.638   2.182   1.027
 3006SOL     OW 9916   4.189   6.289   2.104
 3006SOL    HW1 9917   4.241   6.347   2.168
 3006SOL    HW2 9918   4.104   6.261   2.147
 3007SOL     OW 9919   5.558   5.405   1.786
 3007SOL    HW1 9920   5.470   5.374   1.823
 3007SOL    HW2 9921   5.614   5.326   1.763
 3008SOL     OW 9922   4.694   5.074   5.667
 3008SOL    HW1 9923   4.733   5.040   5.581
 3008SOL    HW2 9924   4.715   5.011   5.741
 3009SOL     OW 9925   1.718   0.434   1.809
 3009SOL    HW1 9926   1.662   0.487   1.745
 3009SOL    HW2 9927   1.658   0.373   1.862
 3010SOL     OW 9928   3.326   0.664   3.911
 3010SOL    HW1 9929   3.231   0.692   3.897
 3010SOL    HW2 9930   3.361   0.621   3.827
 3011SOL     OW 9931   5.098   0.275   0.198
 3011SOL    HW1 9932   5.039   0.216   0.142
 3011SOL    HW2 9933   5.109   0.235   0.289
 3012SOL     OW 9934   0.050   4.990   1.630
 3012SOL    HW1 9935   0.094   5.080   1.641
 3012SOL    HW2 9936   7.012   4.972   1.710
 3013SOL     OW 9937   5.739   4.573   1.652
 3013SOL    HW1 9938   5.788   4.660   1.647
 3013SOL    HW2 9939   5.791   4.508   1.707
 3014SOL     OW 9940   5.609   5.543   5.199
 3014SOL    HW1 9941   5.525   5.568   5.151
 3014SOL    HW2 9942   5.672   5.621   5.200
 3015SOL     OW 9943   3.333   1.313   0.434
 3015SOL    HW1 9944   3.424   1.283   0.461
 3015SOL    HW2 9945   3.340   1.370   0.352
 3016SOL     OW 9946   4.184   6.333   4.400
 3016SOL    HW1 9947   4.117   6.404   4.422
 3016SOL    HW2 9948   4.202   6.334   4.301
 3017SOL     OW 9949   0.713   6.707   2.338
 3017SOL    HW1 9950   0.710   6.617   2.382
 3017SOL    HW2 9951   0.785   6.708   2.269
 3018SOL     OW 9952   4.578   6.911   5.962
 3018SOL    HW1 9953   4.489   6.881   5.929
 3018SOL    HW2 9954   4.618   6.976   5.898
 3019SOL     OW 9955   4.852   0.745   1.686
 3019SOL    HW1 9956   4.835   0.832   1.733
 3019SOL    HW2 9957   4.767   0.692   1.682
 3020SOL     OW 9958   2.002   0.375   1.564
 3020SOL    HW1 9959   1.930   0.310   1.540
 3020SOL    HW2 9960   1.980   0.464   1.523
 3021SOL     OW 9961   4.322   0.370   6.140
 3021SOL    HW1 9962   4.370   0.327   6.064
 3021SOL    HW2 9963   4.234   0.404   6.109
 3022SOL     OW 9964   6.994   0.584   3.282
 3022SOL    HW1 9965   6.960   0.533   3.361
 3022SOL    HW2 9966   0.047   0.531   3.237
 3023SOL     OW 9967   5.960   0.417   1.605
 3023SOL    HW1 9968   5.991   0.335   1.556
 3023SOL    HW2 9969   5.937   0.488   1.538
 3024SOL     OW 9970   1.778   6.849   6.764
 3024SOL    HW1 9971   1.841   6.862   6.687
 3024SOL    HW2 9972   1.790   6.758   6.802
 3025SOL     OW 9973   2.104   2.520   2.186
 3025SOL    HW1 9974   2.163   2.442   2.208
 3025SOL    HW2 9975   2.038   2.493   2.116
 3026SOL     OW 9976   3.083   5.899   0.354
 3026SOL    HW1 9977   2.987   5.874   0.360
 3026SOL    HW2 9978   3.116   5.882   0.261
 3027SOL     OW 9979   1.122   2.293   4.122
 3027SOL    HW1 9980   1.087   2.207   4.160
 3027SOL    HW2 9981   1.079   2.311   4.033
 3028SOL     OW 9982   1.461   0.649   4.475
 3028SOL    HW1 9983   1.438   0.728   4.418
 3028SOL    HW2 9984   1.487   0.572   4.418
 3029SOL     OW 9985   6.480   5.038   5.825
 3029SOL    HW1 9986   6.479   5.137   5.838
 3029SOL    HW2 9987   6.460   5.017   5.730
 3030SOL     OW 9988   0.650   0.928   5.767
 3030SOL    HW1 9989   0.620   0.907   5.860
 3030SOL    HW2 9990   0.712   1.007   5.769
 3031SOL     OW 9991   6.975   5.393   5.784
 3031SOL    HW1 9992   6.946   5.442   5.702
 3031SOL    HW2 9993   0.051   5.413   5.804
 3032SOL     OW 9994   4.052   0.004   5.897
 3032SOL    HW1 9995   4.028   0.057   5.815
 3032SOL    HW2 9996   4.009   6.933   5.891
 3033SOL     OW 9997   4.899   4.318   6.061
 3033SOL    HW1 9998   4.938   4.255   5.994
 3033SOL    HW2 9999   4.877   4.405   6.016
 3034SOL     OW10000   2.675   6.734   5.164
 3034SOL    HW110001   2.710   6.675   5.238
 3034SOL    HW210002   2.580   6.757   5.183
 3035SOL     OW10003   5.858   6.375   0.063
 3035SOL    HW110004   5.805   6.313   0.121
 3035SOL    HW210005   5.844   6.469   0.092
 3036SOL     OW10006   0.517   4.941   5.678
 3036SOL    HW110007   0.506   4.931   5.777
 3036SOL    HW210008   0.466   4.868   5.632
 3037SOL     OW10009   5.153   6.133   6.383
 3037SOL    HW110010   5.122   6.072   6.310
 3037SOL    HW210011   5.074   6.174   6.429
 3038SOL     OW10012   5.707   5.795   5.233
 3038SOL    HW110013   5.680   5.772   5.326
 3038SOL    HW210014   5.796   5.841   5.235
 3039SOL     OW10015   0.671   4.646   0.590
 3039SOL    HW110016   0.635   4.570   0.536
 3039SOL    HW210017   0.611   4.662   0.669
 3040SOL     OW10018   2.762   0.881   0.420
 3040SOL    HW110019   2.728   0.811   0.483
 3040SOL    HW210020   2.804   0.955   0.473
 3041SOL     OW10021   1.928   1.763   5.908
 3041SOL    HW110022   1.983   1.754   5.825
 3041SOL    HW210023   1.988   1.765   5.988
 3042SOL     OW10024   5.262   0.541   0.973
 3042SOL    HW110025   5.236   0.496   1.058
 3042SOL    HW210026   5.355   0.577   0.982
 3043SOL     OW10027   0.434   4.726   6.776
 3043SOL    HW110028   0.354   4.739   6.833
 3043SOL    HW210029   0.431   4.791   6.700
 3044SOL     OW10030   2.590   2.913   6.763
 3044SOL    HW110031   2.613   2.933   6.668
 3044SOL    HW210032   2.522   2.979   6.795
 3045SOL     OW10033   4.745   2.530   4.641
 3045SOL    HW110034   4.833   2.557   4.680
 3045SOL    HW210035   4.671   2.554   4.703
 3046SOL     OW10036   2.698   2.265   5.625
 3046SOL    HW110037   2.703   2.345   5.685
 3046SOL    HW210038   2.742   2.188   5.669
 3047SOL     OW10039   6.652   5.175   1.852
 3047SOL    HW110040   6.735   5.180   1.797
 3047SOL    HW210041   6.605   5.263   1.850
 3048SOL     OW10042   3.229   2.914   2.258
 3048SOL    HW110043   3.217   2.898   2.160
 3048SOL    HW210044   3.280   2.838   2.298
 3049SOL     OW10045   1.097   0.810   0.574
 3049SOL    HW110046   1.041   0.737   0.614
 3049SOL    HW210047   1.043   0.861   0.507
 3050SOL     OW10048   1.292   0.400   4.356
 3050SOL    HW110049   1.265   0.423   4.449
 3050SOL    HW210050   1.284   0.481   4.298
 3051SOL     OW10051   2.952   5.013   5.385
 3051SOL    HW110052   2.868   5.021   5.440
 3051SOL    HW210053   3.031   5.007   5.447
 3052SOL     OW10054   4.799   6.313   2.544
 3052SOL    HW110055   4.824   6.343   2.452
 3052SOL    HW210056   4.858   6.357   2.611
 3053SOL     OW10057   3.694   6.053   1.760
 3053SOL    HW110058   3.600   6.082   1.781
 3053SOL    HW210059   3.751   6.134   1.748
 3054SOL     OW10060   1.529   4.529   5.079
 3054SOL    HW110061   1.494   4.439   5.057
 3054SOL    HW210062   1.617   4.520   5.125
 3055SOL     OW10063   6.172   6.840   2.491
 3055SOL    HW110064   6.243   6.910   2.482
 3055SOL    HW210065   6.150   6.827   2.588
 3056SOL     OW10066   4.731   0.661   2.467
 3056SOL    HW110067   4.719   0.614   2.554
 3056SOL    HW210068   4.803   0.730   2.476
 3057SOL     OW10069   6.932   4.820   2.659
 3057SOL    HW110070   6.851   4.850   2.708
 3057SOL    HW210071   7.008   4.881   2.679
 3058SOL     OW10072   5.778   6.735   1.181
 3058SOL    HW110073   5.785   6.826   1.141
 3058SOL    HW210074   5.836   6.671   1.130
 3059SOL     OW10075   2.542   2.502   0.005
 3059SOL    HW110076   2.535   2.533   6.929
 3059SOL    HW210077   2.625   2.447   0.016
 3060SOL     OW10078   0.373   6.142   6.776
 3060SOL    HW110079   0.339   6.231   6.808
 3060SOL    HW210080   0.410   6.152   6.684
 3061SOL     OW10081   6.633   0.793   5.906
 3061SOL    HW110082   6.607   0.797   5.809
 3061SOL    HW210083   6.582   0.719   5.950
 3062SOL     OW10084   3.529   5.587   6.293
 3062SOL    HW110085   3.471   5.661   6.258
 3062SOL    HW210086   3.564   5.612   6.383
 3063SOL     OW10087   2.978   6.178   1.151
 3063SOL    HW110088   2.997   6.275   1.136
 3063SOL    HW210089   2.967   6.132   1.063
 3064SOL     OW10090   6.615   4.594   3.226
 3064SOL    HW110091   6.654   4.563   3.139
 3064SOL    HW210092   6.540   4.533   3.252
 3065SOL     OW10093   3.470   1.462   1.578
 3065SOL    HW110094   3.553   1.411   1.603
 3065SOL    HW210095   3.494   1.558   1.566
 3066SOL     OW10096   5.978   5.236   0.782
 3066SOL    HW110097   5.935   5.245   0.692
 3066SOL    HW210098   6.004   5.140   0.796
 3067SOL     OW10099   3.935   6.861   3.204
 3067SOL    HW110100   3.855   6.862   3.144
 3067SOL    HW210101   4.005   6.801   3.166
 3068SOL     OW10102   6.176   4.461   6.743
 3068SOL    HW110103   6.231   4.418   6.814
 3068SOL    HW210104   6.080   4.464   6.773
 3069SOL     OW10105   0.947   5.181   3.401
 3069SOL    HW110106   0.942   5.151   3.496
 3069SOL    HW210107   1.021   5.248   3.391
 3070SOL     OW10108   4.491   2.088   3.778
 3070SOL    HW110109   4.555   2.020   3.812
 3070SOL    HW210110   4.491   2.087   3.678
 3071SOL     OW10111   5.709   0.450   3.596
 3071SOL    HW110112   5.727   0.357   3.629
 3071SOL    HW210113   5.611   0.461   3.578
 3072SOL     OW10114   0.245   0.783   1.409
 3072SOL    HW110115   0.225   0.828   1.322
 3072SOL    HW210116   0.179   0.710   1.425
 3073SOL     OW10117   1.796   1.563   5.114
 3073SOL    HW110118   1.794   1.498   5.037
 3073SOL    HW210119   1.802   1.656   5.079
 3074SOL     OW10120   4.453   3.811   5.726
 3074SOL    HW110121   4.391   3.873   5.679
 3074SOL    HW210122   4.533   3.794   5.668
 3075SOL     OW10123   0.056   4.918   1.363
 3075SOL    HW110124   0.021   4.943   1.454
 3075SOL    HW210125   0.046   4.819   1.350
 3076SOL     OW10126   0.412   0.993   5.637
 3076SOL    HW110127   0.379   0.908   5.596
 3076SOL    HW210128   0.504   0.978   5.675
 3077SOL     OW10129   4.268   4.645   3.615
 3077SOL    HW110130   4.361   4.669   3.586
 3077SOL    HW210131   4.241   4.559   3.572
 3078SOL     OW10132   2.183   2.890   0.920
 3078SOL    HW110133   2.171   2.792   0.903
 3078SOL    HW210134   2.270   2.920   0.882
 3079SOL     OW10135   5.237   3.229   5.897
 3079SOL    HW110136   5.227   3.164   5.822
 3079SOL    HW210137   5.318   3.285   5.884
 3080SOL     OW10138   5.862   0.003   2.027
 3080SOL    HW110139   5.848   7.014   2.126
 3080SOL    HW210140   5.852   0.098   2.000
 3081SOL     OW10141   0.942   4.713   5.902
 3081SOL    HW110142   0.914   4.763   5.820
 3081SOL    HW210143   0.963   4.618   5.878
 3082SOL     OW10144   3.654   6.527   2.754
 3082SOL    HW110145   3.555   6.511   2.754
 3082SOL    HW210146   3.674   6.614   2.708
 3083SOL     OW10147   3.683   6.791   2.655
 3083SOL    HW110148   3.640   6.799   2.565
 3083SOL    HW210149   3.655   6.869   2.711
 3084SOL     OW10150   5.110   0.183   4.036
 3084SOL    HW110151   5.119   0.150   3.943
 3084SOL    HW210152   5.013   0.186   4.062
 3085SOL     OW10153   0.994   5.012   2.374
 3085SOL    HW110154   1.056   5.088   2.355
 3085SOL    HW210155   1.046   4.927   2.380
 3086SOL     OW10156   6.135   1.327   4.643
 3086SOL    HW110157   6.234   1.338   4.647
 3086SOL    HW210158   6.105   1.328   4.548
 3087SOL     OW10159   5.757   3.351   1.152
 3087SOL    HW110160   5.806   3.397   1.225
 3087SOL    HW210161   5.796   3.261   1.137
 3088SOL     OW10162   2.954   3.759   6.567
 3088SOL    HW110163   3.007   3.843   6.578
 3088SOL    HW210164   3.017   3.681   6.563
 3089SOL     OW10165   3.250   2.017   2.030
 3089SOL    HW110166   3.267   1.919   2.023
 3089SOL    HW210167   3.327   2.068   1.992
 3090SOL     OW10168   6.208   1.564   1.063
 3090SOL    HW110169   6.209   1.494   0.992
 3090SOL    HW210170   6.264   1.533   1.140
 3091SOL     OW10171   2.020   6.397   6.625
 3091SOL    HW110172   1.932   6.438   6.650
 3091SOL    HW210173   2.021   6.374   6.528
 3092SOL     OW10174   4.557   5.058   6.988
 3092SOL    HW110175   4.549   4.985   6.921
 3092SOL    HW210176   4.646   5.103   6.979
 3093SOL     OW10177   4.460   6.641   2.956
 3093SOL    HW110178   4.419   6.550   2.944
 3093SOL    HW210179   4.497   6.648   3.049
 3094SOL     OW10180   4.106   5.421   4.448
 3094SOL    HW110181   4.082   5.511   4.487
 3094SOL    HW210182   4.057   5.350   4.498
 3095SOL     OW10183   2.029   5.253   5.048
 3095SOL    HW110184   2.053   5.334   5.102
 3095SOL    HW210185   2.084   5.175   5.078
 3096SOL     OW10186   0.276   1.947   5.826
 3096SOL    HW110187   0.267   1.889   5.745
 3096SOL    HW210188   0.330   2.028   5.802
 3097SOL     OW10189   1.819   0.707   6.809
 3097SOL    HW110190   1.812   0.624   6.754
 3097SOL    HW210191   1.893   0.765   6.774
 3098SOL     OW10192   3.735   3.028   0.643
 3098SOL    HW110193   3.822   2.985   0.619
 3098SOL    HW210194   3.703   2.994   0.731
 3099SOL     OW10195   1.427   5.793   5.370
 3099SOL    HW110196   1.498   5.810   5.438
 3099SOL    HW210197   1.350   5.855   5.387
 3100SOL     OW10198   6.100   6.876   6.229
 3100SOL    HW110199   6.025   6.940   6.217
 3100SOL    HW210200   6.177   6.923   6.272
 3101SOL     OW10201   3.039   0.713   1.242
 3101SOL    HW110202   3.009   0.780   1.310
 3101SOL    HW210203   2.976   0.713   1.165
 3102SOL     OW10204   0.923   6.073   0.888
 3102SOL    HW110205   0.953   6.035   0.801
 3102SOL    HW210206   0.965   6.022   0.963
 3103SOL     OW10207   4.360   4.345   1.606
 3103SOL    HW110208   4.355   4.292   1.691
 3103SOL    HW210209   4.279   4.327   1.551
 3104SOL     OW10210   5.743   6.051   3.450
 3104SOL    HW110211   5.644   6.058   3.436
 3104SOL    HW210212   5.766   5.959   3.482
 3105SOL     OW10213   5.666   5.940   3.730
 3105SOL    HW110214   5.576   5.983   3.738
 3105SOL    HW210215   5.737   6.006   3.753
 3106SOL     OW10216   7.016   3.105   4.342
 3106SOL    HW110217   0.025   3.115   4.437
 3106SOL    HW210218   0.074   3.075   4.287
 3107SOL     OW10219   2.424   6.777   4.364
 3107SOL    HW110220   2.368   6.823   4.295
 3107SOL    HW210221   2.446   6.685   4.333
 3108SOL     OW10222   1.952   6.784   2.872
 3108SOL    HW110223   2.038   6.791   2.923
 3108SOL    HW210224   1.920   6.689   2.875
 3109SOL     OW10225   4.407   5.374   3.577
 3109SOL    HW110226   4.457   5.337   3.499
 3109SOL    HW210227   4.460   5.359   3.660
 3110SOL     OW10228   0.553   2.678   1.557
 3110SOL    HW110229   0.488   2.732   1.505
 3110SOL    HW210230   0.546   2.700   1.654
 3111SOL     OW10231   0.236   4.882   2.379
 3111SOL    HW110232   0.197   4.889   2.471
 3111SOL    HW210233   0.163   4.876   2.312
 3112SOL     OW10234   3.090   3.309   6.160
 3112SOL    HW110235   3.184   3.305   6.194
 3112SOL    HW210236   3.035   3.366   6.221
 3113SOL     OW10237   4.052   0.257   3.746
 3113SOL    HW110238   4.002   0.170   3.741
 3113SOL    HW210239   4.147   0.239   3.771
 3114SOL     OW10240   5.287   5.296   0.904
 3114SOL    HW110241   5.220   5.290   0.978
 3114SOL    HW210242   5.349   5.373   0.922
 3115SOL     OW10243   3.460   3.254   2.721
 3115SOL    HW110244   3.390   3.263   2.650
 3115SOL    HW210245   3.438   3.175   2.779
 3116SOL     OW10246   0.295   1.438   6.756
 3116SOL    HW110247   0.348   1.353   6.754
 3116SOL    HW210248   0.268   1.462   6.662
 3117SOL     OW10249   3.187   4.582   6.110
 3117SOL    HW110250   3.210   4.584   6.012
 3117SOL    HW210251   3.205   4.672   6.150
 3118SOL     OW10252   6.632   5.240   6.764
 3118SOL    HW110253   6.622   5.238   6.864
 3118SOL    HW210254   6.611   5.149   6.727
 3119SOL     OW10255   2.344   3.849   6.869
 3119SOL    HW110256   2.434   3.809   6.851
 3119SOL    HW210257   2.295   3.860   6.782
 3120SOL     OW10258   2.453   5.131   6.918
 3120SOL    HW110259   2.482   5.039   6.945
 3120SOL    HW210260   2.470   5.143   6.820
 3121SOL     OW10261   6.741   6.204   3.651
 3121SOL    HW110262   6.838   6.191   3.633
 3121SOL    HW210263   6.710   6.138   3.719
 3122SOL     OW10264   3.240   6.131   1.333
 3122SOL    HW110265   3.308   6.118   1.405
 3122SOL    HW210266   3.174   6.056   1.336
 3123SOL     OW10267   2.978   6.906   3.726
 3123SOL    HW110268   2.955   6.941   3.816
 3123SOL    HW210269   2.922   6.952   3.656
 3124SOL     OW10270   3.873   6.785   5.338
 3124SOL    HW110271   3.881   6.687   5.350
 3124SOL    HW210272   3.955   6.820   5.291
 3125SOL     OW10273   6.851   2.340   5.973
 3125SOL    HW110274   6.886   2.279   5.901
 3125SOL    HW210275   6.927   2.366   6.033
 3126SOL     OW10276   4.077   5.908   6.562
 3126SOL    HW110277   4.069   6.003   6.593
 3126SOL    HW210278   4.072   5.847   6.641
 3127SOL     OW10279   0.721   1.309   4.260
 3127SOL    HW110280   0.621   1.303   4.270
 3127SOL    HW210281   0.747   1.270   4.172
 3128SOL     OW10282   2.294   0.968   1.081
 3128SOL    HW110283   2.325   1.060   1.058
 3128SOL    HW210284   2.313   0.951   1.178
 3129SOL     OW10285   1.672   3.957   2.694
 3129SOL    HW110286   1.714   3.924   2.610
 3129SOL    HW210287   1.581   3.994   2.674
 3130SOL     OW10288   2.773   5.450   2.934
 3130SOL    HW110289   2.708   5.436   2.860
 3130SOL    HW210290   2.825   5.365   2.949
 3131SOL     OW10291   0.665   3.075   3.538
 3131SOL    HW110292   0.573   3.048   3.509
 3131SOL    HW210293   0.658   3.146   3.608
 3132SOL     OW10294   4.572   3.506   5.598
 3132SOL    HW110295   4.649   3.490   5.660
 3132SOL    HW210296   4.487   3.477   5.642
 3133SOL     OW10297   2.294   1.640   3.858
 3133SOL    HW110298   2.263   1.565   3.917
 3133SOL    HW210299   2.269   1.727   3.899
 3134SOL     OW10300   5.395   2.182   1.708
 3134SOL    HW110301   5.364   2.268   1.669
 3134SOL    HW210302   5.316   2.129   1.739
 3135SOL     OW10303   1.233   2.530   2.931
 3135SOL    HW110304   1.259   2.623   2.904
 3135SOL    HW210305   1.185   2.485   2.855
 3136SOL     OW10306   6.672   0.675   4.724
 3136SOL    HW110307   6.652   0.622   4.641
 3136SOL    HW210308   6.698   0.768   4.699
 3137SOL     OW10309   0.559   1.683   4.826
 3137SOL    HW110310   0.566   1.700   4.728
 3137SOL    HW210311   0.639   1.721   4.873
 3138SOL     OW10312   6.594   2.328   4.382
 3138SOL    HW110313   6.511   2.282   4.350
 3138SOL    HW210314   6.592   2.424   4.354
 3139SOL     OW10315   5.381   5.667   5.377
 3139SOL    HW110316   5.334   5.738   5.325
 3139SOL    HW210317   5.480   5.679   5.369
 3140SOL     OW10318   6.227   5.964   5.606
 3140SOL    HW110319   6.270   6.005   5.687
 3140SOL    HW210320   6.268   6.003   5.524
 3141SOL     OW10321   1.227   0.573   1.771
 3141SOL    HW110322   1.230   0.489   1.825
 3141SOL    HW210323   1.153   0.566   1.703
 3142SOL     OW10324   3.631   6.851   1.144
 3142SOL    HW110325   3.719   6.899   1.134
 3142SOL    HW210326   3.600   6.820   1.054
 3143SOL     OW10327   0.584   1.693   0.599
 3143SOL    HW110328   0.678   1.660   0.604
 3143SOL    HW210329   0.556   1.701   0.504
 3144SOL     OW10330   2.736   2.931   0.188
 3144SOL    HW110331   2.667   2.859   0.190
 3144SOL    HW210332   2.825   2.893   0.212
 3145SOL     OW10333   1.831   5.262   2.392
 3145SOL    HW110334   1.894   5.339   2.377
 3145SOL    HW210335   1.828   5.240   2.490
 3146SOL     OW10336   2.091   6.787   4.448
 3146SOL    HW110337   2.142   6.754   4.528
 3146SOL    HW210338   2.099   6.721   4.374
 3147SOL     OW10339   4.358   4.236   0.821
 3147SOL    HW110340   4.377   4.151   0.870
 3147SOL    HW210341   4.284   4.285   0.868
 3148SOL     OW10342   2.907   5.721   4.525
 3148SOL    HW110343   2.815   5.698   4.492
 3148SOL    HW210344   2.914   5.699   4.622
 3149SOL     OW10345   1.639   6.116   5.577
 3149SOL    HW110346   1.714   6.162   5.530
 3149SOL    HW210347   1.553   6.163   5.556
 3150SOL     OW10348   6.327   0.575   4.802
 3150SOL    HW110349   6.420   0.545   4.779
 3150SOL    HW210350   6.332   0.655   4.862
 3151SOL     OW10351   3.818   6.290   1.728
 3151SOL    HW110352   3.908   6.332   1.738
 3151SOL    HW210353   3.760   6.349   1.672
 3152SOL     OW10354   1.670   4.743   6.519
 3152SOL    HW110355   1.648   4.826   6.570
 3152SOL    HW210356   1.698   4.768   6.426
 3153SOL     OW10357   0.375   4.091   3.214
 3153SOL    HW110358   0.347   4.046   3.129
 3153SOL    HW210359   0.341   4.039   3.292
 3154SOL     OW10360   6.068   2.654   6.540
 3154SOL    HW110361   6.075   2.579   6.473
 3154SOL    HW210362   6.145   2.648   6.604
 3155SOL     OW10363   4.129   5.769   0.695
 3155SOL    HW110364   4.147   5.743   0.600
 3155SOL    HW210365   4.034   5.748   0.718
 3156SOL     OW10366   3.225   3.357   3.655
 3156SOL    HW110367   3.313   3.311   3.665
 3156SOL    HW210368   3.165   3.331   3.730
 3157SOL     OW10369   2.151   2.124   4.901
 3157SOL    HW110370   2.058   2.089   4.891
 3157SOL    HW210371   2.216   2.055   4.868
 3158SOL     OW10372   4.734   6.865   1.539
 3158SOL    HW110373   4.791   6.917   1.604
 3158SOL    HW210374   4.685   6.793   1.588
 3159SOL     OW10375   5.417   4.193   0.625
 3159SOL    HW110376   5.356   4.271   0.606
 3159SOL    HW210377   5.365   4.108   0.619
 3160SOL     OW10378   5.975   4.409   0.663
 3160SOL    HW110379   5.976   4.449   0.572
 3160SOL    HW210380   5.903   4.339   0.669
 3161SOL     OW10381   0.479   1.788   3.937
 3161SOL    HW110382   0.398   1.804   3.994
 3161SOL    HW210383   0.560   1.826   3.981
 3162SOL     OW10384   0.369   0.550   6.171
 3162SOL    HW110385   0.451   0.541   6.227
 3162SOL    HW210386   0.294   0.586   6.227
 3163SOL     OW10387   1.809   4.268   5.339
 3163SOL    HW110388   1.758   4.275   5.425
 3163SOL    HW210389   1.757   4.214   5.273
 3164SOL     OW10390   6.243   4.928   5.971
 3164SOL    HW110391   6.325   4.951   5.920
 3164SOL    HW210392   6.244   4.831   5.994
 3165SOL     OW10393   6.837   3.093   1.943
 3165SOL    HW110394   6.923   3.044   1.955
 3165SOL    HW210395   6.842   3.149   1.860
 3166SOL     OW10396   3.964   3.208   6.216
 3166SOL    HW110397   3.885   3.181   6.270
 3166SOL    HW210398   3.971   3.308   6.215
 3167SOL     OW10399   0.040   4.925   2.140
 3167SOL    HW110400   6.961   4.908   2.149
 3167SOL    HW210401   0.074   4.880   2.058
 3168SOL     OW10402   6.401   3.358   0.429
 3168SOL    HW110403   6.462   3.436   0.435
 3168SOL    HW210404   6.384   3.336   0.332
 3169SOL     OW10405   3.125   2.317   5.690
 3169SOL    HW110406   3.218   2.314   5.653
 3169SOL    HW210407   3.088   2.410   5.681
 3170SOL     OW10408   3.340   0.491   4.505
 3170SOL    HW110409   3.375   0.577   4.468
 3170SOL    HW210410   3.246   0.477   4.474
 3171SOL     OW10411   6.453   5.537   2.634
 3171SOL    HW110412   6.420   5.509   2.543
 3171SOL    HW210413   6.387   5.509   2.703
 3172SOL     OW10414   5.345   6.775   4.928
 3172SOL    HW110415   5.375   6.784   4.833
 3172SOL    HW210416   5.299   6.687   4.940
 3173SOL     OW10417   1.646   0.834   1.535
 3173SOL    HW110418   1.715   0.895   1.496
 3173SOL    HW210419   1.593   0.885   1.603
 3174SOL     OW10420   2.440   3.212   0.504
 3174SOL    HW110421   2.368   3.144   0.494
 3174SOL    HW210422   2.478   3.207   0.597
 3175SOL     OW10423   0.183   5.749   0.397
 3175SOL    HW110424   0.238   5.786   0.472
 3175SOL    HW210425   0.174   5.650   0.409
 3176SOL     OW10426   1.038   5.183   6.861
 3176SOL    HW110427   0.983   5.258   6.825
 3176SOL    HW210428   1.102   5.151   6.791
 3177SOL     OW10429   1.036   0.159   3.762
 3177SOL    HW110430   0.945   0.168   3.721
 3177SOL    HW210431   1.090   0.094   3.709
 3178SOL     OW10432   3.715   3.541   0.157
 3178SOL    HW110433   3.753   3.535   0.064
 3178SOL    HW210434   3.724   3.452   0.202
 3179SOL     OW10435   1.521   2.471   4.443
 3179SOL    HW110436   1.442   2.412   4.428
 3179SOL    HW210437   1.497   2.565   4.421
 3180SOL     OW10438   6.648   1.334   0.029
 3180SOL    HW110439   6.698   1.258   7.006
 3180SOL    HW210440   6.614   1.395   6.977
 3181SOL     OW10441   0.186   1.608   1.995
 3181SOL    HW110442   0.216   1.570   2.083
 3181SOL    HW210443   0.090   1.636   2.003
 3182SOL     OW10444   1.186   6.416   5.932
 3182SOL    HW110445   1.087   6.424   5.929
 3182SOL    HW210446   1.226   6.505   5.956
 3183SOL     OW10447   4.573   3.501   0.982
 3183SOL    HW110448   4.635   3.471   1.056
 3183SOL    HW210449   4.479   3.476   1.006
 3184SOL     OW10450   6.945   2.015   2.769
 3184SOL    HW110451   7.004   1.979   2.841
 3184SOL    HW210452   7.001   2.059   2.698
 3185SOL     OW10453   0.295   6.328   0.087
 3185SOL    HW110454   0.348   6.328   0.003
 3185SOL    HW210455   0.226   6.255   0.083
 3186SOL     OW10456   3.614   0.249   1.544
 3186SOL    HW110457   3.635   0.344   1.523
 3186SOL    HW210458   3.675   0.217   1.617
 3187SOL     OW10459   3.666   4.373   0.992
 3187SOL    HW110460   3.682   4.276   1.014
 3187SOL    HW210461   3.567   4.390   0.987
 3188SOL     OW10462   3.492   0.281   3.913
 3188SOL    HW110463   3.544   0.237   3.839
 3188SOL    HW210464   3.401   0.238   3.919
 3189SOL     OW10465   5.917   6.384   1.786
 3189SOL    HW110466   5.969   6.465   1.760
 3189SOL    HW210467   5.980   6.311   1.812
 3190SOL     OW10468   1.376   0.727   2.478
 3190SOL    HW110469   1.381   0.628   2.461
 3190SOL    HW210470   1.463   0.757   2.517
 3191SOL     OW10471   3.431   1.509   0.968
 3191SOL    HW110472   3.521   1.551   0.984
 3191SOL    HW210473   3.398   1.468   1.053
 3192SOL     OW10474   5.677   3.386   4.512
 3192SOL    HW110475   5.756   3.390   4.452
 3192SOL    HW210476   5.593   3.380   4.457
 3193SOL     OW10477   5.530   4.252   1.656
 3193SOL    HW110478   5.459   4.183   1.640
 3193SOL    HW210479   5.536   4.312   1.576
 3194SOL     OW10480   3.138   5.329   4.770
 3194SOL    HW110481   3.215   5.282   4.813
 3194SOL    HW210482   3.059   5.267   4.767
 3195SOL     OW10483   6.645   4.084   4.244
 3195SOL    HW110484   6.616   4.060   4.151
 3195SOL    HW210485   6.593   4.030   4.310
 3196SOL     OW10486   6.938   6.139   6.620
 3196SOL    HW110487   6.965   6.050   6.586
 3196SOL    HW210488   6.958   6.145   6.718
 3197SOL     OW10489   0.785   4.340   5.600
 3197SOL    HW110490   0.723   4.381   5.667
 3197SOL    HW210491   0.846   4.410   5.563
 3198SOL     OW10492   5.445   0.183   1.094
 3198SOL    HW110493   5.460   0.281   1.081
 3198SOL    HW210494   5.531   0.140   1.122
 3199SOL     OW10495   2.792   2.268   3.144
 3199SOL    HW110496   2.704   2.226   3.118
 3199SOL    HW210497   2.866   2.223   3.094
 3200SOL     OW10498   6.657   1.745   0.008
 3200SOL    HW110499   6.707   1.675   0.060
 3200SOL    HW210500   6.589   1.789   0.067
 3201SOL     OW10501   3.749   4.937   3.249
 3201SOL    HW110502   3.706   4.968   3.164
 3201SOL    HW210503   3.684   4.883   3.302
 3202SOL     OW10504   1.186   5.180   2.286
 3202SOL    HW110505   1.163   5.231   2.203
 3202SOL    HW210506   1.275   5.135   2.274
 3203SOL     OW10507   5.003   0.045   0.866
 3203SOL    HW110508   5.075   7.011   0.910
 3203SOL    HW210509   5.036   0.137   0.848
 3204SOL     OW10510   5.957   6.338   2.121
 3204SOL    HW110511   6.005   6.258   2.084
 3204SOL    HW210512   5.985   6.420   2.070
 3205SOL     OW10513   1.546   4.440   4.527
 3205SOL    HW110514   1.613   4.366   4.534
 3205SOL    HW210515   1.510   4.443   4.434
 3206SOL     OW10516   2.024   6.225   0.222
 3206SOL    HW110517   2.078   6.288   0.278
 3206SOL    HW210518   1.931   6.261   0.211
 3207SOL     OW10519   1.593   0.836   3.351
 3207SOL    HW110520   1.579   0.753   3.406
 3207SOL    HW210521   1.508   0.888   3.346
 3208SOL     OW10522   6.056   6.287   6.322
 3208SOL    HW110523   6.034   6.212   6.260
 3208SOL    HW210524   6.007   6.370   6.293
 3209SOL     OW10525   1.025   6.570   3.152
 3209SOL    HW110526   0.983   6.536   3.236
 3209SOL    HW210527   1.097   6.635   3.175
 3210SOL     OW10528   0.361   5.866   2.052
 3210SOL    HW110529   0.429   5.874   1.979
 3210SOL    HW210530   0.369   5.944   2.114
 3211SOL     OW10531   0.011   4.667   3.926
 3211SOL    HW110532   0.074   4.744   3.926
 3211SOL    HW210533   0.059   4.585   3.956
 3212SOL     OW10534   4.473   1.976   4.924
 3212SOL    HW110535   4.511   2.048   4.866
 3212SOL    HW210536   4.431   1.905   4.866
 3213SOL     OW10537   5.471   0.140   2.094
 3213SOL    HW110538   5.372   0.126   2.088
 3213SOL    HW210539   5.518   0.053   2.078
 3214SOL     OW10540   4.467   3.417   0.405
 3214SOL    HW110541   4.539   3.366   0.358
 3214SOL    HW210542   4.391   3.432   0.343
 3215SOL     OW10543   6.764   1.535   0.174
 3215SOL    HW110544   6.728   1.453   0.130
 3215SOL    HW210545   6.864   1.531   0.177
 3216SOL     OW10546   5.078   6.676   5.471
 3216SOL    HW110547   4.982   6.655   5.486
 3216SOL    HW210548   5.135   6.620   5.532
 3217SOL     OW10549   0.471   4.545   6.569
 3217SOL    HW110550   0.379   4.563   6.534
 3217SOL    HW210551   0.483   4.593   6.656
 3218SOL     OW10552   4.285   2.765   1.453
 3218SOL    HW110553   4.251   2.801   1.366
 3218SOL    HW210554   4.379   2.734   1.442
 3219SOL     OW10555   0.571   2.372   3.122
 3219SOL    HW110556   0.523   2.293   3.084
 3219SOL    HW210557   0.592   2.436   3.049
 3220SOL     OW10558   0.013   2.396   6.771
 3220SOL    HW110559   0.085   2.424   6.708
 3220SOL    HW210560   6.988   2.313   6.737
 3221SOL     OW10561   4.182   0.280   1.697
 3221SOL    HW110562   4.093   0.325   1.687
 3221SOL    HW210563   4.238   0.300   1.616
 3222SOL     OW10564   6.082   3.841   2.219
 3222SOL    HW110565   6.118   3.919   2.269
 3222SOL    HW210566   6.007   3.871   2.160
 3223SOL     OW10567   1.242   4.213   5.489
 3223SOL    HW110568   1.174   4.200   5.417
 3223SOL    HW210569   1.216   4.291   5.545
 3224SOL     OW10570   2.780   6.719   1.475
 3224SOL    HW110571   2.692   6.676   1.495
 3224SOL    HW210572   2.810   6.771   1.555
 3225SOL     OW10573   1.312   1.667   0.311
 3225SOL    HW110574   1.308   1.611   0.228
 3225SOL    HW210575   1.302   1.764   0.286
 3226SOL     OW10576   6.745   1.251   3.712
 3226SOL    HW110577   6.652   1.279   3.689
 3226SOL    HW210578   6.806   1.331   3.709
 3227SOL     OW10579   2.581   1.930   4.790
 3227SOL    HW110580   2.634   1.918   4.706
 3227SOL    HW210581   2.621   1.875   4.863
 3228SOL     OW10582   4.898   3.390   4.736
 3228SOL    HW110583   4.811   3.438   4.720
 3228SOL    HW210584   4.893   3.298   4.698
 3229SOL     OW10585   4.892   1.386   4.523
 3229SOL    HW110586   4.805   1.336   4.521
 3229SOL    HW210587   4.913   1.420   4.431
 3230SOL     OW10588   1.020   6.688   4.251
 3230SOL    HW110589   0.934   6.697   4.200
 3230SOL    HW210590   1.055   6.779   4.273
 3231SOL     OW10591   4.275   4.572   6.918
 3231SOL    HW110592   4.278   4.667   6.888
 3231SOL    HW210593   4.241   4.567   7.012
 3232SOL     OW10594   0.764   4.127   3.792
 3232SOL    HW110595   0.690   4.151   3.855
 3232SOL    HW210596   0.731   4.127   3.698
 3233SOL     OW10597   2.527   4.284   0.585
 3233SOL    HW110598   2.435   4.283   0.624
 3233SOL    HW210599   2.541   4.201   0.529
 3234SOL     OW10600   6.709   1.830   3.855
 3234SOL    HW110601   6.611   1.852   3.853
 3234SOL    HW210602   6.721   1.733   3.873
 3235SOL     OW10603   6.360   0.835   2.042
 3235SOL    HW110604   6.261   0.848   2.044
 3235SOL    HW210605   6.406   0.922   2.061
 3236SOL     OW10606   0.465   1.510   1.511
 3236SOL    HW110607   0.562   1.505   1.533
 3236SOL    HW210608   0.420   1.426   1.542
 3237SOL     OW10609   2.838   5.408   5.021
 3237SOL    HW110610   2.801   5.362   5.102
 3237SOL    HW210611   2.834   5.345   4.943
 3238SOL     OW10612   6.904   6.377   6.508
 3238SOL    HW110613   6.817   6.400   6.552
 3238SOL    HW210614   6.934   6.287   6.540
 3239SOL     OW10615   2.336   6.453   6.314
 3239SOL    HW110616   2.389   6.507   6.248
 3239SOL    HW210617   2.249   6.427   6.272
 3240SOL     OW10618   1.165   2.595   4.605
 3240SOL    HW110619   1.150   2.504   4.643
 3240SOL    HW210620   1.122   2.663   4.664
 3241SOL     OW10621   3.904   5.998   5.089
 3241SOL    HW110622   3.835   6.004   5.017
 3241SOL    HW210623   3.890   5.914   5.142
 3242SOL     OW10624   2.925   1.116   1.060
 3242SOL    HW110625   2.856   1.075   1.001
 3242SOL    HW210626   3.013   1.118   1.014
 3243SOL     OW10627   3.524   5.948   2.724
 3243SOL    HW110628   3.613   5.983   2.753
 3243SOL    HW210629   3.456   5.966   2.795
 3244SOL     OW10630   1.505   0.044   5.158
 3244SOL    HW110631   1.441   0.098   5.213
 3244SOL    HW210632   1.481   0.053   5.061
 3245SOL     OW10633   3.560   2.440   5.838
 3245SOL    HW110634   3.485   2.421   5.774
 3245SOL    HW210635   3.647   2.427   5.791
 3246SOL     OW10636   6.114   6.610   1.649
 3246SOL    HW110637   6.113   6.656   1.737
 3246SOL    HW210638   6.056   6.660   1.584
 3247SOL     OW10639   5.872   2.969   4.737
 3247SOL    HW110640   5.936   2.945   4.664
 3247SOL    HW210641   5.848   2.887   4.789
 3248SOL     OW10642   5.298   4.238   3.442
 3248SOL    HW110643   5.288   4.139   3.438
 3248SOL    HW210644   5.255   4.279   3.361
 3249SOL     OW10645   3.979   5.317   6.039
 3249SOL    HW110646   3.982   5.217   6.037
 3249SOL    HW210647   3.887   5.346   6.066
 3250SOL     OW10648   4.317   4.656   0.587
 3250SOL    HW110649   4.366   4.721   0.645
 3250SOL    HW210650   4.360   4.566   0.595
 3251SOL     OW10651   2.548   1.355   3.225
 3251SOL    HW110652   2.520   1.434   3.171
 3251SOL    HW210653   2.554   1.381   3.322
 3252SOL     OW10654   3.213   2.117   2.809
 3252SOL    HW110655   3.266   2.069   2.878
 3252SOL    HW210656   3.275   2.156   2.741
 3253SOL     OW10657   5.425   4.261   2.103
 3253SOL    HW110658   5.421   4.338   2.166
 3253SOL    HW210659   5.514   4.257   2.059
 3254SOL     OW10660   6.213   3.649   3.048
 3254SOL    HW110661   6.132   3.645   3.106
 3254SOL    HW210662   6.250   3.557   3.037
 3255SOL     OW10663   2.679   4.763   0.444
 3255SOL    HW110664   2.605   4.767   0.377
 3255SOL    HW210665   2.676   4.676   0.493
 3256SOL     OW10666   6.430   6.813   5.444
 3256SOL    HW110667   6.429   6.752   5.523
 3256SOL    HW210668   6.344   6.864   5.440
 3257SOL     OW10669   2.976   0.888   1.932
 3257SOL    HW110670   3.061   0.942   1.938
 3257SOL    HW210671   2.920   0.906   2.013
 3258SOL     OW10672   4.685   6.790   2.531
 3258SOL    HW110673   4.672   6.769   2.628
 3258SOL    HW210674   4.604   6.760   2.480
 3259SOL     OW10675   5.652   5.602   3.246
 3259SOL    HW110676   5.576   5.660   3.276
 3259SOL    HW210677   5.685   5.634   3.158
 3260SOL     OW10678   2.039   1.603   1.188
 3260SOL    HW110679   1.990   1.595   1.275
 3260SOL    HW210680   2.093   1.521   1.172
 3261SOL     OW10681   4.775   6.468   4.386
 3261SOL    HW110682   4.732   6.384   4.356
 3261SOL    HW210683   4.705   6.537   4.406
 3262SOL     OW10684   4.786   2.324   3.615
 3262SOL    HW110685   4.807   2.381   3.536
 3262SOL    HW210686   4.842   2.354   3.693
 3263SOL     OW10687   3.097   4.992   2.849
 3263SOL    HW110688   3.039   4.944   2.915
 3263SOL    HW210689   3.086   4.950   2.758
 3264SOL     OW10690   4.715   3.685   6.441
 3264SOL    HW110691   4.642   3.751   6.425
 3264SOL    HW210692   4.742   3.644   6.353
 3265SOL     OW10693   5.271   6.896   5.783
 3265SOL    HW110694   5.296   6.873   5.689
 3265SOL    HW210695   5.274   6.814   5.839
 3266SOL     OW10696   1.539   2.408   5.845
 3266SOL    HW110697   1.608   2.360   5.791
 3266SOL    HW210698   1.468   2.443   5.785
 3267SOL     OW10699   5.684   3.853   0.760
 3267SOL    HW110700   5.708   3.910   0.681
 3267SOL    HW210701   5.664   3.760   0.729
 3268SOL     OW10702   2.230   5.351   0.653
 3268SOL    HW110703   2.308   5.410   0.671
 3268SOL    HW210704   2.153   5.406   0.620
 3269SOL     OW10705   4.028   3.427   1.349
 3269SOL    HW110706   3.935   3.464   1.350
 3269SOL    HW210707   4.062   3.422   1.443
 3270SOL     OW10708   6.438   6.003   2.768
 3270SOL    HW110709   6.449   6.102   2.768
 3270SOL    HW210710   6.435   5.969   2.863
 3271SOL     OW10711   4.638   6.898   0.392
 3271SOL    HW110712   4.737   6.912   0.384
 3271SOL    HW210713   4.607   6.931   0.481
 3272SOL     OW10714   4.156   5.776   6.311
 3272SOL    HW110715   4.127   5.681   6.298
 3272SOL    HW210716   4.112   5.813   6.392
 3273SOL     OW10717   6.564   0.581   2.723
 3273SOL    HW110718   6.509   0.598   2.642
 3273SOL    HW210719   6.556   0.484   2.749
 3274SOL     OW10720   3.362   0.299   1.630
 3274SOL    HW110721   3.446   0.274   1.581
 3274SOL    HW210722   3.294   0.227   1.618
 3275SOL     OW10723   4.814   0.449   5.856
 3275SOL    HW110724   4.797   0.350   5.866
 3275SOL    HW210725   4.753   0.499   5.917
 3276SOL     OW10726   2.063   5.192   1.230
 3276SOL    HW110727   1.987   5.141   1.271
 3276SOL    HW210728   2.030   5.282   1.201
 3277SOL     OW10729   0.521   5.810   6.310
 3277SOL    HW110730   0.485   5.897   6.277
 3277SOL    HW210731   0.590   5.827   6.381
 3278SOL     OW10732   1.138   7.007   6.945
 3278SOL    HW110733   1.218   6.966   6.988
 3278SOL    HW210734   1.064   6.940   6.943
 3279SOL     OW10735   1.932   6.718   1.766
 3279SOL    HW110736   1.911   6.684   1.858
 3279SOL    HW210737   1.849   6.715   1.710
 3280SOL     OW10738   2.951   5.812   3.564
 3280SOL    HW110739   3.011   5.735   3.585
 3280SOL    HW210740   2.857   5.790   3.592
 3281SOL     OW10741   1.736   6.998   1.393
 3281SOL    HW110742   1.749   7.010   1.294
 3281SOL    HW210743   1.676   6.919   1.409
 3282SOL     OW10744   1.394   4.606   2.018
 3282SOL    HW110745   1.312   4.623   1.962
 3282SOL    HW210746   1.384   4.518   2.064
 3283SOL     OW10747   1.263   0.393   3.519
 3283SOL    HW110748   1.350   0.361   3.482
 3283SOL    HW210749   1.247   0.488   3.492
 3284SOL     OW10750   2.541   6.058   5.787
 3284SOL    HW110751   2.534   5.971   5.738
 3284SOL    HW210752   2.478   6.057   5.865
 3285SOL     OW10753   0.750   3.536   4.086
 3285SOL    HW110754   0.785   3.496   4.170
 3285SOL    HW210755   0.822   3.589   4.042
 3286SOL     OW10756   5.090   4.812   0.525
 3286SOL    HW110757   5.159   4.752   0.565
 3286SOL    HW210758   4.999   4.777   0.548
 3287SOL     OW10759   0.751   2.100   1.215
 3287SOL    HW110760   0.829   2.153   1.183
 3287SOL    HW210761   0.745   2.015   1.163
 3288SOL     OW10762   1.070   6.970   0.498
 3288SOL    HW110763   0.981   6.925   0.488
 3288SOL    HW210764   1.116   6.935   0.580
 3289SOL     OW10765   1.375   0.858   4.103
 3289SOL    HW110766   1.455   0.884   4.158
 3289SOL    HW210767   1.335   0.774   4.141
 3290SOL     OW10768   0.057   4.837   4.749
 3290SOL    HW110769   7.003   4.904   4.751
 3290SOL    HW210770   0.021   4.747   4.724
 3291SOL     OW10771   1.251   1.607   1.715
 3291SOL    HW110772   1.340   1.562   1.718
 3291SOL    HW210773   1.202   1.578   1.633
 3292SOL     OW10774   0.957   6.882   3.808
 3292SOL    HW110775   1.043   6.928   3.787
 3292SOL    HW210776   0.974   6.784   3.819
 3293SOL     OW10777   5.969   0.958   3.007
 3293SOL    HW110778   5.944   0.898   2.931
 3293SOL    HW210779   5.930   1.049   2.992
 3294SOL     OW10780   6.899   6.358   1.605
 3294SOL    HW110781   6.944   6.269   1.618
 3294SOL    HW210782   6.862   6.363   1.512
 3295SOL     OW10783   2.920   3.070   6.494
 3295SOL    HW110784   2.848   3.007   6.523
 3295SOL    HW210785   2.911   3.089   6.396
 3296SOL     OW10786   0.988   6.702   1.944
 3296SOL    HW110787   0.895   6.681   1.912
 3296SOL    HW210788   1.018   6.788   1.905
 3297SOL     OW10789   3.875   0.140   5.253
 3297SOL    HW110790   3.828   0.063   5.210
 3297SOL    HW210791   3.845   0.225   5.210
 3298SOL     OW10792   6.833   5.512   3.242
 3298SOL    HW110793   6.889   5.466   3.311
 3298SOL    HW210794   6.788   5.591   3.283
 3299SOL     OW10795   2.121   1.371   4.595
 3299SOL    HW110796   2.155   1.319   4.517
 3299SOL    HW210797   2.141   1.321   4.680
 3300SOL     OW10798   0.207   6.626   4.734
 3300SOL    HW110799   0.246   6.674   4.812
 3300SOL    HW210800   0.242   6.666   4.649
 3301SOL     OW10801   6.285   4.224   2.536
 3301SOL    HW110802   6.301   4.132   2.572
 3301SOL    HW210803   6.308   4.225   2.438
 3302SOL     OW10804   2.052   5.668   5.847
 3302SOL    HW110805   1.973   5.628   5.799
 3302SOL    HW210806   2.022   5.705   5.935
 3303SOL     OW10807   3.396   3.400   5.193
 3303SOL    HW110808   3.393   3.367   5.288
 3303SOL    HW210809   3.347   3.487   5.187
 3304SOL     OW10810   2.199   0.948   3.873
 3304SOL    HW110811   2.168   0.916   3.784
 3304SOL    HW210812   2.266   0.884   3.910
 3305SOL     OW10813   1.750   2.132   0.338
 3305SOL    HW110814   1.741   2.049   0.283
 3305SOL    HW210815   1.835   2.128   0.390
 3306SOL     OW10816   1.338   1.608   0.623
 3306SOL    HW110817   1.326   1.591   0.526
 3306SOL    HW210818   1.412   1.550   0.658
 3307SOL     OW10819   0.449   6.468   0.257
 3307SOL    HW110820   0.365   6.431   0.219
 3307SOL    HW210821   0.467   6.558   0.219
 3308SOL     OW10822   5.066   5.460   0.172
 3308SOL    HW110823   5.049   5.542   0.226
 3308SOL    HW210824   5.164   5.454   0.151
 3309SOL     OW10825   0.385   4.396   2.074
 3309SOL    HW110826   0.460   4.371   2.136
 3309SOL    HW210827   0.302   4.411   2.128
 3310SOL     OW10828   2.227   0.089   2.097
 3310SOL    HW110829   2.186   0.003   2.068
 3310SOL    HW210830   2.172   0.129   2.171
 3311SOL     OW10831   4.317   5.019   0.822
 3311SOL    HW110832   4.227   4.988   0.790
 3311SOL    HW210833   4.314   5.117   0.839
 3312SOL     OW10834   2.035   2.494   5.657
 3312SOL    HW110835   2.020   2.415   5.597
 3312SOL    HW210836   2.024   2.465   5.753
 3313SOL     OW10837   5.232   6.455   5.241
 3313SOL    HW110838   5.270   6.545   5.262
 3313SOL    HW210839   5.185   6.418   5.320
 3314SOL     OW10840   0.503   3.923   6.688
 3314SOL    HW110841   0.562   3.940   6.609
 3314SOL    HW210842   0.424   3.984   6.684
 3315SOL     OW10843   6.578   3.410   3.272
 3315SOL    HW110844   6.528   3.343   3.217
 3315SOL    HW210845   6.636   3.466   3.213
 3316SOL     OW10846   3.700   0.574   6.311
 3316SOL    HW110847   3.609   0.606   6.284
 3316SOL    HW210848   3.768   0.644   6.289
 3317SOL     OW10849   6.389   2.726   1.292
 3317SOL    HW110850   6.380   2.664   1.370
 3317SOL    HW210851   6.314   2.791   1.293
 3318SOL     OW10852   2.570   4.991   6.287
 3318SOL    HW110853   2.505   5.057   6.250
 3318SOL    HW210854   2.629   4.958   6.213
 3319SOL     OW10855   1.298   6.119   6.431
 3319SOL    HW110856   1.375   6.183   6.436
 3319SOL    HW210857   1.244   6.138   6.348
 3320SOL     OW10858   1.444   0.663   0.996
 3320SOL    HW110859   1.427   0.753   1.036
 3320SOL    HW210860   1.495   0.674   0.911
 3321SOL     OW10861   3.925   3.766   4.174
 3321SOL    HW110862   4.002   3.703   4.166
 3321SOL    HW210863   3.840   3.716   4.161
 3322SOL     OW10864   5.405   3.612   2.809
 3322SOL    HW110865   5.308   3.626   2.829
 3322SOL    HW210866   5.459   3.669   2.871
 3323SOL     OW10867   1.351   4.220   0.529
 3323SOL    HW110868   1.430   4.213   0.468
 3323SOL    HW210869   1.370   4.286   0.602
 3324SOL     OW10870   6.470   2.796   1.989
 3324SOL    HW110871   6.426   2.841   2.067
 3324SOL    HW210872   6.549   2.849   1.960
 3325SOL     OW10873   1.351   4.771   5.518
 3325SOL    HW110874   1.357   4.675   5.493
 3325SOL    HW210875   1.300   4.820   5.447
 3326SOL     OW10876   4.308   6.979   2.339
 3326SOL    HW110877   4.258   6.892   2.340
 3326SOL    HW210878   4.260   0.024   2.279
 3327SOL     OW10879   4.763   6.011   2.119
 3327SOL    HW110880   4.752   5.985   2.215
 3327SOL    HW210881   4.847   6.065   2.109
 3328SOL     OW10882   6.422   6.194   3.089
 3328SOL    HW110883   6.376   6.265   3.143
 3328SOL    HW210884   6.377   6.106   3.105
 3329SOL     OW10885   5.727   0.161   5.980
 3329SOL    HW110886   5.635   0.183   5.947
 3329SOL    HW210887   5.777   0.245   5.999
 3330SOL     OW10888   5.707   0.847   3.764
 3330SOL    HW110889   5.734   0.852   3.668
 3330SOL    HW210890   5.734   0.931   3.810
 3331SOL     OW10891   0.730   3.570   2.693
 3331SOL    HW110892   0.709   3.615   2.606
 3331SOL    HW210893   0.808   3.508   2.681
 3332SOL     OW10894   4.214   5.110   1.437
 3332SOL    HW110895   4.127   5.110   1.486
 3332SOL    HW210896   4.283   5.157   1.493
 3333SOL     OW10897   2.226   4.013   1.136
 3333SOL    HW110898   2.194   3.951   1.208
 3333SOL    HW210899   2.173   4.098   1.140
 3334SOL     OW10900   2.270   2.759   2.142
 3334SOL    HW110901   2.181   2.714   2.151
 3334SOL    HW210902   2.328   2.733   2.219
 3335SOL     OW10903   4.367   4.163   6.421
 3335SOL    HW110904   4.408   4.158   6.330
 3335SOL    HW210905   4.358   4.258   6.449
 3336SOL     OW10906   3.716   5.755   6.554
 3336SOL    HW110907   3.621   5.732   6.576
 3336SOL    HW210908   3.718   5.840   6.501
 3337SOL     OW10909   3.080   3.945   4.462
 3337SOL    HW110910   3.179   3.936   4.451
 3337SOL    HW210911   3.057   3.945   4.559
 3338SOL     OW10912   3.574   2.931   1.609
 3338SOL    HW110913   3.489   2.978   1.585
 3338SOL    HW210914   3.554   2.856   1.672
 3339SOL     OW10915   0.786   6.807   5.599
 3339SOL    HW110916   0.728   6.873   5.551
 3339SOL    HW210917   0.864   6.854   5.639
 3340SOL     OW10918   4.994   2.324   6.739
 3340SOL    HW110919   5.061   2.390   6.704
 3340SOL    HW210920   4.903   2.365   6.736
 3341SOL     OW10921   1.067   3.471   1.514
 3341SOL    HW110922   1.128   3.509   1.584
 3341SOL    HW210923   1.059   3.536   1.439
 3342SOL     OW10924   5.935   0.642   3.576
 3342SOL    HW110925   5.836   0.633   3.589
 3342SOL    HW210926   5.970   0.558   3.534
 3343SOL     OW10927   3.455   5.034   0.138
 3343SOL    HW110928   3.406   5.095   0.200
 3343SOL    HW210929   3.551   5.026   0.168
 3344SOL     OW10930   1.948   3.814   0.796
 3344SOL    HW110931   1.954   3.773   0.705
 3344SOL    HW210932   1.859   3.794   0.836
 3345SOL     OW10933   4.066   4.921   0.774
 3345SOL    HW110934   3.997   4.978   0.729
 3345SOL    HW210935   4.046   4.825   0.756
 3346SOL     OW10936   0.934   0.846   0.356
 3346SOL    HW110937   0.840   0.872   0.330
 3346SOL    HW210938   0.943   0.747   0.353
 3347SOL     OW10939   0.959   3.210   5.714
 3347SOL    HW110940   0.999   3.262   5.638
 3347SOL    HW210941   0.994   3.246   5.800
 3348SOL     OW10942   3.064   4.281   5.720
 3348SOL    HW110943   3.080   4.338   5.801
 3348SOL    HW210944   3.149   4.272   5.668
 3349SOL     OW10945   2.659   5.363   1.487
 3349SOL    HW110946   2.679   5.291   1.554
 3349SOL    HW210947   2.683   5.452   1.525
 3350SOL     OW10948   3.134   4.864   4.507
 3350SOL    HW110949   3.115   4.886   4.603
 3350SOL    HW210950   3.223   4.819   4.501
 3351SOL     OW10951   4.127   0.140   2.222
 3351SOL    HW110952   4.040   0.097   2.244
 3351SOL    HW210953   4.144   0.134   2.123
 3352SOL     OW10954   5.976   0.789   0.386
 3352SOL    HW110955   6.000   0.741   0.301
 3352SOL    HW210956   5.897   0.745   0.428
 3353SOL     OW10957   4.931   0.183   6.018
 3353SOL    HW110958   4.884   0.157   5.934
 3353SOL    HW210959   4.864   0.188   6.093
 3354SOL     OW10960   3.790   1.469   0.460
 3354SOL    HW110961   3.857   1.541   0.441
 3354SOL    HW210962   3.722   1.502   0.525
 3355SOL     OW10963   1.020   2.054   5.739
 3355SOL    HW110964   1.049   2.115   5.665
 3355SOL    HW210965   1.027   2.103   5.826
 3356SOL     OW10966   2.904   0.162   5.189
 3356SOL    HW110967   2.805   0.151   5.201
 3356SOL    HW210968   2.922   0.254   5.152
 3357SOL     OW10969   3.327   3.498   4.412
 3357SOL    HW110970   3.241   3.542   4.437
 3357SOL    HW210971   3.320   3.399   4.429
 3358SOL     OW10972   0.112   2.261   1.314
 3358SOL    HW110973   0.113   2.268   1.215
 3358SOL    HW210974   0.098   2.352   1.354
 3359SOL     OW10975   0.532   0.002   3.086
 3359SOL    HW110976   0.466   0.004   3.011
 3359SOL    HW210977   0.603   6.954   3.065
 3360SOL     OW10978   1.499   5.602   4.945
 3360SOL    HW110979   1.402   5.590   4.967
 3360SOL    HW210980   1.534   5.683   4.991
 3361SOL     OW10981   0.598   6.872   4.716
 3361SOL    HW110982   0.558   6.859   4.625
 3361SOL    HW210983   0.688   6.915   4.707
 3362SOL     OW10984   3.783   0.354   5.065
 3362SOL    HW110985   3.729   0.305   4.997
 3362SOL    HW210986   3.806   0.445   5.031
 3363SOL     OW10987   5.146   3.305   0.653
 3363SOL    HW110988   5.151   3.404   0.642
 3363SOL    HW210989   5.059   3.272   0.617
 3364SOL     OW10990   2.271   3.228   1.335
 3364SOL    HW110991   2.242   3.140   1.299
 3364SOL    HW210992   2.326   3.214   1.418
 3365SOL     OW10993   0.467   3.368   2.966
 3365SOL    HW110994   0.532   3.332   3.033
 3365SOL    HW210995   0.513   3.437   2.909
 3366SOL     OW10996   5.512   2.561   3.639
 3366SOL    HW110997   5.468   2.513   3.715
 3366SOL    HW210998   5.593   2.609   3.673
 3367SOL     OW10999   3.459   3.779   3.150
 3367SOL    HW111000   3.383   3.819   3.200
 3367SOL    HW211001   3.504   3.710   3.207
 3368SOL     OW11002   1.420   1.387   3.908
 3368SOL    HW111003   1.467   1.461   3.860
 3368SOL    HW211004   1.394   1.316   3.843
 3369SOL     OW11005   6.355   3.017   0.866
 3369SOL    HW111006   6.338   3.081   0.791
 3369SOL    HW211007   6.267   2.983   0.901
 3370SOL     OW11008   0.021   6.080   3.541
 3370SOL    HW111009   0.017   5.981   3.528
 3370SOL    HW211010   0.028   6.101   3.639
 3371SOL     OW11011   3.194   2.564   1.434
 3371SOL    HW111012   3.212   2.544   1.530
 3371SOL    HW211013   3.194   2.663   1.420
 3372SOL     OW11014   5.961   2.650   3.366
 3372SOL    HW111015   5.942   2.555   3.392
 3372SOL    HW211016   5.938   2.711   3.442
 3373SOL     OW11017   0.713   4.715   1.112
 3373SOL    HW111018   0.624   4.752   1.085
 3373SOL    HW211019   0.711   4.692   1.209
 3374SOL     OW11020   0.731   5.532   4.015
 3374SOL    HW111021   0.727   5.571   4.107
 3374SOL    HW211022   0.822   5.493   3.999
 3375SOL     OW11023   6.777   6.662   5.727
 3375SOL    HW111024   6.843   6.725   5.686
 3375SOL    HW211025   6.791   6.659   5.826
 3376SOL     OW11026   3.286   3.710   4.782
 3376SOL    HW111027   3.226   3.650   4.834
 3376SOL    HW211028   3.234   3.786   4.744
 3377SOL     OW11029   5.815   5.424   4.573
 3377SOL    HW111030   5.761   5.493   4.524
 3377SOL    HW211031   5.880   5.469   4.634
 3378SOL     OW11032   0.716   5.582   6.940
 3378SOL    HW111033   0.634   5.604   6.993
 3378SOL    HW211034   0.795   5.627   6.981
 3379SOL     OW11035   6.065   4.758   3.991
 3379SOL    HW111036   6.163   4.737   3.986
 3379SOL    HW211037   6.053   4.849   4.030
 3380SOL     OW11038   1.219   4.698   1.839
 3380SOL    HW111039   1.151   4.771   1.832
 3380SOL    HW211040   1.247   4.670   1.747
 3381SOL     OW11041   2.956   4.797   0.180
 3381SOL    HW111042   3.014   4.872   0.148
 3381SOL    HW211043   3.011   4.715   0.194
 3382SOL     OW11044   0.615   3.363   0.025
 3382SOL    HW111045   0.707   3.353   0.063
 3382SOL    HW211046   0.547   3.354   0.098
 3383SOL     OW11047   3.391   5.855   7.019
 3383SOL    HW111048   3.397   5.954   7.001
 3383SOL    HW211049   3.453   5.832   0.074
 3384SOL     OW11050   3.253   2.731   6.732
 3384SOL    HW111051   3.188   2.751   6.659
 3384SOL    HW211052   3.213   2.758   6.820
 3385SOL     OW11053   6.180   1.932   4.462
 3385SOL    HW111054   6.270   1.939   4.419
 3385SOL    HW211055   6.188   1.949   4.561
 3386SOL     OW11056   6.621   4.420   5.248
 3386SOL    HW111057   6.548   4.462   5.193
 3386SOL    HW211058   6.659   4.342   5.199
 3387SOL     OW11059   5.800   0.848   2.467
 3387SOL    HW111060   5.777   0.906   2.546
 3387SOL    HW211061   5.718   0.800   2.437
 3388SOL     OW11062   1.147   3.846   1.059
 3388SOL    HW111063   1.134   3.872   0.963
 3388SOL    HW211064   1.184   3.754   1.063
 3389SOL     OW11065   6.070   5.283   6.461
 3389SOL    HW111066   6.116   5.280   6.372
 3389SOL    HW211067   6.102   5.208   6.518
 3390SOL     OW11068   3.108   4.362   0.972
 3390SOL    HW111069   3.090   4.429   1.044
 3390SOL    HW211070   3.027   4.303   0.962
 3391SOL     OW11071   5.857   4.225   5.470
 3391SOL    HW111072   5.764   4.260   5.458
 3391SOL    HW211073   5.868   4.140   5.418
 3392SOL     OW11074   5.041   5.405   5.948
 3392SOL    HW111075   5.071   5.309   5.945
 3392SOL    HW211076   5.113   5.460   5.990
 3393SOL     OW11077   3.530   1.032   0.598
 3393SOL    HW111078   3.448   1.001   0.550
 3393SOL    HW211079   3.566   1.114   0.553
 3394SOL     OW11080   3.371   5.613   2.023
 3394SOL    HW111081   3.339   5.650   2.110
 3394SOL    HW211082   3.323   5.527   2.004
 3395SOL     OW11083   1.777   6.153   3.199
 3395SOL    HW111084   1.760   6.170   3.101
 3395SOL    HW211085   1.722   6.076   3.229
 3396SOL     OW11086   3.928   0.023   4.154
 3396SOL    HW111087   3.948   6.953   4.195
 3396SOL    HW211088   3.837   0.020   4.112
 3397SOL     OW11089   3.363   5.952   2.218
 3397SOL    HW111090   3.367   6.042   2.263
 3397SOL    HW211091   3.341   5.882   2.286
 3398SOL     OW11092   6.325   0.112   1.089
 3398SOL    HW111093   6.297   0.208   1.086
 3398SOL    HW211094   6.328   0.075   0.996
 3399SOL     OW11095   5.728   6.557   2.444
 3399SOL    HW111096   5.765   6.570   2.536
 3399SOL    HW211097   5.646   6.612   2.433
 3400SOL     OW11098   3.272   3.378   5.952
 3400SOL    HW111099   3.193   3.401   6.009
 3400SOL    HW211100   3.255   3.291   5.906
 3401SOL     OW11101   6.450   3.820   3.675
 3401SOL    HW111102   6.472   3.770   3.591
 3401SOL    HW211103   6.522   3.805   3.743
 3402SOL     OW11104   6.831   3.961   0.284
 3402SOL    HW111105   6.771   3.939   0.207
 3402SOL    HW211106   6.879   3.878   0.314
 3403SOL     OW11107   5.461   6.891   4.050
 3403SOL    HW111108   5.462   6.791   4.042
 3403SOL    HW211109   5.436   6.931   3.962
 3404SOL     OW11110   5.053   4.916   3.000
 3404SOL    HW111111   5.121   4.876   2.938
 3404SOL    HW211112   5.097   4.939   3.087
 3405SOL     OW11113   4.415   0.083   0.265
 3405SOL    HW111114   4.471   0.078   0.182
 3405SOL    HW211115   4.367   0.171   0.268
 3406SOL     OW11116   4.923   4.533   0.947
 3406SOL    HW111117   4.834   4.498   0.920
 3406SOL    HW211118   4.930   4.629   0.921
 3407SOL     OW11119   2.179   1.816   0.768
 3407SOL    HW111120   2.220   1.837   0.680
 3407SOL    HW211121   2.238   1.849   0.841
 3408SOL     OW11122   3.016   6.823   4.564
 3408SOL    HW111123   2.932   6.841   4.616
 3408SOL    HW211124   3.035   6.725   4.564
 3409SOL     OW11125   4.833   1.968   0.098
 3409SOL    HW111126   4.861   1.880   0.138
 3409SOL    HW211127   4.779   2.019   0.165
 3410SOL     OW11128   6.419   1.712   2.473
 3410SOL    HW111129   6.395   1.616   2.460
 3410SOL    HW211130   6.467   1.746   2.392
 3411SOL     OW11131   5.172   3.438   6.468
 3411SOL    HW111132   5.179   3.526   6.421
 3411SOL    HW211133   5.123   3.449   6.554
 3412SOL     OW11134   4.924   3.644   2.769
 3412SOL    HW111135   4.941   3.559   2.719
 3412SOL    HW211136   4.934   3.722   2.706
 3413SOL     OW11137   1.345   1.996   0.339
 3413SOL    HW111138   1.330   1.963   0.432
 3413SOL    HW211139   1.257   1.998   0.290
 3414SOL     OW11140   3.264   3.366   1.763
 3414SOL    HW111141   3.201   3.350   1.688
 3414SOL    HW211142   3.222   3.426   1.831
 3415SOL     OW11143   2.704   0.947   6.920
 3415SOL    HW111144   2.762   1.028   6.910
 3415SOL    HW211145   2.704   0.918   7.016
 3416SOL     OW11146   5.484   5.891   6.531
 3416SOL    HW111147   5.482   5.793   6.554
 3416SOL    HW211148   5.430   5.942   6.598
 3417SOL     OW11149   5.738   0.298   2.608
 3417SOL    HW111150   5.718   0.356   2.686
 3417SOL    HW211151   5.803   0.344   2.547
 3418SOL     OW11152   4.531   6.080   1.530
 3418SOL    HW111153   4.496   6.103   1.621
 3418SOL    HW211154   4.478   6.005   1.491
 3419SOL     OW11155   2.777   4.619   5.379
 3419SOL    HW111156   2.841   4.589   5.307
 3419SOL    HW211157   2.821   4.609   5.468
 3420SOL     OW11158   5.071   0.340   2.538
 3420SOL    HW111159   5.153   0.336   2.481
 3420SOL    HW211160   4.991   0.356   2.480
 3421SOL     OW11161   0.952   1.485   4.908
 3421SOL    HW111162   1.006   1.401   4.900
 3421SOL    HW211163   0.855   1.461   4.919
 3422SOL     OW11164   3.104   5.020   1.858
 3422SOL    HW111165   3.201   5.002   1.874
 3422SOL    HW211166   3.063   4.944   1.807
 3423SOL     OW11167   1.715   5.783   5.905
 3423SOL    HW111168   1.694   5.764   5.809
 3423SOL    HW211169   1.729   5.697   5.954
 3424SOL     OW11170   5.857   5.363   2.832
 3424SOL    HW111171   5.902   5.453   2.839
 3424SOL    HW211172   5.908   5.296   2.886
 3425SOL     OW11173   6.104   3.501   6.230
 3425SOL    HW111174   6.043   3.446   6.173
 3425SOL    HW211175   6.172   3.441   6.273
 3426SOL     OW11176   6.578   5.180   6.210
 3426SOL    HW111177   6.627   5.119   6.149
 3426SOL    HW211178   6.529   5.249   6.157
 3427SOL     OW11179   1.721   0.891   6.359
 3427SOL    HW111180   1.683   0.824   6.423
 3427SOL    HW211181   1.734   0.978   6.407
 3428SOL     OW11182   3.996   1.014   4.059
 3428SOL    HW111183   3.990   1.112   4.040
 3428SOL    HW211184   3.904   0.978   4.078
 3429SOL     OW11185   5.651   5.441   0.311
 3429SOL    HW111186   5.667   5.351   0.351
 3429SOL    HW211187   5.559   5.472   0.334
 3430SOL     OW11188   2.696   4.513   6.829
 3430SOL    HW111189   2.642   4.429   6.829
 3430SOL    HW211190   2.704   4.547   6.923
 3431SOL     OW11191   1.635   3.783   1.710
 3431SOL    HW111192   1.632   3.695   1.756
 3431SOL    HW211193   1.730   3.805   1.687
 3432SOL     OW11194   0.123   5.549   6.778
 3432SOL    HW111195   0.058   5.474   6.762
 3432SOL    HW211196   0.191   5.550   6.704
 3433SOL     OW11197   0.564   1.147   0.109
 3433SOL    HW111198   0.547   1.105   0.020
 3433SOL    HW211199   0.484   1.200   0.136
 3434SOL     OW11200   4.370   3.109   1.481
 3434SOL    HW111201   4.323   3.028   1.446
 3434SOL    HW211202   4.327   3.140   1.565
 3435SOL     OW11203   3.656   2.769   1.147
 3435SOL    HW111204   3.578   2.827   1.169
 3435SOL    HW211205   3.729   2.784   1.215
 3436SOL     OW11206   4.672   5.508   4.932
 3436SOL    HW111207   4.688   5.564   4.850
 3436SOL    HW211208   4.709   5.416   4.917
 3437SOL     OW11209   2.873   5.590   0.256
 3437SOL    HW111210   2.860   5.580   0.157
 3437SOL    HW211211   2.842   5.680   0.285
 3438SOL     OW11212   2.357   4.112   0.918
 3438SOL    HW111213   2.291   4.125   0.992
 3438SOL    HW211214   2.332   4.169   0.841
 3439SOL     OW11215   3.071   5.683   0.890
 3439SOL    HW111216   3.086   5.613   0.960
 3439SOL    HW211217   3.092   5.773   0.928
 3440SOL     OW11218   4.367   4.749   5.516
 3440SOL    HW111219   4.343   4.828   5.460
 3440SOL    HW211220   4.316   4.752   5.602
 3441SOL     OW11221   0.679   5.790   5.793
 3441SOL    HW111222   0.585   5.825   5.794
 3441SOL    HW211223   0.683   5.707   5.737
 3442SOL     OW11224   1.941   1.829   6.998
 3442SOL    HW111225   2.013   1.870   6.942
 3442SOL    HW211226   1.945   1.730   6.991
 3443SOL     OW11227   6.967   6.183   2.227
 3443SOL    HW111228   6.869   6.189   2.210
 3443SOL    HW211229   6.984   6.137   2.314
 3444SOL     OW11230   1.530   3.930   5.691
 3444SOL    HW111231   1.605   3.983   5.652
 3444SOL    HW211232   1.550   3.832   5.683
 3445SOL     OW11233   5.788   4.536   4.132
 3445SOL    HW111234   5.811   4.510   4.226
 3445SOL    HW211235   5.731   4.617   4.133
 3446SOL     OW11236   5.686   1.339   6.661
 3446SOL    HW111237   5.730   1.427   6.641
 3446SOL    HW211238   5.754   1.276   6.698
 3447SOL     OW11239   5.795   1.622   6.177
 3447SOL    HW111240   5.729   1.599   6.106
 3447SOL    HW211241   5.844   1.705   6.152
 3448SOL     OW11242   0.775   5.649   4.970
 3448SOL    HW111243   0.758   5.734   5.020
 3448SOL    HW211244   0.751   5.662   4.873
 3449SOL     OW11245   0.983   4.071   4.676
 3449SOL    HW111246   1.031   4.138   4.733
 3449SOL    HW211247   0.887   4.068   4.700
 3450SOL     OW11248   2.004   6.860   3.549
 3450SOL    HW111249   2.039   6.798   3.619
 3450SOL    HW211250   2.028   6.826   3.459
 3451SOL     OW11251   2.464   1.710   1.079
 3451SOL    HW111252   2.563   1.727   1.089
 3451SOL    HW211253   2.423   1.784   1.027
 3452SOL     OW11254   4.378   1.143   5.166
 3452SOL    HW111255   4.370   1.062   5.108
 3452SOL    HW211256   4.467   1.186   5.150
 3453SOL     OW11257   4.755   6.395   5.861
 3453SOL    HW111258   4.661   6.428   5.846
 3453SOL    HW211259   4.762   6.300   5.830
 3454SOL     OW11260   1.723   3.366   3.946
 3454SOL    HW111261   1.790   3.417   3.892
 3454SOL    HW211262   1.768   3.287   3.988
 3455SOL     OW11263   1.904   3.754   6.063
 3455SOL    HW111264   1.915   3.851   6.041
 3455SOL    HW211265   1.926   3.738   6.159
 3456SOL     OW11266   4.904   4.978   2.619
 3456SOL    HW111267   4.872   4.985   2.713
 3456SOL    HW211268   4.980   4.913   2.615
 3457SOL     OW11269   4.667   4.106   0.248
 3457SOL    HW111270   4.721   4.095   0.165
 3457SOL    HW211271   4.590   4.168   0.229
 3458SOL     OW11272   4.439   1.647   1.090
 3458SOL    HW111273   4.430   1.586   1.169
 3458SOL    HW211274   4.527   1.693   1.093
 3459SOL     OW11275   6.239   0.867   2.531
 3459SOL    HW111276   6.327   0.873   2.484
 3459SOL    HW211277   6.180   0.940   2.499
 3460SOL     OW11278   5.175   1.792   5.182
 3460SOL    HW111279   5.114   1.854   5.132
 3460SOL    HW211280   5.157   1.799   5.280
 3461SOL     OW11281   5.195   4.322   5.087
 3461SOL    HW111282   5.198   4.410   5.038
 3461SOL    HW211283   5.202   4.339   5.185
 3462SOL     OW11284   1.478   3.815   6.912
 3462SOL    HW111285   1.511   3.857   6.827
 3462SOL    HW211286   1.379   3.809   6.910
 3463SOL     OW11287   6.343   3.631   0.071
 3463SOL    HW111288   6.296   3.693   0.008
 3463SOL    HW211289   6.278   3.564   0.105
 3464SOL     OW11290   0.650   5.074   4.961
 3464SOL    HW111291   0.575   5.078   4.895
 3464SOL    HW211292   0.722   5.138   4.934
 3465SOL     OW11293   1.275   2.351   0.822
 3465SOL    HW111294   1.328   2.414   0.765
 3465SOL    HW211295   1.284   2.378   0.918
 3466SOL     OW11296   4.759   4.207   3.228
 3466SOL    HW111297   4.799   4.118   3.247
 3466SOL    HW211298   4.737   4.253   3.314
 3467SOL     OW11299   1.744   1.277   6.216
 3467SOL    HW111300   1.720   1.248   6.309
 3467SOL    HW211301   1.691   1.358   6.191
 3468SOL     OW11302   5.783   5.051   2.003
 3468SOL    HW111303   5.860   5.063   2.067
 3468SOL    HW211304   5.703   5.021   2.054
 3469SOL     OW11305   5.733   3.269   0.590
 3469SOL    HW111306   5.670   3.247   0.516
 3469SOL    HW211307   5.682   3.282   0.675
 3470SOL     OW11308   6.136   5.970   6.254
 3470SOL    HW111309   6.161   5.875   6.234
 3470SOL    HW211310   6.052   5.993   6.206
 3471SOL     OW11311   3.996   6.795   4.502
 3471SOL    HW111312   3.970   6.816   4.408
 3471SOL    HW211313   3.988   6.878   4.558
 3472SOL     OW11314   3.644   0.765   3.774
 3472SOL    HW111315   3.664   0.710   3.855
 3472SOL    HW211316   3.682   0.719   3.693
 3473SOL     OW11317   4.735   6.936   3.434
 3473SOL    HW111318   4.771   6.928   3.527
 3473SOL    HW211319   4.807   6.913   3.369
 3474SOL     OW11320   6.219   4.935   1.054
 3474SOL    HW111321   6.262   5.025   1.051
 3474SOL    HW211322   6.196   4.912   1.149
 3475SOL     OW11323   2.013   5.754   5.240
 3475SOL    HW111324   2.035   5.850   5.256
 3475SOL    HW211325   2.030   5.732   5.143
 3476SOL     OW11326   2.275   2.044   2.758
 3476SOL    HW111327   2.269   2.072   2.854
 3476SOL    HW211328   2.227   1.957   2.746
 3477SOL     OW11329   4.689   5.615   2.437
 3477SOL    HW111330   4.632   5.581   2.512
 3477SOL    HW211331   4.764   5.550   2.421
 3478SOL     OW11332   3.865   5.242   0.369
 3478SOL    HW111333   3.873   5.236   0.469
 3478SOL    HW211334   3.954   5.267   0.331
 3479SOL     OW11335   2.086   1.281   0.597
 3479SOL    HW111336   2.122   1.187   0.593
 3479SOL    HW211337   2.141   1.334   0.661
 3480SOL     OW11338   2.088   0.016   4.954
 3480SOL    HW111339   2.177   6.990   4.942
 3480SOL    HW211340   2.093   0.080   5.031
 3481SOL     OW11341   1.623   4.311   0.254
 3481SOL    HW111342   1.651   4.356   0.338
 3481SOL    HW211343   1.570   4.229   0.276
 3482SOL     OW11344   0.088   2.290   1.059
 3482SOL    HW111345   0.011   2.349   1.036
 3482SOL    HW211346   0.092   2.214   0.995
 3483SOL     OW11347   4.126   1.684   1.338
 3483SOL    HW111348   4.145   1.642   1.249
 3483SOL    HW211349   4.101   1.614   1.404
 3484SOL     OW11350   3.438   3.893   3.940
 3484SOL    HW111351   3.389   3.953   3.877
 3484SOL    HW211352   3.526   3.935   3.964
 3485SOL     OW11353   6.206   3.037   4.013
 3485SOL    HW111354   6.270   3.110   4.036
 3485SOL    HW211355   6.218   2.961   4.077
 3486SOL     OW11356   6.296   1.774   2.723
 3486SOL    HW111357   6.227   1.703   2.714
 3486SOL    HW211358   6.346   1.784   2.636
 3487SOL     OW11359   1.772   6.263   1.705
 3487SOL    HW111360   1.854   6.206   1.693
 3487SOL    HW211361   1.700   6.229   1.645
 3488SOL     OW11362   6.833   2.707   4.926
 3488SOL    HW111363   6.927   2.675   4.937
 3488SOL    HW211364   6.830   2.780   4.859
 3489SOL     OW11365   2.093   5.369   6.851
 3489SOL    HW111366   2.119   5.433   6.778
 3489SOL    HW211367   2.070   5.421   6.934
 3490SOL     OW11368   5.477   3.200   0.040
 3490SOL    HW111369   5.393   3.250   0.019
 3490SOL    HW211370   5.556   3.252   0.008
 3491SOL     OW11371   6.405   2.578   5.121
 3491SOL    HW111372   6.384   2.491   5.164
 3491SOL    HW211373   6.379   2.653   5.182
 3492SOL     OW11374   1.008   4.199   6.234
 3492SOL    HW111375   1.005   4.272   6.302
 3492SOL    HW211376   0.917   4.158   6.225
 3493SOL     OW11377   0.410   4.837   1.148
 3493SOL    HW111378   0.336   4.823   1.083
 3493SOL    HW211379   0.381   4.901   1.219
 3494SOL     OW11380   3.232   6.902   1.142
 3494SOL    HW111381   3.158   6.965   1.120
 3494SOL    HW211382   3.302   6.951   1.196
 3495SOL     OW11383   5.275   4.036   5.931
 3495SOL    HW111384   5.329   4.109   5.973
 3495SOL    HW211385   5.256   3.966   6.001
 3496SOL     OW11386   0.795   6.605   1.399
 3496SOL    HW111387   0.810   6.695   1.359
 3496SOL    HW211388   0.861   6.589   1.472
 3497SOL     OW11389   3.043   0.209   4.844
 3497SOL    HW111390   3.057   0.126   4.790
 3497SOL    HW211391   3.101   0.282   4.809
 3498SOL     OW11392   1.889   1.715   0.751
 3498SOL    HW111393   1.892   1.778   0.673
 3498SOL    HW211394   1.920   1.625   0.722
 3499SOL     OW11395   0.167   4.594   3.003
 3499SOL    HW111396   0.222   4.560   2.926
 3499SOL    HW211397   0.219   4.582   3.088
 3500SOL     OW11398   6.627   2.589   0.394
 3500SOL    HW111399   6.713   2.547   0.365
 3500SOL    HW211400   6.591   2.646   0.320
 3501SOL     OW11401   6.680   4.945   3.196
 3501SOL    HW111402   6.665   4.991   3.284
 3501SOL    HW211403   6.642   5.002   3.123
 3502SOL     OW11404   1.193   6.538   1.311
 3502SOL    HW111405   1.159   6.477   1.382
 3502SOL    HW211406   1.286   6.511   1.286
 3503SOL     OW11407   3.083   0.913   3.297
 3503SOL    HW111408   3.169   0.958   3.273
 3503SOL    HW211409   3.009   0.980   3.298
 3504SOL     OW11410   1.829   2.224   2.200
 3504SOL    HW111411   1.831   2.309   2.252
 3504SOL    HW211412   1.898   2.161   2.238
 3505SOL     OW11413   4.081   0.329   4.062
 3505SOL    HW111414   3.981   0.326   4.054
 3505SOL    HW211415   4.120   0.243   4.031
 3506SOL     OW11416   6.269   3.027   3.244
 3506SOL    HW111417   6.219   3.013   3.330
 3506SOL    HW211418   6.215   2.990   3.168
 3507SOL     OW11419   0.018   6.581   5.328
 3507SOL    HW111420   0.096   6.521   5.344
 3507SOL    HW211421   0.048   6.676   5.326
 3508SOL     OW11422   0.388   4.724   0.088
 3508SOL    HW111423   0.297   4.697   0.056
 3508SOL    HW211424   0.408   4.817   0.056
 3509SOL     OW11425   3.528   6.842   0.307
 3509SOL    HW111426   3.429   6.843   0.312
 3509SOL    HW211427   3.558   6.781   0.233
 3510SOL     OW11428   2.487   1.557   3.065
 3510SOL    HW111429   2.389   1.570   3.050
 3510SOL    HW211430   2.538   1.597   2.989
 3511SOL     OW11431   0.184   1.231   3.834
 3511SOL    HW111432   0.202   1.231   3.735
 3511SOL    HW211433   0.263   1.269   3.882
 3512SOL     OW11434   3.192   2.911   1.985
 3512SOL    HW111435   3.174   2.836   1.921
 3512SOL    HW211436   3.126   2.985   1.970
 3513SOL     OW11437   6.691   4.749   0.318
 3513SOL    HW111438   6.681   4.738   0.219
 3513SOL    HW211439   6.678   4.846   0.342
 3514SOL     OW11440   3.263   5.788   3.782
 3514SOL    HW111441   3.358   5.775   3.809
 3514SOL    HW211442   3.254   5.875   3.733
 3515SOL     OW11443   3.492   5.494   4.229
 3515SOL    HW111444   3.491   5.474   4.327
 3515SOL    HW211445   3.549   5.427   4.182
 3516SOL     OW11446   2.040   1.429   0.291
 3516SOL    HW111447   1.948   1.390   0.303
 3516SOL    HW211448   2.102   1.388   0.358
 3517SOL     OW11449   0.695   1.345   6.424
 3517SOL    HW111450   0.608   1.353   6.374
 3517SOL    HW211451   0.757   1.286   6.372
 3518SOL     OW11452   4.310   3.637   5.896
 3518SOL    HW111453   4.344   3.696   5.822
 3518SOL    HW211454   4.230   3.586   5.863
 3519SOL     OW11455   4.394   0.411   6.396
 3519SOL    HW111456   4.381   0.385   6.300
 3519SOL    HW211457   4.352   0.342   6.455
 3520SOL     OW11458   4.464   4.971   1.408
 3520SOL    HW111459   4.431   4.883   1.443
 3520SOL    HW211460   4.434   5.045   1.469
 3521SOL     OW11461   0.214   1.547   5.496
 3521SOL    HW111462   0.228   1.500   5.583
 3521SOL    HW211463   0.154   1.492   5.437
 3522SOL     OW11464   2.520   0.524   0.885
 3522SOL    HW111465   2.567   0.436   0.879
 3522SOL    HW211466   2.470   0.541   0.801
 3523SOL     OW11467   2.099   4.688   4.273
 3523SOL    HW111468   2.148   4.767   4.311
 3523SOL    HW211469   2.151   4.651   4.196
 3524SOL     OW11470   2.823   1.484   3.137
 3524SOL    HW111471   2.803   1.555   3.205
 3524SOL    HW211472   2.738   1.434   3.115
 3525SOL     OW11473   1.844   3.340   3.677
 3525SOL    HW111474   1.821   3.255   3.628
 3525SOL    HW211475   1.936   3.333   3.715
 3526SOL     OW11476   3.349   6.060   4.052
 3526SOL    HW111477   3.374   6.090   3.959
 3526SOL    HW211478   3.404   5.980   4.077
 3527SOL     OW11479   6.853   4.280   6.619
 3527SOL    HW111480   6.780   4.261   6.684
 3527SOL    HW211481   6.852   4.210   6.547
 3528SOL     OW11482   0.923   6.298   3.642
 3528SOL    HW111483   0.984   6.328   3.715
 3528SOL    HW211484   0.935   6.200   3.627
 3529SOL     OW11485   3.604   0.040   0.050
 3529SOL    HW111486   3.660   0.058   6.988
 3529SOL    HW211487   3.508   0.056   0.029
 3530SOL     OW11488   2.386   5.469   2.011
 3530SOL    HW111489   2.417   5.412   1.935
 3530SOL    HW211490   2.354   5.557   1.977
 3531SOL     OW11491   5.175   4.150   6.957
 3531SOL    HW111492   5.095   4.111   7.003
 3531SOL    HW211493   5.153   4.165   6.861
 3532SOL     OW11494   2.392   0.387   6.259
 3532SOL    HW111495   2.481   0.426   6.236
 3532SOL    HW211496   2.401   0.288   6.271
 3533SOL     OW11497   1.433   1.114   2.840
 3533SOL    HW111498   1.495   1.123   2.761
 3533SOL    HW211499   1.349   1.165   2.822
 3534SOL     OW11500   4.702   6.754   4.676
 3534SOL    HW111501   4.686   6.656   4.679
 3534SOL    HW211502   4.689   6.793   4.767
 3535SOL     OW11503   3.587   4.550   0.127
 3535SOL    HW111504   3.565   4.563   0.030
 3535SOL    HW211505   3.504   4.565   0.181
 3536SOL     OW11506   2.130   3.143   2.587
 3536SOL    HW111507   2.195   3.195   2.642
 3536SOL    HW211508   2.110   3.056   2.632
 3537SOL     OW11509   3.106   5.232   1.338
 3537SOL    HW111510   3.084   5.288   1.418
 3537SOL    HW211511   3.036   5.245   1.268
 3538SOL     OW11512   2.908   0.213   4.144
 3538SOL    HW111513   2.960   0.299   4.134
 3538SOL    HW211514   2.810   0.233   4.144
 3539SOL     OW11515   5.537   4.864   6.160
 3539SOL    HW111516   5.596   4.785   6.144
 3539SOL    HW211517   5.487   4.852   6.246
 3540SOL     OW11518   5.435   3.771   6.611
 3540SOL    HW111519   5.370   3.702   6.644
 3540SOL    HW211520   5.434   3.849   6.673
 3541SOL     OW11521   0.593   3.179   2.718
 3541SOL    HW111522   0.524   3.229   2.666
 3541SOL    HW211523   0.599   3.217   2.811
 3542SOL     OW11524   6.092   0.712   6.750
 3542SOL    HW111525   6.060   0.702   6.656
 3542SOL    HW211526   6.074   0.627   6.800
 3543SOL     OW11527   0.618   2.996   4.887
 3543SOL    HW111528   0.652   3.059   4.958
 3543SOL    HW211529   0.555   2.930   4.929
 3544SOL     OW11530   4.242   4.845   5.746
 3544SOL    HW111531   4.146   4.854   5.775
 3544SOL    HW211532   4.293   4.926   5.774
 3545SOL     OW11533   2.389   6.660   1.889
 3545SOL    HW111534   2.408   6.758   1.884
 3545SOL    HW211535   2.325   6.634   1.816
 3546SOL     OW11536   6.638   3.742   1.335
 3546SOL    HW111537   6.669   3.813   1.398
 3546SOL    HW211538   6.541   3.756   1.315
 3547SOL     OW11539   1.858   4.545   4.312
 3547SOL    HW111540   1.777   4.585   4.268
 3547SOL    HW211541   1.937   4.604   4.295
 3548SOL     OW11542   5.917   6.670   5.474
 3548SOL    HW111543   5.976   6.744   5.507
 3548SOL    HW211544   5.871   6.627   5.552
 3549SOL     OW11545   1.055   0.267   0.004
 3549SOL    HW111546   1.003   0.274   0.089
 3549SOL    HW211547   1.101   0.178   0.000
 3550SOL     OW11548   6.646   2.447   4.672
 3550SOL    HW111549   6.622   2.396   4.589
 3550SOL    HW211550   6.648   2.545   4.651
 3551SOL     OW11551   6.519   2.005   5.384
 3551SOL    HW111552   6.476   2.037   5.300
 3551SOL    HW211553   6.548   1.910   5.373
 3552SOL     OW11554   6.236   0.819   4.017
 3552SOL    HW111555   6.171   0.777   3.954
 3552SOL    HW211556   6.219   0.785   4.110
 3553SOL     OW11557   5.573   5.598   6.597
 3553SOL    HW111558   5.660   5.646   6.588
 3553SOL    HW211559   5.574   5.544   6.682
 3554SOL     OW11560   5.962   3.505   0.011
 3554SOL    HW111561   5.908   3.589   0.018
 3554SOL    HW211562   5.998   3.496   6.937
 3555SOL     OW11563   2.540   0.980   4.845
 3555SOL    HW111564   2.519   1.042   4.769
 3555SOL    HW211565   2.523   0.886   4.816
 3556SOL     OW11566   5.468   1.491   0.403
 3556SOL    HW111567   5.485   1.393   0.399
 3556SOL    HW211568   5.528   1.538   0.339
 3557SOL     OW11569   5.096   0.754   0.845
 3557SOL    HW111570   5.163   0.693   0.888
 3557SOL    HW211571   5.009   0.706   0.836
 3558SOL     OW11572   4.452   5.875   3.589
 3558SOL    HW111573   4.379   5.924   3.542
 3558SOL    HW211574   4.425   5.780   3.602
 3559SOL     OW11575   4.440   6.296   0.027
 3559SOL    HW111576   4.457   6.381   0.077
 3559SOL    HW211577   4.372   6.313   6.975
 3560SOL     OW11578   1.954   5.612   4.148
 3560SOL    HW111579   1.858   5.616   4.178
 3560SOL    HW211580   1.995   5.703   4.153
 3561SOL     OW11581   4.661   3.129   6.546
 3561SOL    HW111582   4.623   3.136   6.638
 3561SOL    HW211583   4.604   3.068   6.490
 3562SOL     OW11584   2.893   1.079   0.589
 3562SOL    HW111585   2.820   1.141   0.615
 3562SOL    HW211586   2.976   1.131   0.569
 3563SOL     OW11587   6.025   2.296   6.151
 3563SOL    HW111588   5.929   2.304   6.125
 3563SOL    HW211589   6.083   2.327   6.076
 3564SOL     OW11590   5.948   2.781   3.104
 3564SOL    HW111591   5.960   2.735   3.192
 3564SOL    HW211592   5.902   2.869   3.118
 3565SOL     OW11593   4.905   6.408   5.089
 3565SOL    HW111594   4.806   6.396   5.098
 3565SOL    HW211595   4.925   6.457   5.003
 3566SOL     OW11596   0.707   0.808   4.454
 3566SOL    HW111597   0.765   0.886   4.428
 3566SOL    HW211598   0.644   0.836   4.527
 3567SOL     OW11599   1.683   4.235   6.952
 3567SOL    HW111600   1.776   4.199   6.954
 3567SOL    HW211601   1.654   4.259   0.025
 3568SOL     OW11602   1.886   3.609   5.268
 3568SOL    HW111603   1.833   3.544   5.322
 3568SOL    HW211604   1.977   3.618   5.307
 3569SOL     OW11605   0.650   0.373   3.586
 3569SOL    HW111606   0.599   0.361   3.672
 3569SOL    HW211607   0.616   0.308   3.518
 3570SOL     OW11608   0.151   1.758   4.629
 3570SOL    HW111609   0.197   1.846   4.623
 3570SOL    HW211610   0.112   1.747   4.721
 3571SOL     OW11611   0.099   5.740   5.184
 3571SOL    HW111612   0.160   5.788   5.247
 3571SOL    HW211613   0.004   5.764   5.205
 3572SOL     OW11614   5.075   6.963   5.151
 3572SOL    HW111615   5.093   6.992   5.246
 3572SOL    HW211616   4.977   6.957   5.136
 3573SOL     OW11617   0.542   2.720   1.856
 3573SOL    HW111618   0.457   2.667   1.862
 3573SOL    HW211619   0.521   2.817   1.867
 3574SOL     OW11620   1.330   3.458   0.560
 3574SOL    HW111621   1.293   3.541   0.602
 3574SOL    HW211622   1.256   3.394   0.543
 3575SOL     OW11623   6.961   0.352   2.390
 3575SOL    HW111624   7.008   0.356   2.302
 3575SOL    HW211625   6.881   0.412   2.388
 3576SOL     OW11626   0.792   0.935   0.804
 3576SOL    HW111627   0.886   0.910   0.830
 3576SOL    HW211628   0.794   1.019   0.750
 3577SOL     OW11629   2.021   4.431   0.799
 3577SOL    HW111630   1.994   4.431   0.895
 3577SOL    HW211631   2.015   4.524   0.763
 3578SOL     OW11632   3.552   4.934   1.748
 3578SOL    HW111633   3.564   4.836   1.762
 3578SOL    HW211634   3.516   4.950   1.655
 3579SOL     OW11635   2.525   2.660   6.770
 3579SOL    HW111636   2.546   2.758   6.766
 3579SOL    HW211637   2.436   2.644   6.726
 3580SOL     OW11638   5.521   0.943   2.338
 3580SOL    HW111639   5.552   0.915   2.247
 3580SOL    HW211640   5.476   0.866   2.384
 3581SOL     OW11641   6.951   1.704   2.533
 3581SOL    HW111642   6.888   1.780   2.547
 3581SOL    HW211643   0.026   1.736   2.549
 3582SOL     OW11644   0.860   0.476   5.920
 3582SOL    HW111645   0.905   0.474   5.831
 3582SOL    HW211646   0.769   0.516   5.911
 3583SOL     OW11647   1.072   7.001   2.767
 3583SOL    HW111648   1.061   0.046   2.691
 3583SOL    HW211649   1.049   0.027   2.853
 3584SOL     OW11650   5.451   0.291   4.887
 3584SOL    HW111651   5.464   0.285   4.788
 3584SOL    HW211652   5.507   0.365   4.923
 3585SOL     OW11653   2.075   5.279   2.154
 3585SOL    HW111654   2.092   5.367   2.199
 3585SOL    HW211655   2.032   5.295   2.065
 3586SOL     OW11656   1.354   1.239   6.300
 3586SOL    HW111657   1.418   1.168   6.271
 3586SOL    HW211658   1.286   1.254   6.229
 3587SOL     OW11659   3.654   5.979   5.513
 3587SOL    HW111660   3.620   6.036   5.587
 3587SOL    HW211661   3.746   5.946   5.536
 3588SOL     OW11662   2.686   2.443   5.161
 3588SOL    HW111663   2.645   2.440   5.070
 3588SOL    HW211664   2.728   2.533   5.175
 3589SOL     OW11665   3.079   5.843   4.915
 3589SOL    HW111666   3.128   5.822   5.000
 3589SOL    HW211667   3.100   5.936   4.886
 3590SOL     OW11668   1.162   6.360   6.988
 3590SOL    HW111669   1.243   6.378   6.933
 3590SOL    HW211670   1.096   6.307   6.934
 3591SOL     OW11671   4.710   2.309   4.486
 3591SOL    HW111672   4.732   2.393   4.536
 3591SOL    HW211673   4.733   2.321   4.390
 3592SOL     OW11674   5.627   1.274   1.990
 3592SOL    HW111675   5.719   1.312   1.982
 3592SOL    HW211676   5.620   1.191   1.933
 3593SOL     OW11677   1.276   5.199   4.815
 3593SOL    HW111678   1.286   5.100   4.812
 3593SOL    HW211679   1.358   5.242   4.778
 3594SOL     OW11680   4.456   2.000   4.504
 3594SOL    HW111681   4.466   2.078   4.565
 3594SOL    HW211682   4.485   1.916   4.551
 3595SOL     OW11683   1.772   6.637   6.432
 3595SOL    HW111684   1.798   6.733   6.428
 3595SOL    HW211685   1.684   6.625   6.386
 3596SOL     OW11686   6.451   3.326   2.676
 3596SOL    HW111687   6.547   3.302   2.663
 3596SOL    HW211688   6.407   3.338   2.587
 3597SOL     OW11689   4.326   0.422   3.525
 3597SOL    HW111690   4.375   0.506   3.504
 3597SOL    HW211691   4.311   0.370   3.441
 3598SOL     OW11692   2.182   6.976   0.214
 3598SOL    HW111693   2.267   6.984   0.161
 3598SOL    HW211694   2.182   6.889   0.263
 3599SOL     OW11695   0.324   2.181   4.384
 3599SOL    HW111696   0.393   2.215   4.448
 3599SOL    HW211697   0.239   2.162   4.435
 3600SOL     OW11698   6.450   6.318   0.938
 3600SOL    HW111699   6.380   6.321   0.867
 3600SOL    HW211700   6.531   6.270   0.904
 3601SOL     OW11701   0.206   4.072   5.876
 3601SOL    HW111702   0.195   4.170   5.886
 3601SOL    HW211703   0.302   4.051   5.857
 3602SOL     OW11704   3.853   1.975   0.835
 3602SOL    HW111705   3.830   2.072   0.845
 3602SOL    HW211706   3.790   1.920   0.890
 3603SOL     OW11707   3.381   5.554   4.986
 3603SOL    HW111708   3.355   5.633   5.042
 3603SOL    HW211709   3.367   5.470   5.037
 3604SOL     OW11710   5.528   4.491   3.389
 3604SOL    HW111711   5.456   4.530   3.332
 3604SOL    HW211712   5.491   4.469   3.480
 3605SOL     OW11713   5.848   1.076   6.473
 3605SOL    HW111714   5.759   1.077   6.520
 3605SOL    HW211715   5.834   1.060   6.375
 3606SOL     OW11716   1.880   4.380   2.237
 3606SOL    HW111717   1.932   4.417   2.160
 3606SOL    HW211718   1.943   4.335   2.301
 3607SOL     OW11719   4.509   6.143   5.005
 3607SOL    HW111720   4.454   6.118   4.926
 3607SOL    HW211721   4.567   6.222   4.983
 3608SOL     OW11722   6.981   3.189   2.545
 3608SOL    HW111723   0.034   3.204   2.612
 3608SOL    HW211724   6.951   3.277   2.508
 3609SOL     OW11725   0.813   1.132   4.055
 3609SOL    HW111726   0.858   1.060   4.108
 3609SOL    HW211727   0.835   1.119   3.958
 3610SOL     OW11728   1.727   4.802   5.065
 3610SOL    HW111729   1.684   4.730   5.011
 3610SOL    HW211730   1.667   4.829   5.140
 3611SOL     OW11731   4.258   4.857   6.889
 3611SOL    HW111732   4.354   4.860   6.862
 3611SOL    HW211733   4.249   4.885   6.984
 3612SOL     OW11734   2.842   5.760   1.434
 3612SOL    HW111735   2.767   5.727   1.491
 3612SOL    HW211736   2.886   5.682   1.388
 3613SOL     OW11737   5.321   4.163   6.630
 3613SOL    HW111738   5.344   4.134   6.537
 3613SOL    HW211739   5.399   4.212   6.669
 3614SOL     OW11740   3.930   3.130   5.064
 3614SOL    HW111741   4.017   3.089   5.091
 3614SOL    HW211742   3.861   3.058   5.053
 3615SOL     OW11743   5.828   6.380   6.598
 3615SOL    HW111744   5.789   6.472   6.600
 3615SOL    HW211745   5.856   6.353   6.690
 3616SOL     OW11746   6.904   1.484   4.173
 3616SOL    HW111747   6.855   1.521   4.094
 3616SOL    HW211748   6.883   1.539   4.254
 3617SOL     OW11749   0.273   0.850   1.695
 3617SOL    HW111750   0.275   0.816   1.601
 3617SOL    HW211751   0.254   0.773   1.757
 3618SOL     OW11752   3.837   5.516   6.411
 3618SOL    HW111753   3.783   5.591   6.449
 3618SOL    HW211754   3.808   5.430   6.453
 3619SOL     OW11755   4.880   3.247   3.724
 3619SOL    HW111756   4.979   3.245   3.712
 3619SOL    HW211757   4.840   3.167   3.680
 3620SOL     OW11758   5.870   1.972   5.389
 3620SOL    HW111759   5.966   1.997   5.383
 3620SOL    HW211760   5.854   1.916   5.470
 3621SOL     OW11761   2.797   2.582   6.791
 3621SOL    HW111762   2.861   2.657   6.774
 3621SOL    HW211763   2.703   2.618   6.789
 3622SOL     OW11764   1.414   3.674   1.173
 3622SOL    HW111765   1.487   3.672   1.241
 3622SOL    HW211766   1.365   3.587   1.174
 3623SOL     OW11767   6.063   5.347   4.497
 3623SOL    HW111768   6.118   5.428   4.479
 3623SOL    HW211769   5.973   5.374   4.530
 3624SOL     OW11770   2.134   6.858   1.689
 3624SOL    HW111771   2.106   6.954   1.681
 3624SOL    HW211772   2.057   6.804   1.723
 3625SOL     OW11773   1.453   2.743   4.988
 3625SOL    HW111774   1.417   2.650   4.974
 3625SOL    HW211775   1.376   2.806   4.999
 3626SOL     OW11776   2.141   3.030   5.436
 3626SOL    HW111777   2.142   2.931   5.445
 3626SOL    HW211778   2.160   3.055   5.341
 3627SOL     OW11779   3.844   3.062   3.936
 3627SOL    HW111780   3.787   3.042   4.015
 3627SOL    HW211781   3.805   3.018   3.855
 3628SOL     OW11782   2.743   5.283   3.813
 3628SOL    HW111783   2.683   5.248   3.885
 3628SOL    HW211784   2.783   5.370   3.843
 3629SOL     OW11785   6.068   3.988   4.980
 3629SOL    HW111786   6.118   4.003   4.895
 3629SOL    HW211787   6.076   3.893   5.008
 3630SOL     OW11788   6.331   2.220   4.292
 3630SOL    HW111789   6.292   2.287   4.355
 3630SOL    HW211790   6.336   2.131   4.337
 3631SOL     OW11791   2.374   1.253   4.621
 3631SOL    HW111792   2.352   1.308   4.540
 3631SOL    HW211793   2.427   1.309   4.685
 3632SOL     OW11794   4.950   6.627   6.653
 3632SOL    HW111795   5.016   6.553   6.648
 3632SOL    HW211796   4.997   6.713   6.672
 3633SOL     OW11797   1.020   2.949   5.718
 3633SOL    HW111798   1.000   3.046   5.731
 3633SOL    HW211799   1.030   2.931   5.620
 3634SOL     OW11800   2.103   4.553   6.693
 3634SOL    HW111801   2.176   4.533   6.758
 3634SOL    HW211802   2.127   4.517   6.603
 3635SOL     OW11803   1.533   1.948   4.558
 3635SOL    HW111804   1.565   2.043   4.551
 3635SOL    HW211805   1.610   1.886   4.545
 3636SOL     OW11806   0.602   6.689   1.611
 3636SOL    HW111807   0.610   6.630   1.692
 3636SOL    HW211808   0.644   6.643   1.532
 3637SOL     OW11809   5.459   1.657   2.242
 3637SOL    HW111810   5.423   1.749   2.232
 3637SOL    HW211811   5.391   1.599   2.288
 3638SOL     OW11812   6.839   5.261   3.127
 3638SOL    HW111813   6.808   5.340   3.181
 3638SOL    HW211814   6.765   5.230   3.068
 3639SOL     OW11815   2.575   5.594   6.999
 3639SOL    HW111816   2.668   5.615   6.968
 3639SOL    HW211817   2.561   5.495   6.997
 3640SOL     OW11818   2.346   6.875   3.611
 3640SOL    HW111819   2.419   6.882   3.678
 3640SOL    HW211820   2.299   6.963   3.602
 3641SOL     OW11821   2.190   0.194   5.140
 3641SOL    HW111822   2.269   0.234   5.094
 3641SOL    HW211823   2.161   0.253   5.215
 3642SOL     OW11824   6.045   0.693   2.602
 3642SOL    HW111825   5.964   0.726   2.554
 3642SOL    HW211826   6.121   0.756   2.586
 3643SOL     OW11827   3.726   6.705   3.437
 3643SOL    HW111828   3.778   6.685   3.519
 3643SOL    HW211829   3.738   6.802   3.412
 3644SOL     OW11830   5.890   0.480   1.123
 3644SOL    HW111831   5.842   0.410   1.069
 3644SOL    HW211832   5.878   0.569   1.080
 3645SOL     OW11833   4.466   5.226   3.885
 3645SOL    HW111834   4.416   5.140   3.897
 3645SOL    HW211835   4.402   5.303   3.895
 3646SOL     OW11836   0.287   5.865   5.017
 3646SOL    HW111837   0.331   5.786   4.974
 3646SOL    HW211838   0.212   5.833   5.076
 3647SOL     OW11839   3.937   2.515   0.674
 3647SOL    HW111840   3.873   2.441   0.696
 3647SOL    HW211841   3.943   2.526   0.575
 3648SOL     OW11842   2.193   6.216   3.977
 3648SOL    HW111843   2.203   6.312   3.950
 3648SOL    HW211844   2.204   6.157   3.897
 3649SOL     OW11845   3.769   2.989   2.842
 3649SOL    HW111846   3.742   2.915   2.782
 3649SOL    HW211847   3.688   3.041   2.869
 3650SOL     OW11848   5.469   5.890   2.179
 3650SOL    HW111849   5.514   5.829   2.114
 3650SOL    HW211850   5.373   5.900   2.155
 3651SOL     OW11851   1.768   5.687   1.698
 3651SOL    HW111852   1.805   5.662   1.788
 3651SOL    HW211853   1.734   5.781   1.701
 3652SOL     OW11854   3.982   6.880   3.485
 3652SOL    HW111855   3.941   6.892   3.395
 3652SOL    HW211856   4.078   6.909   3.483
 3653SOL     OW11857   0.227   3.550   3.231
 3653SOL    HW111858   0.142   3.601   3.217
 3653SOL    HW211859   0.207   3.465   3.281
 3654SOL     OW11860   2.093   0.136   1.620
 3654SOL    HW111861   2.084   0.233   1.597
 3654SOL    HW211862   2.031   0.115   1.696
 3655SOL     OW11863   6.458   1.127   3.755
 3655SOL    HW111864   6.443   1.090   3.846
 3655SOL    HW211865   6.374   1.172   3.723
 3656SOL     OW11866   1.430   1.648   2.732
 3656SOL    HW111867   1.461   1.611   2.819
 3656SOL    HW211868   1.431   1.748   2.736
 3657SOL     OW11869   5.880   4.992   1.059
 3657SOL    HW111870   5.933   5.074   1.040
 3657SOL    HW211871   5.803   4.986   0.996
 3658SOL     OW11872   2.845   4.177   5.373
 3658SOL    HW111873   2.905   4.144   5.447
 3658SOL    HW211874   2.761   4.214   5.412
 3659SOL     OW11875   1.537   3.333   0.348
 3659SOL    HW111876   1.557   3.403   0.417
 3659SOL    HW211877   1.478   3.370   0.277
 3660SOL     OW11878   5.336   3.629   0.726
 3660SOL    HW111879   5.311   3.622   0.823
 3660SOL    HW211880   5.255   3.613   0.670
 3661SOL     OW11881   4.902   0.863   2.409
 3661SOL    HW111882   4.974   0.930   2.391
 3661SOL    HW211883   4.837   0.863   2.333
 3662SOL     OW11884   1.830   6.463   4.221
 3662SOL    HW111885   1.756   6.531   4.221
 3662SOL    HW211886   1.801   6.382   4.270
 3663SOL     OW11887   2.612   2.505   5.904
 3663SOL    HW111888   2.522   2.467   5.881
 3663SOL    HW211889   2.600   2.585   5.963
 3664SOL     OW11890   3.832   0.002   1.925
 3664SOL    HW111891   3.849   6.928   1.957
 3664SOL    HW211892   3.907   0.062   1.954
 3665SOL     OW11893   2.128   1.579   5.417
 3665SOL    HW111894   2.029   1.566   5.418
 3665SOL    HW211895   2.152   1.652   5.353
 3666SOL     OW11896   0.958   4.726   3.121
 3666SOL    HW111897   0.865   4.702   3.150
 3666SOL    HW211898   1.021   4.655   3.150
 3667SOL     OW11899   0.383   0.775   6.892
 3667SOL    HW111900   0.346   0.786   6.800
 3667SOL    HW211901   0.344   0.846   6.952
 3668SOL     OW11902   1.906   0.125   1.000
 3668SOL    HW111903   1.986   0.182   0.980
 3668SOL    HW211904   1.839   0.135   0.926
 3669SOL     OW11905   5.591   1.476   4.452
 3669SOL    HW111906   5.586   1.575   4.465
 3669SOL    HW211907   5.528   1.448   4.379
 3670SOL     OW11908   3.511   4.929   6.211
 3670SOL    HW111909   3.500   4.998   6.283
 3670SOL    HW211910   3.479   4.966   6.124
 3671SOL     OW11911   1.645   1.506   2.928
 3671SOL    HW111912   1.685   1.588   2.887
 3671SOL    HW211913   1.570   1.531   2.988
 3672SOL     OW11914   5.853   5.889   0.223
 3672SOL    HW111915   5.840   5.912   0.127
 3672SOL    HW211916   5.765   5.863   0.263
 3673SOL     OW11917   3.669   6.942   5.953
 3673SOL    HW111918   3.633   6.973   5.865
 3673SOL    HW211919   3.751   6.886   5.937
 3674SOL     OW11920   1.395   6.628   0.695
 3674SOL    HW111921   1.457   6.577   0.636
 3674SOL    HW211922   1.305   6.635   0.652
 3675SOL     OW11923   1.883   1.875   4.210
 3675SOL    HW111924   1.811   1.904   4.147
 3675SOL    HW211925   1.958   1.941   4.208
 3676SOL     OW11926   0.660   4.567   2.451
 3676SOL    HW111927   0.585   4.632   2.438
 3676SOL    HW211928   0.746   4.618   2.463
 3677SOL     OW11929   6.380   1.201   3.330
 3677SOL    HW111930   6.443   1.278   3.330
 3677SOL    HW211931   6.418   1.127   3.273
 3678SOL     OW11932   0.924   2.673   4.122
 3678SOL    HW111933   0.904   2.638   4.214
 3678SOL    HW211934   0.966   2.601   4.068
 3679SOL     OW11935   6.293   1.163   1.695
 3679SOL    HW111936   6.281   1.075   1.649
 3679SOL    HW211937   6.382   1.166   1.740
 3680SOL     OW11938   6.391   4.223   5.085
 3680SOL    HW111939   6.455   4.289   5.045
 3680SOL    HW211940   6.394   4.138   5.033
 3681SOL     OW11941   5.247   0.347   4.410
 3681SOL    HW111942   5.221   0.365   4.505
 3681SOL    HW211943   5.265   0.434   4.364
 3682SOL     OW11944   0.458   1.889   0.173
 3682SOL    HW111945   0.364   1.873   0.205
 3682SOL    HW211946   0.455   1.916   0.077
 3683SOL     OW11947   4.570   6.598   4.070
 3683SOL    HW111948   4.658   6.554   4.053
 3683SOL    HW211949   4.537   6.641   3.986
 3684SOL     OW11950   2.148   3.947   2.004
 3684SOL    HW111951   2.205   4.027   1.983
 3684SOL    HW211952   2.160   3.923   2.101
 3685SOL     OW11953   5.877   5.548   6.321
 3685SOL    HW111954   5.883   5.516   6.415
 3685SOL    HW211955   5.851   5.644   6.320
 3686SOL     OW11956   0.655   4.169   0.493
 3686SOL    HW111957   0.557   4.148   0.488
 3686SOL    HW211958   0.670   4.265   0.473
 3687SOL     OW11959   3.961   1.311   1.085
 3687SOL    HW111960   3.894   1.320   1.012
 3687SOL    HW211961   3.959   1.218   1.122
 3688SOL     OW11962   0.277   2.572   6.687
 3688SOL    HW111963   0.322   2.520   6.758
 3688SOL    HW211964   0.330   2.654   6.666
 3689SOL     OW11965   1.194   5.978   3.544
 3689SOL    HW111966   1.134   5.919   3.597
 3689SOL    HW211967   1.150   6.000   3.456
 3690SOL     OW11968   4.809   4.528   5.944
 3690SOL    HW111969   4.734   4.593   5.945
 3690SOL    HW211970   4.823   4.495   5.850
 3691SOL     OW11971   3.180   3.155   6.558
 3691SOL    HW111972   3.195   3.253   6.547
 3691SOL    HW211973   3.082   3.136   6.559
 3692SOL     OW11974   6.573   0.569   5.364
 3692SOL    HW111975   6.511   0.536   5.293
 3692SOL    HW211976   6.592   0.496   5.429
 3693SOL     OW11977   1.412   1.643   3.536
 3693SOL    HW111978   1.373   1.729   3.571
 3693SOL    HW211979   1.491   1.618   3.591
 3694SOL     OW11980   1.731   4.912   3.464
 3694SOL    HW111981   1.752   4.832   3.409
 3694SOL    HW211982   1.658   4.890   3.529
 3695SOL     OW11983   2.603   2.360   0.913
 3695SOL    HW111984   2.574   2.449   0.948
 3695SOL    HW211985   2.535   2.291   0.937
 3696SOL     OW11986   3.025   5.911   5.938
 3696SOL    HW111987   2.989   5.901   6.031
 3696SOL    HW211988   3.091   5.838   5.920
 3697SOL     OW11989   5.328   1.147   2.885
 3697SOL    HW111990   5.231   1.121   2.878
 3697SOL    HW211991   5.374   1.123   2.799
 3698SOL     OW11992   3.026   0.559   5.652
 3698SOL    HW111993   3.029   0.573   5.553
 3698SOL    HW211994   3.042   0.646   5.699
 3699SOL     OW11995   1.110   5.300   2.516
 3699SOL    HW111996   1.173   5.377   2.526
 3699SOL    HW211997   1.138   5.243   2.438
 3700SOL     OW11998   6.205   6.814   3.825
 3700SOL    HW111999   6.292   6.813   3.775
 3700SOL    HW212000   6.166   6.906   3.821
 3701SOL     OW12001   4.113   1.393   3.679
 3701SOL    HW112002   4.135   1.385   3.581
 3701SOL    HW212003   4.114   1.490   3.704
 3702SOL     OW12004   5.219   1.165   6.317
 3702SOL    HW112005   5.193   1.250   6.270
 3702SOL    HW212006   5.167   1.157   6.402
 3703SOL     OW12007   3.546   4.529   0.500
 3703SOL    HW112008   3.627   4.585   0.519
 3703SOL    HW212009   3.572   4.433   0.494
 3704SOL     OW12010   3.531   6.267   0.908
 3704SOL    HW112011   3.476   6.256   0.991
 3704SOL    HW212012   3.497   6.345   0.856
 3705SOL     OW12013   6.781   1.561   3.920
 3705SOL    HW112014   6.690   1.542   3.882
 3705SOL    HW212015   6.850   1.513   3.866
 3706SOL     OW12016   2.338   2.314   3.089
 3706SOL    HW112017   2.411   2.321   3.021
 3706SOL    HW212018   2.377   2.302   3.180
 3707SOL     OW12019   4.265   2.084   5.305
 3707SOL    HW112020   4.351   2.069   5.354
 3707SOL    HW212021   4.241   2.001   5.254
 3708SOL     OW12022   6.316   6.481   0.516
 3708SOL    HW112023   6.356   6.571   0.499
 3708SOL    HW212024   6.288   6.475   0.612
 3709SOL     OW12025   0.761   6.251   6.544
 3709SOL    HW112026   0.737   6.260   6.640
 3709SOL    HW212027   0.859   6.232   6.536
 3710SOL     OW12028   1.000   5.013   5.978
 3710SOL    HW112029   1.017   5.053   5.889
 3710SOL    HW212030   1.052   4.928   5.988
 3711SOL     OW12031   6.335   4.916   2.006
 3711SOL    HW112032   6.274   4.854   2.055
 3711SOL    HW212033   6.316   5.011   2.032
 3712SOL     OW12034   1.459   0.039   5.557
 3712SOL    HW112035   1.522   0.113   5.580
 3712SOL    HW212036   1.412   0.061   5.471
 3713SOL     OW12037   3.352   4.561   5.810
 3713SOL    HW112038   3.265   4.606   5.831
 3713SOL    HW212039   3.368   4.564   5.712
 3714SOL     OW12040   4.981   2.646   4.752
 3714SOL    HW112041   4.991   2.729   4.807
 3714SOL    HW212042   5.056   2.582   4.774
 3715SOL     OW12043   4.490   4.508   4.221
 3715SOL    HW112044   4.449   4.562   4.295
 3715SOL    HW212045   4.458   4.543   4.133
 3716SOL     OW12046   1.366   1.447   4.811
 3716SOL    HW112047   1.399   1.397   4.891
 3716SOL    HW212048   1.422   1.422   4.732
 3717SOL     OW12049   6.228   0.378   6.600
 3717SOL    HW112050   6.248   0.353   6.695
 3717SOL    HW212051   6.158   0.316   6.563
 3718SOL     OW12052   0.816   6.829   6.243
 3718SOL    HW112053   0.748   6.890   6.283
 3718SOL    HW212054   0.823   6.746   6.298
 3719SOL     OW12055   3.552   4.079   0.413
 3719SOL    HW112056   3.619   4.007   0.395
 3719SOL    HW212057   3.474   4.041   0.462
 3720SOL     OW12058   6.563   1.217   6.606
 3720SOL    HW112059   6.638   1.225   6.540
 3720SOL    HW212060   6.476   1.214   6.556
 3721SOL     OW12061   5.753   2.406   0.283
 3721SOL    HW112062   5.781   2.474   0.350
 3721SOL    HW212063   5.673   2.356   0.317
 3722SOL     OW12064   3.908   5.879   0.992
 3722SOL    HW112065   3.960   5.812   1.045
 3722SOL    HW212066   3.924   5.970   1.029
 3723SOL     OW12067   3.639   1.238   0.407
 3723SOL    HW112068   3.592   1.250   0.320
 3723SOL    HW212069   3.672   1.326   0.440
 3724SOL     OW12070   1.281   3.620   6.493
 3724SOL    HW112071   1.274   3.554   6.419
 3724SOL    HW212072   1.230   3.587   6.572
 3725SOL     OW12073   5.018   6.169   2.115
 3725SOL    HW112074   5.098   6.162   2.056
 3725SOL    HW212075   5.046   6.164   2.211
 3726SOL     OW12076   6.118   3.603   2.335
 3726SOL    HW112077   6.097   3.537   2.264
 3726SOL    HW212078   6.117   3.696   2.296
 3727SOL     OW12079   2.569   2.235   5.346
 3727SOL    HW112080   2.605   2.304   5.282
 3727SOL    HW212081   2.617   2.243   5.433
 3728SOL     OW12082   0.796   3.630   6.725
 3728SOL    HW112083   0.788   3.539   6.684
 3728SOL    HW212084   0.714   3.650   6.778
 3729SOL     OW12085   1.476   3.404   3.481
 3729SOL    HW112086   1.575   3.402   3.477
 3729SOL    HW212087   1.446   3.420   3.575
 3730SOL     OW12088   2.009   6.979   1.272
 3730SOL    HW112089   2.001   0.028   1.200
 3730SOL    HW212090   1.981   7.019   1.359
 3731SOL     OW12091   2.398   6.207   0.290
 3731SOL    HW112092   2.327   6.263   0.246
 3731SOL    HW212093   2.436   6.257   0.367
 3732SOL     OW12094   1.925   4.167   4.083
 3732SOL    HW112095   1.953   4.163   4.179
 3732SOL    HW212096   1.963   4.249   4.041
 3733SOL     OW12097   3.451   3.352   1.566
 3733SOL    HW112098   3.386   3.364   1.641
 3733SOL    HW212099   3.491   3.441   1.541
 3734SOL     OW12100   4.243   1.310   3.427
 3734SOL    HW112101   4.270   1.219   3.395
 3734SOL    HW212102   4.325   1.367   3.440
 3735SOL     OW12103   3.618   2.362   1.564
 3735SOL    HW112104   3.698   2.372   1.504
 3735SOL    HW212105   3.648   2.360   1.660
 3736SOL     OW12106   5.221   0.712   6.154
 3736SOL    HW112107   5.128   0.676   6.156
 3736SOL    HW212108   5.270   0.681   6.235
 3737SOL     OW12109   2.592   6.914   3.751
 3737SOL    HW112110   2.598   6.815   3.763
 3737SOL    HW212111   2.656   6.942   3.679
 3738SOL     OW12112   0.620   0.395   4.338
 3738SOL    HW112113   0.626   0.342   4.253
 3738SOL    HW212114   0.712   0.413   4.372
 3739SOL     OW12115   0.052   3.458   0.640
 3739SOL    HW112116   0.136   3.506   0.617
 3739SOL    HW212117   0.074   3.368   0.678
 3740SOL     OW12118   5.931   0.090   0.273
 3740SOL    HW112119   5.886   0.176   0.297
 3740SOL    HW212120   5.942   0.084   0.174
 3741SOL     OW12121   4.158   0.852   6.352
 3741SOL    HW112122   4.132   0.757   6.334
 3741SOL    HW212123   4.168   0.901   6.266
 3742SOL     OW12124   3.677   3.525   6.291
 3742SOL    HW112125   3.633   3.470   6.362
 3742SOL    HW212126   3.628   3.512   6.204
 3743SOL     OW12127   1.317   5.897   5.774
 3743SOL    HW112128   1.308   5.994   5.798
 3743SOL    HW212129   1.244   5.845   5.818
 3744SOL     OW12130   6.384   4.981   3.796
 3744SOL    HW112131   6.390   4.895   3.847
 3744SOL    HW212132   6.295   5.023   3.812
 3745SOL     OW12133   5.080   4.626   1.402
 3745SOL    HW112134   5.175   4.652   1.389
 3745SOL    HW212135   5.039   4.682   1.474
 3746SOL     OW12136   4.839   1.499   1.242
 3746SOL    HW112137   4.841   1.527   1.146
 3746SOL    HW212138   4.811   1.404   1.249
 3747SOL     OW12139   3.254   6.692   1.304
 3747SOL    HW112140   3.198   6.714   1.384
 3747SOL    HW212141   3.233   6.756   1.230
 3748SOL     OW12142   5.521   0.570   1.816
 3748SOL    HW112143   5.615   0.598   1.838
 3748SOL    HW212144   5.487   0.508   1.886
 3749SOL     OW12145   0.911   1.126   3.785
 3749SOL    HW112146   0.957   1.200   3.834
 3749SOL    HW212147   0.974   1.049   3.775
 3750SOL     OW12148   0.898   3.633   0.116
 3750SOL    HW112149   0.816   3.586   0.147
 3750SOL    HW212150   0.884   3.732   0.124
 3751SOL     OW12151   2.297   5.078   1.475
 3751SOL    HW112152   2.318   5.043   1.566
 3751SOL    HW212153   2.323   5.175   1.470
 3752SOL     OW12154   5.719   5.254   6.689
 3752SOL    HW112155   5.657   5.332   6.684
 3752SOL    HW212156   5.766   5.243   6.602
 3753SOL     OW12157   0.106   1.688   3.749
 3753SOL    HW112158   0.041   1.742   3.802
 3753SOL    HW212159   0.175   1.651   3.811
 3754SOL     OW12160   4.008   1.498   1.504
 3754SOL    HW112161   4.040   1.480   1.597
 3754SOL    HW212162   3.971   1.414   1.465
 3755SOL     OW12163   2.713   6.498   4.704
 3755SOL    HW112164   2.718   6.404   4.738
 3755SOL    HW212165   2.727   6.499   4.605
 3756SOL     OW12166   0.982   6.035   0.615
 3756SOL    HW112167   0.908   6.067   0.555
 3756SOL    HW212168   1.047   5.981   0.561
 3757SOL     OW12169   1.163   5.172   0.094
 3757SOL    HW112170   1.255   5.136   0.076
 3757SOL    HW212171   1.113   5.178   0.007
 3758SOL     OW12172   7.007   5.750   4.142
 3758SOL    HW112173   6.971   5.795   4.061
 3758SOL    HW212174   0.070   5.797   4.172
 3759SOL     OW12175   4.859   0.588   3.445
 3759SOL    HW112176   4.831   0.502   3.402
 3759SOL    HW212177   4.785   0.655   3.437
 3760SOL     OW12178   0.302   1.128   3.599
 3760SOL    HW112179   0.254   1.185   3.533
 3760SOL    HW212180   0.311   1.035   3.563
 3761SOL     OW12181   3.936   0.941   4.388
 3761SOL    HW112182   3.921   0.843   4.373
 3761SOL    HW212183   3.960   0.956   4.484
 3762SOL     OW12184   6.587   1.998   3.373
 3762SOL    HW112185   6.575   2.056   3.292
 3762SOL    HW212186   6.498   1.968   3.407
 3763SOL     OW12187   0.871   6.790   6.591
 3763SOL    HW112188   0.778   6.828   6.591
 3763SOL    HW212189   0.873   6.709   6.533
 3764SOL     OW12190   4.766   2.221   2.661
 3764SOL    HW112191   4.834   2.148   2.669
 3764SOL    HW212192   4.782   2.273   2.577
 3765SOL     OW12193   5.825   3.596   1.991
 3765SOL    HW112194   5.884   3.645   1.927
 3765SOL    HW212195   5.743   3.650   2.009
 3766SOL     OW12196   2.242   2.372   2.582
 3766SOL    HW112197   2.293   2.440   2.528
 3766SOL    HW212198   2.271   2.280   2.557
 3767SOL     OW12199   1.559   5.867   5.626
 3767SOL    HW112200   1.476   5.871   5.682
 3767SOL    HW212201   1.594   5.960   5.614
 3768SOL     OW12202   1.194   6.466   4.164
 3768SOL    HW112203   1.125   6.526   4.203
 3768SOL    HW212204   1.177   6.455   4.066
 3769SOL     OW12205   4.887   5.192   6.298
 3769SOL    HW112206   4.870   5.258   6.224
 3769SOL    HW212207   4.808   5.133   6.309
 3770SOL     OW12208   2.661   0.385   0.310
 3770SOL    HW112209   2.615   0.297   0.310
 3770SOL    HW212210   2.594   0.458   0.324
 3771SOL     OW12211   6.380   6.102   5.818
 3771SOL    HW112212   6.354   6.090   5.914
 3771SOL    HW212213   6.428   6.189   5.807
 3772SOL     OW12214   3.420   5.320   1.634
 3772SOL    HW112215   3.322   5.324   1.618
 3772SOL    HW212216   3.443   5.380   1.711
 3773SOL     OW12217   4.823   3.900   6.852
 3773SOL    HW112218   4.888   3.922   6.780
 3773SOL    HW212219   4.773   3.816   6.827
 3774SOL     OW12220   0.231   4.293   1.231
 3774SOL    HW112221   0.271   4.385   1.233
 3774SOL    HW212222   0.283   4.233   1.292
 3775SOL     OW12223   6.010   6.327   5.112
 3775SOL    HW112224   5.948   6.316   5.190
 3775SOL    HW212225   5.961   6.371   5.037
 3776SOL     OW12226   4.058   2.653   6.646
 3776SOL    HW112227   4.010   2.619   6.566
 3776SOL    HW212228   4.092   2.576   6.700
 3777SOL     OW12229   3.130   5.292   3.345
 3777SOL    HW112230   3.106   5.386   3.370
 3777SOL    HW212231   3.177   5.293   3.257
 3778SOL     OW12232   2.705   5.554   6.565
 3778SOL    HW112233   2.738   5.635   6.614
 3778SOL    HW212234   2.606   5.559   6.555
 3779SOL     OW12235   6.548   5.228   6.476
 3779SOL    HW112236   6.547   5.194   6.382
 3779SOL    HW212237   6.489   5.170   6.533
 3780SOL     OW12238   5.852   2.023   1.365
 3780SOL    HW112239   5.870   1.946   1.305
 3780SOL    HW212240   5.786   1.996   1.435
 3781SOL     OW12241   1.095   0.694   6.736
 3781SOL    HW112242   1.087   0.732   6.644
 3781SOL    HW212243   1.166   0.623   6.737
 3782SOL     OW12244   3.040   5.431   6.925
 3782SOL    HW112245   3.040   5.346   6.872
 3782SOL    HW212246   3.130   5.445   6.966
 3783SOL     OW12247   4.791   5.325   5.296
 3783SOL    HW112248   4.767   5.232   5.325
 3783SOL    HW212249   4.853   5.366   5.363
 3784SOL     OW12250   5.098   4.052   5.393
 3784SOL    HW112251   5.104   4.130   5.456
 3784SOL    HW212252   5.184   4.044   5.342
 3785SOL     OW12253   0.938   3.588   2.347
 3785SOL    HW112254   0.863   3.598   2.413
 3785SOL    HW212255   0.903   3.603   2.255
 3786SOL     OW12256   3.261   2.976   6.347
 3786SOL    HW112257   3.179   2.981   6.291
 3786SOL    HW212258   3.254   3.042   6.423
 3787SOL     OW12259   5.524   5.910   5.691
 3787SOL    HW112260   5.434   5.870   5.706
 3787SOL    HW212261   5.564   5.936   5.779
 3788SOL     OW12262   5.698   2.972   5.462
 3788SOL    HW112263   5.724   2.883   5.426
 3788SOL    HW212264   5.659   2.961   5.554
 3789SOL     OW12265   1.845   4.727   1.809
 3789SOL    HW112266   1.886   4.648   1.764
 3789SOL    HW212267   1.751   4.705   1.834
 3790SOL     OW12268   2.902   0.235   1.856
 3790SOL    HW112269   2.818   0.181   1.857
 3790SOL    HW212270   2.880   0.330   1.831
 3791SOL     OW12271   5.112   0.801   4.201
 3791SOL    HW112272   5.072   0.807   4.109
 3791SOL    HW212273   5.127   0.893   4.237
 3792SOL     OW12274   6.024   0.447   3.388
 3792SOL    HW112275   6.119   0.427   3.361
 3792SOL    HW212276   5.964   0.427   3.310
 3793SOL     OW12277   5.274   3.397   6.997
 3793SOL    HW112278   5.201   3.385   6.930
 3793SOL    HW212279   5.243   3.457   0.051
 3794SOL     OW12280   1.890   5.240   5.498
 3794SOL    HW112281   1.970   5.267   5.553
 3794SOL    HW212282   1.915   5.162   5.440
 3795SOL     OW12283   3.581   6.197   0.522
 3795SOL    HW112284   3.534   6.176   0.436
 3795SOL    HW212285   3.614   6.292   0.520
 3796SOL     OW12286   5.595   0.959   0.367
 3796SOL    HW112287   5.683   0.972   0.321
 3796SOL    HW212288   5.541   0.892   0.316
 3797SOL     OW12289   6.961   1.561   0.872
 3797SOL    HW112290   0.012   1.605   0.928
 3797SOL    HW212291   6.999   1.478   0.832
 3798SOL     OW12292   6.843   3.757   4.214
 3798SOL    HW112293   6.909   3.757   4.139
 3798SOL    HW212294   6.753   3.784   4.178
 3799SOL     OW12295   6.643   2.061   2.400
 3799SOL    HW112296   6.690   2.017   2.323
 3799SOL    HW212297   6.564   2.112   2.366
 3800SOL     OW12298   5.789   3.305   1.837
 3800SOL    HW112299   5.778   3.398   1.872
 3800SOL    HW212300   5.748   3.298   1.746
 3801SOL     OW12301   5.807   1.413   0.153
 3801SOL    HW112302   5.722   1.464   0.159
 3801SOL    HW212303   5.811   1.347   0.228
 3802SOL     OW12304   6.019   3.699   3.567
 3802SOL    HW112305   6.064   3.787   3.579
 3802SOL    HW212306   6.081   3.626   3.595
 3803SOL     OW12307   3.790   4.426   6.699
 3803SOL    HW112308   3.760   4.496   6.635
 3803SOL    HW212309   3.880   4.451   6.736
 3804SOL     OW12310   3.579   6.031   3.663
 3804SOL    HW112311   3.545   5.967   3.594
 3804SOL    HW212312   3.580   5.986   3.753
 3805SOL     OW12313   2.607   1.877   0.002
 3805SOL    HW112314   2.700   1.839   0.004
 3805SOL    HW212315   2.570   1.869   6.928
 3806SOL     OW12316   2.028   4.550   2.064
 3806SOL    HW112317   2.106   4.520   2.009
 3806SOL    HW212318   2.056   4.624   2.125
 3807SOL     OW12319   0.080   4.045   4.313
 3807SOL    HW112320   0.054   3.975   4.247
 3807SOL    HW212321   0.178   4.065   4.303
 3808SOL     OW12322   2.572   6.346   6.007
 3808SOL    HW112323   2.665   6.380   5.990
 3808SOL    HW212324   2.575   6.247   6.023
 3809SOL     OW12325   5.369   2.038   1.353
 3809SOL    HW112326   5.415   2.018   1.267
 3809SOL    HW212327   5.330   2.130   1.349
 3810SOL     OW12328   4.706   2.081   4.154
 3810SOL    HW112329   4.619   2.092   4.203
 3810SOL    HW212330   4.709   2.143   4.076
 3811SOL     OW12331   0.235   6.286   5.772
 3811SOL    HW112332   0.209   6.364   5.715
 3811SOL    HW212333   0.263   6.319   5.862
 3812SOL     OW12334   4.271   5.667   0.453
 3812SOL    HW112335   4.326   5.591   0.420
 3812SOL    HW212336   4.331   5.740   0.485
 3813SOL     OW12337   0.009   3.252   6.573
 3813SOL    HW112338   6.939   3.295   6.555
 3813SOL    HW212339   0.018   3.170   6.517
 3814SOL     OW12340   0.156   0.682   4.892
 3814SOL    HW112341   0.189   0.588   4.899
 3814SOL    HW212342   0.058   0.683   4.873
 3815SOL     OW12343   4.657   1.768   5.649
 3815SOL    HW112344   4.579   1.819   5.684
 3815SOL    HW212345   4.724   1.755   5.722
 3816SOL     OW12346   6.363   6.549   1.967
 3816SOL    HW112347   6.264   6.538   1.972
 3816SOL    HW212348   6.387   6.646   1.970
 3817SOL     OW12349   3.832   3.804   2.872
 3817SOL    HW112350   3.818   3.868   2.948
 3817SOL    HW212351   3.811   3.711   2.903
 3818SOL     OW12352   4.572   5.696   2.193
 3818SOL    HW112353   4.595   5.681   2.289
 3818SOL    HW212354   4.635   5.763   2.154
 3819SOL     OW12355   6.166   2.551   2.866
 3819SOL    HW112356   6.232   2.501   2.811
 3819SOL    HW212357   6.144   2.498   2.948
 3820SOL     OW12358   3.370   6.815   6.085
 3820SOL    HW112359   3.329   6.745   6.143
 3820SOL    HW212360   3.448   6.856   6.133
 3821SOL     OW12361   1.030   6.621   1.090
 3821SOL    HW112362   1.086   6.703   1.079
 3821SOL    HW212363   1.026   6.597   1.187
 3822SOL     OW12364   6.478   6.278   1.422
 3822SOL    HW112365   6.433   6.273   1.333
 3822SOL    HW212366   6.414   6.315   1.489
 3823SOL     OW12367   5.900   5.389   4.200
 3823SOL    HW112368   5.894   5.383   4.101
 3823SOL    HW212369   5.904   5.297   4.239
 3824SOL     OW12370   1.798   2.286   0.931
 3824SOL    HW112371   1.879   2.228   0.937
 3824SOL    HW212372   1.820   2.368   0.877
 3825SOL     OW12373   0.415   4.748   5.492
 3825SOL    HW112374   0.431   4.683   5.417
 3825SOL    HW212375   0.363   4.826   5.458
 3826SOL     OW12376   4.565   4.400   3.741
 3826SOL    HW112377   4.574   4.500   3.734
 3826SOL    HW212378   4.533   4.376   3.833
 3827SOL     OW12379   0.773   1.344   0.163
 3827SOL    HW112380   0.706   1.272   0.179
 3827SOL    HW212381   0.774   1.407   0.241
 3828SOL     OW12382   2.797   3.483   5.709
 3828SOL    HW112383   2.775   3.410   5.643
 3828SOL    HW212384   2.806   3.570   5.660
 3829SOL     OW12385   6.757   2.252   1.578
 3829SOL    HW112386   6.776   2.343   1.542
 3829SOL    HW212387   6.790   2.183   1.514
 3830SOL     OW12388   5.486   6.078   3.419
 3830SOL    HW112389   5.450   6.141   3.350
 3830SOL    HW212390   5.421   6.070   3.494
 3831SOL     OW12391   5.296   2.186   4.352
 3831SOL    HW112392   5.234   2.168   4.428
 3831SOL    HW212393   5.247   2.238   4.281
 3832SOL     OW12394   6.351   1.452   3.977
 3832SOL    HW112395   6.284   1.383   3.950
 3832SOL    HW212396   6.308   1.516   4.041
 3833SOL     OW12397   2.325   3.386   5.538
 3833SOL    HW112398   2.374   3.462   5.496
 3833SOL    HW212399   2.343   3.302   5.486
 3834SOL     OW12400   4.491   4.839   0.689
 3834SOL    HW112401   4.506   4.905   0.616
 3834SOL    HW212402   4.445   4.884   0.766
 3835SOL     OW12403   4.610   5.141   4.484
 3835SOL    HW112404   4.617   5.215   4.418
 3835SOL    HW212405   4.644   5.173   4.573
 3836SOL     OW12406   0.791   0.438   5.182
 3836SOL    HW112407   0.729   0.413   5.256
 3836SOL    HW212408   0.753   0.517   5.133
 3837SOL     OW12409   4.820   4.414   5.688
 3837SOL    HW112410   4.878   4.474   5.633
 3837SOL    HW212411   4.753   4.369   5.629
 3838SOL     OW12412   0.646   1.856   3.334
 3838SOL    HW112413   0.612   1.859   3.240
 3838SOL    HW212414   0.713   1.929   3.347
 3839SOL     OW12415   4.788   1.337   4.115
 3839SOL    HW112416   4.743   1.388   4.042
 3839SOL    HW212417   4.730   1.261   4.144
 3840SOL     OW12418   4.106   1.625   5.750
 3840SOL    HW112419   4.131   1.624   5.847
 3840SOL    HW212420   4.070   1.716   5.726
 3841SOL     OW12421   5.600   3.829   2.837
 3841SOL    HW112422   5.575   3.874   2.922
 3841SOL    HW212423   5.699   3.835   2.824
 3842SOL     OW12424   1.914   4.052   4.782
 3842SOL    HW112425   1.824   4.033   4.743
 3842SOL    HW212426   1.922   4.150   4.800
 3843SOL     OW12427   5.485   2.527   6.737
 3843SOL    HW112428   5.479   2.588   6.658
 3843SOL    HW212429   5.581   2.517   6.763
 3844SOL     OW12430   5.658   6.325   0.582
 3844SOL    HW112431   5.727   6.298   0.649
 3844SOL    HW212432   5.693   6.399   0.525
 3845SOL     OW12433   1.955   5.456   0.562
 3845SOL    HW112434   1.871   5.457   0.616
 3845SOL    HW212435   1.943   5.397   0.483
 3846SOL     OW12436   6.724   3.216   2.745
 3846SOL    HW112437   6.783   3.167   2.809
 3846SOL    HW212438   6.772   3.296   2.710
 3847SOL     OW12439   0.283   0.825   6.641
 3847SOL    HW112440   0.363   0.807   6.584
 3847SOL    HW212441   0.209   0.860   6.584
 3848SOL     OW12442   5.611   4.930   2.796
 3848SOL    HW112443   5.711   4.929   2.789
 3848SOL    HW212444   5.584   4.989   2.872
 3849SOL     OW12445   0.171   2.930   5.679
 3849SOL    HW112446   0.134   2.971   5.596
 3849SOL    HW212447   0.136   2.978   5.759
 3850SOL     OW12448   3.548   3.107   1.238
 3850SOL    HW112449   3.498   3.020   1.235
 3850SOL    HW212450   3.644   3.089   1.260
 3851SOL     OW12451   0.011   5.565   2.431
 3851SOL    HW112452   6.969   5.547   2.507
 3851SOL    HW212453   0.073   5.487   2.419
 3852SOL     OW12454   3.429   0.458   4.915
 3852SOL    HW112455   3.434   0.483   5.012
 3852SOL    HW212456   3.448   0.538   4.859
 3853SOL     OW12457   1.943   1.019   3.285
 3853SOL    HW112458   1.903   0.950   3.345
 3853SOL    HW212459   1.879   1.095   3.275
 3854SOL     OW12460   0.215   1.476   2.243
 3854SOL    HW112461   0.154   1.425   2.303
 3854SOL    HW212462   0.280   1.412   2.200
 3855SOL     OW12463   2.751   5.803   6.778
 3855SOL    HW112464   2.818   5.865   6.737
 3855SOL    HW212465   2.661   5.845   6.775
 3856SOL     OW12466   0.011   2.994   6.395
 3856SOL    HW112467   0.027   2.951   6.484
 3856SOL    HW212468   6.937   3.029   6.390
 3857SOL     OW12469   1.117   0.161   5.678
 3857SOL    HW112470   1.077   0.073   5.706
 3857SOL    HW212471   1.165   0.202   5.755
 3858SOL     OW12472   3.069   1.004   4.939
 3858SOL    HW112473   2.976   0.967   4.934
 3858SOL    HW212474   3.086   1.036   5.032
 3859SOL     OW12475   5.528   6.604   3.193
 3859SOL    HW112476   5.473   6.670   3.142
 3859SOL    HW212477   5.566   6.537   3.130
 3860SOL     OW12478   1.409   6.569   4.723
 3860SOL    HW112479   1.440   6.662   4.745
 3860SOL    HW212480   1.485   6.519   4.680
 3861SOL     OW12481   2.275   6.103   2.232
 3861SOL    HW112482   2.269   6.200   2.254
 3861SOL    HW212483   2.355   6.086   2.175
 3862SOL     OW12484   1.869   0.615   4.212
 3862SOL    HW112485   1.881   0.567   4.125
 3862SOL    HW212486   1.833   0.551   4.280
 3863SOL     OW12487   3.875   0.071   1.181
 3863SOL    HW112488   3.838   0.119   1.102
 3863SOL    HW212489   3.817   0.089   1.261
 3864SOL     OW12490   1.061   1.068   4.713
 3864SOL    HW112491   0.988   1.019   4.761
 3864SOL    HW212492   1.123   1.003   4.670
 3865SOL     OW12493   5.253   1.091   0.589
 3865SOL    HW112494   5.283   0.996   0.591
 3865SOL    HW212495   5.157   1.095   0.560
 3866SOL     OW12496   3.741   1.100   6.725
 3866SOL    HW112497   3.729   1.002   6.712
 3866SOL    HW212498   3.820   1.116   6.784
 3867SOL     OW12499   6.854   3.375   2.319
 3867SOL    HW112500   6.806   3.352   2.234
 3867SOL    HW212501   6.804   3.446   2.368
 3868SOL     OW12502   4.221   0.815   0.094
 3868SOL    HW112503   4.198   0.787   0.187
 3868SOL    HW212504   4.214   0.915   0.086
 3869SOL     OW12505   3.094   1.026   3.647
 3869SOL    HW112506   3.129   1.112   3.612
 3869SOL    HW212507   3.002   1.010   3.610
 3870SOL     OW12508   6.571   1.953   5.848
 3870SOL    HW112509   6.485   2.001   5.864
 3870SOL    HW212510   6.552   1.860   5.818
 3871SOL     OW12511   2.787   5.114   4.408
 3871SOL    HW112512   2.735   5.075   4.484
 3871SOL    HW212513   2.824   5.040   4.351
 3872SOL     OW12514   2.970   3.963   5.217
 3872SOL    HW112515   2.918   4.027   5.273
 3872SOL    HW212516   3.039   3.917   5.274
 3873SOL     OW12517   5.521   2.577   6.327
 3873SOL    HW112518   5.484   2.620   6.409
 3873SOL    HW212519   5.585   2.505   6.353
 3874SOL     OW12520   1.774   0.923   2.048
 3874SOL    HW112521   1.698   0.984   2.028
 3874SOL    HW212522   1.762   0.837   1.999
 3875SOL     OW12523   0.424   0.755   6.390
 3875SOL    HW112524   0.487   0.827   6.360
 3875SOL    HW212525   0.475   0.672   6.410
 3876SOL     OW12526   3.272   5.355   1.907
 3876SOL    HW112527   3.322   5.309   1.980
 3876SOL    HW212528   3.253   5.290   1.833
 3877SOL     OW12529   0.989   1.835   5.902
 3877SOL    HW112530   1.007   1.907   5.835
 3877SOL    HW212531   1.029   1.749   5.870
 3878SOL     OW12532   4.128   1.711   4.847
 3878SOL    HW112533   4.122   1.648   4.924
 3878SOL    HW212534   4.039   1.718   4.803
 3879SOL     OW12535   5.572   5.015   6.787
 3879SOL    HW112536   5.622   5.082   6.732
 3879SOL    HW212537   5.578   4.925   6.744
 3880SOL     OW12538   4.944   5.307   3.727
 3880SOL    HW112539   4.845   5.297   3.715
 3880SOL    HW212540   4.964   5.323   3.824
 3881SOL     OW12541   1.678   2.708   0.005
 3881SOL    HW112542   1.584   2.687   0.033
 3881SOL    HW212543   1.742   2.668   0.070
 3882SOL     OW12544   0.366   2.401   6.196
 3882SOL    HW112545   0.447   2.445   6.157
 3882SOL    HW212546   0.328   2.460   6.268
 3883SOL     OW12547   3.572   6.041   4.466
 3883SOL    HW112548   3.488   5.996   4.495
 3883SOL    HW212549   3.550   6.127   4.421
 3884SOL     OW12550   6.756   2.853   2.087
 3884SOL    HW112551   6.746   2.774   2.027
 3884SOL    HW212552   6.789   2.931   2.034
 3885SOL     OW12553   4.136   5.692   2.004
 3885SOL    HW112554   4.056   5.633   2.016
 3885SOL    HW212555   4.202   5.674   2.078
 3886SOL     OW12556   3.088   5.142   6.759
 3886SOL    HW112557   3.076   5.079   6.836
 3886SOL    HW212558   3.007   5.139   6.701
 3887SOL     OW12559   1.849   6.061   1.960
 3887SOL    HW112560   1.857   6.117   1.878
 3887SOL    HW212561   1.888   6.109   2.038
 3888SOL     OW12562   5.152   4.936   3.243
 3888SOL    HW112563   5.136   4.841   3.271
 3888SOL    HW212564   5.246   4.961   3.266
 3889SOL     OW12565   5.638   2.839   0.470
 3889SOL    HW112566   5.683   2.928   0.461
 3889SOL    HW212567   5.660   2.783   0.390
 3890SOL     OW12568   4.615   4.328   4.015
 3890SOL    HW112569   4.606   4.418   4.058
 3890SOL    HW212570   4.683   4.274   4.065
 3891SOL     OW12571   4.657   4.691   3.756
 3891SOL    HW112572   4.618   4.694   3.664
 3891SOL    HW212573   4.667   4.784   3.791
 3892SOL     OW12574   0.480   2.062   1.238
 3892SOL    HW112575   0.576   2.087   1.247
 3892SOL    HW212576   0.423   2.126   1.290
 3893SOL     OW12577   3.229   3.022   3.042
 3893SOL    HW112578   3.163   3.051   2.972
 3893SOL    HW212579   3.189   3.036   3.133
 3894SOL     OW12580   4.621   0.580   5.982
 3894SOL    HW112581   4.570   0.594   6.067
 3894SOL    HW212582   4.574   0.625   5.906
 3895SOL     OW12583   0.520   0.043   4.128
 3895SOL    HW112584   0.453   6.988   4.135
 3895SOL    HW212585   0.612   0.005   4.138
 3896SOL     OW12586   2.137   1.561   6.344
 3896SOL    HW112587   2.088   1.491   6.395
 3896SOL    HW212588   2.234   1.536   6.338
 3897SOL     OW12589   3.207   6.185   0.874
 3897SOL    HW112590   3.258   6.196   0.960
 3897SOL    HW212591   3.120   6.139   0.893
 3898SOL     OW12592   4.103   3.192   1.212
 3898SOL    HW112593   4.069   3.117   1.268
 3898SOL    HW212594   4.081   3.279   1.256
 3899SOL     OW12595   3.132   6.839   5.182
 3899SOL    HW112596   3.071   6.870   5.110
 3899SOL    HW212597   3.096   6.754   5.222
 3900SOL     OW12598   4.371   4.585   2.787
 3900SOL    HW112599   4.364   4.623   2.695
 3900SOL    HW212600   4.442   4.514   2.789
 3901SOL     OW12601   3.453   1.372   6.537
 3901SOL    HW112602   3.442   1.298   6.603
 3901SOL    HW212603   3.532   1.353   6.478
 3902SOL     OW12604   4.873   2.870   2.767
 3902SOL    HW112605   4.821   2.854   2.851
 3902SOL    HW212606   4.970   2.855   2.786
 3903SOL     OW12607   3.727   5.024   6.751
 3903SOL    HW112608   3.727   5.093   6.679
 3903SOL    HW212609   3.780   5.058   6.830
 3904SOL     OW12610   1.728   6.602   0.934
 3904SOL    HW112611   1.678   6.515   0.941
 3904SOL    HW212612   1.747   6.622   0.838
 3905SOL     OW12613   0.281   6.493   5.381
 3905SOL    HW112614   0.345   6.417   5.369
 3905SOL    HW212615   0.332   6.580   5.380
 3906SOL     OW12616   0.806   6.230   5.670
 3906SOL    HW112617   0.827   6.272   5.581
 3906SOL    HW212618   0.835   6.134   5.669
 3907SOL     OW12619   5.455   2.117   3.881
 3907SOL    HW112620   5.382   2.051   3.864
 3907SOL    HW212621   5.501   2.140   3.795
 3908SOL     OW12622   2.690   4.074   5.767
 3908SOL    HW112623   2.660   4.000   5.827
 3908SOL    HW212624   2.788   4.067   5.752
 3909SOL     OW12625   4.309   6.055   3.869
 3909SOL    HW112626   4.366   5.998   3.810
 3909SOL    HW212627   4.267   5.999   3.941
 3910SOL     OW12628   3.532   3.647   2.598
 3910SOL    HW112629   3.530   3.733   2.547
 3910SOL    HW212630   3.618   3.598   2.578
 3911SOL     OW12631   5.738   2.206   5.480
 3911SOL    HW112632   5.783   2.133   5.430
 3911SOL    HW212633   5.693   2.268   5.416
 3912SOL     OW12634   5.791   3.102   6.311
 3912SOL    HW112635   5.729   3.025   6.325
 3912SOL    HW212636   5.739   3.187   6.310
 3913SOL     OW12637   1.137   6.796   1.353
 3913SOL    HW112638   1.223   6.845   1.363
 3913SOL    HW212639   1.154   6.698   1.342
 3914SOL     OW12640   3.182   5.705   5.921
 3914SOL    HW112641   3.135   5.621   5.895
 3914SOL    HW212642   3.267   5.713   5.869
 3915SOL     OW12643   5.075   5.749   1.758
 3915SOL    HW112644   4.994   5.721   1.808
 3915SOL    HW212645   5.069   5.846   1.736
 3916SOL     OW12646   6.993   0.081   3.512
 3916SOL    HW112647   6.983   0.125   3.423
 3916SOL    HW212648   6.905   0.045   3.542
 3917SOL     OW12649   3.035   0.106   6.752
 3917SOL    HW112650   3.092   0.102   6.670
 3917SOL    HW212651   3.053   0.025   6.808
 3918SOL     OW12652   6.155   3.455   0.196
 3918SOL    HW112653   6.125   3.493   0.283
 3918SOL    HW212654   6.078   3.455   0.131
 3919SOL     OW12655   3.378   6.461   0.729
 3919SOL    HW112656   3.308   6.530   0.708
 3919SOL    HW212657   3.341   6.370   0.708
 3920SOL     OW12658   2.505   0.868   6.730
 3920SOL    HW112659   2.505   0.774   6.696
 3920SOL    HW212660   2.555   0.871   6.817
 3921SOL     OW12661   0.463   3.246   0.865
 3921SOL    HW112662   0.503   3.338   0.860
 3921SOL    HW212663   0.500   3.198   0.944
 3922SOL     OW12664   0.162   5.008   0.859
 3922SOL    HW112665   0.220   4.985   0.781
 3922SOL    HW212666   0.195   4.959   0.940
 3923SOL     OW12667   0.450   5.524   0.259
 3923SOL    HW112668   0.371   5.474   0.293
 3923SOL    HW212669   0.442   5.536   0.160
 3924SOL     OW12670   6.449   5.341   3.979
 3924SOL    HW112671   6.463   5.347   3.880
 3924SOL    HW212672   6.489   5.421   4.024
 3925SOL     OW12673   0.620   4.680   1.364
 3925SOL    HW112674   0.635   4.776   1.385
 3925SOL    HW212675   0.569   4.637   1.438
 3926SOL     OW12676   2.674   5.972   3.332
 3926SOL    HW112677   2.637   5.902   3.271
 3926SOL    HW212678   2.717   5.928   3.411
 3927SOL     OW12679   2.485   3.608   6.305
 3927SOL    HW112680   2.477   3.579   6.400
 3927SOL    HW212681   2.405   3.665   6.280
 3928SOL     OW12682   6.970   6.551   6.226
 3928SOL    HW112683   0.020   6.617   6.256
 3928SOL    HW212684   6.922   6.515   6.305
 3929SOL     OW12685   1.401   1.705   4.912
 3929SOL    HW112686   1.463   1.698   4.990
 3929SOL    HW212687   1.405   1.621   4.859
 3930SOL     OW12688   3.090   1.849   4.183
 3930SOL    HW112689   3.057   1.850   4.089
 3930SOL    HW212690   3.174   1.795   4.188
 3931SOL     OW12691   3.650   6.551   2.351
 3931SOL    HW112692   3.684   6.523   2.261
 3931SOL    HW212693   3.686   6.641   2.373
 3932SOL     OW12694   2.007   3.827   3.590
 3932SOL    HW112695   2.014   3.838   3.491
 3932SOL    HW212696   1.962   3.741   3.611
 3933SOL     OW12697   2.107   1.015   5.908
 3933SOL    HW112698   2.117   1.017   6.007
 3933SOL    HW212699   2.194   0.990   5.865
 3934SOL     OW12700   4.683   5.565   0.509
 3934SOL    HW112701   4.602   5.565   0.451
 3934SOL    HW212702   4.761   5.526   0.459
 3935SOL     OW12703   4.607   6.906   2.283
 3935SOL    HW112704   4.677   6.871   2.345
 3935SOL    HW212705   4.516   6.876   2.314
 3936SOL     OW12706   0.966   4.318   2.404
 3936SOL    HW112707   0.962   4.248   2.333
 3936SOL    HW212708   1.058   4.356   2.410
 3937SOL     OW12709   0.556   1.990   2.584
 3937SOL    HW112710   0.587   1.993   2.489
 3937SOL    HW212711   0.635   1.992   2.645
 3938SOL     OW12712   5.845   3.341   2.975
 3938SOL    HW112713   5.896   3.347   3.061
 3938SOL    HW212714   5.763   3.285   2.989
 3939SOL     OW12715   1.997   2.576   1.932
 3939SOL    HW112716   1.996   2.656   1.991
 3939SOL    HW212717   2.087   2.568   1.888
 3940SOL     OW12718   4.582   4.524   0.924
 3940SOL    HW112719   4.493   4.482   0.906
 3940SOL    HW212720   4.581   4.567   1.015
 3941SOL     OW12721   5.581   3.222   0.286
 3941SOL    HW112722   5.538   3.207   0.197
 3941SOL    HW212723   5.512   3.220   0.358
 3942SOL     OW12724   6.167   6.710   0.885
 3942SOL    HW112725   6.258   6.729   0.850
 3942SOL    HW212726   6.169   6.630   0.944
 3943SOL     OW12727   0.132   2.984   4.769
 3943SOL    HW112728   0.062   2.919   4.739
 3943SOL    HW212729   0.212   2.977   4.710
 3944SOL     OW12730   5.851   2.123   5.149
 3944SOL    HW112731   5.831   2.088   5.241
 3944SOL    HW212732   5.816   2.059   5.081
 3945SOL     OW12733   0.222   6.873   0.797
 3945SOL    HW112734   0.184   6.907   0.883
 3945SOL    HW212735   0.156   6.812   0.753
 3946SOL     OW12736   3.558   4.976   3.780
 3946SOL    HW112737   3.573   4.958   3.877
 3946SOL    HW212738   3.641   4.953   3.729
 3947SOL     OW12739   6.930   4.226   5.803
 3947SOL    HW112740   6.945   4.318   5.837
 3947SOL    HW212741   6.938   4.224   5.704
 3948SOL     OW12742   6.307   3.478   1.624
 3948SOL    HW112743   6.277   3.553   1.564
 3948SOL    HW212744   6.377   3.511   1.686
 3949SOL     OW12745   5.356   6.213   2.605
 3949SOL    HW112746   5.270   6.196   2.654
 3949SOL    HW212747   5.364   6.149   2.529
 3950SOL     OW12748   1.670   6.109   0.397
 3950SOL    HW112749   1.616   6.099   0.313
 3950SOL    HW212750   1.714   6.022   0.418
 3951SOL     OW12751   5.475   5.572   2.043
 3951SOL    HW112752   5.394   5.567   1.983
 3951SOL    HW212753   5.548   5.619   1.995
 3952SOL     OW12754   6.148   1.113   6.917
 3952SOL    HW112755   6.131   1.114   7.016
 3952SOL    HW212756   6.247   1.120   6.901
 3953SOL     OW12757   3.044   3.807   2.239
 3953SOL    HW112758   3.018   3.737   2.306
 3953SOL    HW212759   3.118   3.772   2.181
 3954SOL     OW12760   4.259   3.971   5.617
 3954SOL    HW112761   4.233   3.933   5.528
 3954SOL    HW212762   4.198   4.047   5.640
 3955SOL     OW12763   3.986   1.271   4.977
 3955SOL    HW112764   3.901   1.297   5.023
 3955SOL    HW212765   4.054   1.244   5.045
 3956SOL     OW12766   2.722   1.274   0.660
 3956SOL    HW112767   2.742   1.348   0.596
 3956SOL    HW212768   2.726   1.309   0.753
 3957SOL     OW12769   4.237   1.926   3.744
 3957SOL    HW112770   4.324   1.963   3.778
 3957SOL    HW212771   4.231   1.942   3.645
 3958SOL     OW12772   5.189   6.699   6.005
 3958SOL    HW112773   5.226   6.624   6.060
 3958SOL    HW212774   5.110   6.667   5.952
 3959SOL     OW12775   5.721   6.026   6.485
 3959SOL    HW112776   5.732   6.123   6.461
 3959SOL    HW212777   5.628   6.010   6.519
 3960SOL     OW12778   6.161   2.577   4.240
 3960SOL    HW112779   6.206   2.540   4.158
 3960SOL    HW212780   6.139   2.502   4.302
 3961SOL     OW12781   5.183   6.835   4.299
 3961SOL    HW112782   5.173   6.798   4.391
 3961SOL    HW212783   5.203   6.933   4.304
 3962SOL     OW12784   6.519   5.343   4.711
 3962SOL    HW112785   6.580   5.312   4.638
 3962SOL    HW212786   6.488   5.436   4.691
 3963SOL     OW12787   3.399   6.169   1.858
 3963SOL    HW112788   3.364   6.076   1.845
 3963SOL    HW212789   3.372   6.202   1.948
 3964SOL     OW12790   5.995   2.263   3.927
 3964SOL    HW112791   6.024   2.359   3.932
 3964SOL    HW212792   6.015   2.218   4.014
 3965SOL     OW12793   4.927   4.469   4.309
 3965SOL    HW112794   4.975   4.444   4.393
 3965SOL    HW212795   4.829   4.448   4.319
 3966SOL     OW12796   3.048   6.590   6.593
 3966SOL    HW112797   2.948   6.601   6.588
 3966SOL    HW212798   3.087   6.664   6.648
 3967SOL     OW12799   1.515   3.928   4.005
 3967SOL    HW112800   1.586   3.953   3.939
 3967SOL    HW212801   1.545   3.849   4.058
 3968SOL     OW12802   4.281   6.588   0.604
 3968SOL    HW112803   4.318   6.675   0.637
 3968SOL    HW212804   4.286   6.520   0.677
 3969SOL     OW12805   7.001   4.573   3.239
 3969SOL    HW112806   0.004   4.628   3.159
 3969SOL    HW212807   0.045   4.496   3.246
 3970SOL     OW12808   4.434   6.422   1.205
 3970SOL    HW112809   4.532   6.403   1.211
 3970SOL    HW212810   4.412   6.506   1.254
 3971SOL     OW12811   0.809   5.954   3.698
 3971SOL    HW112812   0.772   6.002   3.778
 3971SOL    HW212813   0.903   5.926   3.716
 3972SOL     OW12814   1.535   3.560   6.981
 3972SOL    HW112815   1.478   3.535   0.040
 3972SOL    HW212816   1.506   3.648   6.945
 3973SOL     OW12817   1.588   4.347   0.917
 3973SOL    HW112818   1.640   4.265   0.941
 3973SOL    HW212819   1.650   4.416   0.881
 3974SOL     OW12820   3.087   0.611   6.067
 3974SOL    HW112821   2.994   0.647   6.069
 3974SOL    HW212822   3.085   0.512   6.080
 3975SOL     OW12823   6.833   2.911   0.048
 3975SOL    HW112824   6.768   2.986   0.035
 3975SOL    HW212825   6.906   2.918   6.999
 3976SOL     OW12826   1.275   4.365   2.520
 3976SOL    HW112827   1.340   4.324   2.457
 3976SOL    HW212828   1.321   4.434   2.576
 3977SOL     OW12829   0.721   2.827   6.784
 3977SOL    HW112830   0.698   2.900   6.720
 3977SOL    HW212831   0.650   2.757   6.783
 3978SOL     OW12832   5.675   3.980   3.578
 3978SOL    HW112833   5.741   3.993   3.504
 3978SOL    HW212834   5.724   3.967   3.665
 3979SOL     OW12835   3.954   6.076   6.334
 3979SOL    HW112836   3.970   5.978   6.348
 3979SOL    HW212837   3.855   6.092   6.326
 3980SOL     OW12838   5.252   4.658   5.745
 3980SOL    HW112839   5.240   4.714   5.663
 3980SOL    HW212840   5.203   4.699   5.822
 3981SOL     OW12841   4.632   5.424   6.944
 3981SOL    HW112842   4.633   5.329   6.911
 3981SOL    HW212843   4.549   5.469   6.913
 3982SOL     OW12844   2.683   6.305   2.863
 3982SOL    HW112845   2.703   6.234   2.931
 3982SOL    HW212846   2.596   6.284   2.818
 3983SOL     OW12847   3.148   6.105   4.502
 3983SOL    HW112848   3.092   6.153   4.570
 3983SOL    HW212849   3.090   6.042   4.450
 3984SOL     OW12850   6.158   2.920   3.010
 3984SOL    HW112851   6.147   2.972   2.925
 3984SOL    HW212852   6.078   2.862   3.024
 3985SOL     OW12853   4.533   5.260   6.356
 3985SOL    HW112854   4.436   5.275   6.371
 3985SOL    HW212855   4.577   5.347   6.335
 3986SOL     OW12856   5.064   0.736   2.624
 3986SOL    HW112857   5.032   0.649   2.662
 3986SOL    HW212858   4.992   0.775   2.566
 3987SOL     OW12859   3.408   5.388   5.403
 3987SOL    HW112860   3.412   5.487   5.409
 3987SOL    HW212861   3.472   5.348   5.468
 3988SOL     OW12862   4.673   5.867   0.924
 3988SOL    HW112863   4.770   5.841   0.922
 3988SOL    HW212864   4.640   5.877   0.830
 3989SOL     OW12865   6.846   2.730   1.550
 3989SOL    HW112866   6.762   2.773   1.517
 3989SOL    HW212867   6.901   2.797   1.599
 3990SOL     OW12868   6.763   1.297   1.475
 3990SOL    HW112869   6.712   1.382   1.493
 3990SOL    HW212870   6.738   1.263   1.384
 3991SOL     OW12871   4.558   1.325   3.289
 3991SOL    HW112872   4.537   1.391   3.361
 3991SOL    HW212873   4.497   1.341   3.211
 3992SOL     OW12874   4.681   1.633   1.683
 3992SOL    HW112875   4.732   1.713   1.654
 3992SOL    HW212876   4.600   1.662   1.734
 3993SOL     OW12877   1.197   3.227   1.475
 3993SOL    HW112878   1.144   3.300   1.517
 3993SOL    HW212879   1.191   3.234   1.375
 3994SOL     OW12880   2.673   5.565   4.694
 3994SOL    HW112881   2.576   5.559   4.671
 3994SOL    HW212882   2.728   5.521   4.623
 3995SOL     OW12883   1.500   2.425   3.891
 3995SOL    HW112884   1.419   2.371   3.868
 3995SOL    HW212885   1.560   2.431   3.811
 3996SOL     OW12886   6.785   5.834   4.502
 3996SOL    HW112887   6.758   5.750   4.547
 3996SOL    HW212888   6.764   5.828   4.404
 3997SOL     OW12889   2.895   0.364   3.024
 3997SOL    HW112890   2.858   0.455   3.038
 3997SOL    HW212891   2.826   0.305   2.983
 3998SOL     OW12892   4.480   2.054   2.712
 3998SOL    HW112893   4.484   2.154   2.700
 3998SOL    HW212894   4.569   2.022   2.744
 3999SOL     OW12895   4.480   1.448   4.492
 3999SOL    HW112896   4.459   1.512   4.566
 3999SOL    HW212897   4.456   1.489   4.404
 4000SOL     OW12898   4.889   5.246   4.632
 4000SOL    HW112899   4.930   5.324   4.583
 4000SOL    HW212900   4.895   5.165   4.574
 4001SOL     OW12901   0.705   1.576   5.116
 4001SOL    HW112902   0.717   1.671   5.090
 4001SOL    HW212903   0.791   1.527   5.106
 4002SOL     OW12904   2.221   4.955   1.980
 4002SOL    HW112905   2.122   4.952   1.971
 4002SOL    HW212906   2.247   5.017   2.054
 4003SOL     OW12907   3.926   1.987   4.657
 4003SOL    HW112908   3.908   2.040   4.575
 4003SOL    HW212909   3.975   1.904   4.633
 4004SOL     OW12910   6.961   1.419   6.536
 4004SOL    HW112911   6.930   1.513   6.542
 4004SOL    HW212912   6.947   1.374   6.624
 4005SOL     OW12913   6.666   5.137   4.614
 4005SOL    HW112914   6.742   5.077   4.590
 4005SOL    HW212915   6.593   5.083   4.656
 4006SOL     OW12916   3.828   6.335   3.399
 4006SOL    HW112917   3.887   6.392   3.456
 4006SOL    HW212918   3.883   6.294   3.325
 4007SOL     OW12919   0.594   1.523   5.839
 4007SOL    HW112920   0.646   1.449   5.795
 4007SOL    HW212921   0.597   1.604   5.781
 4008SOL     OW12922   3.118   1.680   4.943
 4008SOL    HW112923   3.072   1.600   4.906
 4008SOL    HW212924   3.119   1.675   5.043
 4009SOL     OW12925   3.806   3.982   3.072
 4009SOL    HW112926   3.830   3.942   3.160
 4009SOL    HW212927   3.722   4.035   3.080
 4010SOL     OW12928   1.223   3.185   0.547
 4010SOL    HW112929   1.192   3.204   0.640
 4010SOL    HW212930   1.322   3.187   0.544
 4011SOL     OW12931   0.666   1.150   0.491
 4011SOL    HW112932   0.760   1.156   0.523
 4011SOL    HW212933   0.643   1.230   0.436
 4012SOL     OW12934   5.252   3.277   3.442
 4012SOL    HW112935   5.250   3.375   3.423
 4012SOL    HW212936   5.220   3.227   3.363
 4013SOL     OW12937   5.231   2.787   2.819
 4013SOL    HW112938   5.255   2.787   2.916
 4013SOL    HW212939   5.257   2.699   2.778
 4014SOL     OW12940   5.369   4.639   2.759
 4014SOL    HW112941   5.409   4.577   2.827
 4014SOL    HW212942   5.426   4.640   2.677
 4015SOL     OW12943   5.151   3.546   0.290
 4015SOL    HW112944   5.074   3.582   0.237
 4015SOL    HW212945   5.231   3.604   0.276
 4016SOL     OW12946   3.068   6.555   4.605
 4016SOL    HW112947   3.076   6.518   4.697
 4016SOL    HW212948   3.001   6.502   4.553
 4017SOL     OW12949   5.286   6.635   6.411
 4017SOL    HW112950   5.236   6.705   6.360
 4017SOL    HW212951   5.358   6.678   6.465
 4018SOL     OW12952   2.039   0.299   6.810
 4018SOL    HW112953   2.061   0.228   6.743
 4018SOL    HW212954   2.080   0.276   6.898
 4019SOL     OW12955   5.496   6.560   4.293
 4019SOL    HW112956   5.563   6.486   4.294
 4019SOL    HW212957   5.501   6.611   4.379
 4020SOL     OW12958   5.517   1.735   4.469
 4020SOL    HW112959   5.467   1.751   4.384
 4020SOL    HW212960   5.581   1.810   4.485
 4021SOL     OW12961   4.869   3.155   0.025
 4021SOL    HW112962   4.842   3.223   6.977
 4021SOL    HW212963   4.917   3.200   0.100
 4022SOL     OW12964   5.423   0.785   1.038
 4022SOL    HW112965   5.365   0.833   1.104
 4022SOL    HW212966   5.458   0.851   0.971
 4023SOL     OW12967   6.635   5.701   5.643
 4023SOL    HW112968   6.638   5.772   5.573
 4023SOL    HW212969   6.618   5.742   5.732
 4024SOL     OW12970   4.124   4.533   5.739
 4024SOL    HW112971   4.103   4.516   5.836
 4024SOL    HW212972   4.058   4.598   5.701
 4025SOL     OW12973   0.133   3.800   4.111
 4025SOL    HW112974   0.141   3.769   4.016
 4025SOL    HW212975   0.168   3.729   4.172
 4026SOL     OW12976   6.084   1.411   5.425
 4026SOL    HW112977   6.076   1.325   5.374
 4026SOL    HW212978   6.176   1.448   5.414
 4027SOL     OW12979   2.799   5.160   2.720
 4027SOL    HW112980   2.846   5.076   2.693
 4027SOL    HW212981   2.769   5.209   2.639
 4028SOL     OW12982   1.528   5.566   2.832
 4028SOL    HW112983   1.439   5.551   2.791
 4028SOL    HW212984   1.564   5.479   2.867
 4029SOL     OW12985   1.776   4.292   3.384
 4029SOL    HW112986   1.761   4.211   3.327
 4029SOL    HW212987   1.868   4.287   3.423
 4030SOL     OW12988   2.561   0.937   6.259
 4030SOL    HW112989   2.467   0.954   6.289
 4030SOL    HW212990   2.593   0.851   6.298
 4031SOL     OW12991   6.465   6.314   4.259
 4031SOL    HW112992   6.396   6.383   4.241
 4031SOL    HW212993   6.490   6.268   4.174
 4032SOL     OW12994   3.538   7.012   4.906
 4032SOL    HW112995   3.626   6.979   4.940
 4032SOL    HW212996   3.547   0.089   4.878
 4033SOL     OW12997   3.579   3.851   6.277
 4033SOL    HW112998   3.528   3.772   6.311
 4033SOL    HW212999   3.675   3.827   6.267
 4034SOL     OW13000   6.010   3.675   5.370
 4034SOL    HW113001   5.960   3.590   5.382
 4034SOL    HW213002   6.042   3.683   5.276
 4035SOL     OW13003   0.414   6.170   2.197
 4035SOL    HW113004   0.355   6.219   2.133
 4035SOL    HW213005   0.358   6.107   2.252
 4036SOL     OW13006   6.190   5.974   1.122
 4036SOL    HW113007   6.198   5.948   1.218
 4036SOL    HW213008   6.093   5.987   1.100
 4037SOL     OW13009   0.648   3.942   6.444
 4037SOL    HW113010   0.641   4.028   6.393
 4037SOL    HW213011   0.674   3.868   6.382
 4038SOL     OW13012   6.437   5.230   3.203
 4038SOL    HW113013   6.341   5.250   3.222
 4038SOL    HW213014   6.485   5.215   3.289
 4039SOL     OW13015   2.884   5.038   1.221
 4039SOL    HW113016   2.799   5.026   1.273
 4039SOL    HW213017   2.878   5.123   1.168
 4040SOL     OW13018   3.108   7.019   0.112
 4040SOL    HW113019   3.085   6.969   0.029
 4040SOL    HW213020   3.024   0.037   0.153
 4041SOL     OW13021   0.215   6.140   3.325
 4041SOL    HW113022   0.140   6.150   3.260
 4041SOL    HW213023   0.180   6.141   3.419
 4042SOL     OW13024   5.659   5.152   1.766
 4042SOL    HW113025   5.709   5.108   1.841
 4042SOL    HW213026   5.564   5.121   1.767
 4043SOL     OW13027   0.196   3.235   0.775
 4043SOL    HW113028   0.167   3.148   0.816
 4043SOL    HW213029   0.294   3.248   0.790
 4044SOL     OW13030   5.471   4.914   2.565
 4044SOL    HW113031   5.485   4.820   2.534
 4044SOL    HW213032   5.515   4.926   2.655
 4045SOL     OW13033   2.933   5.392   5.456
 4045SOL    HW113034   3.000   5.323   5.428
 4045SOL    HW213035   2.889   5.364   5.541
 4046SOL     OW13036   0.905   3.807   0.497
 4046SOL    HW113037   0.933   3.893   0.541
 4046SOL    HW213038   0.826   3.824   0.437
 4047SOL     OW13039   3.024   3.818   3.226
 4047SOL    HW113040   3.052   3.754   3.154
 4047SOL    HW213041   2.958   3.773   3.287
 4048SOL     OW13042   5.129   2.360   0.609
 4048SOL    HW113043   5.039   2.347   0.568
 4048SOL    HW213044   5.126   2.337   0.706
 4049SOL     OW13045   6.683   5.818   6.987
 4049SOL    HW113046   6.698   5.908   0.008
 4049SOL    HW213047   6.585   5.801   6.977
 4050SOL     OW13048   2.272   1.078   2.330
 4050SOL    HW113049   2.192   1.129   2.298
 4050SOL    HW213050   2.293   1.105   2.424
 4051SOL     OW13051   2.914   4.188   1.054
 4051SOL    HW113052   2.951   4.109   1.103
 4051SOL    HW213053   2.827   4.163   1.011
 4052SOL     OW13054   1.355   0.216   0.904
 4052SOL    HW113055   1.313   0.132   0.937
 4052SOL    HW213056   1.286   0.270   0.855
 4053SOL     OW13057   2.563   5.811   2.118
 4053SOL    HW113058   2.581   5.909   2.110
 4053SOL    HW213059   2.509   5.793   2.200
 4054SOL     OW13060   5.453   1.596   6.360
 4054SOL    HW113061   5.532   1.640   6.402
 4054SOL    HW213062   5.380   1.663   6.347
 4055SOL     OW13063   4.697   3.830   6.133
 4055SOL    HW113064   4.705   3.731   6.124
 4055SOL    HW213065   4.632   3.864   6.065
 4056SOL     OW13066   4.197   3.088   0.084
 4056SOL    HW113067   4.228   2.994   0.075
 4056SOL    HW213068   4.110   3.100   0.036
 4057SOL     OW13069   6.394   2.415   0.696
 4057SOL    HW113070   6.474   2.465   0.728
 4057SOL    HW213071   6.381   2.432   0.598
 4058SOL     OW13072   0.928   3.753   4.013
 4058SOL    HW113073   1.019   3.713   4.009
 4058SOL    HW213074   0.922   3.830   3.949
 4059SOL     OW13075   0.121   2.001   4.992
 4059SOL    HW113076   0.133   1.916   4.941
 4059SOL    HW213077   0.120   1.981   5.090
 4060SOL     OW13078   2.152   6.653   5.974
 4060SOL    HW113079   2.130   6.587   6.046
 4060SOL    HW213080   2.150   6.608   5.885
 4061SOL     OW13081   2.218   2.648   1.509
 4061SOL    HW113082   2.146   2.717   1.510
 4061SOL    HW213083   2.282   2.666   1.583
 4062SOL     OW13084   2.669   0.909   3.038
 4062SOL    HW113085   2.632   0.975   3.103
 4062SOL    HW213086   2.749   0.948   2.992
 4063SOL     OW13087   3.713   6.669   6.175
 4063SOL    HW113088   3.738   6.620   6.258
 4063SOL    HW213089   3.659   6.750   6.198
 4064SOL     OW13090   6.090   6.912   4.619
 4064SOL    HW113091   6.113   6.989   4.679
 4064SOL    HW213092   5.994   6.887   4.633
 4065SOL     OW13093   1.008   4.463   5.869
 4065SOL    HW113094   1.063   4.473   5.951
 4065SOL    HW213095   1.017   4.369   5.834
 4066SOL     OW13096   4.875   4.355   2.081
 4066SOL    HW113097   4.835   4.343   2.171
 4066SOL    HW213098   4.954   4.416   2.088
 4067SOL     OW13099   5.227   0.702   1.479
 4067SOL    HW113100   5.165   0.645   1.425
 4067SOL    HW213101   5.280   0.644   1.541
 4068SOL     OW13102   5.155   0.449   4.657
 4068SOL    HW113103   5.127   0.381   4.725
 4068SOL    HW213104   5.236   0.498   4.690
 4069SOL     OW13105   6.640   6.089   0.856
 4069SOL    HW113106   6.676   6.051   0.771
 4069SOL    HW213107   6.645   6.020   0.928
 4070SOL     OW13108   0.141   3.534   2.650
 4070SOL    HW113109   0.125   3.515   2.553
 4070SOL    HW213110   0.236   3.566   2.662
 4071SOL     OW13111   2.786   6.892   4.684
 4071SOL    HW113112   2.710   6.860   4.628
 4071SOL    HW213113   2.795   6.991   4.675
 4072SOL     OW13114   0.262   0.430   4.857
 4072SOL    HW113115   0.214   0.398   4.775
 4072SOL    HW213116   0.284   0.352   4.915
 4073SOL     OW13117   2.748   4.358   1.670
 4073SOL    HW113118   2.736   4.441   1.615
 4073SOL    HW213119   2.819   4.374   1.738
 4074SOL     OW13120   0.082   3.006   1.877
 4074SOL    HW113121   0.165   2.988   1.824
 4074SOL    HW213122   0.085   2.950   1.961
 4075SOL     OW13123   6.871   0.916   3.545
 4075SOL    HW113124   6.931   0.965   3.607
 4075SOL    HW213125   6.778   0.950   3.554
 4076SOL     OW13126   1.611   3.885   3.424
 4076SOL    HW113127   1.558   3.804   3.450
 4076SOL    HW213128   1.678   3.905   3.496
 4077SOL     OW13129   3.740   0.424   1.813
 4077SOL    HW113130   3.659   0.378   1.850
 4077SOL    HW213131   3.719   0.521   1.800
 4078SOL     OW13132   4.837   4.286   2.472
 4078SOL    HW113133   4.815   4.355   2.541
 4078SOL    HW213134   4.893   4.327   2.400
 4079SOL     OW13135   4.244   1.110   3.075
 4079SOL    HW113136   4.282   1.169   3.004
 4079SOL    HW213137   4.159   1.150   3.110
 4080SOL     OW13138   3.834   4.027   4.216
 4080SOL    HW113139   3.842   4.053   4.313
 4080SOL    HW213140   3.884   3.942   4.200
 4081SOL     OW13141   2.593   0.122   0.046
 4081SOL    HW113142   2.635   0.151   6.979
 4081SOL    HW213143   2.535   0.195   0.081
 4082SOL     OW13144   1.629   1.598   5.795
 4082SOL    HW113145   1.539   1.575   5.830
 4082SOL    HW213146   1.699   1.553   5.850
 4083SOL     OW13147   5.722   4.006   2.269
 4083SOL    HW113148   5.643   3.947   2.290
 4083SOL    HW213149   5.754   3.986   2.177
 4084SOL     OW13150   3.890   5.991   3.117
 4084SOL    HW113151   3.900   6.051   3.196
 4084SOL    HW213152   3.839   6.039   3.045
 4085SOL     OW13153   1.822   4.531   2.468
 4085SOL    HW113154   1.856   4.487   2.385
 4085SOL    HW213155   1.770   4.613   2.443
 4086SOL     OW13156   6.257   5.201   5.293
 4086SOL    HW113157   6.190   5.214   5.220
 4086SOL    HW213158   6.221   5.238   5.378
 4087SOL     OW13159   1.325   1.532   1.229
 4087SOL    HW113160   1.423   1.550   1.228
 4087SOL    HW213161   1.276   1.617   1.211
 4088SOL     OW13162   0.256   2.226   4.925
 4088SOL    HW113163   0.345   2.233   4.969
 4088SOL    HW213164   0.217   2.136   4.944
 4089SOL     OW13165   6.662   6.517   2.526
 4089SOL    HW113166   6.630   6.447   2.590
 4089SOL    HW213167   6.712   6.588   2.577
 4090SOL     OW13168   3.541   2.587   5.386
 4090SOL    HW113169   3.539   2.498   5.340
 4090SOL    HW213170   3.452   2.605   5.428
 4091SOL     OW13171   4.490   6.831   3.328
 4091SOL    HW113172   4.411   6.856   3.385
 4091SOL    HW213173   4.574   6.859   3.375
 4092SOL     OW13174   4.633   1.994   6.554
 4092SOL    HW113175   4.544   2.039   6.559
 4092SOL    HW213176   4.701   2.047   6.606
 4093SOL     OW13177   5.698   4.210   1.179
 4093SOL    HW113178   5.616   4.173   1.137
 4093SOL    HW213179   5.739   4.279   1.119
 4094SOL     OW13180   6.107   5.829   0.168
 4094SOL    HW113181   6.183   5.889   0.191
 4094SOL    HW213182   6.024   5.861   0.213
 4095SOL     OW13183   1.389   5.051   7.006
 4095SOL    HW113184   1.321   4.977   6.999
 4095SOL    HW213185   1.451   5.032   0.062
 4096SOL     OW13186   0.693   6.627   5.884
 4096SOL    HW113187   0.615   6.649   5.942
 4096SOL    HW213188   0.664   6.625   5.789
 4097SOL     OW13189   1.699   4.123   5.613
 4097SOL    HW113190   1.788   4.167   5.620
 4097SOL    HW213191   1.627   4.189   5.635
 4098SOL     OW13192   1.621   5.913   1.931
 4098SOL    HW113193   1.705   5.966   1.916
 4098SOL    HW213194   1.550   5.972   1.969
 4099SOL     OW13195   0.119   2.513   5.864
 4099SOL    HW113196   0.088   2.482   5.954
 4099SOL    HW213197   0.066   2.594   5.837
 4100SOL     OW13198   2.098   0.826   3.139
 4100SOL    HW113199   2.055   0.901   3.190
 4100SOL    HW213200   2.157   0.863   3.068
 4101SOL     OW13201   5.548   5.943   6.041
 4101SOL    HW113202   5.489   5.863   6.042
 4101SOL    HW213203   5.532   5.997   6.124
 4102SOL     OW13204   2.750   5.363   0.712
 4102SOL    HW113205   2.663   5.314   0.699
 4102SOL    HW213206   2.813   5.305   0.764
 4103SOL     OW13207   2.480   5.300   2.525
 4103SOL    HW113208   2.450   5.339   2.437
 4103SOL    HW213209   2.401   5.264   2.574
 4104SOL     OW13210   2.622   5.359   5.423
 4104SOL    HW113211   2.546   5.336   5.362
 4104SOL    HW213212   2.623   5.296   5.501
 4105SOL     OW13213   3.921   0.441   2.025
 4105SOL    HW113214   3.902   0.534   2.058
 4105SOL    HW213215   3.866   0.422   1.943
 4106SOL     OW13216   1.625   6.481   2.886
 4106SOL    HW113217   1.553   6.412   2.880
 4106SOL    HW213218   1.599   6.562   2.834
 4107SOL     OW13219   2.735   2.140   1.124
 4107SOL    HW113220   2.787   2.203   1.182
 4107SOL    HW213221   2.730   2.051   1.168
 4108SOL     OW13222   0.458   5.670   5.224
 4108SOL    HW113223   0.483   5.607   5.150
 4108SOL    HW213224   0.487   5.633   5.311
 4109SOL     OW13225   5.545   0.047   5.061
 4109SOL    HW113226   5.518   0.084   4.972
 4109SOL    HW213227   5.469   7.016   5.101
 4110SOL     OW13228   4.882   2.233   0.524
 4110SOL    HW113229   4.828   2.160   0.483
 4110SOL    HW213230   4.852   2.249   0.618
 4111SOL     OW13231   6.352   4.873   4.296
 4111SOL    HW113232   6.260   4.838   4.280
 4111SOL    HW213233   6.391   4.906   4.210
 4112SOL     OW13234   3.600   4.894   5.272
 4112SOL    HW113235   3.658   4.821   5.237
 4112SOL    HW213236   3.608   4.899   5.372
 4113SOL     OW13237   5.370   6.219   5.864
 4113SOL    HW113238   5.373   6.139   5.924
 4113SOL    HW213239   5.446   6.214   5.799
 4114SOL     OW13240   5.768   1.567   3.570
 4114SOL    HW113241   5.854   1.530   3.604
 4114SOL    HW213242   5.785   1.652   3.520
 4115SOL     OW13243   4.648   0.591   4.623
 4115SOL    HW113244   4.739   0.575   4.584
 4115SOL    HW213245   4.630   0.523   4.694
 4116SOL     OW13246   5.596   3.415   3.180
 4116SOL    HW113247   5.623   3.333   3.230
 4116SOL    HW213248   5.500   3.408   3.154
 4117SOL     OW13249   0.679   2.541   2.939
 4117SOL    HW113250   0.755   2.597   2.905
 4117SOL    HW213251   0.594   2.573   2.898
 4118SOL     OW13252   1.083   1.111   1.932
 4118SOL    HW113253   1.090   1.193   1.988
 4118SOL    HW213254   1.002   1.117   1.874
 4119SOL     OW13255   6.184   0.985   4.578
 4119SOL    HW113256   6.194   1.084   4.581
 4119SOL    HW213257   6.092   0.960   4.608
 4120SOL     OW13258   2.014   0.069   0.394
 4120SOL    HW113259   2.085   0.058   0.325
 4120SOL    HW213260   1.927   0.093   0.350
 4121SOL     OW13261   6.563   0.238   1.370
 4121SOL    HW113262   6.576   0.168   1.300
 4121SOL    HW213263   6.520   0.196   1.450
 4122SOL     OW13264   1.178   4.440   3.444
 4122SOL    HW113265   1.243   4.384   3.496
 4122SOL    HW213266   1.085   4.409   3.465
 4123SOL     OW13267   5.635   4.287   1.939
 4123SOL    HW113268   5.609   4.269   1.844
 4123SOL    HW213269   5.692   4.369   1.943
 4124SOL     OW13270   5.651   6.032   0.490
 4124SOL    HW113271   5.665   6.130   0.507
 4124SOL    HW213272   5.573   6.000   0.544
 4125SOL     OW13273   1.106   2.732   0.170
 4125SOL    HW113274   1.143   2.639   0.174
 4125SOL    HW213275   1.046   2.742   0.091
 4126SOL     OW13276   1.832   4.471   3.179
 4126SOL    HW113277   1.775   4.389   3.185
 4126SOL    HW213278   1.858   4.486   3.083
 4127SOL     OW13279   4.621   2.628   4.420
 4127SOL    HW113280   4.676   2.616   4.502
 4127SOL    HW213281   4.535   2.578   4.430
 4128SOL     OW13282   6.315   2.946   6.681
 4128SOL    HW113283   6.319   2.950   6.581
 4128SOL    HW213284   6.219   2.941   6.710
 4129SOL     OW13285   3.291   6.770   2.070
 4129SOL    HW113286   3.278   6.680   2.027
 4129SOL    HW213287   3.309   6.838   2.000
 4130SOL     OW13288   5.180   1.101   6.972
 4130SOL    HW113289   5.136   1.119   6.884
 4130SOL    HW213290   5.147   1.013   7.008
 4131SOL     OW13291   5.345   5.836   4.455
 4131SOL    HW113292   5.375   5.914   4.510
 4131SOL    HW213293   5.381   5.844   4.363
 4132SOL     OW13294   0.280   3.242   2.424
 4132SOL    HW113295   0.321   3.309   2.485
 4132SOL    HW213296   0.311   3.150   2.448
 4133SOL     OW13297   5.376   6.031   3.932
 4133SOL    HW113298   5.309   5.975   3.884
 4133SOL    HW213299   5.409   6.104   3.872
 4134SOL     OW13300   1.954   2.943   1.214
 4134SOL    HW113301   1.889   3.018   1.215
 4134SOL    HW213302   1.915   2.864   1.166
 4135SOL     OW13303   5.934   0.459   0.697
 4135SOL    HW113304   5.862   0.484   0.762
 4135SOL    HW213305   6.022   0.454   0.744
 4136SOL     OW13306   0.750   5.228   7.009
 4136SOL    HW113307   0.704   5.155   0.040
 4136SOL    HW213308   0.799   5.287   0.054
 4137SOL     OW13309   0.351   2.016   5.370
 4137SOL    HW113310   0.348   1.941   5.304
 4137SOL    HW213311   0.306   2.096   5.331
 4138SOL     OW13312   5.489   6.287   6.610
 4138SOL    HW113313   5.486   6.342   6.693
 4138SOL    HW213314   5.562   6.322   6.550
 4139SOL     OW13315   1.115   4.179   2.059
 4139SOL    HW113316   1.187   4.133   2.006
 4139SOL    HW213317   1.046   4.216   1.997
 4140SOL     OW13318   2.318   6.707   0.556
 4140SOL    HW113319   2.272   6.751   0.633
 4140SOL    HW213320   2.407   6.672   0.585
 4141SOL     OW13321   5.072   6.958   6.086
 4141SOL    HW113322   5.019   0.013   6.044
 4141SOL    HW213323   5.083   6.884   6.019
 4142SOL     OW13324   0.099   6.755   1.884
 4142SOL    HW113325   0.095   6.697   1.802
 4142SOL    HW213326   0.008   6.763   1.924
 4143SOL     OW13327   6.347   3.901   6.762
 4143SOL    HW113328   6.386   3.847   6.688
 4143SOL    HW213329   6.290   3.842   6.819
 4144SOL     OW13330   5.009   0.517   1.689
 4144SOL    HW113331   4.952   0.452   1.740
 4144SOL    HW213332   4.969   0.609   1.696
 4145SOL     OW13333   4.356   0.917   1.014
 4145SOL    HW113334   4.266   0.886   1.043
 4145SOL    HW213335   4.367   1.013   1.039
 4146SOL     OW13336   3.362   1.404   1.915
 4146SOL    HW113337   3.286   1.419   1.978
 4146SOL    HW213338   3.402   1.492   1.889
 4147SOL     OW13339   5.386   4.093   0.141
 4147SOL    HW113340   5.323   4.093   0.063
 4147SOL    HW213341   5.340   4.055   0.221
 4148SOL     OW13342   3.203   0.836   6.166
 4148SOL    HW113343   3.239   0.831   6.260
 4148SOL    HW213344   3.143   0.758   6.150
 4149SOL     OW13345   1.904   2.264   6.174
 4149SOL    HW113346   1.958   2.191   6.133
 4149SOL    HW213347   1.824   2.226   6.219
 4150SOL     OW13348   0.050   1.577   1.353
 4150SOL    HW113349   0.019   1.529   1.271
 4150SOL    HW213350   0.035   1.518   1.433
 4151SOL     OW13351   3.082   5.471   4.420
 4151SOL    HW113352   3.089   5.491   4.518
 4151SOL    HW213353   3.112   5.550   4.367
 4152SOL     OW13354   2.733   3.752   1.320
 4152SOL    HW113355   2.828   3.780   1.304
 4152SOL    HW213356   2.682   3.830   1.356
 4153SOL     OW13357   5.820   6.688   0.184
 4153SOL    HW113358   5.894   6.747   0.214
 4153SOL    HW213359   5.737   6.742   0.171
 4154SOL     OW13360   0.773   6.790   3.408
 4154SOL    HW113361   0.750   6.848   3.486
 4154SOL    HW213362   0.826   6.842   3.342
 4155SOL     OW13363   5.310   1.302   2.311
 4155SOL    HW113364   5.329   1.382   2.367
 4155SOL    HW213365   5.224   1.260   2.341
 4156SOL     OW13366   0.450   5.594   5.956
 4156SOL    HW113367   0.477   5.498   5.943
 4156SOL    HW213368   0.387   5.601   6.033
 4157SOL     OW13369   4.174   6.218   0.608
 4157SOL    HW113370   4.249   6.281   0.624
 4157SOL    HW213371   4.182   6.139   0.669
 4158SOL     OW13372   6.808   0.761   6.248
 4158SOL    HW113373   6.883   0.729   6.306
 4158SOL    HW213374   6.787   0.856   6.269
 4159SOL     OW13375   3.443   0.945   4.091
 4159SOL    HW113376   3.424   1.042   4.103
 4159SOL    HW213377   3.396   0.912   4.009
 4160SOL     OW13378   1.229   0.602   5.752
 4160SOL    HW113379   1.169   0.682   5.753
 4160SOL    HW213380   1.324   0.632   5.750
 4161SOL     OW13381   3.202   3.625   5.228
 4161SOL    HW113382   3.165   3.594   5.315
 4161SOL    HW213383   3.211   3.724   5.229
 4162SOL     OW13384   4.540   0.061   0.885
 4162SOL    HW113385   4.621   0.062   0.944
 4162SOL    HW213386   4.496   6.991   0.890
 4163SOL     OW13387   3.591   6.219   1.317
 4163SOL    HW113388   3.501   6.260   1.301
 4163SOL    HW213389   3.661   6.270   1.267
 4164SOL     OW13390   6.040   1.508   0.028
 4164SOL    HW113391   6.124   1.459   0.052
 4164SOL    HW213392   5.962   1.464   0.072
 4165SOL     OW13393   3.435   1.170   4.889
 4165SOL    HW113394   3.526   1.142   4.919
 4165SOL    HW213395   3.396   1.098   4.832
 4166SOL     OW13396   5.454   2.031   2.359
 4166SOL    HW113397   5.454   2.046   2.458
 4166SOL    HW213398   5.512   2.099   2.315
 4167SOL     OW13399   3.545   6.411   4.689
 4167SOL    HW113400   3.600   6.330   4.710
 4167SOL    HW213401   3.534   6.418   4.589
 4168SOL     OW13402   5.660   3.380   6.928
 4168SOL    HW113403   5.738   3.331   6.888
 4168SOL    HW213404   5.683   3.476   6.939
 4169SOL     OW13405   5.222   4.422   6.921
 4169SOL    HW113406   5.214   4.323   6.933
 4169SOL    HW213407   5.248   4.441   6.827
 4170SOL     OW13408   0.743   3.137   5.076
 4170SOL    HW113409   0.756   3.106   5.170
 4170SOL    HW213410   0.712   3.232   5.076
 4171SOL     OW13411   6.995   6.930   6.171
 4171SOL    HW113412   6.990   6.876   6.086
 4171SOL    HW213413   0.019   7.018   6.152
 4172SOL     OW13414   3.617   3.154   0.168
 4172SOL    HW113415   3.547   3.132   0.236
 4172SOL    HW213416   3.573   3.177   0.081
 4173SOL     OW13417   5.719   1.567   5.670
 4173SOL    HW113418   5.804   1.600   5.710
 4173SOL    HW213419   5.738   1.514   5.588
 4174SOL     OW13420   2.402   6.747   3.975
 4174SOL    HW113421   2.332   6.816   3.992
 4174SOL    HW213422   2.491   6.792   3.967
 4175SOL     OW13423   1.896   3.411   6.321
 4175SOL    HW113424   1.953   3.386   6.243
 4175SOL    HW213425   1.832   3.483   6.295
 4176SOL     OW13426   4.256   6.877   5.035
 4176SOL    HW113427   4.340   6.822   5.039
 4176SOL    HW213428   4.279   6.970   5.006
 4177SOL     OW13429   5.566   6.250   4.051
 4177SOL    HW113430   5.513   6.223   3.970
 4177SOL    HW213431   5.508   6.244   4.132
 4178SOL     OW13432   2.872   6.456   0.867
 4178SOL    HW113433   2.968   6.462   0.896
 4178SOL    HW213434   2.819   6.405   0.935
 4179SOL     OW13435   3.843   1.542   0.012
 4179SOL    HW113436   3.857   1.510   0.106
 4179SOL    HW213437   3.801   1.633   0.014
 4180SOL     OW13438   4.086   4.392   0.108
 4180SOL    HW113439   3.998   4.408   0.152
 4180SOL    HW213440   4.072   4.352   0.018
 4181SOL     OW13441   5.050   6.463   6.252
 4181SOL    HW113442   5.123   6.522   6.217
 4181SOL    HW213443   4.983   6.519   6.301
 4182SOL     OW13444   6.143   5.269   5.541
 4182SOL    HW113445   6.182   5.339   5.601
 4182SOL    HW213446   6.132   5.184   5.593
 4183SOL     OW13447   5.642   2.758   0.152
 4183SOL    HW113448   5.739   2.781   0.154
 4183SOL    HW213449   5.591   2.830   0.105
 4184SOL     OW13450   3.543   5.791   3.830
 4184SOL    HW113451   3.573   5.779   3.735
 4184SOL    HW213452   3.574   5.714   3.885
 4185SOL     OW13453   4.482   4.501   3.360
 4185SOL    HW113454   4.533   4.418   3.383
 4185SOL    HW213455   4.478   4.511   3.261
 4186SOL     OW13456   1.944   4.687   0.719
 4186SOL    HW113457   1.994   4.693   0.633
 4186SOL    HW213458   1.965   4.767   0.775
 4187SOL     OW13459   1.368   3.710   6.063
 4187SOL    HW113460   1.373   3.709   5.964
 4187SOL    HW213461   1.459   3.694   6.102
 4188SOL     OW13462   5.393   0.354   5.976
 4188SOL    HW113463   5.405   0.265   5.932
 4188SOL    HW213464   5.317   0.350   6.041
 4189SOL     OW13465   3.536   5.237   3.626
 4189SOL    HW113466   3.567   5.149   3.662
 4189SOL    HW213467   3.596   5.310   3.661
 4190SOL     OW13468   6.540   5.662   1.712
 4190SOL    HW113469   6.524   5.701   1.621
 4190SOL    HW213470   6.503   5.722   1.782
 4191SOL     OW13471   5.131   2.791   5.916
 4191SOL    HW113472   5.047   2.830   5.881
 4191SOL    HW213473   5.168   2.849   5.989
 4192SOL     OW13474   2.040   3.508   6.519
 4192SOL    HW113475   2.000   3.473   6.604
 4192SOL    HW213476   1.983   3.482   6.442
 4193SOL     OW13477   5.164   6.596   1.690
 4193SOL    HW113478   5.151   6.527   1.620
 4193SOL    HW213479   5.191   6.553   1.776
 4194SOL     OW13480   5.679   0.141   6.829
 4194SOL    HW113481   5.684   0.052   6.874
 4194SOL    HW213482   5.656   0.128   6.732
 4195SOL     OW13483   1.734   6.091   0.918
 4195SOL    HW113484   1.805   6.117   0.852
 4195SOL    HW213485   1.645   6.093   0.873
 4196SOL     OW13486   6.145   3.127   2.817
 4196SOL    HW113487   6.176   3.136   2.722
 4196SOL    HW213488   6.086   3.204   2.840
 4197SOL     OW13489   4.130   0.812   6.802
 4197SOL    HW113490   4.034   0.803   6.827
 4197SOL    HW213491   4.184   0.831   6.885
 4198SOL     OW13492   6.343   1.921   1.994
 4198SOL    HW113493   6.350   2.000   1.933
 4198SOL    HW213494   6.404   1.849   1.962
 4199SOL     OW13495   1.373   3.481   0.176
 4199SOL    HW113496   1.290   3.531   0.151
 4199SOL    HW213497   1.423   3.532   0.246
 4200SOL     OW13498   5.039   1.409   2.820
 4200SOL    HW113499   5.108   1.395   2.748
 4200SOL    HW213500   5.028   1.325   2.873
 4201SOL     OW13501   4.855   0.357   5.558
 4201SOL    HW113502   4.810   0.438   5.597
 4201SOL    HW213503   4.839   0.355   5.459
 4202SOL     OW13504   4.424   3.994   1.229
 4202SOL    HW113505   4.400   3.915   1.286
 4202SOL    HW213506   4.454   4.070   1.287
 4203SOL     OW13507   6.332   3.812   4.546
 4203SOL    HW113508   6.376   3.810   4.455
 4203SOL    HW213509   6.331   3.720   4.584
 4204SOL     OW13510   2.501   4.235   5.853
 4204SOL    HW113511   2.558   4.165   5.810
 4204SOL    HW213512   2.413   4.195   5.880
 4205SOL     OW13513   5.787   5.140   6.143
 4205SOL    HW113514   5.879   5.115   6.112
 4205SOL    HW213515   5.723   5.069   6.118
 4206SOL     OW13516   2.316   2.605   4.978
 4206SOL    HW113517   2.220   2.579   4.989
 4206SOL    HW213518   2.340   2.672   5.048
 4207SOL     OW13519   2.832   2.218   1.561
 4207SOL    HW113520   2.904   2.253   1.621
 4207SOL    HW213521   2.794   2.134   1.600
 4208SOL     OW13522   1.614   2.542   3.146
 4208SOL    HW113523   1.576   2.451   3.132
 4208SOL    HW213524   1.684   2.560   3.076
 4209SOL     OW13525   6.581   5.121   3.000
 4209SOL    HW113526   6.545   5.138   2.909
 4209SOL    HW213527   6.523   5.166   3.068
 4210SOL     OW13528   3.396   5.316   5.136
 4210SOL    HW113529   3.402   5.366   5.223
 4210SOL    HW213530   3.468   5.247   5.133
 4211SOL     OW13531   4.982   3.192   6.259
 4211SOL    HW113532   4.893   3.230   6.286
 4211SOL    HW213533   5.050   3.217   6.327
 4212SOL     OW13534   0.448   2.909   2.695
 4212SOL    HW113535   0.435   2.949   2.605
 4212SOL    HW213536   0.529   2.950   2.738
 4213SOL     OW13537   2.835   0.648   4.088
 4213SOL    HW113538   2.791   0.586   4.153
 4213SOL    HW213539   2.784   0.649   4.002
 4214SOL     OW13540   6.317   6.015   4.196
 4214SOL    HW113541   6.257   6.071   4.140
 4214SOL    HW213542   6.374   6.074   4.254
 4215SOL     OW13543   6.107   6.844   4.958
 4215SOL    HW113544   6.184   6.836   5.022
 4215SOL    HW213545   6.091   6.940   4.938
 4216SOL     OW13546   1.590   5.481   2.534
 4216SOL    HW113547   1.655   5.556   2.548
 4216SOL    HW213548   1.616   5.403   2.591
 4217SOL     OW13549   0.263   0.530   2.899
 4217SOL    HW113550   0.237   0.442   2.860
 4217SOL    HW213551   0.181   0.584   2.917
 4218SOL     OW13552   2.801   0.472   1.807
 4218SOL    HW113553   2.788   0.462   1.708
 4218SOL    HW213554   2.870   0.542   1.825
 4219SOL     OW13555   2.722   5.340   2.075
 4219SOL    HW113556   2.724   5.440   2.083
 4219SOL    HW213557   2.811   5.307   2.046
 4220SOL     OW13558   5.439   1.745   0.914
 4220SOL    HW113559   5.392   1.684   0.850
 4220SOL    HW213560   5.463   1.830   0.867
 4221SOL     OW13561   0.580   6.703   1.250
 4221SOL    HW113562   0.481   6.693   1.253
 4221SOL    HW213563   0.621   6.646   1.321
 4222SOL     OW13564   5.356   3.925   4.374
 4222SOL    HW113565   5.277   3.962   4.423
 4222SOL    HW213566   5.337   3.923   4.276
 4223SOL     OW13567   3.307   4.091   2.576
 4223SOL    HW113568   3.356   4.097   2.489
 4223SOL    HW213569   3.373   4.092   2.652
 4224SOL     OW13570   4.614   4.036   5.195
 4224SOL    HW113571   4.705   4.008   5.229
 4224SOL    HW213572   4.545   3.976   5.234
 4225SOL     OW13573   0.580   1.630   6.267
 4225SOL    HW113574   0.532   1.566   6.207
 4225SOL    HW213575   0.564   1.605   6.363
 4226SOL     OW13576   5.086   5.436   3.978
 4226SOL    HW113577   5.021   5.495   4.026
 4226SOL    HW213578   5.080   5.343   4.014
 4227SOL     OW13579   5.916   5.990   1.248
 4227SOL    HW113580   5.915   5.910   1.308
 4227SOL    HW213581   5.890   5.962   1.156
 4228SOL     OW13582   2.145   5.189   3.450
 4228SOL    HW113583   2.237   5.163   3.421
 4228SOL    HW213584   2.092   5.106   3.470
 4229SOL     OW13585   6.335   6.394   6.272
 4229SOL    HW113586   6.347   6.473   6.332
 4229SOL    HW213587   6.245   6.354   6.286
 4230SOL     OW13588   0.640   1.979   2.306
 4230SOL    HW113589   0.707   1.908   2.331
 4230SOL    HW213590   0.596   1.954   2.220
 4231SOL     OW13591   6.837   0.441   5.683
 4231SOL    HW113592   6.740   0.434   5.661
 4231SOL    HW213593   6.850   0.435   5.782
 4232SOL     OW13594   2.334   4.323   2.319
 4232SOL    HW113595   2.286   4.307   2.233
 4232SOL    HW213596   2.402   4.395   2.307
 4233SOL     OW13597   4.885   5.374   2.560
 4233SOL    HW113598   4.966   5.369   2.618
 4233SOL    HW213599   4.895   5.308   2.485
 4234SOL     OW13600   2.794   5.320   6.450
 4234SOL    HW113601   2.796   5.266   6.534
 4234SOL    HW213602   2.775   5.416   6.472
 4235SOL     OW13603   6.465   6.093   0.460
 4235SOL    HW113604   6.549   6.120   0.507
 4235SOL    HW213605   6.470   5.997   0.435
 4236SOL     OW13606   0.332   5.265   3.937
 4236SOL    HW113607   0.280   5.230   3.859
 4236SOL    HW213608   0.288   5.346   3.973
 4237SOL     OW13609   0.147   4.903   4.425
 4237SOL    HW113610   0.111   4.996   4.426
 4237SOL    HW213611   0.111   4.852   4.503
 4238SOL     OW13612   1.994   5.771   3.275
 4238SOL    HW113613   2.008   5.762   3.374
 4238SOL    HW213614   1.897   5.786   3.257
 4239SOL     OW13615   3.980   1.126   3.631
 4239SOL    HW113616   4.008   1.214   3.669
 4239SOL    HW213617   3.894   1.098   3.672
 4240SOL     OW13618   4.283   6.879   1.634
 4240SOL    HW113619   4.221   6.808   1.601
 4240SOL    HW213620   4.261   6.900   1.729
 4241SOL     OW13621   0.722   4.401   6.555
 4241SOL    HW113622   0.647   4.465   6.536
 4241SOL    HW213623   0.717   4.371   6.650
 4242SOL     OW13624   3.796   2.003   2.539
 4242SOL    HW113625   3.863   1.967   2.604
 4242SOL    HW213626   3.755   2.086   2.576
 4243SOL     OW13627   2.170   2.079   3.018
 4243SOL    HW113628   2.212   2.162   3.056
 4243SOL    HW213629   2.073   2.077   3.042
 4244SOL     OW13630   2.938   3.011   5.653
 4244SOL    HW113631   2.935   3.076   5.577
 4244SOL    HW213632   2.845   2.985   5.679
 4245SOL     OW13633   6.422   0.668   5.614
 4245SOL    HW113634   6.463   0.624   5.534
 4245SOL    HW213635   6.424   0.767   5.603
 4246SOL     OW13636   0.943   5.270   6.270
 4246SOL    HW113637   0.871   5.292   6.336
 4246SOL    HW213638   0.972   5.175   6.283
 4247SOL     OW13639   0.252   4.658   5.214
 4247SOL    HW113640   0.227   4.752   5.194
 4247SOL    HW213641   0.171   4.608   5.246
 4248SOL     OW13642   1.923   3.473   6.763
 4248SOL    HW113643   1.828   3.476   6.733
 4248SOL    HW213644   1.927   3.487   6.862
 4249SOL     OW13645   4.814   3.171   5.990
 4249SOL    HW113646   4.873   3.204   6.063
 4249SOL    HW213647   4.752   3.101   6.026
 4250SOL     OW13648   7.014   4.193   3.948
 4250SOL    HW113649   6.941   4.181   4.016
 4250SOL    HW213650   6.978   4.173   3.857
 4251SOL     OW13651   5.757   4.690   6.154
 4251SOL    HW113652   5.756   4.747   6.072
 4251SOL    HW213653   5.764   4.594   6.128
 4252SOL     OW13654   6.448   4.942   5.590
 4252SOL    HW113655   6.376   4.880   5.558
 4252SOL    HW213656   6.536   4.895   5.586
 4253SOL     OW13657   2.778   6.993   3.554
 4253SOL    HW113658   2.767   6.924   3.483
 4253SOL    HW213659   2.757   0.064   3.517
 4254SOL     OW13660   4.105   3.603   3.641
 4254SOL    HW113661   4.095   3.618   3.740
 4254SOL    HW213662   4.133   3.509   3.625
 4255SOL     OW13663   0.688   1.828   4.361
 4255SOL    HW113664   0.623   1.761   4.398
 4255SOL    HW213665   0.637   1.900   4.313
 4256SOL     OW13666   1.054   0.559   1.533
 4256SOL    HW113667   1.065   0.655   1.559
 4256SOL    HW213668   0.958   0.542   1.511
 4257SOL     OW13669   4.527   2.497   4.784
 4257SOL    HW113670   4.466   2.446   4.844
 4257SOL    HW213671   4.483   2.511   4.695
 4258SOL     OW13672   5.773   6.051   1.945
 4258SOL    HW113673   5.869   6.073   1.925
 4258SOL    HW213674   5.730   6.129   1.991
 4259SOL     OW13675   2.990   2.966   1.785
 4259SOL    HW113676   2.938   2.880   1.775
 4259SOL    HW213677   2.927   3.043   1.783
 4260SOL     OW13678   3.943   5.664   4.897
 4260SOL    HW113679   3.859   5.714   4.878
 4260SOL    HW213680   4.019   5.728   4.903
 4261SOL     OW13681   1.278   1.342   3.098
 4261SOL    HW113682   1.288   1.245   3.120
 4261SOL    HW213683   1.202   1.381   3.150
 4262SOL     OW13684   1.192   6.749   4.906
 4262SOL    HW113685   1.254   6.745   4.828
 4262SOL    HW213686   1.245   6.741   4.991
 4263SOL     OW13687   4.398   5.687   0.055
 4263SOL    HW113688   4.348   5.602   0.071
 4263SOL    HW213689   4.366   5.730   6.990
 4264SOL     OW13690   2.043   0.916   1.416
 4264SOL    HW113691   2.028   0.938   1.512
 4264SOL    HW213692   2.137   0.938   1.390
 4265SOL     OW13693   2.196   1.342   1.119
 4265SOL    HW113694   2.282   1.292   1.130
 4265SOL    HW213695   2.155   1.317   1.031
 4266SOL     OW13696   2.539   5.084   0.301
 4266SOL    HW113697   2.611   5.151   0.320
 4266SOL    HW213698   2.578   5.005   0.253
 4267SOL     OW13699   1.411   3.324   5.007
 4267SOL    HW113700   1.456   3.413   5.015
 4267SOL    HW213701   1.451   3.260   5.073
 4268SOL     OW13702   0.607   1.709   0.960
 4268SOL    HW113703   0.565   1.741   1.045
 4268SOL    HW213704   0.569   1.759   0.883
 4269SOL     OW13705   2.954   3.944   1.212
 4269SOL    HW113706   2.987   3.914   1.122
 4269SOL    HW213707   3.032   3.963   1.272
 4270SOL     OW13708   3.750   2.938   0.037
 4270SOL    HW113709   3.706   3.016   0.080
 4270SOL    HW213710   3.844   2.963   0.013
 4271SOL     OW13711   1.947   0.566   1.212
 4271SOL    HW113712   2.040   0.566   1.248
 4271SOL    HW213713   1.922   0.658   1.183
 4272SOL     OW13714   1.374   4.784   3.478
 4272SOL    HW113715   1.418   4.839   3.549
 4272SOL    HW213716   1.280   4.765   3.505
 4273SOL     OW13717   0.013   6.286   3.184
 4273SOL    HW113718   0.000   6.378   3.222
 4273SOL    HW213719   7.006   6.286   3.088
 4274SOL     OW13720   1.479   0.270   3.395
 4274SOL    HW113721   1.463   0.260   3.297
 4274SOL    HW213722   1.482   0.179   3.437
 4275SOL     OW13723   0.419   0.614   5.905
 4275SOL    HW113724   0.359   0.626   5.826
 4275SOL    HW213725   0.366   0.579   5.982
 4276SOL     OW13726   2.102   3.460   3.338
 4276SOL    HW113727   2.053   3.544   3.313
 4276SOL    HW213728   2.126   3.464   3.435
 4277SOL     OW13729   0.396   5.885   5.945
 4277SOL    HW113730   0.463   5.899   6.017
 4277SOL    HW213731   0.399   5.790   5.914
 4278SOL     OW13732   1.361   6.449   6.525
 4278SOL    HW113733   1.434   6.408   6.470
 4278SOL    HW213734   1.386   6.444   6.622
 4279SOL     OW13735   3.951   5.692   3.541
 4279SOL    HW113736   3.935   5.703   3.442
 4279SOL    HW213737   3.883   5.746   3.591
 4280SOL     OW13738   4.879   3.149   4.229
 4280SOL    HW113739   4.907   3.123   4.137
 4280SOL    HW213740   4.805   3.089   4.259
 4281SOL     OW13741   2.197   4.098   4.493
 4281SOL    HW113742   2.203   4.090   4.593
 4281SOL    HW213743   2.262   4.168   4.462
 4282SOL     OW13744   1.015   1.183   6.977
 4282SOL    HW113745   0.963   1.145   0.034
 4282SOL    HW213746   0.999   1.282   6.973
 4283SOL     OW13747   2.953   1.449   3.765
 4283SOL    HW113748   2.872   1.474   3.819
 4283SOL    HW213749   3.035   1.473   3.816
 4284SOL     OW13750   6.620   2.522   3.121
 4284SOL    HW113751   6.619   2.600   3.058
 4284SOL    HW213752   6.526   2.495   3.142
 4285SOL     OW13753   0.723   6.460   3.724
 4285SOL    HW113754   0.739   6.452   3.823
 4285SOL    HW213755   0.773   6.388   3.676
 4286SOL     OW13756   4.879   5.246   0.217
 4286SOL    HW113757   4.899   5.148   0.218
 4286SOL    HW213758   4.953   5.294   0.170
 4287SOL     OW13759   3.896   5.699   6.006
 4287SOL    HW113760   3.918   5.628   6.073
 4287SOL    HW213761   3.867   5.782   6.055
 4288SOL     OW13762   0.550   6.525   4.535
 4288SOL    HW113763   0.514   6.437   4.503
 4288SOL    HW213764   0.649   6.524   4.532
 4289SOL     OW13765   0.744   4.300   6.836
 4289SOL    HW113766   0.718   4.357   6.914
 4289SOL    HW213767   0.697   4.212   6.842
 4290SOL     OW13768   1.410   1.915   2.726
 4290SOL    HW113769   1.481   1.874   2.670
 4290SOL    HW213770   1.423   2.014   2.731
 4291SOL     OW13771   6.882   3.884   1.778
 4291SOL    HW113772   6.788   3.914   1.760
 4291SOL    HW213773   6.946   3.941   1.726
 4292SOL     OW13774   5.369   5.867   5.207
 4292SOL    HW113775   5.430   5.844   5.132
 4292SOL    HW213776   5.285   5.907   5.171
 4293SOL     OW13777   0.880   1.788   0.353
 4293SOL    HW113778   0.929   1.852   0.412
 4293SOL    HW213779   0.782   1.809   0.354
 4294SOL     OW13780   4.705   2.260   5.786
 4294SOL    HW113781   4.798   2.275   5.820
 4294SOL    HW213782   4.657   2.196   5.846
 4295SOL     OW13783   3.322   5.069   5.502
 4295SOL    HW113784   3.242   5.109   5.456
 4295SOL    HW213785   3.402   5.126   5.484
 4296SOL     OW13786   1.999   1.723   2.503
 4296SOL    HW113787   1.918   1.719   2.446
 4296SOL    HW213788   2.079   1.696   2.449
 4297SOL     OW13789   5.374   0.237   0.101
 4297SOL    HW113790   5.277   0.252   0.123
 4297SOL    HW213791   5.412   0.169   0.162
 4298SOL     OW13792   1.596   4.629   1.861
 4298SOL    HW113793   1.515   4.634   1.919
 4298SOL    HW213794   1.619   4.533   1.845
 4299SOL     OW13795   1.247   5.508   5.035
 4299SOL    HW113796   1.269   5.432   5.096
 4299SOL    HW213797   1.167   5.486   4.981
 4300SOL     OW13798   5.909   0.186   5.525
 4300SOL    HW113799   5.959   0.235   5.453
 4300SOL    HW213800   5.905   0.243   5.607
 4301SOL     OW13801   2.928   0.604   0.716
 4301SOL    HW113802   2.993   0.553   0.772
 4301SOL    HW213803   2.865   0.540   0.670
 4302SOL     OW13804   0.785   0.507   0.106
 4302SOL    HW113805   0.873   0.534   0.067
 4302SOL    HW213806   0.716   0.575   0.082
 4303SOL     OW13807   0.615   4.317   2.243
 4303SOL    HW113808   0.683   4.268   2.189
 4303SOL    HW213809   0.651   4.335   2.334
 4304SOL     OW13810   2.496   3.589   5.959
 4304SOL    HW113811   2.581   3.589   6.013
 4304SOL    HW213812   2.508   3.530   5.880
 4305SOL     OW13813   0.670   1.357   4.864
 4305SOL    HW113814   0.641   1.328   4.773
 4305SOL    HW213815   0.590   1.368   4.923
 4306SOL     OW13816   5.977   5.547   5.612
 4306SOL    HW113817   6.060   5.522   5.662
 4306SOL    HW213818   5.897   5.524   5.667
 4307SOL     OW13819   5.993   3.697   1.368
 4307SOL    HW113820   5.910   3.717   1.420
 4307SOL    HW213821   5.980   3.724   1.273
 4308SOL     OW13822   3.143   0.394   5.300
 4308SOL    HW113823   3.194   0.326   5.247
 4308SOL    HW213824   3.112   0.352   5.386
 4309SOL     OW13825   0.939   0.635   1.201
 4309SOL    HW113826   1.010   0.565   1.197
 4309SOL    HW213827   0.863   0.602   1.257
 4310SOL     OW13828   1.593   6.791   2.658
 4310SOL    HW113829   1.649   6.858   2.705
 4310SOL    HW213830   1.497   6.805   2.682
 4311SOL     OW13831   1.072   5.030   4.965
 4311SOL    HW113832   1.143   5.095   4.938
 4311SOL    HW213833   1.029   4.992   4.883
 4312SOL     OW13834   1.666   5.881   2.562
 4312SOL    HW113835   1.697   5.785   2.563
 4312SOL    HW213836   1.585   5.889   2.505
 4313SOL     OW13837   5.035   1.131   1.091
 4313SOL    HW113838   5.085   1.078   1.023
 4313SOL    HW213839   5.030   1.080   1.177
 4314SOL     OW13840   6.993   3.002   1.585
 4314SOL    HW113841   6.920   3.055   1.542
 4314SOL    HW213842   7.006   3.033   1.679
 4315SOL     OW13843   1.156   1.362   2.097
 4315SOL    HW113844   1.129   1.457   2.110
 4315SOL    HW213845   1.188   1.324   2.184
 4316SOL     OW13846   0.035   1.291   2.377
 4316SOL    HW113847   0.033   1.192   2.372
 4316SOL    HW213848   7.010   1.322   2.461
 4317SOL     OW13849   3.873   1.055   3.286
 4317SOL    HW113850   3.947   1.018   3.343
 4317SOL    HW213851   3.911   1.120   3.221
 4318SOL     OW13852   6.988   2.166   4.811
 4318SOL    HW113853   0.026   2.108   4.868
 4318SOL    HW213854   7.008   2.150   4.714
 4319SOL     OW13855   4.181   3.090   6.446
 4319SOL    HW113856   4.199   3.122   6.353
 4319SOL    HW213857   4.099   3.033   6.446
 4320SOL     OW13858   0.165   6.495   3.586
 4320SOL    HW113859   0.135   6.567   3.648
 4320SOL    HW213860   0.087   6.440   3.559
 4321SOL     OW13861   0.286   0.068   4.370
 4321SOL    HW113862   0.349   0.097   4.442
 4321SOL    HW213863   0.238   0.148   4.334
 4322SOL     OW13864   6.730   0.876   0.294
 4322SOL    HW113865   6.639   0.872   0.335
 4322SOL    HW213866   6.787   0.804   0.333
 4323SOL     OW13867   0.069   2.200   3.947
 4323SOL    HW113868   6.999   2.240   3.967
 4323SOL    HW213869   0.069   2.161   3.855
 4324SOL     OW13870   6.136   2.461   5.541
 4324SOL    HW113871   6.139   2.557   5.569
 4324SOL    HW213872   6.043   2.426   5.555
 4325SOL     OW13873   2.464   2.573   6.350
 4325SOL    HW113874   2.541   2.634   6.369
 4325SOL    HW213875   2.491   2.478   6.363
 4326SOL     OW13876   0.216   2.241   5.301
 4326SOL    HW113877   0.119   2.266   5.292
 4326SOL    HW213878   0.269   2.321   5.329
 4327SOL     OW13879   4.624   0.750   3.372
 4327SOL    HW113880   4.533   0.712   3.389
 4327SOL    HW213881   4.620   0.850   3.382
 4328SOL     OW13882   6.075   4.975   0.805
 4328SOL    HW113883   6.118   4.959   0.894
 4328SOL    HW213884   6.124   4.925   0.735
 4329SOL     OW13885   5.223   1.617   5.903
 4329SOL    HW113886   5.225   1.534   5.960
 4329SOL    HW213887   5.305   1.621   5.847
 4330SOL     OW13888   1.227   0.574   6.208
 4330SOL    HW113889   1.312   0.586   6.259
 4330SOL    HW213890   1.211   0.654   6.150
 4331SOL     OW13891   5.407   3.139   6.229
 4331SOL    HW113892   5.336   3.135   6.300
 4331SOL    HW213893   5.413   3.050   6.183
 4332SOL     OW13894   6.151   4.397   2.167
 4332SOL    HW113895   6.243   4.364   2.146
 4332SOL    HW213896   6.087   4.365   2.097
 4333SOL     OW13897   6.616   1.845   4.848
 4333SOL    HW113898   6.668   1.907   4.789
 4333SOL    HW213899   6.644   1.860   4.943
 4334SOL     OW13900   4.111   6.873   2.096
 4334SOL    HW113901   4.137   6.779   2.120
 4334SOL    HW213902   4.041   6.905   2.160
 4335SOL     OW13903   3.887   4.125   6.224
 4335SOL    HW113904   3.860   4.164   6.312
 4335SOL    HW213905   3.890   4.026   6.231
 4336SOL     OW13906   0.948   0.289   5.507
 4336SOL    HW113907   0.862   0.307   5.553
 4336SOL    HW213908   1.011   0.242   5.569
 4337SOL     OW13909   1.116   5.721   5.851
 4337SOL    HW113910   1.109   5.707   5.950
 4337SOL    HW213911   1.034   5.686   5.807
 4338SOL     OW13912   5.377   6.371   2.877
 4338SOL    HW113913   5.332   6.283   2.860
 4338SOL    HW213914   5.390   6.419   2.790
 4339SOL     OW13915   0.009   1.088   0.609
 4339SOL    HW113916   6.939   1.047   0.596
 4339SOL    HW213917   0.046   1.117   0.520
 4340SOL     OW13918   4.837   3.511   1.600
 4340SOL    HW113919   4.769   3.440   1.618
 4340SOL    HW213920   4.806   3.568   1.524
 4341SOL     OW13921   1.384   3.563   0.894
 4341SOL    HW113922   1.434   3.623   0.830
 4341SOL    HW213923   1.425   3.570   0.985
 4342SOL     OW13924   0.136   2.904   2.765
 4342SOL    HW113925   0.044   2.923   2.731
 4342SOL    HW213926   0.202   2.919   2.691
 4343SOL     OW13927   3.095   3.316   1.569
 4343SOL    HW113928   3.039   3.395   1.542
 4343SOL    HW213929   3.050   3.232   1.539
 4344SOL     OW13930   2.414   3.216   1.598
 4344SOL    HW113931   2.473   3.138   1.618
 4344SOL    HW213932   2.425   3.286   1.669
 4345SOL     OW13933   2.843   0.757   6.075
 4345SOL    HW113934   2.766   0.801   6.029
 4345SOL    HW213935   2.808   0.693   6.144
 4346SOL     OW13936   6.961   3.790   2.018
 4346SOL    HW113937   6.906   3.828   1.943
 4346SOL    HW213938   6.961   3.690   2.011
 4347SOL     OW13939   5.081   6.081   2.368
 4347SOL    HW113940   5.050   5.986   2.359
 4347SOL    HW213941   5.059   6.114   2.459
 4348SOL     OW13942   1.092   3.229   0.323
 4348SOL    HW113943   1.129   3.188   0.239
 4348SOL    HW213944   1.154   3.210   0.399
 4349SOL     OW13945   5.895   1.401   1.030
 4349SOL    HW113946   5.942   1.462   1.094
 4349SOL    HW213947   5.898   1.308   1.065
 4350SOL     OW13948   3.320   0.369   3.637
 4350SOL    HW113949   3.251   0.384   3.566
 4350SOL    HW213950   3.364   0.455   3.661
 4351SOL     OW13951   3.509   0.133   0.313
 4351SOL    HW113952   3.419   0.105   0.346
 4351SOL    HW213953   3.526   0.092   0.224
 4352SOL     OW13954   6.222   1.765   1.313
 4352SOL    HW113955   6.124   1.752   1.321
 4352SOL    HW213956   6.242   1.863   1.305
 4353SOL     OW13957   3.116   5.639   0.629
 4353SOL    HW113958   3.066   5.566   0.584
 4353SOL    HW213959   3.084   5.648   0.724
 4354SOL     OW13960   2.719   1.385   1.270
 4354SOL    HW113961   2.674   1.382   1.360
 4354SOL    HW213962   2.649   1.394   1.199
 4355SOL     OW13963   4.558   0.142   6.576
 4355SOL    HW113964   4.593   0.235   6.590
 4355SOL    HW213965   4.601   0.102   6.495
 4356SOL     OW13966   3.382   3.577   1.279
 4356SOL    HW113967   3.417   3.509   1.344
 4356SOL    HW213968   3.438   3.576   1.196
 4357SOL     OW13969   5.307   0.799   0.684
 4357SOL    HW113970   5.221   0.784   0.732
 4357SOL    HW213971   5.376   0.836   0.747
 4358SOL     OW13972   6.329   0.479   0.719
 4358SOL    HW113973   6.422   0.468   0.754
 4358SOL    HW213974   6.265   0.432   0.780
 4359SOL     OW13975   6.939   3.786   4.451
 4359SOL    HW113976   6.900   3.766   4.361
 4359SOL    HW213977   6.865   3.800   4.516
 4360SOL     OW13978   2.653   3.150   1.184
 4360SOL    HW113979   2.600   3.232   1.204
 4360SOL    HW213980   2.683   3.108   1.270
 4361SOL     OW13981   5.124   1.710   2.614
 4361SOL    HW113982   5.117   1.801   2.574
 4361SOL    HW213983   5.158   1.717   2.707
 4362SOL     OW13984   4.817   3.998   2.494
 4362SOL    HW113985   4.798   4.094   2.474
 4362SOL    HW213986   4.825   3.947   2.408
 4363SOL     OW13987   4.896   0.442   6.341
 4363SOL    HW113988   4.988   0.406   6.324
 4363SOL    HW213989   4.828   0.374   6.312
 4364SOL     OW13990   4.425   3.885   5.299
 4364SOL    HW113991   4.473   3.809   5.343
 4364SOL    HW213992   4.342   3.850   5.256
 4365SOL     OW13993   5.056   2.351   7.012
 4365SOL    HW113994   5.142   2.401   7.006
 4365SOL    HW213995   5.028   2.321   6.921
 4366SOL     OW13996   4.799   5.078   0.960
 4366SOL    HW113997   4.709   5.114   0.983
 4366SOL    HW213998   4.796   4.978   0.959
 4367SOL     OW13999   5.880   6.473   1.126
 4367SOL    HW114000   5.799   6.422   1.095
 4367SOL    HW214001   5.917   6.430   1.209
 4368SOL     OW14002   4.430   5.489   2.018
 4368SOL    HW114003   4.451   5.409   2.075
 4368SOL    HW214004   4.472   5.570   2.057
 4369SOL     OW14005   3.406   5.625   1.320
 4369SOL    HW114006   3.401   5.529   1.294
 4369SOL    HW214007   3.419   5.681   1.238
 4370SOL     OW14008   5.075   3.894   1.455
 4370SOL    HW114009   5.071   3.896   1.555
 4370SOL    HW214010   5.066   3.988   1.420
 4371SOL     OW14011   1.423   1.984   2.198
 4371SOL    HW114012   1.428   1.888   2.227
 4371SOL    HW214013   1.367   1.991   2.115
 4372SOL     OW14014   4.460   0.080   3.702
 4372SOL    HW114015   4.536   0.044   3.757
 4372SOL    HW214016   4.422   0.161   3.747
 4373SOL     OW14017   0.914   1.817   5.209
 4373SOL    HW114018   0.933   1.899   5.263
 4373SOL    HW214019   0.826   1.828   5.162
 4374SOL     OW14020   3.692   1.329   6.958
 4374SOL    HW114021   3.734   1.418   6.976
 4374SOL    HW214022   3.748   1.279   6.891
 4375SOL     OW14023   3.436   5.366   4.472
 4375SOL    HW114024   3.398   5.274   4.458
 4375SOL    HW214025   3.374   5.419   4.531
 4376SOL     OW14026   0.159   2.270   2.798
 4376SOL    HW114027   0.106   2.336   2.851
 4376SOL    HW214028   0.253   2.304   2.787
 4377SOL     OW14029   0.172   4.572   5.746
 4377SOL    HW114030   0.268   4.591   5.769
 4377SOL    HW214031   0.143   4.633   5.672
 4378SOL     OW14032   3.143   1.744   4.460
 4378SOL    HW114033   3.240   1.768   4.454
 4378SOL    HW214034   3.096   1.810   4.519
 4379SOL     OW14035   3.588   1.728   5.960
 4379SOL    HW114036   3.558   1.663   6.029
 4379SOL    HW214037   3.670   1.776   5.992
 4380SOL     OW14038   6.897   2.042   3.115
 4380SOL    HW114039   6.853   1.952   3.110
 4380SOL    HW214040   6.831   2.113   3.095
 4381SOL     OW14041   1.194   4.885   6.502
 4381SOL    HW114042   1.139   4.803   6.513
 4381SOL    HW214043   1.263   4.870   6.431
 4382SOL     OW14044   1.320   4.952   4.832
 4382SOL    HW114045   1.287   4.878   4.890
 4382SOL    HW214046   1.418   4.963   4.845
 4383SOL     OW14047   0.502   4.518   0.218
 4383SOL    HW114048   0.458   4.581   0.153
 4383SOL    HW214049   0.552   4.571   0.287
 4384SOL     OW14050   4.804   6.815   4.256
 4384SOL    HW114051   4.816   6.896   4.314
 4384SOL    HW214052   4.751   6.746   4.306
 4385SOL     OW14053   5.085   0.498   5.921
 4385SOL    HW114054   5.155   0.478   5.989
 4385SOL    HW214055   4.999   0.452   5.946
 4386SOL     OW14056   2.138   3.415   3.597
 4386SOL    HW114057   2.166   3.321   3.577
 4386SOL    HW214058   2.153   3.433   3.694
 4387SOL     OW14059   4.459   1.921   0.945
 4387SOL    HW114060   4.405   1.928   1.029
 4387SOL    HW214061   4.410   1.966   0.870
 4388SOL     OW14062   6.166   3.033   0.424
 4388SOL    HW114063   6.092   3.100   0.432
 4388SOL    HW214064   6.230   3.046   0.500
 4389SOL     OW14065   2.437   1.393   6.464
 4389SOL    HW114066   2.423   1.366   6.559
 4389SOL    HW214067   2.534   1.406   6.447
 4390SOL     OW14068   6.970   0.985   1.497
 4390SOL    HW114069   6.904   0.981   1.422
 4390SOL    HW214070   0.038   1.020   1.464
 4391SOL     OW14071   6.978   6.094   1.613
 4391SOL    HW114072   0.035   6.061   1.668
 4391SOL    HW214073   6.891   6.071   1.657
 4392SOL     OW14074   2.187   3.065   5.954
 4392SOL    HW114075   2.181   3.041   6.051
 4392SOL    HW214076   2.228   2.988   5.904
 4393SOL     OW14077   6.263   0.291   1.774
 4393SOL    HW114078   6.253   0.385   1.809
 4393SOL    HW214079   6.180   0.239   1.795
 4394SOL     OW14080   6.839   1.349   2.936
 4394SOL    HW114081   6.855   1.294   3.018
 4394SOL    HW214082   6.904   1.425   2.934
 4395SOL     OW14083   1.880   3.614   1.141
 4395SOL    HW114084   1.933   3.531   1.120
 4395SOL    HW214085   1.934   3.675   1.199
 4396SOL     OW14086   2.208   1.680   2.358
 4396SOL    HW114087   2.279   1.750   2.349
 4396SOL    HW214088   2.213   1.617   2.280
 4397SOL     OW14089   3.700   1.111   5.014
 4397SOL    HW114090   3.654   1.042   5.070
 4397SOL    HW214091   3.767   1.066   4.954
 4398SOL     OW14092   2.561   3.102   5.954
 4398SOL    HW114093   2.517   3.046   6.025
 4398SOL    HW214094   2.500   3.178   5.929
 4399SOL     OW14095   3.010   5.960   1.639
 4399SOL    HW114096   3.110   5.958   1.646
 4399SOL    HW214097   2.984   5.974   1.544
 4400SOL     OW14098   1.225   6.008   5.350
 4400SOL    HW114099   1.304   6.055   5.310
 4400SOL    HW214100   1.163   6.076   5.390
 4401SOL     OW14101   2.954   0.326   5.803
 4401SOL    HW114102   2.966   0.349   5.900
 4401SOL    HW214103   3.007   0.390   5.747
 4402SOL     OW14104   0.812   0.919   2.519
 4402SOL    HW114105   0.884   0.893   2.584
 4402SOL    HW214106   0.854   0.955   2.436
 4403SOL     OW14107   6.429   6.657   2.718
 4403SOL    HW114108   6.397   6.574   2.672
 4403SOL    HW214109   6.460   6.635   2.810
 4404SOL     OW14110   0.967   6.155   5.167
 4404SOL    HW114111   0.946   6.215   5.090
 4404SOL    HW214112   1.013   6.073   5.134
 4405SOL     OW14113   0.701   5.343   3.073
 4405SOL    HW114114   0.769   5.408   3.107
 4405SOL    HW214115   0.734   5.249   3.089
 4406SOL     OW14116   5.870   4.066   2.868
 4406SOL    HW114117   5.918   4.118   2.797
 4406SOL    HW214118   5.875   3.968   2.848
 4407SOL     OW14119   4.869   0.460   1.195
 4407SOL    HW114120   4.920   0.442   1.279
 4407SOL    HW214121   4.841   0.556   1.193
 4408SOL     OW14122   4.584   0.461   0.145
 4408SOL    HW114123   4.571   0.411   0.231
 4408SOL    HW214124   4.519   0.537   0.140
 4409SOL     OW14125   3.704   0.651   3.537
 4409SOL    HW114126   3.777   0.695   3.483
 4409SOL    HW214127   3.719   0.552   3.539
 4410SOL     OW14128   1.753   0.069   0.721
 4410SOL    HW114129   1.711   0.154   0.754
 4410SOL    HW214130   1.727   0.054   0.626
 4411SOL     OW14131   4.676   4.331   4.628
 4411SOL    HW114132   4.689   4.320   4.529
 4411SOL    HW214133   4.705   4.247   4.674
 4412SOL     OW14134   5.010   6.491   0.995
 4412SOL    HW114135   4.967   6.578   1.019
 4412SOL    HW214136   4.939   6.422   0.984
 4413SOL     OW14137   5.353   6.465   4.685
 4413SOL    HW114138   5.283   6.522   4.642
 4413SOL    HW214139   5.367   6.495   4.780
 4414SOL     OW14140   5.786   3.965   1.278
 4414SOL    HW114141   5.861   3.990   1.339
 4414SOL    HW214142   5.727   4.045   1.264
 4415SOL     OW14143   0.788   4.143   1.527
 4415SOL    HW114144   0.844   4.202   1.586
 4415SOL    HW214145   0.765   4.192   1.443
 4416SOL     OW14146   4.932   3.413   4.237
 4416SOL    HW114147   4.947   3.314   4.240
 4416SOL    HW214148   4.904   3.439   4.144
 4417SOL     OW14149   7.018   4.390   1.946
 4417SOL    HW114150   0.074   4.370   1.882
 4417SOL    HW214151   6.959   4.310   1.954
 4418SOL     OW14152   6.701   2.618   5.137
 4418SOL    HW114153   6.609   2.656   5.132
 4418SOL    HW214154   6.756   2.653   5.061
 4419SOL     OW14155   6.133   6.377   6.569
 4419SOL    HW114156   6.134   6.341   6.476
 4419SOL    HW214157   6.039   6.379   6.603
 4420SOL     OW14158   3.832   0.665   0.729
 4420SOL    HW114159   3.869   0.657   0.821
 4420SOL    HW214160   3.789   0.578   0.702
 4421SOL     OW14161   2.805   2.294   0.520
 4421SOL    HW114162   2.706   2.285   0.528
 4421SOL    HW214163   2.849   2.250   0.598
 4422SOL     OW14164   0.877   3.085   6.514
 4422SOL    HW114165   0.794   3.052   6.559
 4422SOL    HW214166   0.941   3.118   6.584
 4423SOL     OW14167   6.150   4.666   4.281
 4423SOL    HW114168   6.069   4.638   4.333
 4423SOL    HW214169   6.130   4.659   4.183
 4424SOL     OW14170   4.049   5.280   2.721
 4424SOL    HW114171   4.096   5.194   2.744
 4424SOL    HW214172   3.998   5.269   2.636
 4425SOL     OW14173   0.588   5.985   0.650
 4425SOL    HW114174   0.641   6.035   0.581
 4425SOL    HW214175   0.551   6.050   0.717
 4426SOL     OW14176   0.557   0.698   4.245
 4426SOL    HW114177   0.601   0.764   4.306
 4426SOL    HW214178   0.536   0.615   4.296
 4427SOL     OW14179   3.484   6.209   0.280
 4427SOL    HW114180   3.566   6.206   0.222
 4427SOL    HW214181   3.411   6.258   0.233
 4428SOL     OW14182   6.159   5.796   2.878
 4428SOL    HW114183   6.251   5.764   2.859
 4428SOL    HW214184   6.158   5.847   2.964
 4429SOL     OW14185   2.285   5.581   2.546
 4429SOL    HW114186   2.196   5.554   2.584
 4429SOL    HW214187   2.357   5.558   2.610
 4430SOL     OW14188   5.608   4.022   4.333
 4430SOL    HW114189   5.509   4.021   4.349
 4430SOL    HW214190   5.635   3.938   4.287
 4431SOL     OW14191   4.581   0.156   4.754
 4431SOL    HW114192   4.615   0.238   4.798
 4431SOL    HW214193   4.556   0.177   4.659
 4432SOL     OW14194   2.255   3.739   6.264
 4432SOL    HW114195   2.227   3.808   6.197
 4432SOL    HW214196   2.212   3.652   6.243
 4433SOL     OW14197   0.355   0.204   4.982
 4433SOL    HW114198   0.286   0.132   4.981
 4433SOL    HW214199   0.445   0.164   4.964
 4434SOL     OW14200   6.559   0.491   2.390
 4434SOL    HW114201   6.645   0.518   2.432
 4434SOL    HW214202   6.544   0.545   2.307
 4435SOL     OW14203   1.979   4.594   1.492
 4435SOL    HW114204   1.936   4.559   1.409
 4435SOL    HW214205   2.002   4.518   1.553
 4436SOL     OW14206   5.076   2.325   1.848
 4436SOL    HW114207   5.037   2.253   1.790
 4436SOL    HW214208   5.121   2.283   1.927
 4437SOL     OW14209   0.145   5.678   7.008
 4437SOL    HW114210   0.090   5.622   0.051
 4437SOL    HW214211   0.132   5.645   6.915
 4438SOL     OW14212   3.664   1.957   4.833
 4438SOL    HW114213   3.751   1.961   4.784
 4438SOL    HW214214   3.608   2.036   4.808
 4439SOL     OW14215   3.047   5.402   2.171
 4439SOL    HW114216   3.125   5.380   2.228
 4439SOL    HW214217   3.041   5.337   2.095
 4440SOL     OW14218   1.765   5.289   5.904
 4440SOL    HW114219   1.830   5.249   5.840
 4440SOL    HW214220   1.780   5.249   5.995
 4441SOL     OW14221   6.232   1.101   1.024
 4441SOL    HW114222   6.232   1.111   1.124
 4441SOL    HW214223   6.197   1.185   0.982
 4442SOL     OW14224   1.690   4.601   0.758
 4442SOL    HW114225   1.666   4.678   0.817
 4442SOL    HW214226   1.788   4.600   0.741
 4443SOL     OW14227   1.105   5.866   5.565
 4443SOL    HW114228   1.140   5.908   5.481
 4443SOL    HW214229   1.172   5.878   5.638
 4444SOL     OW14230   4.437   6.326   0.355
 4444SOL    HW114231   4.497   6.338   0.276
 4444SOL    HW214232   4.365   6.396   0.353
 4445SOL     OW14233   1.932   3.209   0.566
 4445SOL    HW114234   1.928   3.201   0.467
 4445SOL    HW214235   1.910   3.302   0.593
 4446SOL     OW14236   5.803   2.500   1.557
 4446SOL    HW114237   5.813   2.476   1.461
 4446SOL    HW214238   5.767   2.422   1.607
 4447SOL     OW14239   5.150   5.739   5.999
 4447SOL    HW114240   5.113   5.670   6.062
 4447SOL    HW214241   5.250   5.735   6.001
 4448SOL     OW14242   2.447   6.396   2.338
 4448SOL    HW114243   2.517   6.364   2.275
 4448SOL    HW214244   2.472   6.487   2.372
 4449SOL     OW14245   3.845   1.953   5.440
 4449SOL    HW114246   3.890   1.877   5.392
 4449SOL    HW214247   3.872   2.040   5.398
 4450SOL     OW14248   2.457   5.519   0.735
 4450SOL    HW114249   2.508   5.477   0.659
 4450SOL    HW214250   2.449   5.617   0.719
 4451SOL     OW14251   5.116   6.194   3.034
 4451SOL    HW114252   5.034   6.212   3.089
 4451SOL    HW214253   5.184   6.147   3.090
 4452SOL     OW14254   5.145   4.699   3.362
 4452SOL    HW114255   5.046   4.692   3.371
 4452SOL    HW214256   5.186   4.716   3.451
 4453SOL     OW14257   7.016   5.620   1.435
 4453SOL    HW114258   6.996   5.715   1.411
 4453SOL    HW214259   6.949   5.588   1.502
 4454SOL     OW14260   0.202   0.935   0.058
 4454SOL    HW114261   0.226   0.923   0.155
 4454SOL    HW214262   0.150   0.856   0.026
 4455SOL     OW14263   0.837   0.650   4.130
 4455SOL    HW114264   0.737   0.653   4.140
 4455SOL    HW214265   0.859   0.617   4.038
 4456SOL     OW14266   1.572   5.891   3.889
 4456SOL    HW114267   1.560   5.958   3.963
 4456SOL    HW214268   1.669   5.880   3.869
 4457SOL     OW14269   1.342   2.204   4.810
 4457SOL    HW114270   1.425   2.247   4.775
 4457SOL    HW214271   1.344   2.106   4.789
 4458SOL     OW14272   2.228   2.128   5.371
 4458SOL    HW114273   2.279   2.046   5.397
 4458SOL    HW214274   2.291   2.199   5.340
 4459SOL     OW14275   1.533   4.623   3.238
 4459SOL    HW114276   1.620   4.672   3.233
 4459SOL    HW214277   1.466   4.678   3.288
 4460SOL     OW14278   0.087   3.590   5.161
 4460SOL    HW114279   0.042   3.579   5.072
 4460SOL    HW214280   0.030   3.647   5.220
 4461SOL     OW14281   2.538   0.156   0.408
 4461SOL    HW114282   2.510   0.225   0.475
 4461SOL    HW214283   2.466   0.144   0.340
 4462SOL     OW14284   0.407   4.400   2.502
 4462SOL    HW114285   0.414   4.316   2.449
 4462SOL    HW214286   0.494   4.449   2.500
 4463SOL     OW14287   5.821   1.979   6.682
 4463SOL    HW114288   5.802   2.037   6.603
 4463SOL    HW214289   5.909   2.004   6.722
 4464SOL     OW14290   0.684   3.436   1.301
 4464SOL    HW114291   0.613   3.371   1.330
 4464SOL    HW214292   0.771   3.388   1.294
 4465SOL     OW14293   4.598   5.076   1.200
 4465SOL    HW114294   4.549   5.032   1.276
 4465SOL    HW214295   4.685   5.030   1.185
 4466SOL     OW14296   1.081   2.971   2.731
 4466SOL    HW114297   1.104   3.049   2.789
 4466SOL    HW214298   0.986   2.978   2.701
 4467SOL     OW14299   5.365   4.596   1.974
 4467SOL    HW114300   5.370   4.502   1.939
 4467SOL    HW214301   5.283   4.640   1.939
 4468SOL     OW14302   1.960   3.554   0.308
 4468SOL    HW114303   1.965   3.560   0.408
 4468SOL    HW214304   1.970   3.458   0.281
 4469SOL     OW14305   1.151   6.426   2.362
 4469SOL    HW114306   1.171   6.386   2.451
 4469SOL    HW214307   1.064   6.390   2.327
 4470SOL     OW14308   0.521   0.307   2.954
 4470SOL    HW114309   0.425   0.335   2.962
 4470SOL    HW214310   0.528   0.208   2.965
 4471SOL     OW14311   1.658   0.702   6.537
 4471SOL    HW114312   1.607   0.754   6.605
 4471SOL    HW214313   1.705   0.627   6.582
 4472SOL     OW14314   2.458   3.347   1.203
 4472SOL    HW114315   2.413   3.412   1.141
 4472SOL    HW214316   2.389   3.289   1.245
 4473SOL     OW14317   0.738   3.089   5.369
 4473SOL    HW114318   0.801   3.011   5.371
 4473SOL    HW214319   0.788   3.173   5.388
 4474SOL     OW14320   1.417   6.436   1.173
 4474SOL    HW114321   1.408   6.427   1.074
 4474SOL    HW214322   1.508   6.471   1.195
 4475SOL     OW14323   0.924   3.260   0.877
 4475SOL    HW114324   0.894   3.355   0.867
 4475SOL    HW214325   1.023   3.255   0.871
 4476SOL     OW14326   4.748   0.892   3.918
 4476SOL    HW114327   4.680   0.954   3.957
 4476SOL    HW214328   4.743   0.804   3.964
 4477SOL     OW14329   6.379   1.296   4.717
 4477SOL    HW114330   6.340   1.264   4.804
 4477SOL    HW214331   6.471   1.259   4.707
 4478SOL     OW14332   0.887   0.454   2.398
 4478SOL    HW114333   0.798   0.478   2.437
 4478SOL    HW214334   0.885   0.359   2.367
 4479SOL     OW14335   2.915   3.293   0.283
 4479SOL    HW114336   2.931   3.197   0.260
 4479SOL    HW214337   2.820   3.305   0.312
 4480SOL     OW14338   6.938   0.843   3.292
 4480SOL    HW114339   6.965   0.747   3.295
 4480SOL    HW214340   6.895   0.868   3.378
 4481SOL     OW14341   1.931   4.027   5.986
 4481SOL    HW114342   1.889   4.115   6.008
 4481SOL    HW214343   1.943   4.020   5.887
 4482SOL     OW14344   2.875   6.571   1.247
 4482SOL    HW114345   2.914   6.480   1.245
 4482SOL    HW214346   2.861   6.600   1.342
 4483SOL     OW14347   1.593   2.594   1.309
 4483SOL    HW114348   1.669   2.583   1.373
 4483SOL    HW214349   1.618   2.555   1.220
 4484SOL     OW14350   4.173   0.123   0.725
 4484SOL    HW114351   4.210   0.066   0.651
 4484SOL    HW214352   4.238   0.128   0.800
 4485SOL     OW14353   0.244   1.809   5.586
 4485SOL    HW114354   0.335   1.839   5.556
 4485SOL    HW214355   0.233   1.712   5.567
 4486SOL     OW14356   5.438   5.026   3.861
 4486SOL    HW114357   5.506   5.056   3.794
 4486SOL    HW214358   5.473   4.946   3.910
 4487SOL     OW14359   0.027   3.378   6.858
 4487SOL    HW114360   0.012   3.330   6.771
 4487SOL    HW214361   0.023   3.476   6.843
 4488SOL     OW14362   5.406   4.758   3.479
 4488SOL    HW114363   5.432   4.755   3.576
 4488SOL    HW214364   5.486   4.785   3.424
 4489SOL     OW14365   3.611   5.859   5.792
 4489SOL    HW114366   3.585   5.956   5.793
 4489SOL    HW214367   3.687   5.846   5.728
 4490SOL     OW14368   5.002   1.660   1.959
 4490SOL    HW114369   5.062   1.732   1.925
 4490SOL    HW214370   5.023   1.574   1.912
 4491SOL     OW14371   0.154   4.864   3.063
 4491SOL    HW114372   0.064   4.908   3.056
 4491SOL    HW214373   0.153   4.778   3.011
 4492SOL     OW14374   6.741   1.027   1.918
 4492SOL    HW114375   6.690   0.943   1.935
 4492SOL    HW214376   6.837   1.014   1.946
 4493SOL     OW14377   5.395   1.284   5.769
 4493SOL    HW114378   5.454   1.338   5.709
 4493SOL    HW214379   5.435   1.193   5.782
 4494SOL     OW14380   0.907   1.755   2.409
 4494SOL    HW114381   0.844   1.693   2.458
 4494SOL    HW214382   0.886   1.753   2.312
 4495SOL     OW14383   3.713   6.041   1.496
 4495SOL    HW114384   3.711   6.062   1.593
 4495SOL    HW214385   3.678   6.120   1.444
 4496SOL     OW14386   2.043   5.077   5.335
 4496SOL    HW114387   2.074   5.016   5.408
 4496SOL    HW214388   2.084   5.049   5.249
 4497SOL     OW14389   5.247   6.503   4.956
 4497SOL    HW114390   5.162   6.496   4.904
 4497SOL    HW214391   5.231   6.477   5.051
 4498SOL     OW14392   1.735   5.359   3.603
 4498SOL    HW114393   1.724   5.297   3.525
 4498SOL    HW214394   1.826   5.399   3.601
 4499SOL     OW14395   5.059   1.531   2.270
 4499SOL    HW114396   5.087   1.517   2.175
 4499SOL    HW214397   5.080   1.624   2.298
 4500SOL     OW14398   3.319   6.583   0.119
 4500SOL    HW114399   3.345   6.518   0.048
 4500SOL    HW214400   3.400   6.609   0.172
 4501SOL     OW14401   5.306   0.755   3.086
 4501SOL    HW114402   5.232   0.699   3.123
 4501SOL    HW214403   5.279   0.793   2.998
 4502SOL     OW14404   0.560   3.703   6.850
 4502SOL    HW114405   0.556   3.788   6.798
 4502SOL    HW214406   0.470   3.683   6.888
 4503SOL     OW14407   3.181   1.521   3.547
 4503SOL    HW114408   3.264   1.549   3.498
 4503SOL    HW214409   3.134   1.602   3.582
 4504SOL     OW14410   0.596   3.200   3.766
 4504SOL    HW114411   0.671   3.163   3.821
 4504SOL    HW214412   0.601   3.300   3.766
 4505SOL     OW14413   6.636   3.728   3.846
 4505SOL    HW114414   6.661   3.651   3.787
 4505SOL    HW214415   6.719   3.779   3.871
 4506SOL     OW14416   4.034   4.252   6.891
 4506SOL    HW114417   3.972   4.174   6.895
 4506SOL    HW214418   3.994   4.324   6.835
 4507SOL     OW14419   5.646   2.131   2.915
 4507SOL    HW114420   5.666   2.033   2.918
 4507SOL    HW214421   5.731   2.183   2.923
 4508SOL     OW14422   6.791   3.961   0.899
 4508SOL    HW114423   6.723   3.889   0.913
 4508SOL    HW214424   6.751   4.034   0.844
 4509SOL     OW14425   4.481   1.298   2.630
 4509SOL    HW114426   4.517   1.210   2.660
 4509SOL    HW214427   4.442   1.288   2.538
 4510SOL     OW14428   4.806   1.510   3.582
 4510SOL    HW114429   4.832   1.428   3.632
 4510SOL    HW214430   4.827   1.498   3.485
 4511SOL     OW14431   0.927   3.863   6.802
 4511SOL    HW114432   0.890   3.774   6.775
 4511SOL    HW214433   0.853   3.922   6.834
 4512SOL     OW14434   2.836   3.725   6.117
 4512SOL    HW114435   2.758   3.774   6.157
 4512SOL    HW214436   2.921   3.769   6.145
 4513SOL     OW14437   0.382   1.757   0.762
 4513SOL    HW114438   0.304   1.762   0.699
 4513SOL    HW214439   0.466   1.741   0.710
 4514SOL     OW14440   4.222   5.495   0.080
 4514SOL    HW114441   4.126   5.472   0.062
 4514SOL    HW214442   4.281   5.422   0.047
 4515SOL     OW14443   4.983   6.553   5.881
 4515SOL    HW114444   4.931   6.468   5.875
 4515SOL    HW214445   4.921   6.628   5.906
 4516SOL     OW14446   3.487   1.667   5.004
 4516SOL    HW114447   3.492   1.604   4.926
 4516SOL    HW214448   3.527   1.755   4.978
 4517SOL     OW14449   3.612   0.217   4.335
 4517SOL    HW114450   3.527   0.213   4.282
 4517SOL    HW214451   3.662   0.132   4.324
 4518SOL     OW14452   6.768   6.298   0.715
 4518SOL    HW114453   6.800   6.380   0.762
 4518SOL    HW214454   6.737   6.231   0.782
 4519SOL     OW14455   5.362   6.303   6.387
 4519SOL    HW114456   5.405   6.293   6.476
 4519SOL    HW214457   5.265   6.281   6.394
 4520SOL     OW14458   4.779   5.287   4.882
 4520SOL    HW114459   4.763   5.191   4.905
 4520SOL    HW214460   4.827   5.292   4.794
 4521SOL     OW14461   5.139   2.388   4.195
 4521SOL    HW114462   5.235   2.398   4.168
 4521SOL    HW214463   5.114   2.464   4.254
 4522SOL     OW14464   5.600   4.366   4.006
 4522SOL    HW114465   5.563   4.386   3.915
 4522SOL    HW214466   5.662   4.439   4.034
 4523SOL     OW14467   1.414   2.462   0.622
 4523SOL    HW114468   1.441   2.396   0.551
 4523SOL    HW214469   1.359   2.534   0.581
 4524SOL     OW14470   1.916   3.826   1.698
 4524SOL    HW114471   1.916   3.925   1.705
 4524SOL    HW214472   1.995   3.788   1.746
 4525SOL     OW14473   3.325   2.166   5.948
 4525SOL    HW114474   3.255   2.095   5.949
 4525SOL    HW214475   3.282   2.255   5.960
 4526SOL     OW14476   0.820   6.959   5.187
 4526SOL    HW114477   0.862   0.027   5.211
 4526SOL    HW214478   0.887   6.885   5.199
 4527SOL     OW14479   1.266   2.795   2.815
 4527SOL    HW114480   1.196   2.842   2.761
 4527SOL    HW214481   1.287   2.849   2.896
 4528SOL     OW14482   4.973   1.952   4.206
 4528SOL    HW114483   4.994   1.875   4.266
 4528SOL    HW214484   4.874   1.966   4.203
 4529SOL     OW14485   1.325   2.905   3.394
 4529SOL    HW114486   1.350   3.000   3.410
 4529SOL    HW214487   1.231   2.900   3.361
 4530SOL     OW14488   4.093   4.342   6.202
 4530SOL    HW114489   4.045   4.254   6.201
 4530SOL    HW214490   4.167   4.340   6.135
 4531SOL     OW14491   1.243   6.442   4.955
 4531SOL    HW114492   1.271   6.502   5.030
 4531SOL    HW214493   1.289   6.472   4.871
 4532SOL     OW14494   5.725   0.632   2.181
 4532SOL    HW114495   5.823   0.615   2.182
 4532SOL    HW214496   5.678   0.559   2.231
 4533SOL     OW14497   2.931   6.095   0.857
 4533SOL    HW114498   2.834   6.095   0.834
 4533SOL    HW214499   2.978   6.025   0.804
 4534SOL     OW14500   6.221   1.589   5.070
 4534SOL    HW114501   6.183   1.604   5.161
 4534SOL    HW214502   6.155   1.540   5.013
 4535SOL     OW14503   2.023   6.838   0.492
 4535SOL    HW114504   1.993   6.923   0.449
 4535SOL    HW214505   2.017   6.764   0.425
 4536SOL     OW14506   4.052   0.463   5.425
 4536SOL    HW114507   4.099   0.408   5.356
 4536SOL    HW214508   3.971   0.505   5.384
 4537SOL     OW14509   3.658   3.910   3.525
 4537SOL    HW114510   3.568   3.952   3.514
 4537SOL    HW214511   3.653   3.837   3.593
 4538SOL     OW14512   1.597   2.673   0.366
 4538SOL    HW114513   1.666   2.682   0.439
 4538SOL    HW214514   1.636   2.621   0.290
 4539SOL     OW14515   0.719   4.810   5.248
 4539SOL    HW114516   0.684   4.731   5.198
 4539SOL    HW214517   0.666   4.891   5.223
 4540SOL     OW14518   1.564   1.349   0.170
 4540SOL    HW114519   1.517   1.410   0.106
 4540SOL    HW214520   1.583   1.262   0.124
 4541SOL     OW14521   4.245   2.706   0.410
 4541SOL    HW114522   4.278   2.653   0.332
 4541SOL    HW214523   4.180   2.775   0.378
 4542SOL     OW14524   0.089   2.237   0.344
 4542SOL    HW114525   0.125   2.261   0.435
 4542SOL    HW214526   0.159   2.256   0.275
 4543SOL     OW14527   4.264   1.362   0.706
 4543SOL    HW114528   4.347   1.413   0.731
 4543SOL    HW214529   4.185   1.421   0.717
 4544SOL     OW14530   4.623   6.068   6.872
 4544SOL    HW114531   4.570   6.088   6.790
 4544SOL    HW214532   4.566   6.085   6.953
 4545SOL     OW14533   2.825   3.012   6.072
 4545SOL    HW114534   2.776   2.943   6.020
 4545SOL    HW214535   2.851   3.087   6.012
 4546SOL     OW14536   4.665   6.670   5.311
 4546SOL    HW114537   4.647   6.572   5.311
 4546SOL    HW214538   4.760   6.687   5.284
 4547SOL     OW14539   6.919   0.105   0.896
 4547SOL    HW114540   7.007   0.057   0.904
 4547SOL    HW214541   6.912   0.146   0.805
 4548SOL     OW14542   3.740   0.830   1.556
 4548SOL    HW114543   3.831   0.860   1.527
 4548SOL    HW214544   3.675   0.843   1.481
 4549SOL     OW14545   6.795   5.726   3.645
 4549SOL    HW114546   6.893   5.725   3.624
 4549SOL    HW214547   6.743   5.736   3.560
 4550SOL     OW14548   2.237   5.811   0.037
 4550SOL    HW114549   2.280   5.755   0.107
 4550SOL    HW214550   2.278   5.791   6.967
 4551SOL     OW14551   3.742   3.116   6.381
 4551SOL    HW114552   3.695   3.189   6.430
 4551SOL    HW214553   3.678   3.041   6.363
 4552SOL     OW14554   5.548   0.830   6.240
 4552SOL    HW114555   5.521   0.918   6.280
 4552SOL    HW214556   5.614   0.785   6.300
 4553SOL     OW14557   0.075   6.670   0.682
 4553SOL    HW114558   0.112   6.588   0.639
 4553SOL    HW214559   0.046   6.734   0.611
 4554SOL     OW14560   5.489   5.779   2.920
 4554SOL    HW114561   5.406   5.830   2.898
 4554SOL    HW214562   5.564   5.842   2.936
 4555SOL     OW14563   0.894   0.648   3.841
 4555SOL    HW114564   0.911   0.549   3.846
 4555SOL    HW214565   0.817   0.666   3.780
 4556SOL     OW14566   5.447   5.085   4.458
 4556SOL    HW114567   5.513   5.146   4.502
 4556SOL    HW214568   5.356   5.101   4.496
 4557SOL     OW14569   0.452   6.277   5.341
 4557SOL    HW114570   0.432   6.217   5.419
 4557SOL    HW214571   0.506   6.226   5.273
 4558SOL     OW14572   0.856   4.501   4.008
 4558SOL    HW114573   0.767   4.529   4.045
 4558SOL    HW214574   0.846   4.484   3.910
 4559SOL     OW14575   0.290   3.287   4.045
 4559SOL    HW114576   0.364   3.351   4.067
 4559SOL    HW214577   0.296   3.207   4.104
 4560SOL     OW14578   6.745   3.421   4.506
 4560SOL    HW114579   6.764   3.427   4.604
 4560SOL    HW214580   6.731   3.325   4.481
 4561SOL     OW14581   5.439   3.755   4.740
 4561SOL    HW114582   5.481   3.842   4.713
 4561SOL    HW214583   5.374   3.726   4.671
 4562SOL     OW14584   4.817   1.047   0.958
 4562SOL    HW114585   4.886   1.096   1.011
 4562SOL    HW214586   4.829   0.948   0.971
 4563SOL     OW14587   1.287   3.798   2.715
 4563SOL    HW114588   1.345   3.717   2.717
 4563SOL    HW214589   1.228   3.799   2.796
 4564SOL     OW14590   2.188   3.924   2.275
 4564SOL    HW114591   2.206   3.827   2.260
 4564SOL    HW214592   2.216   3.949   2.368
 4565SOL     OW14593   2.027   6.232   4.868
 4565SOL    HW114594   1.969   6.199   4.943
 4565SOL    HW214595   2.112   6.179   4.866
 4566SOL     OW14596   6.630   5.372   2.772
 4566SOL    HW114597   6.581   5.432   2.710
 4566SOL    HW214598   6.608   5.395   2.867
 4567SOL     OW14599   1.623   0.625   0.617
 4567SOL    HW114600   1.526   0.628   0.643
 4567SOL    HW214601   1.680   0.641   0.697
 4568SOL     OW14602   6.955   4.603   4.668
 4568SOL    HW114603   6.952   4.587   4.766
 4568SOL    HW214604   6.954   4.515   4.620
 4569SOL     OW14605   6.786   2.479   3.576
 4569SOL    HW114606   6.804   2.384   3.601
 4569SOL    HW214607   6.825   2.540   3.645
 4570SOL     OW14608   4.802   5.559   1.511
 4570SOL    HW114609   4.769   5.622   1.581
 4570SOL    HW214610   4.732   5.490   1.492
 4571SOL     OW14611   2.063   2.581   4.964
 4571SOL    HW114612   2.017   2.546   4.883
 4571SOL    HW214613   2.030   2.533   5.045
 4572SOL     OW14614   5.294   3.252   1.723
 4572SOL    HW114615   5.318   3.339   1.765
 4572SOL    HW214616   5.235   3.200   1.785
 4573SOL     OW14617   2.913   4.783   1.124
 4573SOL    HW114618   2.897   4.772   1.026
 4573SOL    HW214619   2.909   4.880   1.148
 4574SOL     OW14620   4.746   0.024   2.105
 4574SOL    HW114621   4.705   6.990   2.178
 4574SOL    HW214622   4.680   0.092   2.072
 4575SOL     OW14623   6.982   1.652   5.203
 4575SOL    HW114624   0.061   1.666   5.204
 4575SOL    HW214625   6.953   1.625   5.111
 4576SOL     OW14626   3.089   4.018   6.625
 4576SOL    HW114627   3.056   3.995   6.717
 4576SOL    HW214628   3.067   4.113   6.604
 4577SOL     OW14629   0.303   1.705   2.374
 4577SOL    HW114630   0.255   1.625   2.338
 4577SOL    HW214631   0.401   1.697   2.354
 4578SOL     OW14632   2.105   0.611   2.506
 4578SOL    HW114633   2.151   0.694   2.540
 4578SOL    HW214634   2.173   0.548   2.469
 4579SOL     OW14635   3.429   0.704   2.372
 4579SOL    HW114636   3.357   0.678   2.307
 4579SOL    HW214637   3.423   0.802   2.390
 4580SOL     OW14638   0.985   0.271   1.428
 4580SOL    HW114639   0.953   0.230   1.343
 4580SOL    HW214640   1.075   0.234   1.452
 4581SOL     OW14641   3.517   0.291   1.170
 4581SOL    HW114642   3.504   0.389   1.153
 4581SOL    HW214643   3.598   0.259   1.120
 4582SOL     OW14644   5.962   1.157   4.771
 4582SOL    HW114645   6.017   1.224   4.722
 4582SOL    HW214646   5.865   1.176   4.757
 4583SOL     OW14647   1.734   5.697   6.794
 4583SOL    HW114648   1.799   5.670   6.723
 4583SOL    HW214649   1.780   5.757   6.860
 4584SOL     OW14650   6.073   0.687   4.272
 4584SOL    HW114651   6.099   0.599   4.231
 4584SOL    HW214652   6.101   0.688   4.368
 4585SOL     OW14653   1.252   3.431   2.674
 4585SOL    HW114654   1.230   3.431   2.576
 4585SOL    HW214655   1.342   3.474   2.688
 4586SOL     OW14656   0.455   4.427   6.101
 4586SOL    HW114657   0.397   4.387   6.030
 4586SOL    HW214658   0.551   4.406   6.082
 4587SOL     OW14659   3.849   3.283   5.877
 4587SOL    HW114660   3.913   3.212   5.847
 4587SOL    HW214661   3.894   3.342   5.944
 4588SOL     OW14662   2.323   4.811   6.658
 4588SOL    HW114663   2.241   4.761   6.632
 4588SOL    HW214664   2.339   4.801   6.756
 4589SOL     OW14665   4.639   6.402   2.216
 4589SOL    HW114666   4.640   6.496   2.182
 4589SOL    HW214667   4.732   6.373   2.238
 4590SOL     OW14668   1.838   5.019   1.731
 4590SOL    HW114669   1.853   4.955   1.806
 4590SOL    HW214670   1.923   5.034   1.681
 4591SOL     OW14671   2.374   1.880   5.493
 4591SOL    HW114672   2.423   1.793   5.487
 4591SOL    HW214673   2.423   1.942   5.555
 4592SOL     OW14674   2.410   2.523   2.775
 4592SOL    HW114675   2.357   2.454   2.727
 4592SOL    HW214676   2.471   2.479   2.842
 4593SOL     OW14677   2.056   5.690   5.517
 4593SOL    HW114678   1.982   5.716   5.578
 4593SOL    HW214679   2.023   5.688   5.422
 4594SOL     OW14680   0.891   6.944   3.126
 4594SOL    HW114681   0.866   7.004   3.202
 4594SOL    HW214682   0.975   6.977   3.083
 4595SOL     OW14683   5.613   1.709   6.558
 4595SOL    HW114684   5.690   1.693   6.620
 4595SOL    HW214685   5.533   1.739   6.610
 4596SOL     OW14686   0.575   1.688   2.316
 4596SOL    HW114687   0.614   1.605   2.356
 4596SOL    HW214688   0.606   1.698   2.222
 4597SOL     OW14689   1.865   5.076   0.656
 4597SOL    HW114690   1.948   5.098   0.604
 4597SOL    HW214691   1.875   4.985   0.697
 4598SOL     OW14692   0.801   2.407   0.411
 4598SOL    HW114693   0.790   2.364   0.321
 4598SOL    HW214694   0.790   2.506   0.402
 4599SOL     OW14695   2.948   5.987   3.146
 4599SOL    HW114696   2.890   6.018   3.070
 4599SOL    HW214697   2.982   6.067   3.197
 4600SOL     OW14698   0.092   6.626   5.871
 4600SOL    HW114699   0.104   6.600   5.775
 4600SOL    HW214700   7.014   6.638   5.891
 4601SOL     OW14701   1.503   1.276   5.278
 4601SOL    HW114702   1.512   1.350   5.345
 4601SOL    HW214703   1.407   1.264   5.254
 4602SOL     OW14704   4.776   0.073   5.391
 4602SOL    HW114705   4.725   7.019   5.436
 4602SOL    HW214706   4.714   0.148   5.369
 4603SOL     OW14707   4.413   6.729   0.339
 4603SOL    HW114708   4.450   6.819   0.359
 4603SOL    HW214709   4.318   6.737   0.311
 4604SOL     OW14710   0.080   0.003   3.762
 4604SOL    HW114711   0.177   0.016   3.781
 4604SOL    HW214712   0.056   0.047   3.675
 4605SOL     OW14713   4.197   1.280   2.346
 4605SOL    HW114714   4.098   1.269   2.333
 4605SOL    HW214715   4.217   1.283   2.444
 4606SOL     OW14716   6.559   0.206   4.352
 4606SOL    HW114717   6.598   0.268   4.284
 4606SOL    HW214718   6.567   0.112   4.320
 4607SOL     OW14719   2.533   1.757   1.382
 4607SOL    HW114720   2.570   1.782   1.293
 4607SOL    HW214721   2.440   1.721   1.371
 4608SOL     OW14722   0.551   2.563   6.028
 4608SOL    HW114723   0.469   2.616   6.007
 4608SOL    HW214724   0.617   2.572   5.953
 4609SOL     OW14725   5.376   4.383   6.250
 4609SOL    HW114726   5.366   4.482   6.238
 4609SOL    HW214727   5.301   4.348   6.307
 4610SOL     OW14728   4.550   4.053   6.256
 4610SOL    HW114729   4.541   4.006   6.168
 4610SOL    HW214730   4.516   3.995   6.329
 4611SOL     OW14731   0.598   0.348   6.910
 4611SOL    HW114732   0.663   0.274   6.893
 4611SOL    HW214733   0.639   0.436   6.888
 4612SOL     OW14734   1.458   0.974   2.179
 4612SOL    HW114735   1.366   0.971   2.218
 4612SOL    HW214736   1.519   0.915   2.232
 4613SOL     OW14737   1.265   5.077   3.919
 4613SOL    HW114738   1.212   5.008   3.869
 4613SOL    HW214739   1.351   5.037   3.949
 4614SOL     OW14740   6.431   5.171   2.693
 4614SOL    HW114741   6.506   5.236   2.708
 4614SOL    HW214742   6.373   5.204   2.619
 4615SOL     OW14743   0.681   4.741   6.869
 4615SOL    HW114744   0.588   4.716   6.840
 4615SOL    HW214745   0.739   4.750   6.788
 4616SOL     OW14746   1.645   4.991   5.880
 4616SOL    HW114747   1.641   4.891   5.877
 4616SOL    HW214748   1.580   5.028   5.813
 4617SOL     OW14749   0.660   4.424   4.531
 4617SOL    HW114750   0.734   4.436   4.597
 4617SOL    HW214751   0.667   4.493   4.459
 4618SOL     OW14752   2.195   4.234   5.120
 4618SOL    HW114753   2.163   4.216   5.213
 4618SOL    HW214754   2.242   4.153   5.085
 4619SOL     OW14755   4.949   5.961   6.555
 4619SOL    HW114756   5.028   5.932   6.610
 4619SOL    HW214757   4.930   6.057   6.573
 4620SOL     OW14758   0.640   4.943   2.194
 4620SOL    HW114759   0.583   4.934   2.276
 4620SOL    HW214760   0.632   4.860   2.140
 4621SOL     OW14761   2.267   0.384   2.508
 4621SOL    HW114762   2.303   0.291   2.517
 4621SOL    HW214763   2.268   0.429   2.597
 4622SOL     OW14764   6.177   6.874   0.477
 4622SOL    HW114765   6.189   6.971   0.500
 4622SOL    HW214766   6.116   6.831   0.543
 4623SOL     OW14767   3.121   4.878   2.336
 4623SOL    HW114768   3.101   4.976   2.329
 4623SOL    HW214769   3.163   4.859   2.424
 4624SOL     OW14770   5.597   1.582   0.174
 4624SOL    HW114771   5.586   1.543   0.082
 4624SOL    HW214772   5.653   1.665   0.168
 4625SOL     OW14773   0.946   0.136   2.110
 4625SOL    HW114774   0.955   0.070   2.185
 4625SOL    HW214775   0.852   0.137   2.077
 4626SOL     OW14776   4.136   4.007   1.787
 4626SOL    HW114777   4.174   3.921   1.753
 4626SOL    HW214778   4.211   4.073   1.802
 4627SOL     OW14779   5.751   6.087   4.947
 4627SOL    HW114780   5.813   6.129   4.881
 4627SOL    HW214781   5.804   6.045   5.021
 4628SOL     OW14782   6.360   3.159   2.388
 4628SOL    HW114783   6.332   3.234   2.329
 4628SOL    HW214784   6.459   3.147   2.382
 4629SOL     OW14785   1.081   5.286   0.795
 4629SOL    HW114786   1.141   5.319   0.722
 4629SOL    HW214787   1.012   5.355   0.815
 4630SOL     OW14788   1.736   3.361   1.627
 4630SOL    HW114789   1.807   3.432   1.625
 4630SOL    HW214790   1.706   3.342   1.534
 4631SOL     OW14791   5.637   1.541   1.263
 4631SOL    HW114792   5.683   1.606   1.203
 4631SOL    HW214793   5.568   1.490   1.211
 4632SOL     OW14794   2.449   5.427   3.505
 4632SOL    HW114795   2.432   5.429   3.407
 4632SOL    HW214796   2.462   5.332   3.535
 4633SOL     OW14797   5.146   3.715   3.762
 4633SOL    HW114798   5.219   3.674   3.708
 4633SOL    HW214799   5.167   3.704   3.860
 4634SOL     OW14800   3.768   2.922   5.052
 4634SOL    HW114801   3.753   2.889   4.959
 4634SOL    HW214802   3.758   2.847   5.117
 4635SOL     OW14803   3.646   0.094   2.248
 4635SOL    HW114804   3.598   0.083   2.162
 4635SOL    HW214805   3.730   0.147   2.233
 4636SOL     OW14806   1.569   5.512   6.683
 4636SOL    HW114807   1.624   5.573   6.740
 4636SOL    HW214808   1.617   5.425   6.673
 4637SOL     OW14809   1.983   2.686   3.423
 4637SOL    HW114810   1.887   2.667   3.405
 4637SOL    HW214811   1.990   2.767   3.482
 4638SOL     OW14812   4.058   4.494   6.748
 4638SOL    HW114813   4.080   4.453   6.659
 4638SOL    HW214814   4.133   4.477   6.812
 4639SOL     OW14815   3.830   2.909   1.717
 4639SOL    HW114816   3.823   2.810   1.735
 4639SOL    HW214817   3.748   2.940   1.670
 4640SOL     OW14818   0.549   2.150   0.496
 4640SOL    HW114819   0.508   2.239   0.476
 4640SOL    HW214820   0.641   2.163   0.532
 4641SOL     OW14821   1.165   6.147   4.868
 4641SOL    HW114822   1.213   6.171   4.784
 4641SOL    HW214823   1.074   6.189   4.869
 4642SOL     OW14824   5.688   1.324   6.073
 4642SOL    HW114825   5.764   1.304   6.135
 4642SOL    HW214826   5.685   1.255   6.000
 4643SOL     OW14827   1.133   2.116   6.892
 4643SOL    HW114828   1.207   2.056   6.863
 4643SOL    HW214829   1.073   2.134   6.815
 4644SOL     OW14830   1.436   1.709   0.934
 4644SOL    HW114831   1.451   1.632   0.873
 4644SOL    HW214832   1.342   1.709   0.966
 4645SOL     OW14833   5.917   2.764   5.220
 4645SOL    HW114834   5.852   2.741   5.293
 4645SOL    HW214835   5.918   2.863   5.206
 4646SOL     OW14836   1.276   3.983   2.348
 4646SOL    HW114837   1.192   3.982   2.293
 4646SOL    HW214838   1.254   4.002   2.443
 4647SOL     OW14839   1.385   6.089   1.987
 4647SOL    HW114840   1.384   6.058   2.082
 4647SOL    HW214841   1.409   6.186   1.983
 4648SOL     OW14842   2.573   1.318   4.343
 4648SOL    HW114843   2.575   1.373   4.427
 4648SOL    HW214844   2.594   1.223   4.365
 4649SOL     OW14845   4.585   3.590   1.435
 4649SOL    HW114846   4.598   3.676   1.484
 4649SOL    HW214847   4.499   3.547   1.464
 4650SOL     OW14848   3.756   4.738   0.534
 4650SOL    HW114849   3.701   4.820   0.520
 4650SOL    HW214850   3.807   4.718   0.450
 4651SOL     OW14851   1.503   3.052   0.093
 4651SOL    HW114852   1.455   2.973   0.054
 4651SOL    HW214853   1.460   3.136   0.060
 4652SOL     OW14854   6.099   6.763   5.669
 4652SOL    HW114855   6.046   6.722   5.743
 4652SOL    HW214856   6.162   6.695   5.630
 4653SOL     OW14857   0.978   6.513   0.427
 4653SOL    HW114858   0.932   6.596   0.395
 4653SOL    HW214859   1.015   6.463   0.348
 4654SOL     OW14860   0.705   0.957   5.363
 4654SOL    HW114861   0.619   0.908   5.345
 4654SOL    HW214862   0.728   1.013   5.284
 4655SOL     OW14863   5.322   5.341   3.299
 4655SOL    HW114864   5.390   5.278   3.261
 4655SOL    HW214865   5.230   5.303   3.285
 4656SOL     OW14866   6.475   0.444   1.201
 4656SOL    HW114867   6.500   0.401   1.287
 4656SOL    HW214868   6.554   0.447   1.140
 4657SOL     OW14869   3.596   2.003   2.137
 4657SOL    HW114870   3.523   2.035   2.197
 4657SOL    HW214871   3.642   2.081   2.095
 4658SOL     OW14872   1.609   1.075   0.123
 4658SOL    HW114873   1.513   1.102   0.131
 4658SOL    HW214874   1.628   1.050   0.028
 4659SOL     OW14875   2.469   5.215   1.088
 4659SOL    HW114876   2.398   5.175   1.146
 4659SOL    HW214877   2.510   5.143   1.032
 4660SOL     OW14878   0.341   5.075   4.881
 4660SOL    HW114879   0.389   4.994   4.848
 4660SOL    HW214880   0.283   5.112   4.809
 4661SOL     OW14881   0.434   1.067   5.091
 4661SOL    HW114882   0.427   1.037   4.996
 4661SOL    HW214883   0.345   1.099   5.122
 4662SOL     OW14884   2.726   0.085   6.390
 4662SOL    HW114885   2.672   0.020   6.337
 4662SOL    HW214886   2.731   0.055   6.485
 4663SOL     OW14887   0.635   0.007   1.345
 4663SOL    HW114888   0.607   6.932   1.325
 4663SOL    HW214889   0.706   0.035   1.281
 4664SOL     OW14890   6.556   6.185   5.254
 4664SOL    HW114891   6.519   6.134   5.177
 4664SOL    HW214892   6.630   6.132   5.297
 4665SOL     OW14893   0.160   1.807   2.610
 4665SOL    HW114894   0.197   1.793   2.702
 4665SOL    HW214895   0.218   1.759   2.544
 4666SOL     OW14896   1.877   2.694   5.777
 4666SOL    HW114897   1.931   2.778   5.774
 4666SOL    HW214898   1.936   2.616   5.756
 4667SOL     OW14899   6.173   2.315   1.050
 4667SOL    HW114900   6.081   2.307   1.089
 4667SOL    HW214901   6.228   2.237   1.079
 4668SOL     OW14902   4.677   1.989   5.211
 4668SOL    HW114903   4.762   1.938   5.194
 4668SOL    HW214904   4.606   1.959   5.147
 4669SOL     OW14905   5.747   6.263   6.364
 4669SOL    HW114906   5.779   6.294   6.453
 4669SOL    HW214907   5.761   6.335   6.296
 4670SOL     OW14908   0.867   3.344   0.108
 4670SOL    HW114909   0.900   3.432   0.140
 4670SOL    HW214910   0.943   3.292   0.068
 4671SOL     OW14911   0.012   1.919   1.877
 4671SOL    HW114912   6.953   1.859   1.857
 4671SOL    HW214913   0.011   1.944   1.974
 4672SOL     OW14914   4.318   3.009   0.838
 4672SOL    HW114915   4.316   2.910   0.829
 4672SOL    HW214916   4.398   3.045   0.790
 4673SOL     OW14917   4.874   1.476   0.620
 4673SOL    HW114918   4.949   1.542   0.609
 4673SOL    HW214919   4.854   1.433   0.533
 4674SOL     OW14920   0.891   2.924   0.460
 4674SOL    HW114921   0.813   2.982   0.484
 4674SOL    HW214922   0.924   2.877   0.542
 4675SOL     OW14923   1.954   6.627   0.310
 4675SOL    HW114924   1.985   6.620   0.215
 4675SOL    HW214925   1.899   6.547   0.333
 4676SOL     OW14926   0.120   5.535   4.543
 4676SOL    HW114927   0.185   5.562   4.614
 4676SOL    HW214928   0.033   5.580   4.559
 4677SOL     OW14929   5.019   6.851   0.101
 4677SOL    HW114930   5.105   6.799   0.109
 4677SOL    HW214931   4.945   6.798   0.142
 4678SOL     OW14932   2.272   5.199   0.410
 4678SOL    HW114933   2.329   5.117   0.406
 4678SOL    HW214934   2.272   5.236   0.503
 4679SOL     OW14935   1.852   6.528   5.602
 4679SOL    HW114936   1.940   6.487   5.580
 4679SOL    HW214937   1.864   6.626   5.619
 4680SOL     OW14938   1.107   5.480   6.173
 4680SOL    HW114939   1.052   5.408   6.215
 4680SOL    HW214940   1.052   5.530   6.106
 4681SOL     OW14941   6.512   6.332   5.810
 4681SOL    HW114942   6.464   6.403   5.758
 4681SOL    HW214943   6.565   6.374   5.883
 4682SOL     OW14944   2.850   6.924   0.670
 4682SOL    HW114945   2.922   6.976   0.625
 4682SOL    HW214946   2.854   6.939   0.769
 4683SOL     OW14947   0.574   5.230   3.840
 4683SOL    HW114948   0.639   5.235   3.916
 4683SOL    HW214949   0.482   5.251   3.874
 4684SOL     OW14950   1.995   1.058   4.597
 4684SOL    HW114951   2.013   1.142   4.649
 4684SOL    HW214952   1.909   1.018   4.628
 4685SOL     OW14953   5.171   4.905   4.046
 4685SOL    HW114954   5.162   4.912   3.947
 4685SOL    HW214955   5.264   4.931   4.073
 4686SOL     OW14956   4.797   5.364   6.068
 4686SOL    HW114957   4.889   5.378   6.033
 4686SOL    HW214958   4.734   5.355   5.991
 4687SOL     OW14959   4.439   1.051   4.830
 4687SOL    HW114960   4.416   1.030   4.735
 4687SOL    HW214961   4.538   1.051   4.841
 4688SOL     OW14962   0.337   0.255   1.249
 4688SOL    HW114963   0.309   0.217   1.337
 4688SOL    HW214964   0.257   0.294   1.203
 4689SOL     OW14965   1.921   5.589   4.589
 4689SOL    HW114966   1.874   5.504   4.564
 4689SOL    HW214967   1.939   5.589   4.688
 4690SOL     OW14968   2.919   2.008   0.478
 4690SOL    HW114969   2.845   1.942   0.490
 4690SOL    HW214970   2.913   2.077   0.551
 4691SOL     OW14971   2.742   4.614   0.056
 4691SOL    HW114972   2.740   4.539   0.123
 4691SOL    HW214973   2.802   4.687   0.090
 4692SOL     OW14974   0.971   4.900   3.350
 4692SOL    HW114975   0.930   4.991   3.363
 4692SOL    HW214976   1.040   4.905   3.278
 4693SOL     OW14977   0.798   2.176   2.484
 4693SOL    HW114978   0.793   2.237   2.563
 4693SOL    HW214979   0.781   2.227   2.400
 4694SOL     OW14980   1.630   0.906   4.857
 4694SOL    HW114981   1.551   0.963   4.883
 4694SOL    HW214982   1.654   0.924   4.762
 4695SOL     OW14983   3.578   3.625   2.925
 4695SOL    HW114984   3.586   3.645   2.827
 4695SOL    HW214985   3.503   3.678   2.964
 4696SOL     OW14986   0.549   2.402   6.501
 4696SOL    HW114987   0.451   2.408   6.484
 4696SOL    HW214988   0.585   2.318   6.461
 4697SOL     OW14989   0.839   4.985   6.702
 4697SOL    HW114990   0.753   5.034   6.694
 4697SOL    HW214991   0.881   5.005   6.791
 4698SOL     OW14992   5.296   3.142   2.176
 4698SOL    HW114993   5.247   3.230   2.177
 4698SOL    HW214994   5.338   3.127   2.266
 4699SOL     OW14995   6.714   0.614   3.192
 4699SOL    HW114996   6.811   0.603   3.212
 4699SOL    HW214997   6.698   0.704   3.150
 4700SOL     OW14998   5.174   7.002   4.913
 4700SOL    HW114999   5.233   6.923   4.896
 4700SOL    HW215000   5.144   7.002   5.008
 4701SOL     OW15001   2.358   0.940   5.869
 4701SOL    HW115002   2.403   0.888   5.940
 4701SOL    HW215003   2.381   0.902   5.779
 4702SOL     OW15004   3.665   3.010   0.972
 4702SOL    HW115005   3.674   3.108   0.991
 4702SOL    HW215006   3.569   2.989   0.955
 4703SOL     OW15007   0.764   6.451   2.122
 4703SOL    HW115008   0.859   6.432   2.097
 4703SOL    HW215009   0.715   6.365   2.134
 4704SOL     OW15010   4.644   6.826   6.310
 4704SOL    HW115011   4.607   6.912   6.275
 4704SOL    HW215012   4.725   6.844   6.366
 4705SOL     OW15013   3.480   3.035   4.919
 4705SOL    HW115014   3.529   2.960   4.875
 4705SOL    HW215015   3.385   3.008   4.937
 4706SOL     OW15016   5.806   3.020   0.350
 4706SOL    HW115017   5.848   2.963   0.279
 4706SOL    HW215018   5.752   3.092   0.307
 4707SOL     OW15019   2.818   4.313   0.724
 4707SOL    HW115020   2.835   4.392   0.783
 4707SOL    HW215021   2.743   4.258   0.762
 4708SOL     OW15022   2.351   2.815   2.479
 4708SOL    HW115023   2.364   2.904   2.435
 4708SOL    HW215024   2.256   2.787   2.469
 4709SOL     OW15025   2.828   3.876   0.305
 4709SOL    HW115026   2.866   3.883   0.213
 4709SOL    HW215027   2.888   3.922   0.370
 4710SOL     OW15028   4.639   2.341   1.124
 4710SOL    HW115029   4.602   2.400   1.052
 4710SOL    HW215030   4.662   2.397   1.204
 4711SOL     OW15031   2.529   0.301   3.561
 4711SOL    HW115032   2.458   0.259   3.504
 4711SOL    HW215033   2.610   0.318   3.506
 4712SOL     OW15034   1.314   3.320   6.826
 4712SOL    HW115035   1.261   3.404   6.825
 4712SOL    HW215036   1.367   3.313   6.741
 4713SOL     OW15037   0.658   6.006   1.033
 4713SOL    HW115038   0.570   6.021   0.990
 4713SOL    HW215039   0.731   6.020   0.967
 4714SOL     OW15040   4.373   2.153   1.076
 4714SOL    HW115041   4.291   2.194   1.117
 4714SOL    HW215042   4.453   2.208   1.099
 4715SOL     OW15043   5.102   3.577   4.895
 4715SOL    HW115044   5.200   3.565   4.882
 4715SOL    HW215045   5.077   3.672   4.872
 4716SOL     OW15046   2.022   5.255   6.517
 4716SOL    HW115047   1.928   5.227   6.497
 4716SOL    HW215048   2.062   5.192   6.585
 4717SOL     OW15049   1.940   4.689   4.812
 4717SOL    HW115050   1.958   4.786   4.829
 4717SOL    HW215051   1.843   4.676   4.790
 4718SOL     OW15052   4.818   6.793   6.910
 4718SOL    HW115053   4.874   6.811   6.991
 4718SOL    HW215054   4.862   6.725   6.853
 4719SOL     OW15055   4.767   3.181   1.083
 4719SOL    HW115056   4.796   3.276   1.097
 4719SOL    HW215057   4.679   3.167   1.128
 4720SOL     OW15058   2.066   1.887   3.743
 4720SOL    HW115059   1.996   1.912   3.810
 4720SOL    HW215060   2.023   1.838   3.667
 4721SOL     OW15061   2.021   1.507   1.741
 4721SOL    HW115062   2.086   1.546   1.805
 4721SOL    HW215063   2.069   1.448   1.676
 4722SOL     OW15064   2.342   1.158   2.581
 4722SOL    HW115065   2.402   1.096   2.631
 4722SOL    HW215066   2.321   1.237   2.638
 4723SOL     OW15067   3.348   0.573   5.202
 4723SOL    HW115068   3.431   0.518   5.203
 4723SOL    HW215069   3.270   0.516   5.228
 4724SOL     OW15070   4.265   5.786   1.179
 4724SOL    HW115071   4.299   5.775   1.086
 4724SOL    HW215072   4.175   5.743   1.187
 4725SOL     OW15073   5.960   4.924   2.608
 4725SOL    HW115074   5.940   4.851   2.674
 4725SOL    HW215075   5.940   4.892   2.515
 4726SOL     OW15076   6.213   0.018   4.209
 4726SOL    HW115077   6.263   0.033   4.124
 4726SOL    HW215078   6.116   0.005   4.189
 4727SOL     OW15079   4.651   6.665   1.703
 4727SOL    HW115080   4.640   6.571   1.671
 4727SOL    HW215081   4.732   6.672   1.762
 4728SOL     OW15082   6.655   6.106   6.610
 4728SOL    HW115083   6.754   6.098   6.603
 4728SOL    HW215084   6.614   6.015   6.611
 4729SOL     OW15085   3.514   0.565   1.198
 4729SOL    HW115086   3.545   0.605   1.285
 4729SOL    HW215087   3.416   0.547   1.203
 4730SOL     OW15088   1.303   0.528   6.604
 4730SOL    HW115089   1.370   0.482   6.661
 4730SOL    HW215090   1.349   0.590   6.541
 4731SOL     OW15091   4.947   1.409   5.753
 4731SOL    HW115092   4.926   1.491   5.808
 4731SOL    HW215093   4.876   1.341   5.768
 4732SOL     OW15094   0.563   6.899   6.342
 4732SOL    HW115095   0.518   6.821   6.299
 4732SOL    HW215096   0.557   6.890   6.442
 4733SOL     OW15097   5.530   3.884   3.097
 4733SOL    HW115098   5.555   3.808   3.157
 4733SOL    HW215099   5.540   3.970   3.146
 4734SOL     OW15100   6.565   3.491   6.100
 4734SOL    HW115101   6.555   3.565   6.166
 4734SOL    HW215102   6.477   3.474   6.055
 4735SOL     OW15103   0.429   4.119   3.726
 4735SOL    HW115104   0.492   4.173   3.782
 4735SOL    HW215105   0.378   4.056   3.786
 4736SOL     OW15106   1.259   0.153   2.316
 4736SOL    HW115107   1.297   0.075   2.266
 4736SOL    HW215108   1.271   0.236   2.262
 4737SOL     OW15109   3.148   5.281   2.517
 4737SOL    HW115110   3.126   5.226   2.597
 4737SOL    HW215111   3.172   5.374   2.545
 4738SOL     OW15112   1.056   0.311   3.358
 4738SOL    HW115113   1.128   0.342   3.420
 4738SOL    HW215114   1.059   0.365   3.274
 4739SOL     OW15115   3.518   6.697   1.766
 4739SOL    HW115116   3.450   6.630   1.736
 4739SOL    HW215117   3.584   6.713   1.693
 4740SOL     OW15118   0.924   1.962   4.859
 4740SOL    HW115119   0.948   1.876   4.814
 4740SOL    HW215120   1.001   1.993   4.915
 4741SOL     OW15121   3.897   3.836   3.907
 4741SOL    HW115122   3.909   3.835   4.006
 4741SOL    HW215123   3.974   3.790   3.863
 4742SOL     OW15124   4.277   0.791   3.126
 4742SOL    HW115125   4.222   0.873   3.135
 4742SOL    HW215126   4.368   0.815   3.093
 4743SOL     OW15127   0.509   5.145   1.054
 4743SOL    HW115128   0.414   5.172   1.038
 4743SOL    HW215129   0.566   5.182   0.981
 4744SOL     OW15130   1.270   4.939   1.518
 4744SOL    HW115131   1.230   4.901   1.434
 4744SOL    HW215132   1.323   5.021   1.496
 4745SOL     OW15133   1.983   3.040   0.221
 4745SOL    HW115134   1.993   2.994   0.310
 4745SOL    HW215135   1.900   3.096   0.222
 4746SOL     OW15136   5.985   6.079   4.253
 4746SOL    HW115137   6.029   6.014   4.315
 4746SOL    HW215138   5.970   6.036   4.164
 4747SOL     OW15139   4.094   0.850   1.039
 4747SOL    HW115140   4.013   0.907   1.027
 4747SOL    HW215141   4.068   0.753   1.037
 4748SOL     OW15142   2.033   0.240   3.895
 4748SOL    HW115143   1.999   0.153   3.860
 4748SOL    HW215144   2.059   0.299   3.819
 4749SOL     OW15145   2.638   1.331   1.526
 4749SOL    HW115146   2.565   1.263   1.533
 4749SOL    HW215147   2.697   1.324   1.606
 4750SOL     OW15148   5.692   2.992   6.076
 4750SOL    HW115149   5.774   3.048   6.063
 4750SOL    HW215150   5.613   3.052   6.088
 4751SOL     OW15151   3.793   1.569   2.667
 4751SOL    HW115152   3.737   1.492   2.698
 4751SOL    HW215153   3.845   1.605   2.744
 4752SOL     OW15154   6.069   6.921   0.067
 4752SOL    HW115155   6.088   6.848   0.132
 4752SOL    HW215156   5.974   6.914   0.036
 4753SOL     OW15157   3.290   5.756   5.149
 4753SOL    HW115158   3.389   5.764   5.158
 4753SOL    HW215159   3.245   5.820   5.211
 4754SOL     OW15160   5.760   4.857   0.539
 4754SOL    HW115161   5.707   4.774   0.518
 4754SOL    HW215162   5.837   4.864   0.475
 4755SOL     OW15163   6.992   1.018   2.255
 4755SOL    HW115164   6.975   0.922   2.235
 4755SOL    HW215165   6.993   1.070   2.170
 4756SOL     OW15166   0.086   3.822   4.740
 4756SOL    HW115167   0.179   3.817   4.775
 4756SOL    HW215168   0.088   3.838   4.642
 4757SOL     OW15169   2.135   3.441   1.419
 4757SOL    HW115170   2.156   3.346   1.394
 4757SOL    HW215171   2.209   3.477   1.476
 4758SOL     OW15172   1.937   5.286   1.931
 4758SOL    HW115173   1.961   5.237   1.847
 4758SOL    HW215174   1.850   5.253   1.966
 4759SOL     OW15175   0.449   6.693   2.920
 4759SOL    HW115176   0.508   6.675   2.841
 4759SOL    HW215177   0.506   6.713   3.000
 4760SOL     OW15178   1.061   0.574   2.237
 4760SOL    HW115179   1.022   0.577   2.145
 4760SOL    HW215180   0.991   0.548   2.303
 4761SOL     OW15181   4.365   6.420   2.296
 4761SOL    HW115182   4.355   6.388   2.390
 4761SOL    HW215183   4.459   6.406   2.266
 4762SOL     OW15184   1.186   0.869   2.332
 4762SOL    HW115185   1.249   0.828   2.398
 4762SOL    HW215186   1.147   0.798   2.274
 4763SOL     OW15187   5.053   4.411   1.710
 4763SOL    HW115188   5.092   4.395   1.619
 4763SOL    HW215189   5.113   4.371   1.779
 4764SOL     OW15190   4.652   2.888   6.788
 4764SOL    HW115191   4.735   2.875   6.843
 4764SOL    HW215192   4.675   2.880   6.691
 4765SOL     OW15193   3.490   1.694   5.428
 4765SOL    HW115194   3.437   1.686   5.512
 4765SOL    HW215195   3.583   1.661   5.443
 4766SOL     OW15196   1.016   0.995   3.522
 4766SOL    HW115197   1.107   1.029   3.545
 4766SOL    HW215198   0.999   0.909   3.571
 4767SOL     OW15199   2.609   4.680   2.749
 4767SOL    HW115200   2.659   4.741   2.687
 4767SOL    HW215201   2.528   4.645   2.703
 4768SOL     OW15202   4.574   2.623   6.321
 4768SOL    HW115203   4.656   2.627   6.379
 4768SOL    HW215204   4.496   2.594   6.376
 4769SOL     OW15205   3.186   2.963   0.505
 4769SOL    HW115206   3.090   2.949   0.530
 4769SOL    HW215207   3.207   3.060   0.513
 4770SOL     OW15208   6.970   1.870   3.907
 4770SOL    HW115209   6.872   1.875   3.886
 4770SOL    HW215210   6.982   1.846   4.003
 4771SOL     OW15211   3.106   0.799   4.095
 4771SOL    HW115212   3.126   0.794   3.997
 4771SOL    HW215213   3.008   0.809   4.108
 4772SOL     OW15214   2.788   5.283   2.450
 4772SOL    HW115215   2.834   5.371   2.465
 4772SOL    HW215216   2.691   5.298   2.432
 4773SOL     OW15217   3.237   5.511   4.061
 4773SOL    HW115218   3.293   5.514   4.144
 4773SOL    HW215219   3.199   5.602   4.044
 4774SOL     OW15220   0.794   4.335   0.249
 4774SOL    HW115221   0.865   4.391   0.291
 4774SOL    HW215222   0.820   4.311   0.156
 4775SOL     OW15223   5.419   5.123   4.157
 4775SOL    HW115224   5.448   5.033   4.127
 4775SOL    HW215225   5.456   5.142   4.248
 4776SOL     OW15226   0.091   1.899   5.250
 4776SOL    HW115227   0.002   1.854   5.240
 4776SOL    HW215228   0.103   1.928   5.345
 4777SOL     OW15229   0.871   6.520   3.409
 4777SOL    HW115230   0.872   6.456   3.486
 4777SOL    HW215231   0.856   6.613   3.443
 4778SOL     OW15232   1.634   0.270   0.865
 4778SOL    HW115233   1.534   0.264   0.860
 4778SOL    HW215234   1.661   0.353   0.912
 4779SOL     OW15235   4.949   1.628   4.638
 4779SOL    HW115236   4.934   1.529   4.641
 4779SOL    HW215237   4.959   1.658   4.543
 4780SOL     OW15238   5.116   2.799   4.543
 4780SOL    HW115239   5.066   2.753   4.617
 4780SOL    HW215240   5.210   2.766   4.542
 4781SOL     OW15241   3.154   5.250   1.684
 4781SOL    HW115242   3.090   5.312   1.638
 4781SOL    HW215243   3.118   5.157   1.679
 4782SOL     OW15244   1.122   0.326   2.915
 4782SOL    HW115245   1.207   0.372   2.940
 4782SOL    HW215246   1.123   0.305   2.817
 4783SOL     OW15247   1.013   4.181   6.686
 4783SOL    HW115248   0.914   4.199   6.691
 4783SOL    HW215249   1.028   4.083   6.677
 4784SOL     OW15250   6.042   2.832   6.945
 4784SOL    HW115251   6.121   2.771   6.952
 4784SOL    HW215252   6.036   2.868   6.852
 4785SOL     OW15253   0.454   1.308   4.261
 4785SOL    HW115254   0.388   1.361   4.314
 4785SOL    HW215255   0.458   1.214   4.295
 4786SOL     OW15256   1.783   6.345   0.329
 4786SOL    HW115257   1.783   6.360   0.231
 4786SOL    HW215258   1.741   6.256   0.349
 4787SOL     OW15259   4.419   1.463   5.386
 4787SOL    HW115260   4.479   1.503   5.317
 4787SOL    HW215261   4.326   1.457   5.351
 4788SOL     OW15262   0.047   5.792   0.777
 4788SOL    HW115263   0.051   5.864   0.846
 4788SOL    HW215264   6.975   5.752   0.776
 4789SOL     OW15265   5.883   1.347   2.026
 4789SOL    HW115266   5.892   1.404   2.108
 4789SOL    HW215267   5.943   1.383   1.955
 4790SOL     OW15268   0.652   2.659   6.501
 4790SOL    HW115269   0.610   2.569   6.517
 4790SOL    HW215270   0.650   2.680   6.404
 4791SOL     OW15271   1.091   0.773   6.482
 4791SOL    HW115272   1.159   0.810   6.419
 4791SOL    HW215273   0.999   0.796   6.449
 4792SOL     OW15274   0.660   4.013   1.784
 4792SOL    HW115275   0.587   4.081   1.793
 4792SOL    HW215276   0.703   4.023   1.694
 4793SOL     OW15277   1.267   3.024   4.993
 4793SOL    HW115278   1.328   3.051   5.068
 4793SOL    HW215279   1.174   3.053   5.014
 4794SOL     OW15280   5.912   1.393   6.242
 4794SOL    HW115281   5.884   1.484   6.212
 4794SOL    HW215282   5.968   1.402   6.325
 4795SOL     OW15283   6.896   6.468   6.923
 4795SOL    HW115284   6.852   6.517   6.848
 4795SOL    HW215285   6.994   6.488   6.922
 4796SOL     OW15286   5.940   1.855   5.695
 4796SOL    HW115287   5.870   1.926   5.695
 4796SOL    HW215288   5.967   1.834   5.790
 4797SOL     OW15289   2.790   5.221   5.237
 4797SOL    HW115290   2.750   5.261   5.319
 4797SOL    HW215291   2.849   5.144   5.263
 4798SOL     OW15292   3.423   6.145   7.011
 4798SOL    HW115293   3.364   6.172   0.068
 4798SOL    HW215294   3.512   6.117   0.027
 4799SOL     OW15295   4.167   3.782   1.015
 4799SOL    HW115296   4.136   3.722   0.942
 4799SOL    HW215297   4.256   3.821   0.991
 4800SOL     OW15298   0.979   4.596   0.015
 4800SOL    HW115299   0.960   4.695   0.019
 4800SOL    HW215300   0.898   4.548   7.003
 4801SOL     OW15301   4.942   3.424   3.488
 4801SOL    HW115302   4.928   3.493   3.559
 4801SOL    HW215303   5.039   3.425   3.460
 4802SOL     OW15304   6.897   0.601   4.880
 4802SOL    HW115305   6.928   0.517   4.836
 4802SOL    HW215306   6.803   0.620   4.853
 4803SOL     OW15307   5.232   3.583   5.838
 4803SOL    HW115308   5.156   3.577   5.774
 4803SOL    HW215309   5.295   3.507   5.823
 4804SOL     OW15310   5.441   3.157   0.833
 4804SOL    HW115311   5.501   3.100   0.777
 4804SOL    HW215312   5.349   3.117   0.836
 4805SOL     OW15313   5.768   0.444   5.437
 4805SOL    HW115314   5.706   0.416   5.364
 4805SOL    HW215315   5.716   0.455   5.522
 4806SOL     OW15316   1.692   2.997   3.289
 4806SOL    HW115317   1.690   2.945   3.204
 4806SOL    HW215318   1.761   3.069   3.282
 4807SOL     OW15319   1.093   3.657   0.821
 4807SOL    HW115320   1.002   3.620   0.802
 4807SOL    HW215321   1.158   3.582   0.831
 4808SOL     OW15322   2.715   6.429   3.466
 4808SOL    HW115323   2.719   6.445   3.368
 4808SOL    HW215324   2.800   6.463   3.508
 4809SOL     OW15325   2.833   3.778   0.812
 4809SOL    HW115326   2.924   3.743   0.837
 4809SOL    HW215327   2.769   3.701   0.806
 4810SOL     OW15328   1.554   5.612   4.642
 4810SOL    HW115329   1.506   5.525   4.637
 4810SOL    HW215330   1.552   5.646   4.736
 4811SOL     OW15331   3.020   3.261   5.065
 4811SOL    HW115332   3.054   3.337   5.121
 4811SOL    HW215333   3.007   3.180   5.122
 4812SOL     OW15334   2.046   6.391   0.919
 4812SOL    HW115335   1.986   6.436   0.853
 4812SOL    HW215336   2.141   6.410   0.895
 4813SOL     OW15337   0.654   2.445   4.943
 4813SOL    HW115338   0.702   2.479   4.863
 4813SOL    HW215339   0.572   2.499   4.959
 4814SOL     OW15340   4.881   1.395   0.339
 4814SOL    HW115341   4.849   1.423   0.248
 4814SOL    HW215342   4.977   1.422   0.349
 4815SOL     OW15343   6.690   4.073   3.252
 4815SOL    HW115344   6.772   4.130   3.252
 4815SOL    HW215345   6.679   4.030   3.341
 4816SOL     OW15346   2.151   0.353   2.874
 4816SOL    HW115347   2.242   0.329   2.908
 4816SOL    HW215348   2.113   0.276   2.824
 4817SOL     OW15349   4.491   3.103   6.813
 4817SOL    HW115350   4.554   3.026   6.813
 4817SOL    HW215351   4.403   3.074   6.777
 4818SOL     OW15352   4.467   6.090   5.702
 4818SOL    HW115353   4.563   6.089   5.731
 4818SOL    HW215354   4.441   6.184   5.679
 4819SOL     OW15355   3.682   0.081   0.734
 4819SOL    HW115356   3.656   0.010   0.668
 4819SOL    HW215357   3.771   0.058   0.774
 4820SOL     OW15358   0.375   5.488   1.521
 4820SOL    HW115359   0.459   5.437   1.501
 4820SOL    HW215360   0.341   5.462   1.611
 4821SOL     OW15361   6.890   5.849   1.337
 4821SOL    HW115362   6.799   5.849   1.380
 4821SOL    HW215363   6.935   5.936   1.353
 4822SOL     OW15364   0.508   3.548   2.222
 4822SOL    HW115365   0.496   3.449   2.234
 4822SOL    HW215366   0.489   3.572   2.126
 4823SOL     OW15367   6.619   1.702   2.675
 4823SOL    HW115368   6.672   1.785   2.658
 4823SOL    HW215369   6.551   1.691   2.603
 4824SOL     OW15370   4.680   1.190   2.988
 4824SOL    HW115371   4.654   1.287   2.992
 4824SOL    HW215372   4.641   1.149   2.905
 4825SOL     OW15373   2.354   4.297   4.407
 4825SOL    HW115374   2.388   4.295   4.501
 4825SOL    HW215375   2.417   4.350   4.350
 4826SOL     OW15376   0.752   5.871   6.747
 4826SOL    HW115377   0.691   5.939   6.787
 4826SOL    HW215378   0.813   5.834   6.817
 4827SOL     OW15379   5.146   0.458   6.847
 4827SOL    HW115380   5.202   0.376   6.843
 4827SOL    HW215381   5.162   0.514   6.766
 4828SOL     OW15382   6.788   2.480   6.824
 4828SOL    HW115383   6.882   2.448   6.818
 4828SOL    HW215384   6.727   2.403   6.841
 4829SOL     OW15385   2.416   1.064   5.533
 4829SOL    HW115386   2.418   1.041   5.435
 4829SOL    HW215387   2.355   1.002   5.581
 4830SOL     OW15388   5.844   4.760   5.061
 4830SOL    HW115389   5.881   4.841   5.107
 4830SOL    HW215390   5.913   4.722   5.000
 4831SOL     OW15391   7.006   1.772   6.935
 4831SOL    HW115392   6.926   1.797   6.882
 4831SOL    HW215393   0.068   1.776   6.878
 4832SOL     OW15394   2.018   2.500   6.266
 4832SOL    HW115395   1.987   2.416   6.219
 4832SOL    HW215396   1.951   2.525   6.335
 4833SOL     OW15397   6.497   2.386   2.176
 4833SOL    HW115398   6.452   2.434   2.100
 4833SOL    HW215399   6.592   2.366   2.151
 4834SOL     OW15400   5.917   0.434   3.121
 4834SOL    HW115401   5.833   0.379   3.121
 4834SOL    HW215402   5.990   0.383   3.076
 4835SOL     OW15403   2.287   2.351   5.642
 4835SOL    HW115404   2.192   2.376   5.627
 4835SOL    HW215405   2.347   2.409   5.587
 4836SOL     OW15406   5.953   4.748   3.449
 4836SOL    HW115407   5.961   4.759   3.548
 4836SOL    HW215408   5.874   4.692   3.428
 4837SOL     OW15409   6.994   5.228   1.868
 4837SOL    HW115410   0.023   5.276   1.795
 4837SOL    HW215411   6.970   5.293   1.940
 4838SOL     OW15412   3.126   6.747   2.775
 4838SOL    HW115413   3.176   6.795   2.703
 4838SOL    HW215414   3.124   6.649   2.756
 4839SOL     OW15415   0.565   0.160   6.236
 4839SOL    HW115416   0.545   0.107   6.319
 4839SOL    HW215417   0.663   0.161   6.220
 4840SOL     OW15418   6.561   5.315   5.858
 4840SOL    HW115419   6.637   5.333   5.921
 4840SOL    HW215420   6.596   5.310   5.764
 4841SOL     OW15421   1.199   5.295   1.961
 4841SOL    HW115422   1.115   5.325   1.916
 4841SOL    HW215423   1.248   5.232   1.900
 4842SOL     OW15424   3.578   6.884   0.584
 4842SOL    HW115425   3.491   6.908   0.627
 4842SOL    HW215426   3.563   6.866   0.486
 4843SOL     OW15427   2.171   3.918   0.640
 4843SOL    HW115428   2.086   3.903   0.691
 4843SOL    HW215429   2.246   3.872   0.687
 4844SOL     OW15430   0.099   1.349   5.326
 4844SOL    HW115431   0.117   1.361   5.228
 4844SOL    HW215432   0.139   1.262   5.357
 4845SOL     OW15433   5.792   6.656   3.601
 4845SOL    HW115434   5.891   6.651   3.615
 4845SOL    HW215435   5.759   6.572   3.558
 4846SOL     OW15436   0.413   4.284   5.116
 4846SOL    HW115437   0.354   4.203   5.117
 4846SOL    HW215438   0.467   4.286   5.200
 4847SOL     OW15439   5.334   3.474   4.021
 4847SOL    HW115440   5.303   3.383   4.046
 4847SOL    HW215441   5.421   3.493   4.067
 4848SOL     OW15442   3.155   3.535   1.078
 4848SOL    HW115443   3.070   3.522   1.128
 4848SOL    HW215444   3.232   3.535   1.142
 4849SOL     OW15445   2.516   6.466   6.683
 4849SOL    HW115446   2.509   6.566   6.687
 4849SOL    HW215447   2.559   6.432   6.767
 4850SOL     OW15448   3.713   6.840   3.047
 4850SOL    HW115449   3.641   6.827   3.116
 4850SOL    HW215450   3.672   6.875   2.963
 4851SOL     OW15451   5.136   1.845   5.452
 4851SOL    HW115452   5.063   1.913   5.458
 4851SOL    HW215453   5.125   1.778   5.526
 4852SOL     OW15454   1.094   2.353   1.475
 4852SOL    HW115455   1.178   2.325   1.428
 4852SOL    HW215456   1.114   2.372   1.571
 4853SOL     OW15457   3.237   0.666   0.688
 4853SOL    HW115458   3.194   0.756   0.679
 4853SOL    HW215459   3.215   0.626   0.777
 4854SOL     OW15460   4.444   0.090   5.514
 4854SOL    HW115461   4.381   0.168   5.520
 4854SOL    HW215462   4.391   0.005   5.518
 4855SOL     OW15463   0.235   2.643   2.557
 4855SOL    HW115464   0.152   2.643   2.501
 4855SOL    HW215465   0.211   2.622   2.652
 4856SOL     OW15466   6.971   5.035   3.270
 4856SOL    HW115467   6.928   5.118   3.234
 4856SOL    HW215468   6.911   4.957   3.253
 4857SOL     OW15469   6.596   1.271   6.020
 4857SOL    HW115470   6.591   1.291   5.922
 4857SOL    HW215471   6.596   1.172   6.034
 4858SOL     OW15472   1.385   6.995   3.007
 4858SOL    HW115473   1.439   0.043   2.956
 4858SOL    HW215474   1.442   6.916   3.028
 4859SOL     OW15475   3.521   6.694   5.726
 4859SOL    HW115476   3.453   6.627   5.694
 4859SOL    HW215477   3.473   6.776   5.759
 4860SOL     OW15478   2.839   5.295   0.064
 4860SOL    HW115479   2.834   5.208   0.016
 4860SOL    HW215480   2.916   5.349   0.028
 4861SOL     OW15481   4.261   4.075   5.947
 4861SOL    HW115482   4.235   4.044   6.038
 4861SOL    HW215483   4.186   4.058   5.883
 4862SOL     OW15484   2.101   0.477   0.593
 4862SOL    HW115485   2.029   0.528   0.548
 4862SOL    HW215486   2.072   0.382   0.604
 4863SOL     OW15487   4.798   3.431   5.740
 4863SOL    HW115488   4.883   3.477   5.713
 4863SOL    HW215489   4.818   3.336   5.764
 4864SOL     OW15490   3.283   1.484   4.160
 4864SOL    HW115491   3.223   1.477   4.239
 4864SOL    HW215492   3.378   1.477   4.190
 4865SOL     OW15493   1.252   5.751   5.148
 4865SOL    HW115494   1.324   5.755   5.217
 4865SOL    HW215495   1.250   5.660   5.108
 4866SOL     OW15496   0.166   4.162   5.468
 4866SOL    HW115497   0.182   4.077   5.518
 4866SOL    HW215498   0.081   4.204   5.499
 4867SOL     OW15499   3.732   1.459   3.375
 4867SOL    HW115500   3.824   1.489   3.401
 4867SOL    HW215501   3.703   1.508   3.292
 4868SOL     OW15502   0.261   5.838   1.569
 4868SOL    HW115503   0.276   5.937   1.564
 4868SOL    HW215504   0.275   5.797   1.479
 4869SOL     OW15505   0.043   0.741   0.808
 4869SOL    HW115506   0.080   0.834   0.805
 4869SOL    HW215507   6.992   0.731   0.737
 4870SOL     OW15508   1.737   0.693   0.882
 4870SOL    HW115509   1.714   0.638   0.962
 4870SOL    HW215510   1.835   0.689   0.866
 4871SOL     OW15511   0.816   2.039   3.958
 4871SOL    HW115512   0.802   1.952   4.004
 4871SOL    HW215513   0.875   2.026   3.878
 4872SOL     OW15514   5.328   0.434   3.226
 4872SOL    HW115515   5.318   0.477   3.136
 4872SOL    HW215516   5.420   0.397   3.234
 4873SOL     OW15517   6.541   6.664   3.679
 4873SOL    HW115518   6.593   6.748   3.695
 4873SOL    HW215519   6.578   6.591   3.737
 4874SOL     OW15520   5.807   4.431   2.492
 4874SOL    HW115521   5.872   4.489   2.443
 4874SOL    HW215522   5.767   4.365   2.428
 4875SOL     OW15523   6.763   6.869   4.539
 4875SOL    HW115524   6.735   6.953   4.586
 4875SOL    HW215525   6.787   6.800   4.607
 4876SOL     OW15526   5.917   1.520   2.266
 4876SOL    HW115527   5.967   1.600   2.300
 4876SOL    HW215528   5.863   1.481   2.341
 4877SOL     OW15529   0.649   1.445   0.396
 4877SOL    HW115530   0.686   1.504   0.467
 4877SOL    HW215531   0.557   1.476   0.371
 4878SOL     OW15532   6.341   4.389   4.183
 4878SOL    HW115533   6.326   4.290   4.178
 4878SOL    HW215534   6.266   4.436   4.137
 4879SOL     OW15535   5.750   1.017   2.683
 4879SOL    HW115536   5.725   0.965   2.764
 4879SOL    HW215537   5.787   1.106   2.710
 4880SOL     OW15538   0.262   3.367   6.592
 4880SOL    HW115539   0.181   3.315   6.617
 4880SOL    HW215540   0.301   3.409   6.674
 4881SOL     OW15541   6.784   3.791   2.277
 4881SOL    HW115542   6.850   3.805   2.203
 4881SOL    HW215543   6.772   3.693   2.292
 4882SOL     OW15544   5.049   2.158   4.030
 4882SOL    HW115545   5.017   2.087   4.093
 4882SOL    HW215546   5.109   2.222   4.079
 4883SOL     OW15547   0.052   4.039   6.390
 4883SOL    HW115548   0.076   3.991   6.475
 4883SOL    HW215549   0.112   4.007   6.316
 4884SOL     OW15550   1.816   2.458   1.462
 4884SOL    HW115551   1.822   2.467   1.362
 4884SOL    HW215552   1.902   2.421   1.497
 4885SOL     OW15553   1.014   6.154   6.550
 4885SOL    HW115554   1.054   6.148   6.459
 4885SOL    HW215555   1.087   6.149   6.619
 4886SOL     OW15556   3.437   0.761   1.925
 4886SOL    HW115557   3.359   0.809   1.885
 4886SOL    HW215558   3.521   0.792   1.881
 4887SOL     OW15559   4.893   5.369   0.470
 4887SOL    HW115560   4.882   5.305   0.394
 4887SOL    HW215561   4.884   5.320   0.556
 4888SOL     OW15562   3.943   6.715   2.696
 4888SOL    HW115563   3.962   6.709   2.794
 4888SOL    HW215564   3.861   6.770   2.681
 4889SOL     OW15565   5.151   3.231   3.684
 4889SOL    HW115566   5.197   3.243   3.596
 4889SOL    HW215567   5.209   3.179   3.746
 4890SOL     OW15568   6.395   2.323   4.744
 4890SOL    HW115569   6.488   2.357   4.731
 4890SOL    HW215570   6.332   2.400   4.746
 4891SOL     OW15571   3.179   5.537   0.314
 4891SOL    HW115572   3.215   5.501   0.400
 4891SOL    HW215573   3.103   5.599   0.333
 4892SOL     OW15574   5.244   4.890   1.868
 4892SOL    HW115575   5.206   4.931   1.950
 4892SOL    HW215576   5.187   4.813   1.839
 4893SOL     OW15577   2.692   2.880   0.999
 4893SOL    HW115578   2.654   2.948   1.062
 4893SOL    HW215579   2.791   2.878   1.007
 4894SOL     OW15580   4.852   5.941   0.129
 4894SOL    HW115581   4.782   5.870   0.131
 4894SOL    HW215582   4.933   5.907   0.081
 4895SOL     OW15583   6.400   3.555   5.347
 4895SOL    HW115584   6.500   3.554   5.349
 4895SOL    HW215585   6.368   3.547   5.253
 4896SOL     OW15586   2.377   4.784   5.203
 4896SOL    HW115587   2.451   4.717   5.194
 4896SOL    HW215588   2.323   4.763   5.285
 4897SOL     OW15589   2.911   1.842   5.859
 4897SOL    HW115590   2.943   1.781   5.787
 4897SOL    HW215591   2.903   1.935   5.823
 4898SOL     OW15592   4.822   2.452   3.368
 4898SOL    HW115593   4.811   2.551   3.376
 4898SOL    HW215594   4.872   2.430   3.284
 4899SOL     OW15595   6.271   5.581   1.014
 4899SOL    HW115596   6.237   5.547   1.101
 4899SOL    HW215597   6.294   5.504   0.955
 4900SOL     OW15598   3.348   5.383   5.806
 4900SOL    HW115599   3.312   5.365   5.714
 4900SOL    HW215600   3.448   5.387   5.802
 4901SOL     OW15601   2.318   0.469   6.636
 4901SOL    HW115602   2.348   0.413   6.558
 4901SOL    HW215603   2.228   0.508   6.616
 4902SOL     OW15604   2.116   6.869   5.578
 4902SOL    HW115605   2.159   6.916   5.501
 4902SOL    HW215606   2.161   6.898   5.663
 4903SOL     OW15607   5.169   3.652   2.927
 4903SOL    HW115608   5.146   3.565   2.971
 4903SOL    HW215609   5.096   3.677   2.863
 4904SOL     OW15610   2.451   0.663   2.142
 4904SOL    HW115611   2.488   0.756   2.147
 4904SOL    HW215612   2.510   0.607   2.083
 4905SOL     OW15613   2.406   1.443   1.627
 4905SOL    HW115614   2.399   1.525   1.684
 4905SOL    HW215615   2.499   1.434   1.591
 4906SOL     OW15616   5.777   3.550   5.029
 4906SOL    HW115617   5.715   3.528   5.105
 4906SOL    HW215618   5.725   3.553   4.944
 4907SOL     OW15619   4.589   1.879   0.522
 4907SOL    HW115620   4.647   1.829   0.586
 4907SOL    HW215621   4.544   1.814   0.460
 4908SOL     OW15622   2.468   6.755   6.889
 4908SOL    HW115623   2.371   6.762   6.865
 4908SOL    HW215624   2.483   6.796   6.979
 4909SOL     OW15625   5.006   6.510   4.835
 4909SOL    HW115626   5.001   6.603   4.799
 4909SOL    HW215627   4.951   6.449   4.779
 4910SOL     OW15628   4.391   2.364   6.343
 4910SOL    HW115629   4.342   2.279   6.325
 4910SOL    HW215630   4.487   2.343   6.363
 4911SOL     OW15631   6.320   4.691   3.966
 4911SOL    HW115632   6.367   4.641   3.893
 4911SOL    HW215633   6.384   4.755   4.009
 4912SOL     OW15634   5.952   3.630   4.662
 4912SOL    HW115635   5.898   3.553   4.696
 4912SOL    HW215636   6.024   3.652   4.727
 4913SOL     OW15637   1.594   4.044   5.918
 4913SOL    HW115638   1.662   4.106   5.880
 4913SOL    HW215639   1.559   3.984   5.846
 4914SOL     OW15640   2.694   6.775   4.030
 4914SOL    HW115641   2.683   6.794   4.127
 4914SOL    HW215642   2.689   6.676   4.015
 4915SOL     OW15643   4.665   6.925   4.890
 4915SOL    HW115644   4.646   6.992   4.818
 4915SOL    HW215645   4.703   6.972   4.970
 4916SOL     OW15646   6.121   3.020   3.674
 4916SOL    HW115647   6.221   3.022   3.672
 4916SOL    HW215648   6.086   3.075   3.598
 4917SOL     OW15649   4.994   6.168   0.028
 4917SOL    HW115650   5.077   6.113   0.032
 4917SOL    HW215651   4.921   6.123   0.080
 4918SOL     OW15652   4.722   6.221   4.253
 4918SOL    HW115653   4.734   6.251   4.159
 4918SOL    HW215654   4.694   6.125   4.255
 4919SOL     OW15655   4.825   4.142   1.721
 4919SOL    HW115656   4.829   4.215   1.653
 4919SOL    HW215657   4.730   4.113   1.734
 4920SOL     OW15658   6.190   0.888   5.514
 4920SOL    HW115659   6.215   0.930   5.601
 4920SOL    HW215660   6.092   0.868   5.513
 4921SOL     OW15661   6.353   0.349   2.525
 4921SOL    HW115662   6.323   0.387   2.613
 4921SOL    HW215663   6.424   0.408   2.486
 4922SOL     OW15664   3.959   0.127   6.134
 4922SOL    HW115665   3.918   0.080   6.212
 4922SOL    HW215666   3.987   0.059   6.066
 4923SOL     OW15667   3.915   1.284   2.349
 4923SOL    HW115668   3.879   1.377   2.356
 4923SOL    HW215669   3.840   1.220   2.332
 4924SOL     OW15670   2.997   1.943   4.638
 4924SOL    HW115671   3.013   1.992   4.724
 4924SOL    HW215672   3.051   1.986   4.565
 4925SOL     OW15673   5.328   0.211   3.439
 4925SOL    HW115674   5.241   0.201   3.488
 4925SOL    HW215675   5.403   0.202   3.504
 4926SOL     OW15676   4.383   2.297   2.184
 4926SOL    HW115677   4.301   2.239   2.187
 4926SOL    HW215678   4.422   2.295   2.092
 4927SOL     OW15679   2.114   1.933   0.377
 4927SOL    HW115680   2.203   1.899   0.409
 4927SOL    HW215681   2.085   1.882   0.296
 4928SOL     OW15682   1.075   1.794   1.304
 4928SOL    HW115683   1.119   1.873   1.262
 4928SOL    HW215684   1.018   1.748   1.237
 4929SOL     OW15685   6.780   0.327   5.161
 4929SOL    HW115686   6.826   0.414   5.175
 4929SOL    HW215687   6.711   0.337   5.089
 4930SOL     OW15688   4.808   5.886   2.360
 4930SOL    HW115689   4.875   5.858   2.290
 4930SOL    HW215690   4.777   5.805   2.410
 4931SOL     OW15691   4.209   0.506   1.348
 4931SOL    HW115692   4.297   0.526   1.307
 4931SOL    HW215693   4.208   0.411   1.381
 4932SOL     OW15694   3.623   4.186   3.640
 4932SOL    HW115695   3.552   4.240   3.594
 4932SOL    HW215696   3.618   4.091   3.607
 4933SOL     OW15697   1.872   0.936   5.029
 4933SOL    HW115698   1.796   0.899   4.975
 4933SOL    HW215699   1.836   0.994   5.102
 4934SOL     OW15700   2.069   0.116   2.777
 4934SOL    HW115701   2.162   0.084   2.794
 4934SOL    HW215702   2.024   0.055   2.712
 4935SOL     OW15703   6.348   0.025   4.778
 4935SOL    HW115704   6.328   0.052   4.872
 4935SOL    HW215705   6.407   6.964   4.778
 4936SOL     OW15706   4.743   2.612   0.441
 4936SOL    HW115707   4.822   2.613   0.503
 4936SOL    HW215708   4.698   2.701   0.442
 4937SOL     OW15709   3.702   2.718   5.205
 4937SOL    HW115710   3.788   2.670   5.224
 4937SOL    HW215711   3.626   2.664   5.241
 4938SOL     OW15712   2.740   4.916   6.484
 4938SOL    HW115713   2.679   4.954   6.415
 4938SOL    HW215714   2.698   4.834   6.524
 4939SOL     OW15715   5.224   3.179   6.440
 4939SOL    HW115716   5.200   3.275   6.450
 4939SOL    HW215717   5.306   3.159   6.494
 4940SOL     OW15718   1.060   5.987   3.301
 4940SOL    HW115719   1.017   5.897   3.307
 4940SOL    HW215720   1.091   6.004   3.208
 4941SOL     OW15721   6.647   0.251   0.064
 4941SOL    HW115722   6.586   0.322   0.099
 4941SOL    HW215723   6.718   0.292   0.007
 4942SOL     OW15724   5.514   2.781   5.918
 4942SOL    HW115725   5.460   2.813   5.996
 4942SOL    HW215726   5.472   2.700   5.879
 4943SOL     OW15727   6.596   3.328   1.405
 4943SOL    HW115728   6.507   3.312   1.362
 4943SOL    HW215729   6.591   3.304   1.502
 4944SOL     OW15730   1.858   3.520   2.161
 4944SOL    HW115731   1.845   3.422   2.175
 4944SOL    HW215732   1.796   3.551   2.089
 4945SOL     OW15733   6.602   5.978   3.852
 4945SOL    HW115734   6.516   6.025   3.834
 4945SOL    HW215735   6.593   5.881   3.830
 4946SOL     OW15736   6.508   4.526   2.768
 4946SOL    HW115737   6.453   4.607   2.750
 4946SOL    HW215738   6.449   4.453   2.804
 4947SOL     OW15739   5.432   0.147   0.366
 4947SOL    HW115740   5.486   0.213   0.418
 4947SOL    HW215741   5.359   0.109   0.423
 4948SOL     OW15742   2.716   1.160   2.143
 4948SOL    HW115743   2.795   1.203   2.100
 4948SOL    HW215744   2.661   1.229   2.190
 4949SOL     OW15745   5.711   2.605   5.687
 4949SOL    HW115746   5.721   2.637   5.781
 4949SOL    HW215747   5.621   2.563   5.675
 4950SOL     OW15748   3.653   5.322   4.109
 4950SOL    HW115749   3.746   5.312   4.072
 4950SOL    HW215750   3.634   5.246   4.171
 4951SOL     OW15751   4.582   2.532   3.863
 4951SOL    HW115752   4.627   2.503   3.947
 4951SOL    HW215753   4.521   2.459   3.831
 4952SOL     OW15754   6.393   5.385   4.363
 4952SOL    HW115755   6.322   5.366   4.295
 4952SOL    HW215756   6.445   5.302   4.380
 4953SOL     OW15757   0.740   5.308   1.873
 4953SOL    HW115758   0.722   5.266   1.962
 4953SOL    HW215759   0.826   5.359   1.877
 4954SOL     OW15760   0.233   6.863   5.874
 4954SOL    HW115761   0.295   6.849   5.796
 4954SOL    HW215762   0.187   6.777   5.895
 4955SOL     OW15763   1.263   0.322   1.921
 4955SOL    HW115764   1.166   0.336   1.935
 4955SOL    HW215765   1.277   0.245   1.858
 4956SOL     OW15766   6.002   5.580   2.789
 4956SOL    HW115767   5.919   5.618   2.748
 4956SOL    HW215768   6.055   5.653   2.831
 4957SOL     OW15769   1.477   5.334   4.591
 4957SOL    HW115770   1.514   5.303   4.679
 4957SOL    HW215771   1.479   5.259   4.525
 4958SOL     OW15772   6.911   6.233   0.238
 4958SOL    HW115773   6.935   6.291   0.316
 4958SOL    HW215774   6.820   6.258   0.205
 4959SOL     OW15775   1.321   2.125   0.090
 4959SOL    HW115776   1.321   2.099   0.187
 4959SOL    HW215777   1.227   2.133   0.058
 4960SOL     OW15778   4.146   6.133   5.394
 4960SOL    HW115779   4.056   6.139   5.351
 4960SOL    HW215780   4.217   6.148   5.325
 4961SOL     OW15781   5.622   6.666   4.833
 4961SOL    HW115782   5.709   6.706   4.804
 4961SOL    HW215783   5.567   6.736   4.879
 4962SOL     OW15784   6.257   1.946   2.267
 4962SOL    HW115785   6.316   2.002   2.326
 4962SOL    HW215786   6.303   1.931   2.179
 4963SOL     OW15787   0.792   4.417   1.596
 4963SOL    HW115788   0.792   4.515   1.618
 4963SOL    HW215789   0.698   4.385   1.586
 4964SOL     OW15790   3.757   1.015   3.767
 4964SOL    HW115791   3.716   1.054   3.850
 4964SOL    HW215792   3.738   0.917   3.764
 4965SOL     OW15793   0.038   5.601   4.975
 4965SOL    HW115794   0.045   5.505   4.999
 4965SOL    HW215795   0.078   5.657   5.048
 4966SOL     OW15796   5.289   5.788   5.747
 4966SOL    HW115797   5.226   5.796   5.824
 4966SOL    HW215798   5.250   5.832   5.666
 4967SOL     OW15799   5.542   0.752   0.030
 4967SOL    HW115800   5.502   0.729   0.118
 4967SOL    HW215801   5.512   0.843   0.002
 4968SOL     OW15802   5.504   3.426   6.700
 4968SOL    HW115803   5.580   3.468   6.649
 4968SOL    HW215804   5.536   3.398   6.790
 4969SOL     OW15805   0.702   0.524   1.327
 4969SOL    HW115806   0.652   0.593   1.275
 4969SOL    HW215807   0.678   0.532   1.424
 4970SOL     OW15808   2.267   1.971   6.003
 4970SOL    HW115809   2.236   1.981   5.908
 4970SOL    HW215810   2.203   1.913   6.053
 4971SOL     OW15811   6.242   5.626   3.391
 4971SOL    HW115812   6.311   5.687   3.431
 4971SOL    HW215813   6.178   5.596   3.463
 4972SOL     OW15814   1.920   2.481   4.476
 4972SOL    HW115815   1.960   2.559   4.428
 4972SOL    HW215816   1.970   2.398   4.451
 4973SOL     OW15817   4.551   5.592   3.352
 4973SOL    HW115818   4.574   5.682   3.315
 4973SOL    HW215819   4.499   5.603   3.436
 4974SOL     OW15820   3.577   6.946   6.215
 4974SOL    HW115821   3.622   7.018   6.266
 4974SOL    HW215822   3.613   6.942   6.122
 4975SOL     OW15823   3.985   6.099   6.991
 4975SOL    HW115824   3.995   6.172   0.039
 4975SOL    HW215825   4.051   6.026   7.011
 4976SOL     OW15826   2.758   1.261   4.839
 4976SOL    HW115827   2.791   1.185   4.783
 4976SOL    HW215828   2.778   1.348   4.794
 4977SOL     OW15829   3.592   3.140   2.262
 4977SOL    HW115830   3.668   3.077   2.279
 4977SOL    HW215831   3.611   3.228   2.306
 4978SOL     OW15832   6.018   3.758   6.301
 4978SOL    HW115833   5.978   3.796   6.217
 4978SOL    HW215834   6.040   3.662   6.286
 4979SOL     OW15835   1.231   1.883   3.548
 4979SOL    HW115836   1.174   1.813   3.590
 4979SOL    HW215837   1.173   1.945   3.494
 4980SOL     OW15838   2.512   5.073   2.357
 4980SOL    HW115839   2.433   5.063   2.296
 4980SOL    HW215840   2.503   5.157   2.409
 4981SOL     OW15841   5.242   6.028   6.051
 4981SOL    HW115842   5.266   6.052   6.145
 4981SOL    HW215843   5.197   5.939   6.049
 4982SOL     OW15844   3.013   1.619   6.633
 4982SOL    HW115845   3.051   1.628   6.725
 4982SOL    HW215846   3.087   1.618   6.566
 4983SOL     OW15847   6.813   1.639   4.356
 4983SOL    HW115848   6.720   1.672   4.371
 4983SOL    HW215849   6.878   1.705   4.395
 4984SOL     OW15850   5.504   5.753   4.066
 4984SOL    HW115851   5.499   5.740   3.967
 4984SOL    HW215852   5.415   5.733   4.108
 4985SOL     OW15853   5.666   3.710   1.192
 4985SOL    HW115854   5.744   3.656   1.161
 4985SOL    HW215855   5.698   3.795   1.233
 4986SOL     OW15856   3.395   5.437   3.817
 4986SOL    HW115857   3.334   5.483   3.753
 4986SOL    HW215858   3.356   5.441   3.909
 4987SOL     OW15859   1.429   2.651   0.078
 4987SOL    HW115860   1.363   2.691   0.141
 4987SOL    HW215861   1.420   2.552   0.078
 4988SOL     OW15862   2.317   1.984   4.744
 4988SOL    HW115863   2.416   1.973   4.749
 4988SOL    HW215864   2.281   1.935   4.664
 4989SOL     OW15865   0.201   0.883   1.165
 4989SOL    HW115866   0.250   0.966   1.139
 4989SOL    HW215867   0.244   0.803   1.122
 4990SOL     OW15868   1.886   1.714   6.387
 4990SOL    HW115869   1.905   1.811   6.403
 4990SOL    HW215870   1.971   1.666   6.364
 4991SOL     OW15871   2.719   1.956   5.590
 4991SOL    HW115872   2.715   1.877   5.529
 4991SOL    HW215873   2.815   1.977   5.611
 4992SOL     OW15874   4.215   0.088   4.514
 4992SOL    HW115875   4.298   0.097   4.459
 4992SOL    HW215876   4.137   0.122   4.461
 4993SOL     OW15877   1.178   6.227   4.299
 4993SOL    HW115878   1.089   6.184   4.280
 4993SOL    HW215879   1.185   6.312   4.247
 4994SOL     OW15880   0.032   6.688   2.817
 4994SOL    HW115881   0.098   6.628   2.773
 4994SOL    HW215882   0.074   6.776   2.836
 4995SOL     OW15883   6.075   2.680   4.793
 4995SOL    HW115884   5.976   2.695   4.788
 4995SOL    HW215885   6.119   2.764   4.826
 4996SOL     OW15886   0.620   1.738   3.704
 4996SOL    HW115887   0.560   1.773   3.775
 4996SOL    HW215888   0.634   1.640   3.718
 4997SOL     OW15889   6.824   2.491   3.306
 4997SOL    HW115890   6.790   2.494   3.400
 4997SOL    HW215891   6.747   2.501   3.243
 4998SOL     OW15892   1.025   5.602   5.596
 4998SOL    HW115893   1.069   5.692   5.589
 4998SOL    HW215894   1.023   5.558   5.506
 4999SOL     OW15895   6.486   4.869   1.092
 4999SOL    HW115896   6.502   4.965   1.117
 4999SOL    HW215897   6.389   4.854   1.077
 5000SOL     OW15898   5.955   5.671   3.273
 5000SOL    HW115899   6.020   5.633   3.339
 5000SOL    HW215900   5.863   5.635   3.292
 5001SOL     OW15901   4.944   3.509   5.385
 5001SOL    HW115902   4.871   3.569   5.351
 5001SOL    HW215903   4.928   3.489   5.482
 5002SOL     OW15904   1.658   2.382   1.702
 5002SOL    HW115905   1.711   2.389   1.617
 5002SOL    HW215906   1.676   2.463   1.759
 5003SOL     OW15907   5.541   5.653   4.585
 5003SOL    HW115908   5.449   5.627   4.556
 5003SOL    HW215909   5.591   5.691   4.507
 5004SOL     OW15910   2.203   5.024   6.053
 5004SOL    HW115911   2.232   4.984   6.141
 5004SOL    HW215912   2.105   5.040   6.055
 5005SOL     OW15913   5.398   2.136   6.770
 5005SOL    HW115914   5.373   2.174   6.859
 5005SOL    HW215915   5.478   2.183   6.734
 5006SOL     OW15916   4.418   5.238   1.582
 5006SOL    HW115917   4.416   5.314   1.647
 5006SOL    HW215918   4.487   5.257   1.512
 5007SOL     OW15919   3.514   0.690   4.811
 5007SOL    HW115920   3.489   0.780   4.848
 5007SOL    HW215921   3.540   0.700   4.715
 5008SOL     OW15922   6.096   2.112   4.124
 5008SOL    HW115923   6.155   2.131   4.203
 5008SOL    HW215924   6.121   2.024   4.085
 5009SOL     OW15925   3.055   6.816   2.250
 5009SOL    HW115926   3.149   6.815   2.218
 5009SOL    HW215927   2.993   6.809   2.172
 5010SOL     OW15928   3.480   4.092   6.183
 5010SOL    HW115929   3.525   4.003   6.197
 5010SOL    HW215930   3.421   4.087   6.103
 5011SOL     OW15931   0.728   2.151   4.738
 5011SOL    HW115932   0.779   2.225   4.695
 5011SOL    HW215933   0.785   2.069   4.741
 5012SOL     OW15934   6.662   2.172   0.110
 5012SOL    HW115935   6.760   2.192   0.109
 5012SOL    HW215936   6.638   2.128   0.196
 5013SOL     OW15937   4.864   1.648   5.230
 5013SOL    HW115938   4.957   1.613   5.232
 5013SOL    HW215939   4.844   1.696   5.315
 5014SOL     OW15940   1.026   4.468   6.365
 5014SOL    HW115941   1.065   4.458   6.457
 5014SOL    HW215942   0.944   4.525   6.371
 5015SOL     OW15943   4.854   2.390   4.261
 5015SOL    HW115944   4.891   2.315   4.206
 5015SOL    HW215945   4.923   2.461   4.271
 5016SOL     OW15946   1.946   5.832   1.293
 5016SOL    HW115947   1.874   5.888   1.333
 5016SOL    HW215948   2.033   5.852   1.337
 5017SOL     OW15949   0.318   1.858   1.512
 5017SOL    HW115950   0.227   1.847   1.553
 5017SOL    HW215951   0.332   1.789   1.442
 5018SOL     OW15952   6.162   5.396   4.202
 5018SOL    HW115953   6.063   5.402   4.186
 5018SOL    HW215954   6.192   5.302   4.185
 5019SOL     OW15955   2.958   5.627   4.795
 5019SOL    HW115956   2.954   5.548   4.855
 5019SOL    HW215957   2.995   5.706   4.845
 5020SOL     OW15958   4.795   5.186   6.915
 5020SOL    HW115959   4.871   5.122   6.930
 5020SOL    HW215960   4.832   5.278   6.900
 5021SOL     OW15961   2.681   4.881   5.305
 5021SOL    HW115962   2.719   4.798   5.345
 5021SOL    HW215963   2.723   4.897   5.215
 5022SOL     OW15964   2.163   2.733   6.335
 5022SOL    HW115965   2.109   2.670   6.279
 5022SOL    HW215966   2.155   2.826   6.297
 5023SOL     OW15967   6.196   3.524   3.659
 5023SOL    HW115968   6.148   3.506   3.745
 5023SOL    HW215969   6.293   3.536   3.678
 5024SOL     OW15970   4.858   3.990   5.304
 5024SOL    HW115971   4.949   3.999   5.346
 5024SOL    HW215972   4.850   3.901   5.260
 5025SOL     OW15973   5.862   6.701   5.008
 5025SOL    HW115974   5.797   6.718   5.082
 5025SOL    HW215975   5.942   6.761   5.020
 5026SOL     OW15976   1.375   5.882   2.430
 5026SOL    HW115977   1.310   5.856   2.503
 5026SOL    HW215978   1.366   5.818   2.354
 5027SOL     OW15979   0.998   5.725   2.986
 5027SOL    HW115980   0.957   5.773   2.908
 5027SOL    HW215981   1.097   5.738   2.984
 5028SOL     OW15982   0.589   6.902   2.552
 5028SOL    HW115983   0.567   6.901   2.454
 5028SOL    HW215984   0.664   6.966   2.569
 5029SOL     OW15985   5.938   0.865   4.581
 5029SOL    HW115986   5.913   0.866   4.678
 5029SOL    HW215987   5.961   0.771   4.554
 5030SOL     OW15988   1.259   6.002   0.702
 5030SOL    HW115989   1.338   5.966   0.753
 5030SOL    HW215990   1.181   5.941   0.715
 5031SOL     OW15991   4.703   0.262   0.007
 5031SOL    HW115992   4.643   0.182   0.011
 5031SOL    HW215993   4.659   0.339   0.054
 5032SOL     OW15994   2.065   5.770   2.992
 5032SOL    HW115995   2.040   5.769   3.089
 5032SOL    HW215996   2.108   5.858   2.970
 5033SOL     OW15997   1.102   4.302   4.824
 5033SOL    HW115998   1.178   4.320   4.762
 5033SOL    HW215999   1.135   4.253   4.905
 5034SOL     OW16000   1.245   2.741   6.049
 5034SOL    HW116001   1.234   2.828   6.097
 5034SOL    HW216002   1.247   2.666   6.115
 5035SOL     OW16003   6.836   4.545   0.861
 5035SOL    HW116004   6.848   4.456   0.906
 5035SOL    HW216005   6.771   4.600   0.913
 5036SOL     OW16006   1.281   1.421   2.588
 5036SOL    HW116007   1.341   1.495   2.618
 5036SOL    HW216008   1.271   1.354   2.662
 5037SOL     OW16009   5.420   3.602   1.226
 5037SOL    HW116010   5.509   3.648   1.215
 5037SOL    HW216011   5.433   3.517   1.277
 5038SOL     OW16012   2.999   5.504   5.886
 5038SOL    HW116013   2.970   5.437   5.954
 5038SOL    HW216014   2.973   5.472   5.795
 5039SOL     OW16015   0.565   2.166   3.992
 5039SOL    HW116016   0.494   2.120   3.940
 5039SOL    HW216017   0.652   2.117   3.981
 5040SOL     OW16018   2.156   3.062   0.010
 5040SOL    HW116019   2.104   3.050   0.094
 5040SOL    HW216020   2.153   3.158   7.001
 5041SOL     OW16021   0.842   5.378   0.187
 5041SOL    HW116022   0.770   5.368   0.256
 5041SOL    HW216023   0.873   5.473   0.184
 5042SOL     OW16024   5.919   1.124   5.986
 5042SOL    HW116025   5.876   1.047   6.034
 5042SOL    HW216026   5.871   1.140   5.900
 5043SOL     OW16027   5.693   5.967   4.106
 5043SOL    HW116028   5.626   5.893   4.106
 5043SOL    HW216029   5.649   6.051   4.073
 5044SOL     OW16030   0.374   4.155   2.327
 5044SOL    HW116031   0.443   4.169   2.256
 5044SOL    HW216032   0.285   4.141   2.284
 5045SOL     OW16033   5.202   3.287   5.462
 5045SOL    HW116034   5.134   3.238   5.407
 5045SOL    HW216035   5.215   3.379   5.425
 5046SOL     OW16036   3.570   3.174   5.805
 5046SOL    HW116037   3.530   3.114   5.875
 5046SOL    HW216038   3.668   3.182   5.822
 5047SOL     OW16039   0.079   1.449   1.597
 5047SOL    HW116040   0.029   1.364   1.610
 5047SOL    HW216041   0.087   1.497   1.685
 5048SOL     OW16042   5.589   4.207   0.016
 5048SOL    HW116043   5.511   4.163   0.062
 5048SOL    HW216044   5.598   4.301   0.049
 5049SOL     OW16045   1.414   0.659   0.004
 5049SOL    HW116046   1.357   0.738   7.002
 5049SOL    HW216047   1.373   0.607   0.079
 5050SOL     OW16048   1.439   3.969   1.137
 5050SOL    HW116049   1.442   3.870   1.151
 5050SOL    HW216050   1.375   3.990   1.062
 5051SOL     OW16051   2.227   4.154   5.832
 5051SOL    HW116052   2.177   4.071   5.804
 5051SOL    HW216053   2.249   4.148   5.930
 5052SOL     OW16054   6.621   2.845   1.462
 5052SOL    HW116055   6.677   2.904   1.404
 5052SOL    HW216056   6.567   2.784   1.404
 5053SOL     OW16057   0.811   3.900   1.360
 5053SOL    HW116058   0.813   3.970   1.432
 5053SOL    HW216059   0.873   3.926   1.286
 5054SOL     OW16060   4.147   5.543   5.135
 5054SOL    HW116061   4.135   5.449   5.103
 5054SOL    HW216062   4.061   5.593   5.123
 5055SOL     OW16063   0.833   6.944   4.031
 5055SOL    HW116064   0.874   0.013   4.057
 5055SOL    HW216065   0.877   6.910   3.949
 5056SOL     OW16066   2.952   1.171   6.692
 5056SOL    HW116067   2.978   1.163   6.596
 5056SOL    HW216068   3.031   1.151   6.750
 5057SOL     OW16069   0.619   3.609   2.946
 5057SOL    HW116070   0.667   3.601   2.859
 5057SOL    HW216071   0.684   3.634   3.018
 5058SOL     OW16072   4.110   2.089   6.969
 5058SOL    HW116073   4.093   2.160   6.901
 5058SOL    HW216074   4.084   2.123   0.040
 5059SOL     OW16075   5.390   2.530   2.755
 5059SOL    HW116076   5.464   2.466   2.734
 5059SOL    HW216077   5.305   2.498   2.714
 5060SOL     OW16078   0.007   3.118   5.858
 5060SOL    HW116079   6.972   3.201   5.846
 5060SOL    HW216080   0.060   3.124   5.943
 5061SOL     OW16081   4.452   2.472   6.059
 5061SOL    HW116082   4.372   2.497   6.113
 5061SOL    HW216083   4.533   2.471   6.118
 5062SOL     OW16084   5.680   1.100   2.960
 5062SOL    HW116085   5.595   1.152   2.953
 5062SOL    HW216086   5.686   1.056   3.049
 5063SOL     OW16087   0.422   0.617   0.298
 5063SOL    HW116088   0.394   0.694   0.356
 5063SOL    HW216089   0.456   0.542   0.355
 5064SOL     OW16090   6.752   5.022   0.412
 5064SOL    HW116091   6.682   5.058   0.350
 5064SOL    HW216092   6.720   5.033   0.507
 5065SOL     OW16093   1.005   1.985   2.539
 5065SOL    HW116094   0.935   2.053   2.520
 5065SOL    HW216095   0.988   1.903   2.484
 5066SOL     OW16096   0.700   5.258   3.596
 5066SOL    HW116097   0.659   5.240   3.685
 5066SOL    HW216098   0.793   5.221   3.593
 5067SOL     OW16099   4.356   2.730   0.641
 5067SOL    HW116100   4.288   2.705   0.710
 5067SOL    HW216101   4.317   2.718   0.550
 5068SOL     OW16102   1.162   6.381   1.002
 5068SOL    HW116103   1.144   6.364   0.906
 5068SOL    HW216104   1.127   6.472   1.026
 5069SOL     OW16105   3.849   4.694   6.060
 5069SOL    HW116106   3.770   4.713   6.118
 5069SOL    HW216107   3.886   4.780   6.024
 5070SOL     OW16108   0.914   3.655   6.447
 5070SOL    HW116109   0.855   3.670   6.526
 5070SOL    HW216110   0.954   3.743   6.419
 5071SOL     OW16111   1.533   6.592   2.480
 5071SOL    HW116112   1.561   6.645   2.560
 5071SOL    HW216113   1.602   6.523   2.460
 5072SOL     OW16114   0.643   2.240   2.853
 5072SOL    HW116115   0.709   2.285   2.913
 5072SOL    HW216116   0.678   2.150   2.826
 5073SOL     OW16117   1.918   1.530   4.500
 5073SOL    HW116118   1.936   1.532   4.402
 5073SOL    HW216119   1.981   1.466   4.544
 5074SOL     OW16120   4.089   2.113   1.502
 5074SOL    HW116121   4.075   2.178   1.577
 5074SOL    HW216122   4.184   2.084   1.500
 5075SOL     OW16123   6.287   1.927   6.794
 5075SOL    HW116124   6.377   1.883   6.797
 5075SOL    HW216125   6.218   1.861   6.763
 5076SOL     OW16126   6.854   1.425   5.898
 5076SOL    HW116127   6.758   1.441   5.919
 5076SOL    HW216128   6.896   1.374   5.973
 5077SOL     OW16129   0.759   5.364   4.462
 5077SOL    HW116130   0.665   5.367   4.430
 5077SOL    HW216131   0.774   5.280   4.514
 5078SOL     OW16132   5.549   1.526   3.133
 5078SOL    HW116133   5.484   1.454   3.153
 5078SOL    HW216134   5.553   1.543   3.034
 5079SOL     OW16135   1.633   3.625   5.712
 5079SOL    HW116136   1.731   3.631   5.730
 5079SOL    HW216137   1.589   3.573   5.785
 5080SOL     OW16138   6.555   5.872   6.552
 5080SOL    HW116139   6.457   5.855   6.557
 5080SOL    HW216140   6.605   5.793   6.589
 5081SOL     OW16141   3.811   4.229   5.732
 5081SOL    HW116142   3.832   4.283   5.651
 5081SOL    HW216143   3.738   4.164   5.710
 5082SOL     OW16144   5.512   0.125   2.744
 5082SOL    HW116145   5.457   0.063   2.688
 5082SOL    HW216146   5.478   0.123   2.838
 5083SOL     OW16147   0.393   0.493   3.480
 5083SOL    HW116148   0.330   0.523   3.552
 5083SOL    HW216149   0.479   0.544   3.488
 5084SOL     OW16150   3.562   5.238   5.610
 5084SOL    HW116151   3.633   5.169   5.596
 5084SOL    HW216152   3.602   5.319   5.653
 5085SOL     OW16153   0.984   3.402   6.362
 5085SOL    HW116154   0.953   3.488   6.403
 5085SOL    HW216155   0.928   3.326   6.396
 5086SOL     OW16156   0.893   4.754   2.117
 5086SOL    HW116157   0.944   4.827   2.070
 5086SOL    HW216158   0.955   4.703   2.176
 5087SOL     OW16159   6.227   5.536   1.675
 5087SOL    HW116160   6.140   5.526   1.626
 5087SOL    HW216161   6.299   5.560   1.610
 5088SOL     OW16162   4.498   4.830   2.277
 5088SOL    HW116163   4.517   4.747   2.225
 5088SOL    HW216164   4.581   4.860   2.323
 5089SOL     OW16165   4.842   5.596   5.873
 5089SOL    HW116166   4.918   5.532   5.881
 5089SOL    HW216167   4.762   5.558   5.919
 5090SOL     OW16168   2.230   6.723   4.691
 5090SOL    HW116169   2.241   6.814   4.730
 5090SOL    HW216170   2.200   6.660   4.762
 5091SOL     OW16171   5.965   5.570   4.738
 5091SOL    HW116172   6.062   5.547   4.751
 5091SOL    HW216173   5.923   5.591   4.826
 5092SOL     OW16174   3.651   2.859   4.795
 5092SOL    HW116175   3.654   2.759   4.794
 5092SOL    HW216176   3.725   2.896   4.739
 5093SOL     OW16177   3.497   2.090   3.293
 5093SOL    HW116178   3.471   2.091   3.197
 5093SOL    HW216179   3.484   1.998   3.331
 5094SOL     OW16180   2.365   4.731   4.659
 5094SOL    HW116181   2.321   4.723   4.748
 5094SOL    HW216182   2.439   4.665   4.652
 5095SOL     OW16183   6.137   2.475   3.224
 5095SOL    HW116184   6.074   2.397   3.222
 5095SOL    HW216185   6.097   2.549   3.278
 5096SOL     OW16186   6.346   3.165   5.303
 5096SOL    HW116187   6.395   3.095   5.357
 5096SOL    HW216188   6.412   3.228   5.263
 5097SOL     OW16189   0.907   0.122   5.899
 5097SOL    HW116190   0.811   0.121   5.869
 5097SOL    HW216191   0.937   0.216   5.913
 5098SOL     OW16192   2.886   1.687   0.631
 5098SOL    HW116193   2.938   1.751   0.688
 5098SOL    HW216194   2.808   1.734   0.590
 5099SOL     OW16195   1.603   5.928   1.671
 5099SOL    HW116196   1.581   5.973   1.758
 5099SOL    HW216197   1.519   5.892   1.630
 5100SOL     OW16198   0.236   3.541   1.628
 5100SOL    HW116199   0.254   3.526   1.725
 5100SOL    HW216200   0.140   3.565   1.614
 5101SOL     OW16201   4.736   1.913   5.969
 5101SOL    HW116202   4.652   1.963   5.950
 5101SOL    HW216203   4.715   1.828   6.017
 5102SOL     OW16204   5.760   4.641   5.457
 5102SOL    HW116205   5.858   4.621   5.460
 5102SOL    HW216206   5.746   4.736   5.430
 5103SOL     OW16207   0.390   7.011   5.396
 5103SOL    HW116208   0.338   0.040   5.466
 5103SOL    HW216209   0.328   6.957   5.339
 5104SOL     OW16210   3.712   2.994   3.706
 5104SOL    HW116211   3.639   3.057   3.730
 5104SOL    HW216212   3.691   2.952   3.617
 5105SOL     OW16213   4.695   2.251   6.720
 5105SOL    HW116214   4.629   2.325   6.711
 5105SOL    HW216215   4.677   2.200   6.804
 5106SOL     OW16216   4.047   0.675   1.471
 5106SOL    HW116217   3.985   0.709   1.400
 5106SOL    HW216218   4.105   0.603   1.433
 5107SOL     OW16219   6.604   4.304   0.142
 5107SOL    HW116220   6.701   4.286   0.159
 5107SOL    HW216221   6.553   4.217   0.145
 5108SOL     OW16222   4.400   3.942   0.955
 5108SOL    HW116223   4.454   3.872   0.908
 5108SOL    HW216224   4.439   3.961   1.044
 5109SOL     OW16225   1.701   2.597   1.861
 5109SOL    HW116226   1.653   2.627   1.944
 5109SOL    HW216227   1.796   2.575   1.884
 5110SOL     OW16228   3.361   6.844   4.808
 5110SOL    HW116229   3.432   6.896   4.856
 5110SOL    HW216230   3.383   6.746   4.811
 5111SOL     OW16231   2.529   6.266   6.490
 5111SOL    HW116232   2.515   6.294   6.395
 5111SOL    HW216233   2.515   6.345   6.550
 5112SOL     OW16234   0.702   4.230   2.513
 5112SOL    HW116235   0.791   4.247   2.471
 5112SOL    HW216236   0.696   4.281   2.599
 5113SOL     OW16237   3.066   4.739   1.382
 5113SOL    HW116238   3.038   4.718   1.476
 5113SOL    HW216239   2.987   4.774   1.332
 5114SOL     OW16240   4.761   3.863   1.126
 5114SOL    HW116241   4.688   3.840   1.062
 5114SOL    HW216242   4.773   3.787   1.190
 5115SOL     OW16243   1.478   3.633   0.365
 5115SOL    HW116244   1.411   3.626   0.438
 5115SOL    HW216245   1.523   3.722   0.370
 5116SOL     OW16246   0.767   5.957   6.006
 5116SOL    HW116247   0.752   5.917   5.916
 5116SOL    HW216248   0.755   5.887   6.076
 5117SOL     OW16249   0.252   3.615   4.302
 5117SOL    HW116250   0.340   3.609   4.254
 5117SOL    HW216251   0.217   3.523   4.318
 5118SOL     OW16252   4.983   5.311   0.785
 5118SOL    HW116253   4.919   5.386   0.804
 5118SOL    HW216254   5.054   5.310   0.855
 5119SOL     OW16255   5.519   1.314   6.934
 5119SOL    HW116256   5.463   1.270   6.864
 5119SOL    HW216257   5.542   1.407   6.905
 5120SOL     OW16258   5.231   6.123   0.379
 5120SOL    HW116259   5.147   6.168   0.349
 5120SOL    HW216260   5.222   6.096   0.475
 5121SOL     OW16261   2.153   3.645   6.773
 5121SOL    HW116262   2.080   3.577   6.768
 5121SOL    HW216263   2.155   3.687   6.863
 5122SOL     OW16264   5.078   5.483   3.585
 5122SOL    HW116265   5.159   5.496   3.643
 5122SOL    HW216266   5.012   5.425   3.633
 5123SOL     OW16267   4.359   2.345   1.514
 5123SOL    HW116268   4.455   2.370   1.500
 5123SOL    HW216269   4.352   2.246   1.525
 5124SOL     OW16270   0.390   5.904   4.645
 5124SOL    HW116271   0.346   5.978   4.696
 5124SOL    HW216272   0.326   5.867   4.578
 5125SOL     OW16273   5.033   2.906   3.742
 5125SOL    HW116274   4.992   2.816   3.759
 5125SOL    HW216275   4.994   2.946   3.660
 5126SOL     OW16276   2.605   0.440   2.740
 5126SOL    HW116277   2.629   0.430   2.643
 5126SOL    HW216278   2.599   0.537   2.762
 5127SOL     OW16279   2.336   6.207   1.250
 5127SOL    HW116280   2.418   6.153   1.233
 5127SOL    HW216281   2.336   6.287   1.190
 5128SOL     OW16282   3.592   0.451   2.294
 5128SOL    HW116283   3.558   0.498   2.212
 5128SOL    HW216284   3.521   0.391   2.330
 5129SOL     OW16285   6.360   5.474   0.018
 5129SOL    HW116286   6.266   5.442   0.030
 5129SOL    HW216287   6.398   5.434   6.953
 5130SOL     OW16288   5.777   4.657   2.226
 5130SOL    HW116289   5.801   4.626   2.134
 5130SOL    HW216290   5.839   4.615   2.292
 5131SOL     OW16291   2.194   2.153   1.835
 5131SOL    HW116292   2.125   2.225   1.830
 5131SOL    HW216293   2.282   2.189   1.803
 5132SOL     OW16294   2.628   6.097   6.111
 5132SOL    HW116295   2.609   6.036   6.188
 5132SOL    HW216296   2.684   6.049   6.043
 5133SOL     OW16297   4.040   5.248   4.662
 5133SOL    HW116298   3.981   5.308   4.717
 5133SOL    HW216299   4.034   5.155   4.698
 5134SOL     OW16300   0.881   2.715   6.982
 5134SOL    HW116301   0.827   2.754   6.908
 5134SOL    HW216302   0.899   2.619   6.964
 5135SOL     OW16303   6.433   1.416   2.967
 5135SOL    HW116304   6.433   1.507   3.008
 5135SOL    HW216305   6.339   1.385   2.954
 5136SOL     OW16306   3.685   1.766   7.001
 5136SOL    HW116307   3.596   1.735   6.970
 5136SOL    HW216308   3.706   1.855   6.960
 5137SOL     OW16309   4.253   3.524   6.927
 5137SOL    HW116310   4.338   3.475   6.909
 5137SOL    HW216311   4.252   3.608   6.872
 5138SOL     OW16312   2.637   2.752   6.064
 5138SOL    HW116313   2.561   2.817   6.071
 5138SOL    HW216314   2.667   2.726   6.156
 5139SOL     OW16315   0.399   6.531   4.258
 5139SOL    HW116316   0.324   6.502   4.317
 5139SOL    HW216317   0.408   6.631   4.261
 5140SOL     OW16318   3.026   3.245   2.626
 5140SOL    HW116319   3.124   3.232   2.612
 5140SOL    HW216320   2.983   3.269   2.539
 5141SOL     OW16321   1.473   3.157   5.206
 5141SOL    HW116322   1.565   3.182   5.236
 5141SOL    HW216323   1.420   3.123   5.283
 5142SOL     OW16324   5.258   2.881   1.738
 5142SOL    HW116325   5.237   2.879   1.640
 5142SOL    HW216326   5.223   2.965   1.778
 5143SOL     OW16327   0.054   5.302   6.349
 5143SOL    HW116328   6.978   5.279   6.368
 5143SOL    HW216329   0.060   5.397   6.320
 5144SOL     OW16330   2.508   1.365   4.827
 5144SOL    HW116331   2.426   1.334   4.875
 5144SOL    HW216332   2.583   1.302   4.844
 5145SOL     OW16333   3.474   4.944   6.877
 5145SOL    HW116334   3.558   4.970   6.830
 5145SOL    HW216335   3.484   4.963   6.975
 5146SOL     OW16336   3.796   5.292   1.395
 5146SOL    HW116337   3.778   5.385   1.363
 5146SOL    HW216338   3.710   5.248   1.421
 5147SOL     OW16339   0.655   5.723   6.093
 5147SOL    HW116340   0.593   5.677   6.029
 5147SOL    HW216341   0.604   5.747   6.176
 5148SOL     OW16342   7.006   0.684   1.501
 5148SOL    HW116343   6.934   0.662   1.435
 5148SOL    HW216344   6.976   0.761   1.558
 5149SOL     OW16345   6.564   0.332   4.964
 5149SOL    HW116346   6.559   0.346   4.865
 5149SOL    HW216347   6.515   0.248   4.988
 5150SOL     OW16348   2.827   5.236   6.027
 5150SOL    HW116349   2.856   5.208   5.936
 5150SOL    HW216350   2.740   5.284   6.021
 5151SOL     OW16351   5.289   6.986   6.472
 5151SOL    HW116352   5.215   6.932   6.432
 5151SOL    HW216353   5.364   6.994   6.407
 5152SOL     OW16354   0.112   4.815   6.343
 5152SOL    HW116355   0.089   4.888   6.407
 5152SOL    HW216356   0.121   4.853   6.250
 5153SOL     OW16357   3.075   3.267   1.154
 5153SOL    HW116358   3.171   3.282   1.179
 5153SOL    HW216359   3.018   3.338   1.197
 5154SOL     OW16360   1.309   4.011   5.260
 5154SOL    HW116361   1.319   3.980   5.355
 5154SOL    HW216362   1.330   4.108   5.255
 5155SOL     OW16363   4.071   0.950   2.737
 5155SOL    HW116364   4.037   0.891   2.664
 5155SOL    HW216365   3.994   0.996   2.781
 5156SOL     OW16366   5.493   3.677   5.493
 5156SOL    HW116367   5.579   3.673   5.544
 5156SOL    HW216368   5.462   3.772   5.486
 5157SOL     OW16369   6.759   2.588   3.966
 5157SOL    HW116370   6.830   2.628   3.909
 5157SOL    HW216371   6.679   2.649   3.967
 5158SOL     OW16372   4.119   1.045   2.102
 5158SOL    HW116373   4.172   1.046   2.017
 5158SOL    HW216374   4.177   1.013   2.177
 5159SOL     OW16375   1.505   3.879   5.061
 5159SOL    HW116376   1.507   3.906   5.157
 5159SOL    HW216377   1.598   3.877   5.025
 5160SOL     OW16378   2.428   2.234   3.324
 5160SOL    HW116379   2.438   2.135   3.322
 5160SOL    HW216380   2.510   2.275   3.365
 5161SOL     OW16381   1.832   2.414   6.683
 5161SOL    HW116382   1.842   2.500   6.734
 5161SOL    HW216383   1.762   2.357   6.727
 5162SOL     OW16384   6.154   5.649   5.261
 5162SOL    HW116385   6.082   5.607   5.205
 5162SOL    HW216386   6.120   5.665   5.353
 5163SOL     OW16387   6.226   3.745   1.457
 5163SOL    HW116388   6.280   3.780   1.380
 5163SOL    HW216389   6.131   3.732   1.428
 5164SOL     OW16390   6.570   6.643   4.982
 5164SOL    HW116391   6.553   6.660   5.079
 5164SOL    HW216392   6.499   6.687   4.927
 5165SOL     OW16393   5.658   4.546   5.215
 5165SOL    HW116394   5.684   4.573   5.308
 5165SOL    HW216395   5.696   4.612   5.150
 5166SOL     OW16396   0.246   0.487   3.244
 5166SOL    HW116397   0.280   0.481   3.338
 5166SOL    HW216398   0.315   0.533   3.187
 5167SOL     OW16399   2.228   0.048   4.687
 5167SOL    HW116400   2.160   0.087   4.749
 5167SOL    HW216401   2.201   0.066   4.593
 5168SOL     OW16402   3.154   1.444   2.111
 5168SOL    HW116403   3.111   1.530   2.137
 5168SOL    HW216404   3.175   1.390   2.193
 5169SOL     OW16405   3.464   5.622   6.599
 5169SOL    HW116406   3.470   5.667   6.689
 5169SOL    HW216407   3.370   5.592   6.583
 5170SOL     OW16408   4.273   4.980   4.590
 5170SOL    HW116409   4.288   5.062   4.535
 5170SOL    HW216410   4.180   4.947   4.576
 5171SOL     OW16411   2.583   4.458   5.737
 5171SOL    HW116412   2.530   4.391   5.789
 5171SOL    HW216413   2.645   4.410   5.675
 5172SOL     OW16414   1.604   3.395   6.175
 5172SOL    HW116415   1.583   3.438   6.263
 5172SOL    HW216416   1.548   3.314   6.163
 5173SOL     OW16417   0.490   2.164   4.624
 5173SOL    HW116418   0.486   2.263   4.632
 5173SOL    HW216419   0.567   2.128   4.676
 5174SOL     OW16420   2.918   4.755   6.728
 5174SOL    HW116421   3.016   4.739   6.727
 5174SOL    HW216422   2.872   4.685   6.674
 5175SOL     OW16423   1.140   5.341   0.308
 5175SOL    HW116424   1.165   5.263   0.251
 5175SOL    HW216425   1.040   5.348   0.313
 5176SOL     OW16426   6.018   3.433   6.519
 5176SOL    HW116427   5.918   3.443   6.525
 5176SOL    HW216428   6.048   3.456   6.426
 5177SOL     OW16429   4.670   5.438   0.195
 5177SOL    HW116430   4.753   5.394   0.226
 5177SOL    HW216431   4.638   5.394   0.110
 5178SOL     OW16432   3.381   4.600   0.283
 5178SOL    HW116433   3.445   4.612   0.359
 5178SOL    HW216434   3.309   4.669   0.290
 5179SOL     OW16435   2.938   6.010   5.704
 5179SOL    HW116436   2.881   6.090   5.723
 5179SOL    HW216437   2.983   5.981   5.788
 5180SOL     OW16438   4.901   1.669   5.867
 5180SOL    HW116439   4.963   1.616   5.924
 5180SOL    HW216440   4.863   1.745   5.920
 5181SOL     OW16441   3.072   6.135   2.922
 5181SOL    HW116442   3.152   6.196   2.927
 5181SOL    HW216443   3.069   6.077   3.004
 5182SOL     OW16444   4.800   3.935   0.695
 5182SOL    HW116445   4.751   3.882   0.625
 5182SOL    HW216446   4.763   4.027   0.699
 5183SOL     OW16447   2.887   1.099   3.244
 5183SOL    HW116448   2.936   1.185   3.256
 5183SOL    HW216449   2.831   1.081   3.324
 5184SOL     OW16450   0.927   1.959   3.219
 5184SOL    HW116451   0.972   2.008   3.294
 5184SOL    HW216452   0.984   1.966   3.136
 5185SOL     OW16453   4.419   0.463   2.118
 5185SOL    HW116454   4.324   0.475   2.090
 5185SOL    HW216455   4.462   0.553   2.128
 5186SOL     OW16456   5.282   3.578   6.721
 5186SOL    HW116457   5.184   3.556   6.722
 5186SOL    HW216458   5.335   3.494   6.720
 5187SOL     OW16459   4.797   3.951   4.361
 5187SOL    HW116460   4.813   3.921   4.455
 5187SOL    HW216461   4.841   3.887   4.298
 5188SOL     OW16462   0.795   0.874   3.376
 5188SOL    HW116463   0.716   0.931   3.351
 5188SOL    HW216464   0.856   0.926   3.435
 5189SOL     OW16465   4.909   5.404   5.561
 5189SOL    HW116466   4.823   5.445   5.593
 5189SOL    HW216467   4.983   5.471   5.568
 5190SOL     OW16468   1.677   1.836   2.638
 5190SOL    HW116469   1.678   1.770   2.562
 5190SOL    HW216470   1.720   1.921   2.609
 5191SOL     OW16471   4.865   1.113   2.275
 5191SOL    HW116472   4.781   1.072   2.309
 5191SOL    HW216473   4.869   1.103   2.175
 5192SOL     OW16474   6.588   3.976   2.270
 5192SOL    HW116475   6.615   4.045   2.336
 5192SOL    HW216476   6.656   3.903   2.269
 5193SOL     OW16477   3.993   4.926   3.345
 5193SOL    HW116478   3.895   4.934   3.330
 5193SOL    HW216479   4.010   4.868   3.425
 5194SOL     OW16480   5.335   0.486   0.394
 5194SOL    HW116481   5.343   0.414   0.463
 5194SOL    HW216482   5.239   0.515   0.388
 5195SOL     OW16483   0.506   5.196   5.497
 5195SOL    HW116484   0.519   5.097   5.507
 5195SOL    HW216485   0.568   5.244   5.559
 5196SOL     OW16486   1.504   3.480   3.084
 5196SOL    HW116487   1.419   3.473   3.137
 5196SOL    HW216488   1.581   3.448   3.140
 5197SOL     OW16489   3.474   6.341   5.535
 5197SOL    HW116490   3.433   6.257   5.499
 5197SOL    HW216491   3.433   6.362   5.624
 5198SOL     OW16492   4.359   1.305   6.491
 5198SOL    HW116493   4.319   1.252   6.416
 5198SOL    HW216494   4.323   1.398   6.489
 5199SOL     OW16495   0.855   6.101   3.068
 5199SOL    HW116496   0.817   6.025   3.120
 5199SOL    HW216497   0.842   6.186   3.119
 5200SOL     OW16498   5.801   6.409   6.140
 5200SOL    HW116499   5.876   6.470   6.115
 5200SOL    HW216500   5.731   6.412   6.069
 5201SOL     OW16501   6.858   3.784   5.302
 5201SOL    HW116502   6.956   3.805   5.311
 5201SOL    HW216503   6.828   3.733   5.383
 5202SOL     OW16504   3.724   2.726   6.107
 5202SOL    HW116505   3.715   2.751   6.011
 5202SOL    HW216506   3.821   2.714   6.130
 5203SOL     OW16507   0.199   0.138   5.543
 5203SOL    HW116508   0.291   0.151   5.580
 5203SOL    HW216509   0.133   0.132   5.619
 5204SOL     OW16510   1.962   0.279   1.968
 5204SOL    HW116511   1.921   0.215   1.903
 5204SOL    HW216512   1.939   0.252   2.061
 5205SOL     OW16513   5.959   6.794   1.878
 5205SOL    HW116514   5.905   6.799   1.794
 5205SOL    HW216515   5.922   6.856   1.946
 5206SOL     OW16516   0.732   4.798   4.868
 5206SOL    HW116517   0.764   4.704   4.881
 5206SOL    HW216518   0.707   4.837   4.956
 5207SOL     OW16519   4.892   1.832   4.809
 5207SOL    HW116520   4.907   1.752   4.751
 5207SOL    HW216521   4.832   1.807   4.885
 5208SOL     OW16522   6.732   1.307   0.729
 5208SOL    HW116523   6.709   1.210   0.722
 5208SOL    HW216524   6.822   1.318   0.771
 5209SOL     OW16525   4.491   5.830   2.999
 5209SOL    HW116526   4.403   5.784   2.987
 5209SOL    HW216527   4.499   5.905   2.933
 5210SOL     OW16528   6.374   3.953   2.108
 5210SOL    HW116529   6.460   3.960   2.159
 5210SOL    HW216530   6.299   3.988   2.164
 5211SOL     OW16531   5.004   2.948   4.780
 5211SOL    HW116532   4.981   2.961   4.683
 5211SOL    HW216533   4.919   2.933   4.832
 5212SOL     OW16534   6.615   3.901   0.152
 5212SOL    HW116535   6.569   3.812   0.141
 5212SOL    HW216536   6.589   3.961   0.077
 5213SOL     OW16537   3.261   3.090   4.684
 5213SOL    HW116538   3.254   3.042   4.771
 5213SOL    HW216539   3.196   3.166   4.682
 5214SOL     OW16540   6.164   3.015   5.152
 5214SOL    HW116541   6.215   3.085   5.202
 5214SOL    HW216542   6.066   3.032   5.162
 5215SOL     OW16543   0.544   4.654   5.108
 5215SOL    HW116544   0.512   4.736   5.061
 5215SOL    HW216545   0.466   4.606   5.148
 5216SOL     OW16546   0.261   4.209   0.190
 5216SOL    HW116547   0.234   4.127   0.240
 5216SOL    HW216548   0.361   4.215   0.186
 5217SOL     OW16549   3.268   0.973   1.857
 5217SOL    HW116550   3.341   1.041   1.859
 5217SOL    HW216551   3.223   0.975   1.768
 5218SOL     OW16552   6.405   6.740   0.511
 5218SOL    HW116553   6.482   6.788   0.467
 5218SOL    HW216554   6.324   6.798   0.506
 5219SOL     OW16555   4.181   1.971   4.430
 5219SOL    HW116556   4.275   1.987   4.460
 5219SOL    HW216557   4.162   2.026   4.348
 5220SOL     OW16558   2.141   4.483   4.479
 5220SOL    HW116559   2.147   4.553   4.408
 5220SOL    HW216560   2.182   4.398   4.445
 5221SOL     OW16561   4.030   7.019   0.425
 5221SOL    HW116562   3.953   0.035   0.371
 5221SOL    HW216563   3.995   6.976   0.508
 5222SOL     OW16564   5.467   2.588   2.062
 5222SOL    HW116565   5.387   2.647   2.064
 5222SOL    HW216566   5.439   2.493   2.050
 5223SOL     OW16567   6.981   1.573   0.557
 5223SOL    HW116568   6.913   1.612   0.495
 5223SOL    HW216569   6.936   1.529   0.634
 5224SOL     OW16570   2.018   1.842   4.663
 5224SOL    HW116571   1.924   1.846   4.630
 5224SOL    HW216572   2.080   1.876   4.593
 5225SOL     OW16573   0.074   3.630   6.214
 5225SOL    HW116574   0.156   3.674   6.250
 5225SOL    HW216575   0.086   3.615   6.115
 5226SOL     OW16576   0.132   0.303   4.263
 5226SOL    HW116577   0.154   0.244   4.185
 5226SOL    HW216578   0.196   0.379   4.266
 5227SOL     OW16579   2.786   2.432   6.564
 5227SOL    HW116580   2.787   2.490   6.645
 5227SOL    HW216581   2.866   2.451   6.507
 5228SOL     OW16582   0.408   2.174   6.017
 5228SOL    HW116583   0.481   2.206   5.956
 5228SOL    HW216584   0.390   2.244   6.086
 5229SOL     OW16585   3.997   1.744   1.664
 5229SOL    HW116586   4.048   1.717   1.746
 5229SOL    HW216587   3.972   1.663   1.612
 5230SOL     OW16588   6.076   0.874   2.112
 5230SOL    HW116589   6.091   0.911   2.203
 5230SOL    HW216590   6.020   0.937   2.059
 5231SOL     OW16591   0.038   4.050   2.441
 5231SOL    HW116592   0.062   4.090   2.529
 5231SOL    HW216593   0.054   3.951   2.444
 5232SOL     OW16594   2.039   1.441   6.110
 5232SOL    HW116595   2.052   1.480   6.202
 5232SOL    HW216596   2.125   1.401   6.078
 5233SOL     OW16597   2.055   6.534   3.742
 5233SOL    HW116598   2.121   6.584   3.686
 5233SOL    HW216599   2.056   6.571   3.835
 5234SOL     OW16600   3.797   2.393   6.236
 5234SOL    HW116601   3.732   2.417   6.163
 5234SOL    HW216602   3.748   2.384   6.322
 5235SOL     OW16603   2.603   3.059   1.703
 5235SOL    HW116604   2.584   2.971   1.746
 5235SOL    HW216605   2.682   3.102   1.747
 5236SOL     OW16606   2.960   5.222   1.949
 5236SOL    HW116607   3.013   5.136   1.950
 5236SOL    HW216608   2.984   5.274   1.867
 5237SOL     OW16609   0.824   1.293   1.347
 5237SOL    HW116610   0.780   1.382   1.332
 5237SOL    HW216611   0.869   1.293   1.436
 5238SOL     OW16612   6.128   1.184   3.251
 5238SOL    HW116613   6.090   1.123   3.320
 5238SOL    HW216614   6.224   1.203   3.272
 5239SOL     OW16615   2.353   3.431   6.819
 5239SOL    HW116616   2.346   3.440   6.720
 5239SOL    HW216617   2.345   3.521   6.861
 5240SOL     OW16618   1.667   3.601   4.735
 5240SOL    HW116619   1.601   3.614   4.809
 5240SOL    HW216620   1.675   3.686   4.683
 5241SOL     OW16621   2.538   5.100   2.820
 5241SOL    HW116622   2.624   5.120   2.772
 5241SOL    HW216623   2.543   5.134   2.914
 5242SOL     OW16624   4.337   5.875   5.797
 5242SOL    HW116625   4.395   5.947   5.758
 5242SOL    HW216626   4.302   5.817   5.724
 5243SOL     OW16627   2.289   5.588   4.288
 5243SOL    HW116628   2.326   5.529   4.216
 5243SOL    HW216629   2.191   5.572   4.297
 5244SOL     OW16630   5.627   6.626   6.864
 5244SOL    HW116631   5.568   6.545   6.874
 5244SOL    HW216632   5.588   6.687   6.796
 5245SOL     OW16633   3.219   3.798   1.852
 5245SOL    HW116634   3.213   3.898   1.859
 5245SOL    HW216635   3.168   3.768   1.771
 5246SOL     OW16636   6.675   2.732   5.453
 5246SOL    HW116637   6.702   2.661   5.388
 5246SOL    HW216638   6.589   2.707   5.496
 5247SOL     OW16639   4.743   1.458   4.853
 5247SOL    HW116640   4.726   1.437   4.757
 5247SOL    HW216641   4.841   1.453   4.873
 5248SOL     OW16642   4.247   1.141   2.613
 5248SOL    HW116643   4.188   1.100   2.682
 5248SOL    HW216644   4.321   1.078   2.590
 5249SOL     OW16645   0.289   5.601   2.236
 5249SOL    HW116646   0.360   5.660   2.199
 5249SOL    HW216647   0.217   5.588   2.168
 5250SOL     OW16648   1.663   5.022   6.864
 5250SOL    HW116649   1.628   5.042   6.955
 5250SOL    HW216650   1.678   4.924   6.854
 5251SOL     OW16651   2.302   4.222   6.414
 5251SOL    HW116652   2.229   4.183   6.471
 5251SOL    HW216653   2.312   4.168   6.331
 5252SOL     OW16654   3.603   5.602   4.012
 5252SOL    HW116655   3.645   5.532   3.954
 5252SOL    HW216656   3.544   5.558   4.080
 5253SOL     OW16657   0.051   6.372   4.241
 5253SOL    HW116658   0.106   6.398   4.320
 5253SOL    HW216659   0.091   6.412   4.158
 5254SOL     OW16660   4.329   6.415   1.893
 5254SOL    HW116661   4.290   6.363   1.969
 5254SOL    HW216662   4.360   6.504   1.927
 5255SOL     OW16663   0.533   1.572   6.555
 5255SOL    HW116664   0.596   1.495   6.568
 5255SOL    HW216665   0.532   1.629   6.637
 5256SOL     OW16666   4.051   1.664   2.530
 5256SOL    HW116667   3.975   1.630   2.585
 5256SOL    HW216668   4.137   1.631   2.568
 5257SOL     OW16669   5.943   0.956   6.787
 5257SOL    HW116670   5.993   1.021   6.844
 5257SOL    HW216671   6.003   0.881   6.761
 5258SOL     OW16672   6.066   2.163   4.910
 5258SOL    HW116673   6.123   2.239   4.942
 5258SOL    HW216674   6.056   2.096   4.984
 5259SOL     OW16675   4.536   6.161   4.544
 5259SOL    HW116676   4.441   6.143   4.571
 5259SOL    HW216677   4.538   6.227   4.469
 5260SOL     OW16678   1.712   0.123   2.145
 5260SOL    HW116679   1.677   0.075   2.225
 5260SOL    HW216680   1.732   0.057   2.073
 5261SOL     OW16681   6.827   5.034   0.023
 5261SOL    HW116682   6.846   5.128   7.014
 5261SOL    HW216683   6.884   5.011   0.102
 5262SOL     OW16684   1.932   2.309   1.946
 5262SOL    HW116685   1.961   2.404   1.940
 5262SOL    HW216686   1.884   2.293   2.032
 5263SOL     OW16687   0.093   5.838   1.995
 5263SOL    HW116688   0.053   5.928   1.973
 5263SOL    HW216689   0.192   5.845   1.998
 5264SOL     OW16690   5.841   2.356   2.821
 5264SOL    HW116691   5.826   2.420   2.896
 5264SOL    HW216692   5.936   2.364   2.790
 5265SOL     OW16693   1.394   6.030   6.039
 5265SOL    HW116694   1.449   5.951   6.068
 5265SOL    HW216695   1.300   6.019   6.071
 5266SOL     OW16696   0.789   0.341   6.521
 5266SOL    HW116697   0.825   0.254   6.487
 5266SOL    HW216698   0.761   0.330   6.617
 5267SOL     OW16699   6.375   1.529   4.585
 5267SOL    HW116700   6.418   1.466   4.650
 5267SOL    HW216701   6.332   1.476   4.511
 5268SOL     OW16702   5.272   0.158   5.312
 5268SOL    HW116703   5.307   0.246   5.280
 5268SOL    HW216704   5.179   0.169   5.347
 5269SOL     OW16705   1.166   0.416   3.978
 5269SOL    HW116706   1.067   0.418   3.962
 5269SOL    HW216707   1.211   0.375   3.898
 5270SOL     OW16708   1.653   1.644   6.558
 5270SOL    HW116709   1.606   1.555   6.563
 5270SOL    HW216710   1.742   1.633   6.515
 5271SOL     OW16711   1.469   6.774   6.147
 5271SOL    HW116712   1.387   6.725   6.121
 5271SOL    HW216713   1.450   6.872   6.150
 5272SOL     OW16714   4.546   0.040   6.207
 5272SOL    HW116715   4.463   0.040   6.263
 5272SOL    HW216716   4.541   6.985   6.141
 5273SOL     OW16717   1.985   1.715   3.531
 5273SOL    HW116718   2.040   1.633   3.544
 5273SOL    HW216719   1.981   1.738   3.434
 5274SOL     OW16720   6.607   4.454   1.295
 5274SOL    HW116721   6.547   4.425   1.220
 5274SOL    HW216722   6.558   4.447   1.382
 5275SOL     OW16723   5.609   0.020   6.588
 5275SOL    HW116724   5.546   0.002   6.663
 5275SOL    HW216725   5.565   7.019   6.500
 5276SOL     OW16726   2.691   6.354   1.085
 5276SOL    HW116727   2.688   6.344   1.184
 5276SOL    HW216728   2.609   6.314   1.045
 5277SOL     OW16729   1.438   3.109   1.260
 5277SOL    HW116730   1.509   3.142   1.322
 5277SOL    HW216731   1.410   3.017   1.286
 5278SOL     OW16732   4.182   3.471   4.703
 5278SOL    HW116733   4.111   3.536   4.674
 5278SOL    HW216734   4.268   3.520   4.716
 5279SOL     OW16735   1.543   0.192   2.894
 5279SOL    HW116736   1.480   0.200   2.817
 5279SOL    HW216737   1.633   0.226   2.868
 5280SOL     OW16738   3.487   1.050   3.590
 5280SOL    HW116739   3.483   1.132   3.648
 5280SOL    HW216740   3.506   0.971   3.648
 5281SOL     OW16741   6.498   2.827   3.594
 5281SOL    HW116742   6.530   2.815   3.688
 5281SOL    HW216743   6.574   2.816   3.531
 5282SOL     OW16744   4.896   2.184   1.385
 5282SOL    HW116745   4.862   2.274   1.414
 5282SOL    HW216746   4.930   2.135   1.465
 5283SOL     OW16747   5.679   4.963   5.351
 5283SOL    HW116748   5.586   4.957   5.387
 5283SOL    HW216749   5.698   5.057   5.323
 5284SOL     OW16750   5.547   2.553   4.021
 5284SOL    HW116751   5.582   2.459   4.022
 5284SOL    HW216752   5.624   2.617   4.029
 5285SOL     OW16753   4.340   5.112   2.542
 5285SOL    HW116754   4.395   5.189   2.509
 5285SOL    HW216755   4.307   5.131   2.634
 5286SOL     OW16756   1.663   5.190   1.991
 5286SOL    HW116757   1.637   5.212   1.897
 5286SOL    HW216758   1.643   5.094   2.010
 5287SOL     OW16759   0.171   0.903   3.034
 5287SOL    HW116760   0.191   0.888   3.131
 5287SOL    HW216761   0.252   0.942   2.989
 5288SOL     OW16762   4.054   0.720   0.574
 5288SOL    HW116763   3.977   0.697   0.633
 5288SOL    HW216764   4.108   0.792   0.617
 5289SOL     OW16765   1.782   0.250   1.473
 5289SOL    HW116766   1.786   0.154   1.444
 5289SOL    HW216767   1.701   0.293   1.433
 5290SOL     OW16768   5.288   6.588   6.778
 5290SOL    HW116769   5.270   6.565   6.873
 5290SOL    HW216770   5.225   6.537   6.719
 5291SOL     OW16771   1.059   5.041   0.608
 5291SOL    HW116772   1.043   5.125   0.659
 5291SOL    HW216773   1.055   4.963   0.671
 5292SOL     OW16774   5.348   1.223   1.708
 5292SOL    HW116775   5.401   1.155   1.757
 5292SOL    HW216776   5.396   1.250   1.624
 5293SOL     OW16777   1.884   1.341   3.706
 5293SOL    HW116778   1.881   1.339   3.806
 5293SOL    HW216779   1.824   1.413   3.672
 5294SOL     OW16780   3.670   2.100   6.675
 5294SOL    HW116781   3.693   2.103   6.577
 5294SOL    HW216782   3.748   2.068   6.727
 5295SOL     OW16783   0.050   2.045   3.721
 5295SOL    HW116784   0.039   1.958   3.769
 5295SOL    HW216785   0.094   2.029   3.633
 5296SOL     OW16786   0.435   4.111   6.262
 5296SOL    HW116787   0.365   4.040   6.259
 5296SOL    HW216788   0.419   4.171   6.340
 5297SOL     OW16789   1.340   2.370   1.974
 5297SOL    HW116790   1.437   2.350   1.962
 5297SOL    HW216791   1.309   2.333   2.062
 5298SOL     OW16792   1.178   3.445   2.398
 5298SOL    HW116793   1.200   3.352   2.368
 5298SOL    HW216794   1.095   3.476   2.353
 5299SOL     OW16795   3.696   0.570   6.736
 5299SOL    HW116796   3.796   0.568   6.724
 5299SOL    HW216797   3.667   0.492   6.790
 5300SOL     OW16798   6.773   4.871   4.355
 5300SOL    HW116799   6.702   4.827   4.411
 5300SOL    HW216800   6.773   4.832   4.263
 5301SOL     OW16801   5.682   6.840   6.165
 5301SOL    HW116802   5.593   6.795   6.161
 5301SOL    HW216803   5.717   6.852   6.072
 5302SOL     OW16804   0.075   3.571   2.938
 5302SOL    HW116805   0.081   3.531   2.846
 5302SOL    HW216806   0.153   3.631   2.953
 5303SOL     OW16807   2.582   5.130   1.941
 5303SOL    HW116808   2.627   5.048   1.977
 5303SOL    HW216809   2.617   5.211   1.988
 5304SOL     OW16810   5.553   1.819   5.909
 5304SOL    HW116811   5.521   1.845   6.000
 5304SOL    HW216812   5.559   1.719   5.903
 5305SOL     OW16813   3.866   1.736   5.021
 5305SOL    HW116814   3.825   1.724   4.931
 5305SOL    HW216815   3.946   1.676   5.030
 5306SOL     OW16816   2.279   6.479   3.975
 5306SOL    HW116817   2.319   6.490   4.066
 5306SOL    HW216818   2.273   6.568   3.931
 5307SOL     OW16819   4.873   6.603   6.369
 5307SOL    HW116820   4.793   6.613   6.310
 5307SOL    HW216821   4.856   6.530   6.435
 5308SOL     OW16822   6.531   1.658   0.961
 5308SOL    HW116823   6.543   1.694   0.869
 5308SOL    HW216824   6.593   1.707   1.024
 5309SOL     OW16825   3.407   4.583   6.384
 5309SOL    HW116826   3.427   4.518   6.310
 5309SOL    HW216827   3.356   4.661   6.347
 5310SOL     OW16828   5.375   2.482   0.447
 5310SOL    HW116829   5.384   2.581   0.433
 5310SOL    HW216830   5.278   2.458   0.450
 5311SOL     OW16831   6.996   5.465   0.163
 5311SOL    HW116832   6.904   5.503   0.149
 5311SOL    HW216833   7.006   5.436   0.258
 5312SOL     OW16834   0.785   4.163   2.107
 5312SOL    HW116835   0.757   4.067   2.104
 5312SOL    HW216836   0.757   4.208   2.022
 5313SOL     OW16837   0.702   6.202   6.271
 5313SOL    HW116838   0.710   6.222   6.369
 5313SOL    HW216839   0.763   6.127   6.247
 5314SOL     OW16840   4.906   4.228   1.148
 5314SOL    HW116841   4.922   4.270   1.059
 5314SOL    HW216842   4.864   4.138   1.135
 5315SOL     OW16843   5.346   0.105   2.985
 5315SOL    HW116844   5.291   0.035   2.940
 5315SOL    HW216845   5.305   0.195   2.970
 5316SOL     OW16846   5.444   5.307   5.135
 5316SOL    HW116847   5.383   5.353   5.071
 5316SOL    HW216848   5.531   5.357   5.141
 5317SOL     OW16849   0.397   4.779   1.539
 5317SOL    HW116850   0.461   4.748   1.609
 5317SOL    HW216851   0.308   4.735   1.552
 5318SOL     OW16852   6.823   2.783   3.675
 5318SOL    HW116853   6.896   2.721   3.705
 5318SOL    HW216854   6.832   2.800   3.577
 5319SOL     OW16855   3.181   6.114   2.596
 5319SOL    HW116856   3.134   6.194   2.558
 5319SOL    HW216857   3.113   6.047   2.625
 5320SOL     OW16858   6.882   2.003   0.622
 5320SOL    HW116859   6.894   1.989   0.721
 5320SOL    HW216860   6.785   2.001   0.599
 5321SOL     OW16861   2.523   5.333   0.049
 5321SOL    HW116862   2.504   5.255   7.008
 5321SOL    HW216863   2.604   5.314   0.104
 5322SOL     OW16864   2.969   6.299   6.941
 5322SOL    HW116865   3.016   6.360   7.005
 5322SOL    HW216866   2.972   6.206   6.976
 5323SOL     OW16867   6.905   3.569   0.171
 5323SOL    HW116868   6.807   3.562   0.186
 5323SOL    HW216869   6.951   3.491   0.214
 5324SOL     OW16870   4.037   3.373   2.161
 5324SOL    HW116871   3.944   3.411   2.152
 5324SOL    HW216872   4.103   3.439   2.128
 5325SOL     OW16873   3.074   0.027   5.342
 5325SOL    HW116874   3.089   6.968   5.283
 5325SOL    HW216875   3.011   0.091   5.298
 5326SOL     OW16876   5.630   0.483   4.214
 5326SOL    HW116877   5.696   0.483   4.290
 5326SOL    HW216878   5.568   0.405   4.223
 5327SOL     OW16879   6.374   6.625   3.968
 5327SOL    HW116880   6.403   6.552   3.907
 5327SOL    HW216881   6.301   6.679   3.924
 5328SOL     OW16882   2.482   4.844   5.619
 5328SOL    HW116883   2.447   4.889   5.702
 5328SOL    HW216884   2.471   4.906   5.541
 5329SOL     OW16885   0.622   6.932   5.795
 5329SOL    HW116886   0.670   6.864   5.740
 5329SOL    HW216887   0.594   6.890   5.882
 5330SOL     OW16888   4.946   3.601   0.020
 5330SOL    HW116889   4.875   3.617   0.088
 5330SOL    HW216890   4.934   3.665   6.963
 5331SOL     OW16891   5.981   0.666   0.150
 5331SOL    HW116892   6.023   0.599   0.089
 5331SOL    HW216893   5.916   0.722   0.099
 5332SOL     OW16894   0.555   3.215   6.799
 5332SOL    HW116895   0.456   3.215   6.817
 5332SOL    HW216896   0.600   3.276   6.864
 5333SOL     OW16897   0.316   6.896   4.173
 5333SOL    HW116898   0.310   6.943   4.261
 5333SOL    HW216899   0.252   6.819   4.171
 5334SOL     OW16900   3.303   6.149   0.617
 5334SOL    HW116901   3.282   6.110   0.707
 5334SOL    HW216902   3.398   6.130   0.594
 5335SOL     OW16903   6.479   5.017   1.758
 5335SOL    HW116904   6.552   5.077   1.790
 5335SOL    HW216905   6.427   4.983   1.836
 5336SOL     OW16906   1.592   3.182   5.773
 5336SOL    HW116907   1.586   3.120   5.851
 5336SOL    HW216908   1.677   3.234   5.778
 5337SOL     OW16909   6.599   2.431   0.978
 5337SOL    HW116910   6.599   2.483   0.892
 5337SOL    HW216911   6.530   2.468   1.039
 5338SOL     OW16912   6.529   2.112   1.692
 5338SOL    HW116913   6.588   2.189   1.667
 5338SOL    HW216914   6.440   2.147   1.722
 5339SOL     OW16915   4.896   3.916   2.222
 5339SOL    HW116916   4.890   3.973   2.140
 5339SOL    HW216917   4.992   3.905   2.247
 5340SOL     OW16918   5.666   3.359   0.874
 5340SOL    HW116919   5.574   3.320   0.866
 5340SOL    HW216920   5.690   3.368   0.971
 5341SOL     OW16921   4.519   4.715   3.535
 5341SOL    HW116922   4.542   4.800   3.487
 5341SOL    HW216923   4.515   4.640   3.469
 5342SOL     OW16924   5.878   5.099   4.589
 5342SOL    HW116925   5.858   5.191   4.557
 5342SOL    HW216926   5.946   5.056   4.529
 5343SOL     OW16927   3.849   3.559   0.645
 5343SOL    HW116928   3.792   3.482   0.616
 5343SOL    HW216929   3.842   3.632   0.577
 5344SOL     OW16930   6.791   1.879   6.829
 5344SOL    HW116931   6.758   1.973   6.821
 5344SOL    HW216932   6.751   1.836   6.910
 5345SOL     OW16933   3.737   0.818   6.541
 5345SOL    HW116934   3.676   0.741   6.559
 5345SOL    HW216935   3.690   0.884   6.482
 5346SOL     OW16936   2.699   6.098   3.039
 5346SOL    HW116937   2.682   6.020   2.979
 5346SOL    HW216938   2.658   6.081   3.129
 5347SOL     OW16939   6.080   2.529   5.241
 5347SOL    HW116940   6.029   2.615   5.237
 5347SOL    HW216941   6.090   2.501   5.336
 5348SOL     OW16942   5.575   2.757   5.101
 5348SOL    HW116943   5.576   2.707   5.014
 5348SOL    HW216944   5.641   2.715   5.164
 5349SOL     OW16945   0.907   4.046   0.671
 5349SOL    HW116946   0.817   4.083   0.695
 5349SOL    HW216947   0.961   4.115   0.624
 5350SOL     OW16948   1.334   0.047   6.424
 5350SOL    HW116949   1.246   0.034   6.378
 5350SOL    HW216950   1.321   0.038   6.522
 5351SOL     OW16951   0.775   6.336   3.198
 5351SOL    HW116952   0.732   6.337   3.288
 5351SOL    HW216953   0.800   6.429   3.171
 5352SOL     OW16954   0.290   2.694   6.087
 5352SOL    HW116955   0.339   2.781   6.100
 5352SOL    HW216956   0.214   2.688   6.151
 5353SOL     OW16957   2.357   6.423   2.877
 5353SOL    HW116958   2.388   6.374   2.796
 5353SOL    HW216959   2.266   6.390   2.902
 5354SOL     OW16960   2.140   6.544   1.630
 5354SOL    HW116961   2.211   6.510   1.568
 5354SOL    HW216962   2.062   6.576   1.577
 5355SOL     OW16963   4.652   4.247   5.544
 5355SOL    HW116964   4.719   4.174   5.553
 5355SOL    HW216965   4.560   4.207   5.536
 5356SOL     OW16966   6.741   6.830   1.120
 5356SOL    HW116967   6.837   6.832   1.149
 5356SOL    HW216968   6.736   6.811   1.022
 5357SOL     OW16969   6.647   3.115   2.466
 5357SOL    HW116970   6.709   3.098   2.389
 5357SOL    HW216971   6.694   3.169   2.535
 5358SOL     OW16972   5.303   6.866   5.486
 5358SOL    HW116973   5.210   6.834   5.467
 5358SOL    HW216974   5.346   6.898   5.402
 5359SOL     OW16975   3.439   1.922   6.655
 5359SOL    HW116976   3.520   1.977   6.672
 5359SOL    HW216977   3.360   1.963   6.701
 5360SOL     OW16978   5.102   5.804   2.454
 5360SOL    HW116979   5.069   5.769   2.366
 5360SOL    HW216980   5.123   5.727   2.514
 5361SOL     OW16981   1.147   4.102   2.616
 5361SOL    HW116982   1.151   4.196   2.584
 5361SOL    HW216983   1.052   4.074   2.626
 5362SOL     OW16984   5.646   1.595   3.948
 5362SOL    HW116985   5.675   1.688   3.927
 5362SOL    HW216986   5.562   1.574   3.898
 5363SOL     OW16987   6.299   4.056   6.378
 5363SOL    HW116988   6.233   4.007   6.436
 5363SOL    HW216989   6.304   4.011   6.289
 5364SOL     OW16990   4.776   2.285   2.172
 5364SOL    HW116991   4.756   2.378   2.140
 5364SOL    HW216992   4.807   2.229   2.095
 5365SOL     OW16993   3.296   2.654   6.390
 5365SOL    HW116994   3.247   2.717   6.451
 5365SOL    HW216995   3.287   2.686   6.296
 5366SOL     OW16996   0.216   4.469   3.686
 5366SOL    HW116997   0.210   4.560   3.645
 5366SOL    HW216998   0.134   4.416   3.662
 5367SOL     OW16999   6.313   5.210   1.089
 5367SOL    HW117000   6.413   5.221   1.083
 5367SOL    HW217001   6.284   5.220   1.184
 5368SOL     OW17002   6.986   6.051   4.826
 5368SOL    HW117003   6.970   6.034   4.924
 5368SOL    HW217004   6.904   6.093   4.787
 5369SOL     OW17005   3.640   0.792   2.149
 5369SOL    HW117006   3.589   0.757   2.227
 5369SOL    HW217007   3.597   0.761   2.064
 5370SOL     OW17008   2.319   2.159   0.047
 5370SOL    HW117009   2.363   2.109   6.992
 5370SOL    HW217010   2.250   2.221   0.010
 5371SOL     OW17011   5.984   5.160   2.986
 5371SOL    HW117012   6.046   5.082   2.978
 5371SOL    HW217013   5.907   5.136   3.045
 5372SOL     OW17014   1.052   1.244   4.431
 5372SOL    HW117015   1.062   1.206   4.523
 5372SOL    HW217016   0.964   1.291   4.423
 5373SOL     OW17017   4.179   6.744   1.063
 5373SOL    HW117018   4.116   6.700   0.999
 5373SOL    HW217019   4.173   6.699   1.153
 5374SOL     OW17020   1.944   3.579   1.602
 5374SOL    HW117021   1.961   3.676   1.620
 5374SOL    HW217022   2.021   3.542   1.549
 5375SOL     OW17023   2.848   4.867   5.077
 5375SOL    HW117024   2.944   4.889   5.062
 5375SOL    HW217025   2.837   4.768   5.089
 5376SOL     OW17026   6.567   6.680   2.263
 5376SOL    HW117027   6.591   6.622   2.185
 5376SOL    HW217028   6.568   6.624   2.347
 5377SOL     OW17029   0.640   3.069   1.280
 5377SOL    HW117030   0.696   3.022   1.350
 5377SOL    HW217031   0.594   3.147   1.321
 5378SOL     OW17032   4.683   0.640   4.914
 5378SOL    HW117033   4.634   0.720   4.882
 5378SOL    HW217034   4.780   0.662   4.923
 5379SOL     OW17035   3.503   2.090   4.308
 5379SOL    HW117036   3.564   2.013   4.324
 5379SOL    HW217037   3.468   2.124   4.396
 5380SOL     OW17038   4.505   0.019   1.589
 5380SOL    HW117039   4.587   6.993   1.555
 5380SOL    HW217040   4.431   6.971   1.596
 5381SOL     OW17041   2.960   1.883   2.359
 5381SOL    HW117042   2.954   1.957   2.292
 5381SOL    HW217043   2.963   1.922   2.451
 5382SOL     OW17044   3.707   0.363   2.944
 5382SOL    HW117045   3.654   0.314   2.874
 5382SOL    HW217046   3.737   0.299   3.014
 5383SOL     OW17047   2.147   4.472   5.521
 5383SOL    HW117048   2.071   4.484   5.585
 5383SOL    HW217049   2.203   4.394   5.550
 5384SOL     OW17050   5.074   5.997   5.845
 5384SOL    HW117051   5.111   5.986   5.753
 5384SOL    HW217052   5.149   6.020   5.908
 5385SOL     OW17053   4.043   4.031   0.931
 5385SOL    HW117054   3.971   4.025   0.862
 5385SOL    HW217055   4.058   3.941   0.971
 5386SOL     OW17056   3.750   5.449   3.219
 5386SOL    HW117057   3.705   5.463   3.308
 5386SOL    HW217058   3.710   5.369   3.174
 5387SOL     OW17059   1.104   2.570   5.443
 5387SOL    HW117060   1.087   2.482   5.399
 5387SOL    HW217061   1.093   2.560   5.542
 5388SOL     OW17062   6.534   6.548   2.926
 5388SOL    HW117063   6.530   6.511   3.019
 5388SOL    HW217064   6.626   6.531   2.888
 5389SOL     OW17065   6.763   2.000   4.703
 5389SOL    HW117066   6.826   2.057   4.758
 5389SOL    HW217067   6.750   2.043   4.613
 5390SOL     OW17068   5.757   2.069   3.419
 5390SOL    HW117069   5.734   2.161   3.387
 5390SOL    HW217070   5.683   2.034   3.476
 5391SOL     OW17071   4.890   3.219   0.521
 5391SOL    HW117072   4.818   3.237   0.588
 5391SOL    HW217073   4.889   3.122   0.496
 5392SOL     OW17074   5.065   1.019   3.665
 5392SOL    HW117075   5.156   1.041   3.699
 5392SOL    HW217076   4.997   1.068   3.720
 5393SOL     OW17077   4.769   2.845   2.528
 5393SOL    HW117078   4.773   2.924   2.468
 5393SOL    HW217079   4.834   2.856   2.603
 5394SOL     OW17080   0.694   3.751   3.453
 5394SOL    HW117081   0.725   3.683   3.520
 5394SOL    HW217082   0.649   3.704   3.378
 5395SOL     OW17083   0.806   0.486   1.809
 5395SOL    HW117084   0.798   0.419   1.735
 5395SOL    HW217085   0.799   0.578   1.772
 5396SOL     OW17086   3.633   2.078   7.014
 5396SOL    HW117087   3.670   2.117   0.080
 5396SOL    HW217088   3.547   2.031   0.014
 5397SOL     OW17089   0.106   6.978   3.149
 5397SOL    HW117090   0.136   6.884   3.137
 5397SOL    HW217091   0.121   7.006   3.244
 5398SOL     OW17092   5.960   2.408   3.505
 5398SOL    HW117093   5.934   2.311   3.507
 5398SOL    HW217094   6.010   2.431   3.589
 5399SOL     OW17095   2.809   2.580   0.457
 5399SOL    HW117096   2.728   2.558   0.402
 5399SOL    HW217097   2.827   2.505   0.521
 5400SOL     OW17098   4.305   3.047   1.121
 5400SOL    HW117099   4.230   3.112   1.131
 5400SOL    HW217100   4.330   3.040   1.025
 5401SOL     OW17101   4.701   3.483   1.221
 5401SOL    HW117102   4.640   3.518   1.292
 5401SOL    HW217103   4.794   3.517   1.238
 5402SOL     OW17104   1.988   5.511   1.362
 5402SOL    HW117105   1.951   5.570   1.290
 5402SOL    HW217106   2.086   5.500   1.348
 5403SOL     OW17107   6.655   2.982   5.242
 5403SOL    HW117108   6.604   2.965   5.157
 5403SOL    HW217109   6.747   2.944   5.233
 5404SOL     OW17110   4.447   6.589   0.095
 5404SOL    HW117111   4.415   6.663   0.036
 5404SOL    HW217112   4.475   6.626   0.184
 5405SOL     OW17113   5.808   5.213   6.430
 5405SOL    HW117114   5.785   5.200   6.333
 5405SOL    HW217115   5.900   5.251   6.438
 5406SOL     OW17116   2.039   1.637   4.890
 5406SOL    HW117117   1.981   1.717   4.907
 5406SOL    HW217118   2.090   1.650   4.805
 5407SOL     OW17119   1.989   2.055   2.351
 5407SOL    HW117120   2.076   2.077   2.395
 5407SOL    HW217121   1.989   1.959   2.323
 5408SOL     OW17122   2.553   2.395   3.938
 5408SOL    HW117123   2.614   2.365   4.011
 5408SOL    HW217124   2.459   2.371   3.962
 5409SOL     OW17125   6.986   4.377   3.610
 5409SOL    HW117126   6.927   4.439   3.663
 5409SOL    HW217127   6.944   4.359   3.521
 5410SOL     OW17128   6.161   1.108   0.173
 5410SOL    HW117129   6.131   1.051   0.250
 5410SOL    HW217130   6.201   1.192   0.207
 5411SOL     OW17131   2.701   6.363   1.923
 5411SOL    HW117132   2.741   6.330   1.837
 5411SOL    HW217133   2.603   6.344   1.923
 5412SOL     OW17134   2.748   2.588   5.626
 5412SOL    HW117135   2.737   2.576   5.725
 5412SOL    HW217136   2.845   2.583   5.602
 5413SOL     OW17137   6.689   5.271   5.599
 5413SOL    HW117138   6.640   5.236   5.519
 5413SOL    HW217139   6.747   5.199   5.637
 5414SOL     OW17140   5.845   5.810   5.755
 5414SOL    HW117141   5.838   5.748   5.676
 5414SOL    HW217142   5.834   5.758   5.839
 5415SOL     OW17143   2.346   0.032   6.848
 5415SOL    HW117144   2.432   0.015   6.895
 5415SOL    HW217145   2.319   0.128   6.861
 5416SOL     OW17146   4.345   5.144   5.817
 5416SOL    HW117147   4.357   5.200   5.899
 5416SOL    HW217148   4.366   5.198   5.736
 5417SOL     OW17149   4.933   0.173   2.208
 5417SOL    HW117150   4.883   0.222   2.280
 5417SOL    HW217151   4.872   0.106   2.165
 5418SOL     OW17152   0.076   3.077   6.119
 5418SOL    HW117153   0.135   3.157   6.131
 5418SOL    HW217154   0.067   3.030   6.206
 5419SOL     OW17155   4.215   2.576   6.271
 5419SOL    HW117156   4.284   2.525   6.322
 5419SOL    HW217157   4.155   2.512   6.224
 5420SOL     OW17158   1.343   1.440   0.893
 5420SOL    HW117159   1.403   1.363   0.912
 5420SOL    HW217160   1.273   1.446   0.964
 5421SOL     OW17161   3.705   5.387   1.031
 5421SOL    HW117162   3.750   5.428   0.952
 5421SOL    HW217163   3.774   5.357   1.097
 5422SOL     OW17164   2.234   0.162   3.597
 5422SOL    HW117165   2.146   0.208   3.582
 5422SOL    HW217166   2.276   0.200   3.680
 5423SOL     OW17167   4.088   5.907   2.959
 5423SOL    HW117168   4.151   5.837   2.993
 5423SOL    HW217169   4.006   5.908   3.016
 5424SOL     OW17170   4.174   2.793   5.764
 5424SOL    HW117171   4.235   2.805   5.842
 5424SOL    HW217172   4.197   2.859   5.693
 5425SOL     OW17173   1.749   5.402   4.471
 5425SOL    HW117174   1.723   5.487   4.425
 5425SOL    HW217175   1.670   5.366   4.521
 5426SOL     OW17176   1.149   3.258   0.013
 5426SOL    HW117177   1.173   3.317   0.090
 5426SOL    HW217178   1.216   3.269   6.959
 5427SOL     OW17179   4.724   1.642   0.367
 5427SOL    HW117180   4.626   1.662   0.374
 5427SOL    HW217181   4.737   1.547   0.338
 5428SOL     OW17182   5.007   5.802   2.186
 5428SOL    HW117183   4.994   5.721   2.129
 5428SOL    HW217184   5.077   5.861   2.146
 5429SOL     OW17185   3.101   6.593   3.075
 5429SOL    HW117186   3.201   6.590   3.077
 5429SOL    HW217187   3.071   6.668   3.016
 5430SOL     OW17188   0.880   3.626   5.527
 5430SOL    HW117189   0.870   3.574   5.442
 5430SOL    HW217190   0.949   3.697   5.515
 5431SOL     OW17191   5.239   3.878   1.142
 5431SOL    HW117192   5.293   3.902   1.222
 5431SOL    HW217193   5.241   3.953   1.076
 5432SOL     OW17194   1.376   5.313   5.510
 5432SOL    HW117195   1.440   5.243   5.541
 5432SOL    HW217196   1.338   5.361   5.589
 5433SOL     OW17197   3.420   6.741   2.316
 5433SOL    HW117198   3.516   6.718   2.333
 5433SOL    HW217199   3.406   6.752   2.217
 5434SOL     OW17200   5.039   6.532   4.370
 5434SOL    HW117201   4.942   6.510   4.367
 5434SOL    HW217202   5.058   6.612   4.312
 5435SOL     OW17203   0.872   3.019   6.924
 5435SOL    HW117204   0.815   2.940   6.903
 5435SOL    HW217205   0.880   3.030   0.004
 5436SOL     OW17206   1.266   4.082   0.947
 5436SOL    HW117207   1.192   4.119   1.004
 5436SOL    HW217208   1.228   4.016   0.883
 5437SOL     OW17209   3.059   0.253   5.512
 5437SOL    HW117210   2.996   0.248   5.590
 5437SOL    HW217211   3.057   0.166   5.462
 5438SOL     OW17212   4.278   6.636   3.687
 5438SOL    HW117213   4.194   6.628   3.635
 5438SOL    HW217214   4.322   6.546   3.694
 5439SOL     OW17215   1.710   3.741   2.034
 5439SOL    HW117216   1.704   3.838   2.008
 5439SOL    HW217217   1.711   3.734   2.133
 5440SOL     OW17218   5.133   6.168   2.747
 5440SOL    HW117219   5.043   6.132   2.722
 5440SOL    HW217220   5.163   6.125   2.833
 5441SOL     OW17221   6.023   0.125   5.036
 5441SOL    HW117222   5.937   0.082   5.064
 5441SOL    HW217223   6.017   0.153   4.940
 5442SOL     OW17224   2.621   6.206   0.097
 5442SOL    HW117225   2.541   6.215   0.156
 5442SOL    HW217226   2.695   6.163   0.148
 5443SOL     OW17227   5.361   1.332   3.104
 5443SOL    HW117228   5.299   1.298   3.175
 5443SOL    HW217229   5.366   1.266   3.030
 5444SOL     OW17230   2.397   1.511   6.215
 5444SOL    HW117231   2.433   1.472   6.300
 5444SOL    HW217232   2.368   1.438   6.153
 5445SOL     OW17233   0.187   5.770   5.703
 5445SOL    HW117234   0.199   5.866   5.730
 5445SOL    HW217235   0.271   5.736   5.661
 5446SOL     OW17236   2.554   4.023   0.465
 5446SOL    HW117237   2.521   3.929   0.479
 5446SOL    HW217238   2.629   4.022   0.399
 5447SOL     OW17239   5.252   2.414   1.657
 5447SOL    HW117240   5.185   2.392   1.728
 5447SOL    HW217241   5.313   2.486   1.691
 5448SOL     OW17242   5.847   5.654   0.978
 5448SOL    HW117243   5.936   5.684   0.944
 5448SOL    HW217244   5.786   5.732   0.986
 5449SOL     OW17245   2.016   0.189   2.253
 5449SOL    HW117246   2.009   0.107   2.310
 5449SOL    HW217247   1.941   0.251   2.275
 5450SOL     OW17248   4.350   4.551   1.963
 5450SOL    HW117249   4.336   4.542   1.864
 5450SOL    HW217250   4.372   4.462   2.001
 5451SOL     OW17251   0.290   5.680   3.394
 5451SOL    HW117252   0.342   5.620   3.333
 5451SOL    HW217253   0.331   5.677   3.485
 5452SOL     OW17254   2.296   4.154   3.799
 5452SOL    HW117255   2.201   4.142   3.770
 5452SOL    HW217256   2.341   4.219   3.738
 5453SOL     OW17257   5.841   4.903   4.306
 5453SOL    HW117258   5.788   4.865   4.382
 5453SOL    HW217259   5.932   4.928   4.339
 5454SOL     OW17260   6.632   3.673   2.647
 5454SOL    HW117261   6.679   3.734   2.711
 5454SOL    HW217262   6.540   3.653   2.682
 5455SOL     OW17263   1.712   1.779   2.905
 5455SOL    HW117264   1.707   1.793   2.806
 5455SOL    HW217265   1.631   1.817   2.948
 5456SOL     OW17266   6.036   3.104   6.986
 5456SOL    HW117267   6.129   3.120   6.951
 5456SOL    HW217268   6.019   3.005   6.990
 5457SOL     OW17269   5.820   0.587   0.486
 5457SOL    HW117270   5.866   0.529   0.553
 5457SOL    HW217271   5.725   0.601   0.513
 5458SOL     OW17272   5.998   4.386   6.539
 5458SOL    HW117273   6.048   4.415   6.457
 5458SOL    HW217274   6.062   4.379   6.616
 5459SOL     OW17275   2.142   3.406   4.992
 5459SOL    HW117276   2.165   3.347   4.914
 5459SOL    HW217277   2.086   3.482   4.960
 5460SOL     OW17278   6.535   1.395   0.920
 5460SOL    HW117279   6.614   1.385   0.859
 5460SOL    HW217280   6.526   1.491   0.948
 5461SOL     OW17281   5.713   0.358   5.730
 5461SOL    HW117282   5.678   0.425   5.795
 5461SOL    HW217283   5.637   0.317   5.680
 5462SOL     OW17284   5.563   5.020   0.640
 5462SOL    HW117285   5.533   5.009   0.545
 5462SOL    HW217286   5.648   4.970   0.654
 5463SOL     OW17287   3.175   4.998   0.119
 5463SOL    HW117288   3.266   4.992   0.077
 5463SOL    HW217289   3.171   5.078   0.178
 5464SOL     OW17290   2.478   5.555   4.476
 5464SOL    HW117291   2.404   5.579   4.413
 5464SOL    HW217292   2.564   5.590   4.440
 5465SOL     OW17293   0.097   1.734   4.896
 5465SOL    HW117294   0.009   1.688   4.889
 5465SOL    HW217295   0.167   1.667   4.922
 5466SOL     OW17296   5.720   2.295   5.005
 5466SOL    HW117297   5.779   2.240   5.063
 5466SOL    HW217298   5.751   2.390   5.005
 5467SOL     OW17299   4.461   4.495   3.048
 5467SOL    HW117300   4.403   4.511   2.968
 5467SOL    HW217301   4.532   4.428   3.025
 5468SOL     OW17302   0.239   2.547   1.396
 5468SOL    HW117303   0.320   2.494   1.421
 5468SOL    HW217304   0.202   2.592   1.477
 5469SOL     OW17305   4.409   0.469   3.086
 5469SOL    HW117306   4.363   0.557   3.083
 5469SOL    HW217307   4.457   0.454   2.999
 5470SOL     OW17308   2.950   4.881   3.063
 5470SOL    HW117309   2.896   4.804   3.029
 5470SOL    HW217310   2.927   4.899   3.159
 5471SOL     OW17311   5.535   1.118   3.728
 5471SOL    HW117312   5.490   1.064   3.657
 5471SOL    HW217313   5.556   1.209   3.692
 5472SOL     OW17314   2.540   5.024   0.928
 5472SOL    HW117315   2.459   5.027   0.869
 5472SOL    HW217316   2.568   4.929   0.942
 5473SOL     OW17317   3.097   4.776   2.085
 5473SOL    HW117318   3.020   4.716   2.066
 5473SOL    HW217319   3.110   4.786   2.184
 5474SOL     OW17320   1.290   5.321   1.540
 5474SOL    HW117321   1.338   5.254   1.484
 5474SOL    HW217322   1.355   5.387   1.577
 5475SOL     OW17323   0.094   1.293   5.028
 5475SOL    HW117324   0.126   1.205   5.064
 5475SOL    HW217325   0.157   1.325   4.956
 5476SOL     OW17326   3.019   1.214   4.409
 5476SOL    HW117327   3.004   1.313   4.404
 5476SOL    HW217328   2.937   1.167   4.378
 5477SOL     OW17329   2.217   4.191   2.806
 5477SOL    HW117330   2.118   4.189   2.823
 5477SOL    HW217331   2.243   4.283   2.778
 5478SOL     OW17332   6.626   3.404   5.561
 5478SOL    HW117333   6.629   3.352   5.476
 5478SOL    HW217334   6.581   3.350   5.632
 5479SOL     OW17335   5.282   4.325   4.794
 5479SOL    HW117336   5.331   4.298   4.876
 5479SOL    HW217337   5.192   4.280   4.792
 5480SOL     OW17338   2.573   2.343   6.432
 5480SOL    HW117339   2.559   2.244   6.430
 5480SOL    HW217340   2.649   2.365   6.492
 5481SOL     OW17341   3.300   0.276   0.942
 5481SOL    HW117342   3.293   0.207   1.014
 5481SOL    HW217343   3.363   0.244   0.872
 5482SOL     OW17344   5.579   4.648   2.559
 5482SOL    HW117345   5.561   4.604   2.471
 5482SOL    HW217346   5.663   4.611   2.598
 5483SOL     OW17347   6.098   1.822   0.996
 5483SOL    HW117348   6.090   1.822   0.896
 5483SOL    HW217349   6.134   1.734   1.026
 5484SOL     OW17350   5.903   6.948   5.654
 5484SOL    HW117351   5.899   0.020   5.612
 5484SOL    HW217352   5.999   6.919   5.660
 5485SOL     OW17353   2.506   1.464   3.868
 5485SOL    HW117354   2.428   1.526   3.857
 5485SOL    HW217355   2.591   1.516   3.859
 5486SOL     OW17356   5.972   1.437   3.703
 5486SOL    HW117357   5.947   1.500   3.777
 5486SOL    HW217358   5.939   1.345   3.725
 5487SOL     OW17359   4.368   5.861   1.440
 5487SOL    HW117360   4.356   5.823   1.349
 5487SOL    HW217361   4.286   5.912   1.466
 5488SOL     OW17362   4.854   0.149   6.489
 5488SOL    HW117363   4.926   0.080   6.502
 5488SOL    HW217364   4.863   0.220   6.559
 5489SOL     OW17365   6.627   2.897   2.630
 5489SOL    HW117366   6.545   2.894   2.686
 5489SOL    HW217367   6.633   2.987   2.585
 5490SOL     OW17368   2.711   1.084   6.554
 5490SOL    HW117369   2.737   1.128   6.639
 5490SOL    HW217370   2.783   1.021   6.525
 5491SOL     OW17371   5.954   6.735   1.455
 5491SOL    HW117372   5.906   6.770   1.536
 5491SOL    HW217373   5.949   6.802   1.382
 5492SOL     OW17374   1.562   1.250   5.707
 5492SOL    HW117375   1.475   1.290   5.680
 5492SOL    HW217376   1.636   1.297   5.659
 5493SOL     OW17377   3.933   0.988   6.451
 5493SOL    HW117378   3.885   0.930   6.516
 5493SOL    HW217379   4.021   0.946   6.428
 5494SOL     OW17380   5.712   3.102   2.576
 5494SOL    HW117381   5.745   3.085   2.483
 5494SOL    HW217382   5.777   3.064   2.642
 5495SOL     OW17383   3.599   3.249   5.017
 5495SOL    HW117384   3.534   3.278   5.086
 5495SOL    HW217385   3.576   3.157   4.985
 5496SOL     OW17386   4.684   4.893   2.019
 5496SOL    HW117387   4.608   4.833   2.044
 5496SOL    HW217388   4.657   4.988   2.033
 5497SOL     OW17389   5.538   6.400   0.184
 5497SOL    HW117390   5.617   6.447   0.224
 5497SOL    HW217391   5.455   6.425   0.235
 5498SOL     OW17392   4.097   0.993   3.438
 5498SOL    HW117393   4.047   1.040   3.510
 5498SOL    HW217394   4.190   1.031   3.433
 5499SOL     OW17395   0.752   0.731   5.067
 5499SOL    HW117396   0.665   0.754   5.110
 5499SOL    HW217397   0.827   0.753   5.129
 5500SOL     OW17398   1.437   6.241   0.544
 5500SOL    HW117399   1.347   6.247   0.501
 5500SOL    HW217400   1.502   6.201   0.480
 5501SOL     OW17401   2.155   1.528   2.136
 5501SOL    HW117402   2.157   1.538   2.037
 5501SOL    HW217403   2.110   1.442   2.160
 5502SOL     OW17404   5.279   4.627   0.621
 5502SOL    HW117405   5.308   4.675   0.703
 5502SOL    HW217406   5.245   4.536   0.645
 5503SOL     OW17407   6.666   0.914   3.890
 5503SOL    HW117408   6.587   0.959   3.931
 5503SOL    HW217409   6.693   0.961   3.806
 5504SOL     OW17410   2.520   2.068   4.504
 5504SOL    HW117411   2.480   2.102   4.589
 5504SOL    HW217412   2.583   2.135   4.467
 5505SOL     OW17413   3.388   5.450   0.981
 5505SOL    HW117414   3.464   5.441   1.046
 5505SOL    HW217415   3.404   5.529   0.922
 5506SOL     OW17416   1.418   6.154   4.966
 5506SOL    HW117417   1.478   6.215   4.914
 5506SOL    HW217418   1.323   6.167   4.936
 5507SOL     OW17419   2.419   5.283   5.237
 5507SOL    HW117420   2.340   5.342   5.253
 5507SOL    HW217421   2.412   5.243   5.146
 5508SOL     OW17422   2.730   1.791   5.370
 5508SOL    HW117423   2.695   1.870   5.319
 5508SOL    HW217424   2.825   1.775   5.344
 5509SOL     OW17425   0.026   0.042   5.748
 5509SOL    HW117426   0.037   0.064   5.845
 5509SOL    HW217427   0.078   6.978   5.727
 5510SOL     OW17428   0.595   0.383   5.374
 5510SOL    HW117429   0.640   0.355   5.458
 5510SOL    HW217430   0.497   0.395   5.391
 5511SOL     OW17431   0.557   2.434   0.957
 5511SOL    HW117432   0.501   2.357   0.985
 5511SOL    HW217433   0.653   2.405   0.950
 5512SOL     OW17434   6.685   6.319   0.142
 5512SOL    HW117435   6.680   6.306   0.043
 5512SOL    HW217436   6.594   6.303   0.182
 5513SOL     OW17437   2.393   6.514   4.948
 5513SOL    HW117438   2.411   6.432   5.002
 5513SOL    HW217439   2.304   6.506   4.904
 5514SOL     OW17440   5.778   5.709   3.559
 5514SOL    HW117441   5.686   5.734   3.527
 5514SOL    HW217442   5.798   5.758   3.644
 5515SOL     OW17443   1.250   3.997   3.778
 5515SOL    HW117444   1.278   3.972   3.685
 5515SOL    HW217445   1.316   3.961   3.843
 5516SOL     OW17446   2.304   2.825   0.121
 5516SOL    HW117447   2.315   2.923   0.133
 5516SOL    HW217448   2.217   2.806   0.076
 5517SOL     OW17449   3.011   0.478   2.432
 5517SOL    HW117450   2.945   0.537   2.385
 5517SOL    HW217451   3.009   0.497   2.530
 5518SOL     OW17452   4.831   3.536   6.249
 5518SOL    HW117453   4.777   3.452   6.252
 5518SOL    HW217454   4.917   3.518   6.202
 5519SOL     OW17455   5.132   3.766   2.225
 5519SOL    HW117456   5.185   3.740   2.306
 5519SOL    HW217457   5.050   3.709   2.219
 5520SOL     OW17458   1.427   2.644   1.052
 5520SOL    HW117459   1.474   2.695   0.980
 5520SOL    HW217460   1.461   2.550   1.053
 5521SOL     OW17461   5.267   4.019   6.387
 5521SOL    HW117462   5.176   4.059   6.394
 5521SOL    HW217463   5.274   3.967   6.302
 5522SOL     OW17464   2.009   2.833   1.487
 5522SOL    HW117465   2.029   2.913   1.543
 5522SOL    HW217466   1.973   2.862   1.399
 5523SOL     OW17467   2.521   6.581   1.504
 5523SOL    HW117468   2.461   6.503   1.488
 5523SOL    HW217469   2.467   6.659   1.535
 5524SOL     OW17470   6.150   6.357   5.892
 5524SOL    HW117471   6.176   6.261   5.883
 5524SOL    HW217472   6.161   6.402   5.803
 5525SOL     OW17473   6.374   6.907   3.165
 5525SOL    HW117474   6.399   6.945   3.254
 5525SOL    HW217475   6.446   6.928   3.099
 5526SOL     OW17476   5.482   4.011   4.712
 5526SOL    HW117477   5.453   4.058   4.628
 5526SOL    HW217478   5.481   4.076   4.788
 5527SOL     OW17479   3.552   2.769   0.264
 5527SOL    HW117480   3.645   2.771   0.225
 5527SOL    HW217481   3.501   2.693   0.223
 5528SOL     OW17482   6.371   2.886   2.743
 5528SOL    HW117483   6.305   2.916   2.811
 5528SOL    HW217484   6.324   2.843   2.666
 5529SOL     OW17485   1.291   1.114   4.527
 5529SOL    HW117486   1.286   1.204   4.484
 5529SOL    HW217487   1.357   1.117   4.602
 5530SOL     OW17488   0.092   2.882   6.645
 5530SOL    HW117489   0.106   2.783   6.646
 5530SOL    HW217490   0.140   2.924   6.722
 5531SOL     OW17491   2.920   2.972   0.648
 5531SOL    HW117492   2.826   2.939   0.638
 5531SOL    HW217493   2.969   2.912   0.712
 5532SOL     OW17494   2.244   2.950   1.701
 5532SOL    HW117495   2.161   3.002   1.680
 5532SOL    HW217496   2.296   2.935   1.617
 5533SOL     OW17497   2.924   0.368   0.961
 5533SOL    HW117498   2.984   0.290   0.975
 5533SOL    HW217499   2.833   0.347   0.998
 5534SOL     OW17500   0.843   3.585   5.262
 5534SOL    HW117501   0.874   3.667   5.213
 5534SOL    HW217502   0.802   3.521   5.198
 5535SOL     OW17503   4.842   5.292   3.190
 5535SOL    HW117504   4.783   5.227   3.142
 5535SOL    HW217505   4.795   5.325   3.272
 5536SOL     OW17506   2.259   1.274   4.357
 5536SOL    HW117507   2.179   1.219   4.334
 5536SOL    HW217508   2.276   1.341   4.284
 5537SOL     OW17509   3.674   1.660   3.621
 5537SOL    HW117510   3.730   1.678   3.702
 5537SOL    HW217511   3.731   1.620   3.550
 5538SOL     OW17512   4.702   2.380   2.858
 5538SOL    HW117513   4.662   2.344   2.943
 5538SOL    HW217514   4.670   2.326   2.781
 5539SOL     OW17515   1.059   0.329   6.169
 5539SOL    HW117516   1.082   0.333   6.072
 5539SOL    HW217517   1.118   0.391   6.220
 5540SOL     OW17518   4.565   6.741   5.053
 5540SOL    HW117519   4.610   6.818   5.008
 5540SOL    HW217520   4.599   6.731   5.146
 5541SOL     OW17521   4.614   2.784   5.260
 5541SOL    HW117522   4.653   2.877   5.264
 5541SOL    HW217523   4.638   2.742   5.173
 5542SOL     OW17524   4.997   4.583   6.943
 5542SOL    HW117525   5.066   4.512   6.933
 5542SOL    HW217526   4.910   4.542   6.972
 5543SOL     OW17527   0.503   0.342   5.813
 5543SOL    HW117528   0.468   0.277   5.880
 5543SOL    HW217529   0.445   0.424   5.813
 5544SOL     OW17530   4.110   5.156   6.938
 5544SOL    HW117531   4.065   5.067   6.947
 5544SOL    HW217532   4.047   5.228   6.967
 5545SOL     OW17533   5.118   2.212   3.625
 5545SOL    HW117534   5.149   2.141   3.561
 5545SOL    HW217535   5.059   2.277   3.576
 5546SOL     OW17536   0.749   6.126   3.930
 5546SOL    HW117537   0.671   6.169   3.975
 5546SOL    HW217538   0.812   6.197   3.897
 5547SOL     OW17539   5.010   1.749   4.390
 5547SOL    HW117540   5.000   1.672   4.327
 5547SOL    HW217541   5.100   1.745   4.434
 5548SOL     OW17542   1.162   3.652   4.713
 5548SOL    HW117543   1.103   3.590   4.764
 5548SOL    HW217544   1.228   3.599   4.660
 5549SOL     OW17545   4.405   3.593   0.157
 5549SOL    HW117546   4.396   3.530   0.079
 5549SOL    HW217547   4.415   3.686   0.123
 5550SOL     OW17548   3.172   4.042   1.356
 5550SOL    HW117549   3.233   3.985   1.412
 5550SOL    HW217550   3.225   4.114   1.311
 5551SOL     OW17551   1.298   4.369   2.148
 5551SOL    HW117552   1.235   4.307   2.102
 5551SOL    HW217553   1.329   4.328   2.234
 5552SOL     OW17554   0.625   0.712   0.759
 5552SOL    HW117555   0.571   0.766   0.694
 5552SOL    HW217556   0.703   0.766   0.791
 5553SOL     OW17557   5.962   5.608   1.428
 5553SOL    HW117558   5.940   5.522   1.474
 5553SOL    HW217559   5.954   5.684   1.493
 5554SOL     OW17560   0.187   2.690   1.667
 5554SOL    HW117561   0.259   2.642   1.717
 5554SOL    HW217562   0.203   2.788   1.671
 5555SOL     OW17563   1.025   4.840   1.737
 5555SOL    HW117564   0.975   4.895   1.804
 5555SOL    HW217565   1.038   4.895   1.654
 5556SOL     OW17566   6.664   1.752   5.321
 5556SOL    HW117567   6.676   1.654   5.305
 5556SOL    HW217568   6.715   1.779   5.403
 5557SOL     OW17569   3.313   0.110   2.638
 5557SOL    HW117570   3.304   0.056   2.722
 5557SOL    HW217571   3.226   0.109   2.589
 5558SOL     OW17572   3.849   3.822   6.172
 5558SOL    HW117573   3.821   3.880   6.096
 5558SOL    HW217574   3.898   3.742   6.137
 5559SOL     OW17575   3.536   0.534   3.320
 5559SOL    HW117576   3.630   0.528   3.287
 5559SOL    HW217577   3.533   0.592   3.402
 5560SOL     OW17578   0.215   5.086   3.269
 5560SOL    HW117579   0.117   5.075   3.257
 5560SOL    HW217580   0.233   5.156   3.339
 5561SOL     OW17581   2.831   0.755   3.592
 5561SOL    HW117582   2.838   0.853   3.573
 5561SOL    HW217583   2.769   0.712   3.527
 5562SOL     OW17584   4.727   2.955   0.832
 5562SOL    HW117585   4.696   3.036   0.881
 5562SOL    HW217586   4.771   2.982   0.746
 5563SOL     OW17587   1.789   4.246   2.563
 5563SOL    HW117588   1.818   4.339   2.542
 5563SOL    HW217589   1.729   4.213   2.490
 5564SOL     OW17590   4.345   6.804   6.972
 5564SOL    HW117591   4.315   6.898   6.988
 5564SOL    HW217592   4.403   6.801   6.890
 5565SOL     OW17593   2.873   2.007   6.503
 5565SOL    HW117594   2.873   1.976   6.598
 5565SOL    HW217595   2.794   2.066   6.488
 5566SOL     OW17596   1.459   5.192   5.183
 5566SOL    HW117597   1.529   5.242   5.133
 5566SOL    HW217598   1.390   5.256   5.216
 5567SOL     OW17599   1.510   5.250   6.511
 5567SOL    HW117600   1.456   5.301   6.444
 5567SOL    HW217601   1.476   5.269   6.603
 5568SOL     OW17602   4.947   5.549   2.285
 5568SOL    HW117603   4.893   5.476   2.242
 5568SOL    HW217604   5.039   5.550   2.245
 5569SOL     OW17605   1.825   2.330   2.837
 5569SOL    HW117606   1.868   2.274   2.908
 5569SOL    HW217607   1.894   2.390   2.796
 5570SOL     OW17608   0.138   3.657   0.985
 5570SOL    HW117609   0.163   3.581   1.044
 5570SOL    HW217610   0.217   3.715   0.969
 5571SOL     OW17611   6.647   4.675   6.728
 5571SOL    HW117612   6.633   4.774   6.734
 5571SOL    HW217613   6.688   4.652   6.640
 5572SOL     OW17614   1.183   4.435   5.636
 5572SOL    HW117615   1.236   4.510   5.676
 5572SOL    HW217616   1.086   4.451   5.652
 5573SOL     OW17617   3.109   4.927   3.451
 5573SOL    HW117618   3.147   5.007   3.498
 5573SOL    HW217619   3.069   4.865   3.517
 5574SOL     OW17620   1.254   1.101   5.994
 5574SOL    HW117621   1.175   1.107   6.056
 5574SOL    HW217622   1.253   1.178   5.931
 5575SOL     OW17623   0.498   0.457   1.771
 5575SOL    HW117624   0.584   0.460   1.822
 5575SOL    HW217625   0.510   0.500   1.682
 5576SOL     OW17626   2.074   5.411   3.199
 5576SOL    HW117627   2.150   5.471   3.221
 5576SOL    HW217628   2.050   5.356   3.279
 5577SOL     OW17629   3.385   1.998   6.407
 5577SOL    HW117630   3.298   2.044   6.425
 5577SOL    HW217631   3.417   1.953   6.490
 5578SOL     OW17632   4.071   3.791   3.465
 5578SOL    HW117633   4.042   3.872   3.516
 5578SOL    HW217634   4.103   3.721   3.530
 5579SOL     OW17635   6.053   3.229   1.900
 5579SOL    HW117636   6.054   3.130   1.909
 5579SOL    HW217637   5.964   3.259   1.866
 5580SOL     OW17638   5.939   2.116   5.920
 5580SOL    HW117639   5.853   2.082   5.883
 5580SOL    HW217640   5.942   2.216   5.911
 5581SOL     OW17641   1.578   0.759   5.538
 5581SOL    HW117642   1.536   0.730   5.625
 5581SOL    HW217643   1.593   0.858   5.539
 5582SOL     OW17644   3.060   2.922   6.186
 5582SOL    HW117645   3.135   2.898   6.125
 5582SOL    HW217646   2.989   2.972   6.135
 5583SOL     OW17647   5.517   6.894   1.209
 5583SOL    HW117648   5.560   6.943   1.133
 5583SOL    HW217649   5.578   6.821   1.241
 5584SOL     OW17650   0.573   3.702   5.089
 5584SOL    HW117651   0.664   3.667   5.071
 5584SOL    HW217652   0.579   3.790   5.137
 5585SOL     OW17653   6.181   4.858   1.329
 5585SOL    HW117654   6.256   4.904   1.377
 5585SOL    HW217655   6.099   4.915   1.334
 5586SOL     OW17656   1.116   6.253   1.926
 5586SOL    HW117657   1.158   6.172   1.885
 5586SOL    HW217658   1.175   6.287   1.999
 5587SOL     OW17659   5.742   1.710   4.727
 5587SOL    HW117660   5.734   1.757   4.639
 5587SOL    HW217661   5.838   1.710   4.757
 5588SOL     OW17662   3.348   6.841   0.901
 5588SOL    HW117663   3.303   6.850   0.990
 5588SOL    HW217664   3.421   6.773   0.907
 5589SOL     OW17665   0.714   4.680   5.631
 5589SOL    HW117666   0.614   4.674   5.626
 5589SOL    HW217667   0.745   4.759   5.580
 5590SOL     OW17668   5.334   5.605   3.406
 5590SOL    HW117669   5.336   5.507   3.386
 5590SOL    HW217670   5.239   5.636   3.413
 5591SOL     OW17671   4.814   1.128   2.671
 5591SOL    HW117672   4.811   1.224   2.641
 5591SOL    HW217673   4.721   1.093   2.680
 5592SOL     OW17674   6.887   5.601   4.672
 5592SOL    HW117675   6.946   5.671   4.713
 5592SOL    HW217676   6.824   5.566   4.741
 5593SOL     OW17677   2.256   4.452   1.326
 5593SOL    HW117678   2.177   4.449   1.387
 5593SOL    HW217679   2.272   4.547   1.298
 5594SOL     OW17680   5.748   6.823   5.315
 5594SOL    HW117681   5.715   6.883   5.388
 5594SOL    HW217682   5.801   6.748   5.354
 5595SOL     OW17683   0.280   1.580   0.989
 5595SOL    HW117684   0.244   1.660   0.942
 5595SOL    HW217685   0.345   1.608   1.060
 5596SOL     OW17686   4.148   6.486   3.092
 5596SOL    HW117687   4.217   6.436   3.039
 5596SOL    HW217688   4.079   6.422   3.126
 5597SOL     OW17689   4.893   3.052   2.288
 5597SOL    HW117690   4.825   3.015   2.226
 5597SOL    HW217691   4.881   3.151   2.295
 5598SOL     OW17692   3.038   0.445   4.139
 5598SOL    HW117693   3.126   0.491   4.123
 5598SOL    HW217694   2.963   0.510   4.122
 5599SOL     OW17695   1.060   1.658   3.604
 5599SOL    HW117696   1.052   1.609   3.690
 5599SOL    HW217697   0.973   1.652   3.554
 5600SOL     OW17698   2.730   2.720   5.385
 5600SOL    HW117699   2.672   2.800   5.401
 5600SOL    HW217700   2.729   2.662   5.466
 5601SOL     OW17701   1.571   0.188   6.634
 5601SOL    HW117702   1.491   0.238   6.667
 5601SOL    HW217703   1.580   0.102   6.685
 5602SOL     OW17704   1.917   1.049   0.155
 5602SOL    HW117705   1.826   1.080   0.182
 5602SOL    HW217706   1.980   1.059   0.232
 5603SOL     OW17707   6.751   3.397   5.141
 5603SOL    HW117708   6.767   3.482   5.192
 5603SOL    HW217709   6.696   3.416   5.060
 5604SOL     OW17710   5.351   0.855   6.581
 5604SOL    HW117711   5.392   0.801   6.655
 5604SOL    HW217712   5.331   0.947   6.613
 5605SOL     OW17713   1.535   1.413   6.444
 5605SOL    HW117714   1.480   1.378   6.368
 5605SOL    HW217715   1.528   1.350   6.521
 5606SOL     OW17716   5.981   6.316   2.843
 5606SOL    HW117717   6.071   6.357   2.861
 5606SOL    HW217718   5.937   6.293   2.929
 5607SOL     OW17719   5.160   6.662   0.821
 5607SOL    HW117720   5.241   6.683   0.877
 5607SOL    HW217721   5.095   6.610   0.876
 5608SOL     OW17722   3.423   6.500   5.300
 5608SOL    HW117723   3.449   6.450   5.383
 5608SOL    HW217724   3.436   6.598   5.315
 5609SOL     OW17725   1.679   5.852   5.040
 5609SOL    HW117726   1.611   5.894   4.980
 5609SOL    HW217727   1.667   5.886   5.133
 5610SOL     OW17728   5.481   6.723   6.654
 5610SOL    HW117729   5.436   6.804   6.690
 5610SOL    HW217730   5.431   6.641   6.683
 5611SOL     OW17731   1.601   4.631   4.240
 5611SOL    HW117732   1.535   4.557   4.241
 5611SOL    HW217733   1.609   4.671   4.331
 5612SOL     OW17734   3.757   6.481   4.425
 5612SOL    HW117735   3.657   6.472   4.428
 5612SOL    HW217736   3.796   6.398   4.385
 5613SOL     OW17737   2.667   5.454   2.670
 5613SOL    HW117738   2.694   5.515   2.596
 5613SOL    HW217739   2.611   5.380   2.635
 5614SOL     OW17740   5.087   2.154   4.539
 5614SOL    HW117741   4.990   2.157   4.565
 5614SOL    HW217742   5.133   2.079   4.586
 5615SOL     OW17743   0.968   1.327   1.580
 5615SOL    HW117744   0.979   1.253   1.647
 5615SOL    HW217745   1.057   1.367   1.560
 5616SOL     OW17746   2.940   6.617   5.009
 5616SOL    HW117747   3.023   6.580   4.966
 5616SOL    HW217748   2.925   6.571   5.096
 5617SOL     OW17749   0.213   1.096   5.821
 5617SOL    HW117750   0.274   1.080   5.743
 5617SOL    HW217751   0.120   1.113   5.789
 5618SOL     OW17752   6.486   5.346   3.677
 5618SOL    HW117753   6.508   5.258   3.636
 5618SOL    HW217754   6.567   5.404   3.677
 5619SOL     OW17755   2.087   2.940   4.116
 5619SOL    HW117756   2.014   2.966   4.179
 5619SOL    HW217757   2.124   2.851   4.144
 5620SOL     OW17758   5.491   1.876   6.173
 5620SOL    HW117759   5.527   1.963   6.206
 5620SOL    HW217760   5.427   1.839   6.240
 5621SOL     OW17761   2.843   1.811   4.990
 5621SOL    HW117762   2.886   1.897   4.962
 5621SOL    HW217763   2.915   1.743   5.007
 5622SOL     OW17764   5.468   1.735   4.771
 5622SOL    HW117765   5.565   1.710   4.774
 5622SOL    HW217766   5.440   1.771   4.859
 5623SOL     OW17767   0.337   6.130   6.471
 5623SOL    HW117768   0.354   6.164   6.379
 5623SOL    HW217769   0.298   6.204   6.527
 5624SOL     OW17770   1.160   4.160   2.907
 5624SOL    HW117771   1.259   4.171   2.903
 5624SOL    HW217772   1.124   4.145   2.815
 5625SOL     OW17773   6.296   1.790   6.041
 5625SOL    HW117774   6.335   1.704   6.009
 5625SOL    HW217775   6.275   1.848   5.963
 5626SOL     OW17776   5.614   6.429   5.457
 5626SOL    HW117777   5.666   6.453   5.540
 5626SOL    HW217778   5.665   6.461   5.377
 5627SOL     OW17779   1.377   0.385   1.624
 5627SOL    HW117780   1.454   0.438   1.659
 5627SOL    HW217781   1.294   0.441   1.625
 5628SOL     OW17782   1.104   1.791   4.158
 5628SOL    HW117783   1.037   1.847   4.109
 5628SOL    HW217784   1.193   1.799   4.113
 5629SOL     OW17785   3.786   3.576   3.455
 5629SOL    HW117786   3.819   3.483   3.471
 5629SOL    HW217787   3.858   3.642   3.478
 5630SOL     OW17788   6.378   3.812   1.238
 5630SOL    HW117789   6.345   3.906   1.234
 5630SOL    HW217790   6.350   3.764   1.155
 5631SOL     OW17791   6.150   1.164   6.280
 5631SOL    HW117792   6.050   1.174   6.272
 5631SOL    HW217793   6.187   1.135   6.192
 5632SOL     OW17794   3.583   2.317   1.086
 5632SOL    HW117795   3.614   2.227   1.116
 5632SOL    HW217796   3.554   2.371   1.165
 5633SOL     OW17797   0.076   2.837   5.976
 5633SOL    HW117798   0.167   2.803   5.998
 5633SOL    HW217799   0.063   2.927   6.017
 5634SOL     OW17800   4.514   5.710   5.449
 5634SOL    HW117801   4.580   5.784   5.464
 5634SOL    HW217802   4.521   5.678   5.355
 5635SOL     OW17803   2.792   1.440   0.090
 5635SOL    HW117804   2.873   1.498   0.102
 5635SOL    HW217805   2.737   1.474   0.014
 5636SOL     OW17806   4.478   0.896   4.209
 5636SOL    HW117807   4.390   0.943   4.205
 5636SOL    HW217808   4.463   0.797   4.210
 5637SOL     OW17809   5.832   6.851   2.557
 5637SOL    HW117810   5.875   6.768   2.590
 5637SOL    HW217811   5.827   6.918   2.631
 5638SOL     OW17812   0.390   3.345   0.341
 5638SOL    HW117813   0.331   3.265   0.348
 5638SOL    HW217814   0.485   3.318   0.357
 5639SOL     OW17815   4.218   0.200   6.534
 5639SOL    HW117816   4.121   0.217   6.516
 5639SOL    HW217817   4.241   0.235   6.625
 5640SOL     OW17818   1.290   0.016   3.330
 5640SOL    HW117819   1.257   0.098   3.285
 5640SOL    HW217820   1.254   6.954   3.283
 5641SOL     OW17821   6.561   6.128   4.788
 5641SOL    HW117822   6.641   6.093   4.739
 5641SOL    HW217823   6.482   6.125   4.727
 5642SOL     OW17824   1.659   0.593   0.344
 5642SOL    HW117825   1.629   0.685   0.318
 5642SOL    HW217826   1.679   0.591   0.442
 5643SOL     OW17827   5.127   2.184   0.198
 5643SOL    HW117828   5.087   2.244   0.129
 5643SOL    HW217829   5.122   2.089   0.167
 5644SOL     OW17830   2.595   0.405   5.956
 5644SOL    HW117831   2.625   0.450   5.872
 5644SOL    HW217832   2.500   0.378   5.947
 5645SOL     OW17833   4.867   4.031   3.931
 5645SOL    HW117834   4.876   4.125   3.898
 5645SOL    HW217835   4.896   3.968   3.860
 5646SOL     OW17836   1.404   4.527   2.691
 5646SOL    HW117837   1.474   4.587   2.653
 5646SOL    HW217838   1.335   4.581   2.739
 5647SOL     OW17839   4.241   5.495   2.648
 5647SOL    HW117840   4.199   5.416   2.692
 5647SOL    HW217841   4.232   5.486   2.549
 5648SOL     OW17842   5.397   6.512   3.425
 5648SOL    HW117843   5.379   6.592   3.483
 5648SOL    HW217844   5.442   6.541   3.340
 5649SOL     OW17845   0.590   0.744   4.788
 5649SOL    HW117846   0.675   0.701   4.818
 5649SOL    HW217847   0.533   0.676   4.743
 5650SOL     OW17848   0.608   3.737   6.226
 5650SOL    HW117849   0.625   3.815   6.166
 5650SOL    HW217850   0.667   3.661   6.200
 5651SOL     OW17851   3.077   0.929   1.633
 5651SOL    HW117852   3.028   0.893   1.553
 5651SOL    HW217853   3.020   0.996   1.680
 5652SOL     OW17854   0.191   6.074   1.816
 5652SOL    HW117855   0.245   6.094   1.734
 5652SOL    HW217856   0.222   6.134   1.890
 5653SOL     OW17857   0.040   0.420   2.635
 5653SOL    HW117858   0.055   0.349   2.704
 5653SOL    HW217859   7.011   0.381   2.557
 5654SOL     OW17860   3.476   6.024   5.999
 5654SOL    HW117861   3.452   5.944   6.053
 5654SOL    HW217862   3.453   6.107   6.049
 5655SOL     OW17863   6.352   3.246   4.201
 5655SOL    HW117864   6.288   3.215   4.271
 5655SOL    HW217865   6.308   3.314   4.143
 5656SOL     OW17866   0.568   4.718   1.740
 5656SOL    HW117867   0.566   4.629   1.786
 5656SOL    HW217868   0.551   4.790   1.807
 5657SOL     OW17869   5.879   6.274   5.777
 5657SOL    HW117870   5.918   6.283   5.869
 5657SOL    HW217871   5.909   6.187   5.737
 5658SOL     OW17872   2.997   2.430   5.347
 5658SOL    HW117873   3.082   2.411   5.298
 5658SOL    HW217874   2.944   2.345   5.356
 5659SOL     OW17875   2.562   4.006   5.540
 5659SOL    HW117876   2.613   4.035   5.621
 5659SOL    HW217877   2.561   4.079   5.472
 5660SOL     OW17878   3.955   0.667   4.396
 5660SOL    HW117879   4.027   0.612   4.438
 5660SOL    HW217880   3.869   0.653   4.445
 5661SOL     OW17881   0.215   6.011   5.784
 5661SOL    HW117882   0.287   5.976   5.844
 5661SOL    HW217883   0.228   6.109   5.771
 5662SOL     OW17884   2.806   5.703   0.859
 5662SOL    HW117885   2.905   5.694   0.870
 5662SOL    HW217886   2.772   5.773   0.922
 5663SOL     OW17887   3.530   1.669   6.373
 5663SOL    HW117888   3.548   1.756   6.327
 5663SOL    HW217889   3.593   1.658   6.449
 5664SOL     OW17890   4.903   6.092   4.994
 5664SOL    HW117891   4.853   6.069   4.911
 5664SOL    HW217892   4.917   6.191   4.999
 5665SOL     OW17893   2.248   1.039   0.604
 5665SOL    HW117894   2.342   1.074   0.605
 5665SOL    HW217895   2.241   0.960   0.665
 5666SOL     OW17896   6.106   3.444   4.955
 5666SOL    HW117897   6.099   3.351   4.917
 5666SOL    HW217898   6.025   3.497   4.929
 5667SOL     OW17899   2.530   4.622   3.987
 5667SOL    HW117900   2.467   4.554   3.949
 5667SOL    HW217901   2.593   4.652   3.916
 5668SOL     OW17902   4.449   4.609   3.965
 5668SOL    HW117903   4.536   4.631   3.921
 5668SOL    HW217904   4.384   4.683   3.950
 5669SOL     OW17905   5.721   3.498   5.834
 5669SOL    HW117906   5.797   3.433   5.842
 5669SOL    HW217907   5.715   3.553   5.917
 5670SOL     OW17908   0.885   3.233   4.378
 5670SOL    HW117909   0.795   3.208   4.342
 5670SOL    HW217910   0.894   3.333   4.380
 5671SOL     OW17911   5.818   6.019   2.635
 5671SOL    HW117912   5.898   5.961   2.651
 5671SOL    HW217913   5.747   5.965   2.590
 5672SOL     OW17914   6.147   3.171   4.765
 5672SOL    HW117915   6.055   3.190   4.732
 5672SOL    HW217916   6.215   3.201   4.698
 5673SOL     OW17917   1.079   2.246   0.613
 5673SOL    HW117918   1.107   2.299   0.533
 5673SOL    HW217919   1.134   2.273   0.692
 5674SOL     OW17920   3.167   5.242   5.371
 5674SOL    HW117921   3.162   5.223   5.272
 5674SOL    HW217922   3.228   5.319   5.387
 5675SOL     OW17923   3.515   1.759   0.720
 5675SOL    HW117924   3.485   1.854   0.721
 5675SOL    HW217925   3.520   1.724   0.813
 5676SOL     OW17926   3.677   1.396   1.990
 5676SOL    HW117927   3.774   1.412   2.010
 5676SOL    HW217928   3.633   1.353   2.069
 5677SOL     OW17929   1.484   0.949   5.929
 5677SOL    HW117930   1.400   1.003   5.919
 5677SOL    HW217931   1.563   1.011   5.930
 5678SOL     OW17932   4.051   2.004   1.798
 5678SOL    HW117933   4.026   2.040   1.889
 5678SOL    HW217934   3.969   1.969   1.753
 5679SOL     OW17935   1.272   4.029   5.694
 5679SOL    HW117936   1.253   4.085   5.614
 5679SOL    HW217937   1.360   3.982   5.681
 5680SOL     OW17938   0.853   5.932   4.097
 5680SOL    HW117939   0.784   5.878   4.146
 5680SOL    HW217940   0.807   6.001   4.041
 5681SOL     OW17941   1.856   3.583   3.017
 5681SOL    HW117942   1.813   3.496   3.039
 5681SOL    HW217943   1.831   3.611   2.925
 5682SOL     OW17944   2.070   4.450   0.004
 5682SOL    HW117945   2.019   4.431   6.939
 5682SOL    HW217946   2.114   4.366   0.035
 5683SOL     OW17947   6.747   6.317   6.016
 5683SOL    HW117948   6.844   6.343   6.020
 5683SOL    HW217949   6.739   6.218   6.004
 5684SOL     OW17950   2.083   3.673   4.254
 5684SOL    HW117951   2.152   3.744   4.270
 5684SOL    HW217952   2.065   3.625   4.340
 5685SOL     OW17953   1.872   2.132   1.681
 5685SOL    HW117954   1.919   2.044   1.676
 5685SOL    HW217955   1.936   2.202   1.714
 5686SOL     OW17956   5.693   5.534   5.642
 5686SOL    HW117957   5.673   5.464   5.572
 5686SOL    HW217958   5.616   5.539   5.706
 5687SOL     OW17959   1.324   0.377   6.879
 5687SOL    HW117960   1.278   0.397   6.966
 5687SOL    HW217961   1.256   0.342   6.814
 5688SOL     OW17962   1.243   3.066   2.511
 5688SOL    HW117963   1.203   3.075   2.602
 5688SOL    HW217964   1.278   2.973   2.500
 5689SOL     OW17965   0.276   1.373   0.797
 5689SOL    HW117966   0.309   1.442   0.862
 5689SOL    HW217967   0.338   1.295   0.796
 5690SOL     OW17968   3.576   5.508   0.094
 5690SOL    HW117969   3.661   5.493   0.146
 5690SOL    HW217970   3.554   5.606   0.096
 5691SOL     OW17971   4.825   3.182   3.421
 5691SOL    HW117972   4.805   3.225   3.333
 5691SOL    HW217973   4.877   3.245   3.478
 5692SOL     OW17974   6.239   4.709   2.182
 5692SOL    HW117975   6.298   4.641   2.138
 5692SOL    HW217976   6.257   4.710   2.281
 5693SOL     OW17977   3.080   0.866   2.330
 5693SOL    HW117978   3.089   0.854   2.429
 5693SOL    HW217979   2.997   0.821   2.298
 5694SOL     OW17980   6.957   6.555   0.903
 5694SOL    HW117981   0.006   6.537   0.973
 5694SOL    HW217982   6.998   6.609   0.830
 5695SOL     OW17983   1.806   0.868   2.321
 5695SOL    HW117984   1.796   0.770   2.332
 5695SOL    HW217985   1.797   0.892   2.224
 5696SOL     OW17986   6.621   1.320   3.258
 5696SOL    HW117987   6.682   1.291   3.332
 5696SOL    HW217988   6.638   1.263   3.177
 5697SOL     OW17989   5.975   1.670   0.356
 5697SOL    HW117990   6.063   1.623   0.356
 5697SOL    HW217991   5.987   1.764   0.325
 5698SOL     OW17992   2.967   2.119   3.006
 5698SOL    HW117993   3.031   2.122   3.083
 5698SOL    HW217994   3.018   2.120   2.920
 5699SOL     OW17995   2.415   2.570   2.483
 5699SOL    HW117996   2.506   2.556   2.524
 5699SOL    HW217997   2.385   2.664   2.499
 5700SOL     OW17998   5.691   0.906   2.102
 5700SOL    HW117999   5.763   0.962   2.061
 5700SOL    HW218000   5.731   0.821   2.138
 5701SOL     OW18001   2.008   1.047   0.787
 5701SOL    HW118002   2.045   0.999   0.867
 5701SOL    HW218003   1.992   0.982   0.713
 5702SOL     OW18004   1.361   6.123   4.668
 5702SOL    HW118005   1.333   6.033   4.636
 5702SOL    HW218006   1.461   6.127   4.674
 5703SOL     OW18007   1.053   3.301   5.940
 5703SOL    HW118008   1.058   3.401   5.948
 5703SOL    HW218009   0.987   3.266   6.006
 5704SOL     OW18010   4.412   5.725   4.318
 5704SOL    HW118011   4.464   5.664   4.377
 5704SOL    HW218012   4.337   5.765   4.370
 5705SOL     OW18013   6.043   1.456   4.880
 5705SOL    HW118014   5.946   1.447   4.901
 5705SOL    HW218015   6.065   1.399   4.800
 5706SOL     OW18016   5.639   0.834   1.516
 5706SOL    HW118017   5.587   0.844   1.431
 5706SOL    HW218018   5.576   0.828   1.593
 5707SOL     OW18019   6.026   6.154   1.432
 5707SOL    HW118020   6.013   6.104   1.347
 5707SOL    HW218021   6.043   6.251   1.412
 5708SOL     OW18022   4.383   6.682   1.918
 5708SOL    HW118023   4.344   6.773   1.904
 5708SOL    HW218024   4.445   6.661   1.842
 5709SOL     OW18025   6.592   2.455   2.458
 5709SOL    HW118026   6.549   2.545   2.469
 5709SOL    HW218027   6.559   2.413   2.373
 5710SOL     OW18028   5.486   1.202   0.423
 5710SOL    HW118029   5.402   1.181   0.474
 5710SOL    HW218030   5.538   1.117   0.409
 5711SOL     OW18031   4.080   1.451   2.790
 5711SOL    HW118032   4.160   1.398   2.818
 5711SOL    HW218033   4.032   1.403   2.717
 5712SOL     OW18034   6.649   5.619   6.639
 5712SOL    HW118035   6.734   5.638   6.689
 5712SOL    HW218036   6.596   5.551   6.690
 5713SOL     OW18037   1.284   1.463   0.118
 5713SOL    HW118038   1.225   1.404   0.173
 5713SOL    HW218039   1.250   1.467   0.024
 5714SOL     OW18040   4.800   0.295   0.983
 5714SOL    HW118041   4.819   0.354   1.061
 5714SOL    HW218042   4.772   0.205   1.015
 5715SOL     OW18043   0.439   6.068   0.872
 5715SOL    HW118044   0.412   6.158   0.838
 5715SOL    HW218045   0.357   6.014   0.892
 5716SOL     OW18046   6.966   4.888   5.858
 5716SOL    HW118047   0.031   4.909   5.907
 5716SOL    HW218048   6.917   4.815   5.905
 5717SOL     OW18049   6.948   6.060   2.471
 5717SOL    HW118050   6.849   6.062   2.488
 5717SOL    HW218051   6.992   6.132   2.523
 5718SOL     OW18052   1.583   4.672   6.184
 5718SOL    HW118053   1.608   4.678   6.087
 5718SOL    HW218054   1.600   4.579   6.217
 5719SOL     OW18055   3.546   3.607   1.519
 5719SOL    HW118056   3.457   3.640   1.486
 5719SOL    HW218057   3.561   3.639   1.612
 5720SOL     OW18058   2.538   3.846   6.592
 5720SOL    HW118059   2.449   3.807   6.569
 5720SOL    HW218060   2.572   3.804   6.676
 5721SOL     OW18061   0.668   3.036   0.603
 5721SOL    HW118062   0.600   3.107   0.619
 5721SOL    HW218063   0.676   2.979   0.685
 5722SOL     OW18064   1.643   0.500   6.017
 5722SOL    HW118065   1.615   0.441   6.092
 5722SOL    HW218066   1.694   0.579   6.053
 5723SOL     OW18067   4.505   3.885   0.268
 5723SOL    HW118068   4.571   3.950   0.305
 5723SOL    HW218069   4.445   3.853   0.341
 5724SOL     OW18070   6.925   1.912   6.438
 5724SOL    HW118071   6.842   1.965   6.452
 5724SOL    HW218072   6.919   1.862   6.352
 5725SOL     OW18073   6.554   4.164   4.524
 5725SOL    HW118074   6.456   4.161   4.504
 5725SOL    HW218075   6.601   4.221   4.457
 5726SOL     OW18076   4.204   4.751   2.096
 5726SOL    HW118077   4.221   4.722   2.191
 5726SOL    HW218078   4.227   4.676   2.034
 5727SOL     OW18079   0.998   3.159   6.205
 5727SOL    HW118080   0.906   3.136   6.237
 5727SOL    HW218081   1.028   3.244   6.249
 5728SOL     OW18082   2.146   5.835   4.017
 5728SOL    HW118083   2.067   5.801   3.965
 5728SOL    HW218084   2.117   5.855   4.111
 5729SOL     OW18085   2.825   1.719   4.301
 5729SOL    HW118086   2.733   1.758   4.313
 5729SOL    HW218087   2.893   1.790   4.319
 5730SOL     OW18088   6.344   5.018   4.529
 5730SOL    HW118089   6.373   4.964   4.450
 5730SOL    HW218090   6.402   4.996   4.607
 5731SOL     OW18091   6.820   6.754   2.687
 5731SOL    HW118092   6.863   6.829   2.637
 5731SOL    HW218093   6.887   6.714   2.749
 5732SOL     OW18094   5.089   0.290   3.553
 5732SOL    HW118095   5.065   0.278   3.456
 5732SOL    HW218096   5.013   0.333   3.601
 5733SOL     OW18097   2.935   0.639   4.940
 5733SOL    HW118098   2.897   0.731   4.946
 5733SOL    HW218099   3.013   0.639   4.877
 5734SOL     OW18100   2.117   6.136   4.253
 5734SOL    HW118101   2.147   6.159   4.161
 5734SOL    HW218102   2.166   6.194   4.319
 5735SOL     OW18103   2.517   0.703   1.553
 5735SOL    HW118104   2.494   0.780   1.613
 5735SOL    HW218105   2.531   0.736   1.460
 5736SOL     OW18106   1.582   4.535   1.404
 5736SOL    HW118107   1.524   4.532   1.323
 5736SOL    HW218108   1.536   4.588   1.476
 5737SOL     OW18109   6.050   3.881   0.231
 5737SOL    HW118110   6.064   3.978   0.250
 5737SOL    HW218111   6.117   3.827   0.281
 5738SOL     OW18112   1.023   5.727   4.196
 5738SOL    HW118113   0.962   5.688   4.264
 5738SOL    HW218114   0.981   5.807   4.154
 5739SOL     OW18115   0.792   2.321   0.891
 5739SOL    HW118116   0.775   2.250   0.823
 5739SOL    HW218117   0.867   2.292   0.951
 5740SOL     OW18118   4.514   4.951   0.221
 5740SOL    HW118119   4.572   4.982   0.145
 5740SOL    HW218120   4.432   5.009   0.226
 5741SOL     OW18121   0.149   2.365   1.898
 5741SOL    HW118122   0.086   2.441   1.883
 5741SOL    HW218123   0.141   2.299   1.823
 5742SOL     OW18124   6.942   5.329   3.714
 5742SOL    HW118125   6.903   5.319   3.805
 5742SOL    HW218126   6.976   5.240   3.682
 5743SOL     OW18127   0.806   0.976   4.904
 5743SOL    HW118128   0.798   0.883   4.940
 5743SOL    HW218129   0.738   0.989   4.832
 5744SOL     OW18130   6.225   0.491   2.310
 5744SOL    HW118131   6.247   0.415   2.371
 5744SOL    HW218132   6.309   0.525   2.267
 5745SOL     OW18133   6.669   3.554   2.416
 5745SOL    HW118134   6.581   3.548   2.368
 5745SOL    HW218135   6.655   3.595   2.506
 5746SOL     OW18136   0.791   3.522   6.159
 5746SOL    HW118137   0.880   3.568   6.150
 5746SOL    HW218138   0.780   3.457   6.084
 5747SOL     OW18139   6.806   6.504   3.731
 5747SOL    HW118140   6.773   6.501   3.825
 5747SOL    HW218141   6.824   6.411   3.699
 5748SOL     OW18142   1.254   1.524   4.073
 5748SOL    HW118143   1.309   1.469   4.010
 5748SOL    HW218144   1.204   1.464   4.135
 5749SOL     OW18145   0.369   1.603   3.087
 5749SOL    HW118146   0.329   1.586   3.177
 5749SOL    HW218147   0.455   1.552   3.078
 5750SOL     OW18148   4.231   5.984   2.612
 5750SOL    HW118149   4.231   5.975   2.512
 5750SOL    HW218150   4.321   6.014   2.642
 5751SOL     OW18151   1.325   1.965   6.725
 5751SOL    HW118152   1.386   1.886   6.729
 5751SOL    HW218153   1.290   1.976   6.632
 5752SOL     OW18154   2.073   0.810   6.679
 5752SOL    HW118155   2.126   0.852   6.605
 5752SOL    HW218156   2.099   0.853   6.766
 5753SOL     OW18157   4.260   1.588   6.449
 5753SOL    HW118158   4.166   1.582   6.414
 5753SOL    HW218159   4.266   1.664   6.514
 5754SOL     OW18160   5.926   5.910   0.662
 5754SOL    HW118161   5.971   5.846   0.600
 5754SOL    HW218162   5.827   5.900   0.655
 5755SOL     OW18163   3.281   3.736   2.111
 5755SOL    HW118164   3.380   3.736   2.106
 5755SOL    HW218165   3.243   3.754   2.020
 5756SOL     OW18166   6.159   0.122   3.912
 5756SOL    HW118167   6.091   0.184   3.872
 5756SOL    HW218168   6.245   0.171   3.923
 5757SOL     OW18169   6.767   6.803   1.631
 5757SOL    HW118170   6.765   6.777   1.727
 5757SOL    HW218171   6.825   6.885   1.620
 5758SOL     OW18172   2.704   0.793   5.694
 5758SOL    HW118173   2.689   0.831   5.785
 5758SOL    HW218174   2.688   0.864   5.625
 5759SOL     OW18175   0.705   1.342   5.682
 5759SOL    HW118176   0.712   1.364   5.585
 5759SOL    HW218177   0.743   1.251   5.700
 5760SOL     OW18178   6.471   5.830   1.920
 5760SOL    HW118179   6.531   5.769   1.971
 5760SOL    HW218180   6.468   5.920   1.964
 5761SOL     OW18181   3.545   0.704   4.520
 5761SOL    HW118182   3.533   0.715   4.422
 5761SOL    HW218183   3.548   0.794   4.564
 5762SOL     OW18184   4.528   0.462   1.460
 5762SOL    HW118185   4.517   0.481   1.362
 5762SOL    HW218186   4.583   0.534   1.502
 5763SOL     OW18187   3.645   0.888   1.243
 5763SOL    HW118188   3.601   0.927   1.162
 5763SOL    HW218189   3.637   0.951   1.320
 5764SOL     OW18190   3.484   2.638   6.855
 5764SOL    HW118191   3.527   2.728   6.848
 5764SOL    HW218192   3.385   2.647   6.847
 5765SOL     OW18193   6.877   5.051   6.145
 5765SOL    HW118194   6.943   5.018   6.077
 5765SOL    HW218195   6.870   5.150   6.140
 5766SOL     OW18196   2.441   1.692   3.315
 5766SOL    HW118197   2.453   1.618   3.382
 5766SOL    HW218198   2.489   1.668   3.231
 5767SOL     OW18199   4.719   6.272   0.167
 5767SOL    HW118200   4.726   6.363   0.127
 5767SOL    HW218201   4.671   6.211   0.104
 5768SOL     OW18202   5.456   0.086   2.446
 5768SOL    HW118203   5.478   0.183   2.458
 5768SOL    HW218204   5.360   0.071   2.469
 5769SOL     OW18205   0.004   5.081   3.645
 5769SOL    HW118206   6.988   5.025   3.719
 5769SOL    HW218207   0.017   5.025   3.563
 5770SOL     OW18208   4.836   2.538   0.823
 5770SOL    HW118209   4.900   2.556   0.749
 5770SOL    HW218210   4.813   2.623   0.870
 5771SOL     OW18211   0.773   0.336   1.597
 5771SOL    HW118212   0.859   0.304   1.557
 5771SOL    HW218213   0.697   0.312   1.537
 5772SOL     OW18214   6.120   5.045   5.664
 5772SOL    HW118215   6.022   5.043   5.687
 5772SOL    HW218216   6.169   4.977   5.718
 5773SOL     OW18217   4.903   6.222   5.576
 5773SOL    HW118218   4.979   6.213   5.639
 5773SOL    HW218219   4.935   6.263   5.490
 5774SOL     OW18220   1.667   4.383   1.766
 5774SOL    HW118221   1.762   4.414   1.766
 5774SOL    HW218222   1.634   4.375   1.672
 5775SOL     OW18223   1.529   1.403   0.455
 5775SOL    HW118224   1.536   1.392   0.356
 5775SOL    HW218225   1.513   1.314   0.498
 5776SOL     OW18226   5.262   0.599   5.738
 5776SOL    HW118227   5.310   0.681   5.770
 5776SOL    HW218228   5.177   0.588   5.788
 5777SOL     OW18229   4.605   6.384   4.949
 5777SOL    HW118230   4.597   6.453   5.020
 5777SOL    HW218231   4.602   6.427   4.859
 5778SOL     OW18232   2.237   6.635   3.583
 5778SOL    HW118233   2.273   6.728   3.580
 5778SOL    HW218234   2.312   6.570   3.572
 5779SOL     OW18235   3.088   6.378   2.230
 5779SOL    HW118236   3.141   6.445   2.281
 5779SOL    HW218237   3.020   6.424   2.173
 5780SOL     OW18238   6.965   4.617   0.029
 5780SOL    HW118239   6.890   4.594   6.987
 5780SOL    HW218240   6.980   4.542   0.094
 5781SOL     OW18241   5.076   4.890   5.700
 5781SOL    HW118242   5.050   4.986   5.709
 5781SOL    HW218243   5.081   4.865   5.604
 5782SOL     OW18244   4.608   1.661   2.723
 5782SOL    HW118245   4.583   1.654   2.627
 5782SOL    HW218246   4.693   1.611   2.739
 5783SOL     OW18247   3.111   6.249   3.582
 5783SOL    HW118248   3.041   6.179   3.593
 5783SOL    HW218249   3.069   6.339   3.572
 5784SOL     OW18250   7.000   6.734   2.231
 5784SOL    HW118251   0.029   6.774   2.309
 5784SOL    HW218252   0.035   6.659   2.193
 5785SOL     OW18253   2.720   1.077   5.547
 5785SOL    HW118254   2.626   1.110   5.550
 5785SOL    HW218255   2.736   1.032   5.459
 5786SOL     OW18256   2.243   1.241   6.151
 5786SOL    HW118257   2.293   1.250   6.065
 5786SOL    HW218258   2.151   1.205   6.133
 5787SOL     OW18259   0.760   2.326   6.278
 5787SOL    HW118260   0.794   2.258   6.213
 5787SOL    HW218261   0.777   2.418   6.241
 5788SOL     OW18262   0.569   2.391   1.845
 5788SOL    HW118263   0.669   2.393   1.845
 5788SOL    HW218264   0.537   2.329   1.773
 5789SOL     OW18265   3.308   1.669   6.756
 5789SOL    HW118266   3.378   1.741   6.759
 5789SOL    HW218267   3.230   1.696   6.814
 5790SOL     OW18268   6.081   6.221   2.539
 5790SOL    HW118269   6.044   6.307   2.504
 5790SOL    HW218270   6.045   6.204   2.631
 5791SOL     OW18271   3.694   0.792   1.817
 5791SOL    HW118272   3.690   0.806   1.718
 5791SOL    HW218273   3.790   0.783   1.845
 5792SOL     OW18274   4.681   1.707   2.442
 5792SOL    HW118275   4.744   1.666   2.375
 5792SOL    HW218276   4.704   1.804   2.453
 5793SOL     OW18277   4.235   1.634   0.529
 5793SOL    HW118278   4.223   1.716   0.585
 5793SOL    HW218279   4.215   1.553   0.584
 5794SOL     OW18280   3.362   6.425   6.934
 5794SOL    HW118281   3.451   6.453   6.899
 5794SOL    HW218282   3.361   6.325   6.946
 5795SOL     OW18283   0.459   6.990   2.017
 5795SOL    HW118284   0.386   6.928   2.048
 5795SOL    HW218285   0.424   0.064   2.016
 5796SOL     OW18286   4.775   0.959   5.894
 5796SOL    HW118287   4.677   0.965   5.914
 5796SOL    HW218288   4.826   0.949   5.980
 5797SOL     OW18289   6.028   1.397   6.006
 5797SOL    HW118290   6.121   1.379   6.036
 5797SOL    HW218291   5.964   1.379   6.081
 5798SOL     OW18292   2.250   2.866   4.491
 5798SOL    HW118293   2.194   2.836   4.568
 5798SOL    HW218294   2.229   2.961   4.470
 5799SOL     OW18295   2.783   1.050   3.510
 5799SOL    HW118296   2.766   1.120   3.580
 5799SOL    HW218297   2.699   0.997   3.495
 5800SOL     OW18298   1.794   6.025   1.426
 5800SOL    HW118299   1.790   6.074   1.339
 5800SOL    HW218300   1.710   6.040   1.477
 5801SOL     OW18301   1.537   2.270   3.204
 5801SOL    HW118302   1.539   2.252   3.106
 5801SOL    HW218303   1.454   2.231   3.244
 5802SOL     OW18304   0.197   6.412   2.309
 5802SOL    HW118305   0.192   6.405   2.409
 5802SOL    HW218306   0.149   6.334   2.268
 5803SOL     OW18307   0.023   6.909   4.356
 5803SOL    HW118308   7.013   6.897   4.261
 5803SOL    HW218309   6.962   6.915   4.416
 5804SOL     OW18310   6.371   2.731   3.225
 5804SOL    HW118311   6.454   2.762   3.179
 5804SOL    HW218312   6.293   2.787   3.195
 5805SOL     OW18313   0.712   1.395   1.662
 5805SOL    HW118314   0.708   1.487   1.702
 5805SOL    HW218315   0.805   1.375   1.634
 5806SOL     OW18316   6.630   3.977   1.933
 5806SOL    HW118317   6.646   3.896   1.990
 5806SOL    HW218318   6.548   4.025   1.966
 5807SOL     OW18319   1.002   0.735   2.924
 5807SOL    HW118320   1.008   0.835   2.912
 5807SOL    HW218321   1.027   0.690   2.839
 5808SOL     OW18322   5.802   5.669   5.986
 5808SOL    HW118323   5.766   5.732   6.054
 5808SOL    HW218324   5.822   5.581   6.030
 5809SOL     OW18325   6.582   3.805   5.226
 5809SOL    HW118326   6.539   3.868   5.290
 5809SOL    HW218327   6.670   3.775   5.264
 5810SOL     OW18328   0.867   6.166   4.860
 5810SOL    HW118329   0.769   6.147   4.872
 5810SOL    HW218330   0.882   6.202   4.768
 5811SOL     OW18331   3.197   5.242   0.245
 5811SOL    HW118332   3.275   5.242   0.307
 5811SOL    HW218333   3.141   5.323   0.261
 5812SOL     OW18334   5.969   2.398   5.883
 5812SOL    HW118335   5.899   2.456   5.925
 5812SOL    HW218336   5.978   2.421   5.786
 5813SOL     OW18337   6.775   5.457   1.041
 5813SOL    HW118338   6.799   5.520   0.967
 5813SOL    HW218339   6.776   5.364   1.006
 5814SOL     OW18340   4.862   1.562   2.705
 5814SOL    HW118341   4.909   1.643   2.669
 5814SOL    HW218342   4.930   1.496   2.739
 5815SOL     OW18343   0.331   4.778   4.803
 5815SOL    HW118344   0.234   4.803   4.802
 5815SOL    HW218345   0.341   4.684   4.835
 5816SOL     OW18346   6.747   3.573   1.158
 5816SOL    HW118347   6.737   3.652   1.219
 5816SOL    HW218348   6.725   3.490   1.208
 5817SOL     OW18349   0.163   2.039   3.451
 5817SOL    HW118350   0.186   1.946   3.480
 5817SOL    HW218351   0.089   2.036   3.385
 5818SOL     OW18352   2.742   1.607   3.841
 5818SOL    HW118353   2.783   1.675   3.901
 5818SOL    HW218354   2.699   1.652   3.764
 5819SOL     OW18355   4.214   4.558   1.712
 5819SOL    HW118356   4.286   4.494   1.685
 5819SOL    HW218357   4.125   4.518   1.694
 5820SOL     OW18358   0.924   6.251   2.343
 5820SOL    HW118359   0.930   6.200   2.429
 5820SOL    HW218360   0.898   6.188   2.269
 5821SOL     OW18361   4.989   5.999   1.703
 5821SOL    HW118362   4.911   5.992   1.765
 5821SOL    HW218363   4.960   5.977   1.610
 5822SOL     OW18364   1.191   4.161   3.221
 5822SOL    HW118365   1.271   4.101   3.229
 5822SOL    HW218366   1.146   4.146   3.134
 5823SOL     OW18367   1.940   6.576   5.039
 5823SOL    HW118368   1.877   6.645   5.073
 5823SOL    HW218369   2.006   6.552   5.110
 5824SOL     OW18370   1.736   5.648   2.193
 5824SOL    HW118371   1.683   5.600   2.263
 5824SOL    HW218372   1.701   5.741   2.183
 5825SOL     OW18373   3.300   2.103   4.508
 5825SOL    HW118374   3.214   2.092   4.458
 5825SOL    HW218375   3.345   2.014   4.517
 5826SOL     OW18376   1.209   6.155   5.787
 5826SOL    HW118377   1.131   6.114   5.836
 5826SOL    HW218378   1.258   6.216   5.849
 5827SOL     OW18379   1.026   5.008   4.131
 5827SOL    HW118380   1.031   5.104   4.159
 5827SOL    HW218381   1.118   4.969   4.130
 5828SOL     OW18382   4.920   0.244   5.036
 5828SOL    HW118383   5.010   0.263   4.996
 5828SOL    HW218384   4.913   0.289   5.125
 5829SOL     OW18385   1.625   1.130   2.654
 5829SOL    HW118386   1.655   1.213   2.606
 5829SOL    HW218387   1.704   1.088   2.699
 5830SOL     OW18388   4.664   4.960   3.825
 5830SOL    HW118389   4.580   4.972   3.877
 5830SOL    HW218390   4.743   4.983   3.882
 5831SOL     OW18391   2.283   1.310   3.722
 5831SOL    HW118392   2.208   1.254   3.757
 5831SOL    HW218393   2.247   1.374   3.654
 5832SOL     OW18394   3.119   5.621   3.625
 5832SOL    HW118395   3.105   5.541   3.683
 5832SOL    HW218396   3.184   5.683   3.668
 5833SOL     OW18397   2.676   4.625   1.545
 5833SOL    HW118398   2.621   4.669   1.615
 5833SOL    HW218399   2.666   4.674   1.458
 5834SOL     OW18400   6.559   0.827   6.552
 5834SOL    HW118401   6.469   0.865   6.573
 5834SOL    HW218402   6.575   0.832   6.453
 5835SOL     OW18403   3.440   0.945   3.349
 5835SOL    HW118404   3.432   0.962   3.447
 5835SOL    HW218405   3.454   0.847   3.333
 5836SOL     OW18406   5.763   4.789   1.262
 5836SOL    HW118407   5.838   4.853   1.240
 5836SOL    HW218408   5.733   4.743   1.179
 5837SOL     OW18409   1.848   3.835   6.865
 5837SOL    HW118410   1.857   3.744   6.904
 5837SOL    HW218411   1.753   3.850   6.835
 5838SOL     OW18412   3.361   3.311   0.212
 5838SOL    HW118413   3.372   3.304   0.312
 5838SOL    HW218414   3.287   3.376   0.192
 5839SOL     OW18415   2.555   1.989   0.715
 5839SOL    HW118416   2.524   2.069   0.664
 5839SOL    HW218417   2.624   2.017   0.782
 5840SOL     OW18418   6.222   3.500   2.555
 5840SOL    HW118419   6.187   3.407   2.545
 5840SOL    HW218420   6.183   3.558   2.483
 5841SOL     OW18421   5.204   1.626   7.014
 5841SOL    HW118422   5.280   1.680   0.029
 5841SOL    HW218423   5.231   1.530   7.008
 5842SOL     OW18424   3.332   1.775   2.487
 5842SOL    HW118425   3.267   1.703   2.509
 5842SOL    HW218426   3.417   1.759   2.537
 5843SOL     OW18427   3.180   2.821   1.397
 5843SOL    HW118428   3.114   2.839   1.324
 5843SOL    HW218429   3.208   2.908   1.439
 5844SOL     OW18430   6.235   5.522   4.838
 5844SOL    HW118431   6.299   5.483   4.904
 5844SOL    HW218432   6.286   5.574   4.769
 5845SOL     OW18433   2.148   6.003   2.911
 5845SOL    HW118434   2.093   6.032   2.832
 5845SOL    HW218435   2.239   5.976   2.881
 5846SOL     OW18436   0.564   4.270   5.352
 5846SOL    HW118437   0.563   4.225   5.441
 5846SOL    HW218438   0.659   4.283   5.323
 5847SOL     OW18439   2.091   3.694   5.640
 5847SOL    HW118440   2.161   3.760   5.670
 5847SOL    HW218441   2.100   3.679   5.541
 5848SOL     OW18442   2.957   6.520   2.019
 5848SOL    HW118443   2.999   6.577   1.949
 5848SOL    HW218444   2.910   6.443   1.976
 5849SOL     OW18445   3.269   6.420   6.362
 5849SOL    HW118446   3.258   6.517   6.341
 5849SOL    HW218447   3.338   6.408   6.433
 5850SOL     OW18448   5.802   2.846   0.869
 5850SOL    HW118449   5.728   2.902   0.831
 5850SOL    HW218450   5.882   2.852   0.809
 5851SOL     OW18451   1.214   3.018   6.100
 5851SOL    HW118452   1.296   3.037   6.154
 5851SOL    HW218453   1.136   3.065   6.141
 5852SOL     OW18454   4.046   4.830   3.601
 5852SOL    HW118455   4.116   4.763   3.625
 5852SOL    HW218456   4.088   4.920   3.590
 5853SOL     OW18457   4.488   4.881   6.784
 5853SOL    HW118458   4.578   4.906   6.748
 5853SOL    HW218459   4.463   4.790   6.748
 5854SOL     OW18460   2.486   4.230   5.316
 5854SOL    HW118461   2.457   4.155   5.257
 5854SOL    HW218462   2.490   4.314   5.262
 5855SOL     OW18463   1.132   2.084   4.541
 5855SOL    HW118464   1.051   2.051   4.491
 5855SOL    HW218465   1.189   2.006   4.566
 5856SOL     OW18466   0.258   0.976   2.407
 5856SOL    HW118467   0.222   1.008   2.495
 5856SOL    HW218468   0.185   0.930   2.357
 5857SOL     OW18469   6.221   5.857   6.826
 5857SOL    HW118470   6.142   5.867   6.885
 5857SOL    HW218471   6.191   5.851   6.730
 5858SOL     OW18472   3.221   1.726   1.037
 5858SOL    HW118473   3.186   1.713   1.130
 5858SOL    HW218474   3.313   1.764   1.041
 5859SOL     OW18475   6.474   4.661   1.531
 5859SOL    HW118476   6.475   4.677   1.629
 5859SOL    HW218477   6.380   4.657   1.498
 5860SOL     OW18478   1.723   2.979   1.763
 5860SOL    HW118479   1.711   2.909   1.692
 5860SOL    HW218480   1.633   3.011   1.794
 5861SOL     OW18481   4.883   6.332   4.665
 5861SOL    HW118482   4.869   6.240   4.701
 5861SOL    HW218483   4.901   6.327   4.567
 5862SOL     OW18484   0.139   5.236   1.589
 5862SOL    HW118485   0.168   5.245   1.494
 5862SOL    HW218486   0.114   5.327   1.625
 5863SOL     OW18487   4.002   0.203   5.733
 5863SOL    HW118488   3.970   0.290   5.770
 5863SOL    HW218489   3.939   0.172   5.662
 5864SOL     OW18490   3.856   3.905   3.331
 5864SOL    HW118491   3.939   3.857   3.359
 5864SOL    HW218492   3.786   3.895   3.402
 5865SOL     OW18493   6.912   6.103   1.077
 5865SOL    HW118494   6.908   6.009   1.044
 5865SOL    HW218495   6.931   6.103   1.175
 5866SOL     OW18496   3.164   3.633   3.517
 5866SOL    HW118497   3.189   3.552   3.570
 5866SOL    HW218498   3.068   3.626   3.490
 5867SOL     OW18499   5.201   0.873   0.304
 5867SOL    HW118500   5.143   0.844   0.228
 5867SOL    HW218501   5.166   0.959   0.342
 5868SOL     OW18502   1.543   0.837   0.287
 5868SOL    HW118503   1.564   0.892   0.206
 5868SOL    HW218504   1.444   0.828   0.296
 5869SOL     OW18505   2.241   5.555   3.673
 5869SOL    HW118506   2.220   5.483   3.739
 5869SOL    HW218507   2.316   5.527   3.614
 5870SOL     OW18508   3.945   6.412   3.842
 5870SOL    HW118509   3.900   6.501   3.833
 5870SOL    HW218510   3.884   6.341   3.805
 5871SOL     OW18511   4.104   3.544   3.336
 5871SOL    HW118512   4.109   3.638   3.371
 5871SOL    HW218513   4.138   3.481   3.405
 5872SOL     OW18514   4.075   5.041   1.778
 5872SOL    HW118515   4.046   5.076   1.688
 5872SOL    HW218516   3.994   5.016   1.831
 5873SOL     OW18517   3.700   6.821   2.338
 5873SOL    HW118518   3.649   6.904   2.360
 5873SOL    HW218519   3.690   6.801   2.240
 5874SOL     OW18520   0.723   2.944   4.152
 5874SOL    HW118521   0.787   2.987   4.089
 5874SOL    HW218522   0.773   2.899   4.226
 5875SOL     OW18523   3.880   2.462   1.425
 5875SOL    HW118524   3.976   2.466   1.452
 5875SOL    HW218525   3.844   2.555   1.417
 5876SOL     OW18526   4.037   3.671   2.689
 5876SOL    HW118527   3.987   3.736   2.747
 5876SOL    HW218528   4.033   3.701   2.594
 5877SOL     OW18529   4.587   4.862   1.742
 5877SOL    HW118530   4.500   4.911   1.745
 5877SOL    HW218531   4.634   4.871   1.830
 5878SOL     OW18532   0.684   3.928   2.415
 5878SOL    HW118533   0.596   3.957   2.453
 5878SOL    HW218534   0.757   3.978   2.462
 5879SOL     OW18535   1.709   4.157   5.110
 5879SOL    HW118536   1.689   4.122   5.018
 5879SOL    HW218537   1.742   4.251   5.104
 5880SOL     OW18538   2.376   5.414   0.271
 5880SOL    HW118539   2.422   5.388   0.186
 5880SOL    HW218540   2.327   5.334   0.308
 5881SOL     OW18541   1.635   5.785   4.423
 5881SOL    HW118542   1.713   5.839   4.452
 5881SOL    HW218543   1.612   5.718   4.494
 5882SOL     OW18544   5.007   0.442   3.085
 5882SOL    HW118545   5.033   0.371   3.151
 5882SOL    HW218546   4.914   0.473   3.104
 5883SOL     OW18547   0.763   3.456   5.695
 5883SOL    HW118548   0.800   3.530   5.638
 5883SOL    HW218549   0.825   3.378   5.694
 5884SOL     OW18550   0.141   1.433   3.609
 5884SOL    HW118551   0.100   1.409   3.521
 5884SOL    HW218552   0.089   1.508   3.651
 5885SOL     OW18553   6.484   5.227   0.403
 5885SOL    HW118554   6.463   5.195   0.495
 5885SOL    HW218555   6.489   5.149   0.341
 5886SOL     OW18556   6.297   2.013   5.885
 5886SOL    HW118557   6.346   2.098   5.906
 5886SOL    HW218558   6.202   2.035   5.861
 5887SOL     OW18559   3.545   7.000   2.544
 5887SOL    HW118560   3.446   6.998   2.558
 5887SOL    HW218561   3.575   0.075   2.528
 5888SOL     OW18562   7.013   6.372   2.053
 5888SOL    HW118563   6.975   6.311   2.123
 5888SOL    HW218564   6.943   6.395   1.986
 5889SOL     OW18565   3.087   0.060   0.927
 5889SOL    HW118566   3.054   0.081   0.835
 5889SOL    HW218567   3.150   7.001   0.923
 5890SOL     OW18568   4.480   5.249   6.060
 5890SOL    HW118569   4.429   5.186   6.119
 5890SOL    HW218570   4.478   5.340   6.100
 5891SOL     OW18571   2.325   3.137   6.582
 5891SOL    HW118572   2.226   3.142   6.596
 5891SOL    HW218573   2.371   3.132   6.671
 5892SOL     OW18574   3.342   5.354   1.283
 5892SOL    HW118575   3.408   5.290   1.244
 5892SOL    HW218576   3.261   5.304   1.314
 5893SOL     OW18577   0.615   3.141   2.095
 5893SOL    HW118578   0.641   3.236   2.113
 5893SOL    HW218579   0.650   3.082   2.168
 5894SOL     OW18580   1.968   4.570   3.699
 5894SOL    HW118581   2.044   4.619   3.655
 5894SOL    HW218582   1.958   4.603   3.793
 5895SOL     OW18583   4.675   5.078   3.098
 5895SOL    HW118584   4.662   5.027   3.183
 5895SOL    HW218585   4.754   5.041   3.048
 5896SOL     OW18586   5.876   2.415   5.573
 5896SOL    HW118587   5.811   2.490   5.584
 5896SOL    HW218588   5.830   2.336   5.533
 5897SOL     OW18589   4.559   4.475   0.232
 5897SOL    HW118590   4.542   4.556   0.287
 5897SOL    HW218591   4.473   4.438   0.198
 5898SOL     OW18592   1.821   5.633   2.558
 5898SOL    HW118593   1.871   5.634   2.645
 5898SOL    HW218594   1.875   5.583   2.490
 5899SOL     OW18595   5.017   0.755   3.672
 5899SOL    HW118596   4.941   0.717   3.620
 5899SOL    HW218597   5.010   0.855   3.674
 5900SOL     OW18598   3.865   5.117   2.227
 5900SOL    HW118599   3.940   5.096   2.290
 5900SOL    HW218600   3.864   5.216   2.210
 5901SOL     OW18601   2.933   6.410   3.174
 5901SOL    HW118602   2.835   6.426   3.161
 5901SOL    HW218603   2.985   6.483   3.130
 5902SOL     OW18604   0.162   1.772   0.598
 5902SOL    HW118605   0.133   1.857   0.554
 5902SOL    HW218606   0.086   1.707   0.601
 5903SOL     OW18607   1.184   2.089   6.240
 5903SOL    HW118608   1.159   2.166   6.297
 5903SOL    HW218609   1.102   2.053   6.194
 5904SOL     OW18610   0.260   2.922   2.447
 5904SOL    HW118611   0.168   2.962   2.446
 5904SOL    HW218612   0.253   2.823   2.462
 5905SOL     OW18613   0.092   3.479   2.384
 5905SOL    HW118614   7.019   3.447   2.362
 5905SOL    HW218615   0.156   3.402   2.377
 5906SOL     OW18616   6.059   1.475   3.231
 5906SOL    HW118617   6.144   1.522   3.255
 5906SOL    HW218618   6.065   1.379   3.258
 5907SOL     OW18619   1.502   0.959   1.759
 5907SOL    HW118620   1.458   1.040   1.797
 5907SOL    HW218621   1.489   0.882   1.822
 5908SOL     OW18622   0.454   2.882   5.066
 5908SOL    HW118623   0.475   2.854   5.160
 5908SOL    HW218624   0.378   2.947   5.067
 5909SOL     OW18625   7.016   4.370   6.140
 5909SOL    HW118626   0.083   4.377   6.189
 5909SOL    HW218627   0.004   4.418   6.053
 5910SOL     OW18628   1.698   1.827   3.451
 5910SOL    HW118629   1.793   1.798   3.461
 5910SOL    HW218630   1.684   1.867   3.360
 5911SOL     OW18631   5.767   4.704   6.424
 5911SOL    HW118632   5.760   4.612   6.463
 5911SOL    HW218633   5.769   4.698   6.324
 5912SOL     OW18634   0.865   1.779   2.105
 5912SOL    HW118635   0.793   1.711   2.096
 5912SOL    HW218636   0.842   1.860   2.051
 5913SOL     OW18637   0.248   3.181   1.289
 5913SOL    HW118638   0.231   3.097   1.341
 5913SOL    HW218639   0.179   3.189   1.217
 5914SOL     OW18640   1.152   6.336   0.713
 5914SOL    HW118641   1.245   6.300   0.722
 5914SOL    HW218642   1.095   6.269   0.666
 5915SOL     OW18643   5.233   0.667   5.160
 5915SOL    HW118644   5.148   0.673   5.212
 5915SOL    HW218645   5.284   0.753   5.170
 5916SOL     OW18646   1.017   0.742   3.215
 5916SOL    HW118647   0.950   0.781   3.278
 5916SOL    HW218648   0.981   0.747   3.122
 5917SOL     OW18649   3.754   3.585   0.913
 5917SOL    HW118650   3.818   3.526   0.961
 5917SOL    HW218651   3.779   3.591   0.816
 5918SOL     OW18652   3.305   6.594   5.582
 5918SOL    HW118653   3.212   6.610   5.614
 5918SOL    HW218654   3.330   6.663   5.515
 5919SOL     OW18655   3.092   3.646   4.483
 5919SOL    HW118656   3.085   3.736   4.441
 5919SOL    HW218657   3.043   3.645   4.570
 5920SOL     OW18658   1.874   0.594   5.320
 5920SOL    HW118659   1.866   0.689   5.350
 5920SOL    HW218660   1.858   0.588   5.222
 5921SOL     OW18661   3.310   4.614   1.364
 5921SOL    HW118662   3.221   4.656   1.346
 5921SOL    HW218663   3.334   4.626   1.460
 5922SOL     OW18664   5.299   2.351   2.440
 5922SOL    HW118665   5.352   2.405   2.375
 5922SOL    HW218666   5.360   2.293   2.494
 5923SOL     OW18667   6.038   0.990   2.351
 5923SOL    HW118668   6.018   1.087   2.337
 5923SOL    HW218669   5.961   0.946   2.396
 5924SOL     OW18670   0.265   6.080   2.992
 5924SOL    HW118671   0.240   6.044   3.083
 5924SOL    HW218672   0.291   6.176   3.001
 5925SOL     OW18673   4.269   0.649   0.774
 5925SOL    HW118674   4.246   0.747   0.773
 5925SOL    HW218675   4.316   0.625   0.690
 5926SOL     OW18676   4.874   3.437   3.212
 5926SOL    HW118677   4.868   3.524   3.164
 5926SOL    HW218678   4.898   3.453   3.308
 5927SOL     OW18679   1.112   0.408   1.211
 5927SOL    HW118680   1.112   0.414   1.310
 5927SOL    HW218681   1.072   0.321   1.182
 5928SOL     OW18682   2.965   0.363   6.102
 5928SOL    HW118683   3.009   0.274   6.091
 5928SOL    HW218684   2.923   0.369   6.193
 5929SOL     OW18685   2.047   0.886   1.023
 5929SOL    HW118686   1.973   0.886   1.090
 5929SOL    HW218687   2.132   0.912   1.067
 5930SOL     OW18688   6.776   4.886   2.230
 5930SOL    HW118689   6.705   4.943   2.189
 5930SOL    HW218690   6.774   4.897   2.329
 5931SOL     OW18691   4.983   0.914   5.062
 5931SOL    HW118692   4.892   0.902   5.102
 5931SOL    HW218693   4.999   0.843   4.994
 5932SOL     OW18694   2.646   5.502   0.982
 5932SOL    HW118695   2.624   5.424   0.923
 5932SOL    HW218696   2.694   5.572   0.928
 5933SOL     OW18697   6.213   5.571   4.428
 5933SOL    HW118698   6.272   5.497   4.395
 5933SOL    HW218699   6.217   5.648   4.365
 5934SOL     OW18700   2.669   4.369   0.198
 5934SOL    HW118701   2.706   4.376   0.291
 5934SOL    HW218702   2.571   4.391   0.200
 5935SOL     OW18703   1.651   0.235   5.054
 5935SOL    HW118704   1.741   0.273   5.073
 5935SOL    HW218705   1.638   0.151   5.107
 5936SOL     OW18706   3.741   2.995   2.001
 5936SOL    HW118707   3.787   2.960   1.919
 5936SOL    HW218708   3.652   3.032   1.976
 5937SOL     OW18709   0.678   2.854   0.818
 5937SOL    HW118710   0.641   2.783   0.758
 5937SOL    HW218711   0.759   2.820   0.865
 5938SOL     OW18712   0.809   3.123   3.896
 5938SOL    HW118713   0.823   3.024   3.898
 5938SOL    HW218714   0.870   3.167   3.962
 5939SOL     OW18715   5.103   2.237   6.091
 5939SOL    HW118716   5.139   2.325   6.122
 5939SOL    HW218717   5.177   2.170   6.086
 5940SOL     OW18718   4.251   4.971   1.158
 5940SOL    HW118719   4.274   4.977   1.255
 5940SOL    HW218720   4.326   5.010   1.104
 5941SOL     OW18721   1.758   1.972   3.738
 5941SOL    HW118722   1.673   1.921   3.723
 5941SOL    HW218723   1.771   2.036   3.662
 5942SOL     OW18724   4.899   2.566   6.491
 5942SOL    HW118725   4.919   2.583   6.394
 5942SOL    HW218726   4.878   2.469   6.504
 5943SOL     OW18727   2.245   5.095   2.225
 5943SOL    HW118728   2.175   5.149   2.178
 5943SOL    HW218729   2.216   5.076   2.318
 5944SOL     OW18730   6.941   3.379   5.855
 5944SOL    HW118731   6.978   3.354   5.765
 5944SOL    HW218732   6.861   3.437   5.843
 5945SOL     OW18733   0.245   6.397   4.472
 5945SOL    HW118734   0.321   6.343   4.509
 5945SOL    HW218735   0.168   6.393   4.535
 5946SOL     OW18736   3.069   2.603   0.038
 5946SOL    HW118737   2.971   2.599   0.055
 5946SOL    HW218738   3.097   2.522   7.005
 5947SOL     OW18739   3.383   3.809   5.846
 5947SOL    HW118740   3.301   3.758   5.871
 5947SOL    HW218741   3.390   3.890   5.905
 5948SOL     OW18742   5.012   3.084   1.054
 5948SOL    HW118743   4.919   3.120   1.050
 5948SOL    HW218744   5.027   3.042   1.144
 5949SOL     OW18745   1.045   4.910   4.405
 5949SOL    HW118746   1.088   4.998   4.385
 5949SOL    HW218747   1.081   4.874   4.491
 5950SOL     OW18748   1.878   6.066   5.051
 5950SOL    HW118749   1.826   6.151   5.043
 5950SOL    HW218750   1.819   5.989   5.026
 5951SOL     OW18751   6.783   3.381   6.487
 5951SOL    HW118752   6.723   3.431   6.550
 5951SOL    HW218753   6.810   3.442   6.412
 5952SOL     OW18754   3.943   4.131   1.656
 5952SOL    HW118755   3.985   4.103   1.570
 5952SOL    HW218756   4.001   4.105   1.733
 5953SOL     OW18757   0.424   3.024   6.395
 5953SOL    HW118758   0.336   2.979   6.380
 5953SOL    HW218759   0.435   3.099   6.330
 5954SOL     OW18760   2.868   5.554   3.762
 5954SOL    HW118761   2.927   5.480   3.729
 5954SOL    HW218762   2.781   5.552   3.711
 5955SOL     OW18763   4.590   2.499   6.755
 5955SOL    HW118764   4.593   2.540   6.664
 5955SOL    HW218765   4.675   2.520   6.804
 5956SOL     OW18766   3.957   1.999   6.741
 5956SOL    HW118767   3.960   2.097   6.720
 5956SOL    HW218768   4.011   1.980   6.823
 5957SOL     OW18769   6.747   3.182   3.656
 5957SOL    HW118770   6.682   3.233   3.600
 5957SOL    HW218771   6.837   3.224   3.650
 5958SOL     OW18772   2.076   6.547   2.001
 5958SOL    HW118773   2.066   6.487   1.922
 5958SOL    HW218774   2.140   6.506   2.066
 5959SOL     OW18775   4.914   4.418   3.375
 5959SOL    HW118776   4.864   4.504   3.361
 5959SOL    HW218777   4.892   4.355   3.301
 5960SOL     OW18778   6.720   6.568   6.745
 5960SOL    HW118779   6.655   6.497   6.720
 5960SOL    HW218780   6.733   6.629   6.667
 5961SOL     OW18781   1.482   2.183   3.624
 5961SOL    HW118782   1.493   2.086   3.648
 5961SOL    HW218783   1.528   2.201   3.537
 5962SOL     OW18784   5.511   5.280   0.644
 5962SOL    HW118785   5.416   5.297   0.617
 5962SOL    HW218786   5.525   5.183   0.660
 5963SOL     OW18787   2.242   3.851   1.406
 5963SOL    HW118788   2.210   3.918   1.472
 5963SOL    HW218789   2.320   3.801   1.445
 5964SOL     OW18790   1.748   6.267   4.403
 5964SOL    HW118791   1.786   6.289   4.493
 5964SOL    HW218792   1.648   6.274   4.407
 5965SOL     OW18793   1.970   0.649   1.483
 5965SOL    HW118794   1.913   0.636   1.403
 5965SOL    HW218795   2.031   0.727   1.469
 5966SOL     OW18796   2.576   1.743   5.039
 5966SOL    HW118797   2.565   1.685   5.120
 5966SOL    HW218798   2.670   1.776   5.033
 5967SOL     OW18799   5.202   2.436   5.716
 5967SOL    HW118800   5.139   2.502   5.677
 5967SOL    HW218801   5.150   2.369   5.770
 5968SOL     OW18802   6.281   1.604   3.325
 5968SOL    HW118803   6.381   1.610   3.322
 5968SOL    HW218804   6.253   1.579   3.418
 5969SOL     OW18805   5.544   6.144   1.540
 5969SOL    HW118806   5.487   6.061   1.542
 5969SOL    HW218807   5.487   6.223   1.517
 5970SOL     OW18808   6.462   1.121   0.540
 5970SOL    HW118809   6.465   1.111   0.440
 5970SOL    HW218810   6.370   1.103   0.573
 5971SOL     OW18811   6.656   5.546   3.833
 5971SOL    HW118812   6.730   5.605   3.799
 5971SOL    HW218813   6.694   5.457   3.859
 5972SOL     OW18814   6.595   5.255   0.036
 5972SOL    HW118815   6.533   5.333   0.049
 5972SOL    HW218816   6.689   5.286   0.047
 5973SOL     OW18817   3.497   0.337   1.876
 5973SOL    HW118818   3.479   0.427   1.915
 5973SOL    HW218819   3.441   0.324   1.794
 5974SOL     OW18820   5.686   0.930   4.917
 5974SOL    HW118821   5.617   0.925   4.990
 5974SOL    HW218822   5.658   0.871   4.841
 5975SOL     OW18823   3.696   4.291   0.471
 5975SOL    HW118824   3.640   4.208   0.459
 5975SOL    HW218825   3.775   4.270   0.527
 5976SOL     OW18826   0.863   2.144   6.103
 5976SOL    HW118827   0.818   2.099   6.026
 5976SOL    HW218828   0.893   2.074   6.169
 5977SOL     OW18829   0.270   5.644   1.771
 5977SOL    HW118830   0.298   5.701   1.848
 5977SOL    HW218831   0.254   5.702   1.691
 5978SOL     OW18832   3.047   3.600   6.339
 5978SOL    HW118833   3.118   3.646   6.285
 5978SOL    HW218834   2.963   3.653   6.335
 5979SOL     OW18835   5.909   1.369   1.623
 5979SOL    HW118836   5.879   1.427   1.698
 5979SOL    HW218837   5.931   1.278   1.658
 5980SOL     OW18838   4.062   2.882   0.326
 5980SOL    HW118839   3.979   2.836   0.295
 5980SOL    HW218840   4.050   2.981   0.319
 5981SOL     OW18841   4.178   1.885   0.609
 5981SOL    HW118842   4.240   1.949   0.654
 5981SOL    HW218843   4.144   1.926   0.524
 5982SOL     OW18844   5.946   2.703   1.145
 5982SOL    HW118845   5.909   2.721   1.053
 5982SOL    HW218846   6.038   2.742   1.152
 5983SOL     OW18847   0.663   1.408   3.818
 5983SOL    HW118848   0.699   1.320   3.785
 5983SOL    HW218849   0.565   1.413   3.798
 5984SOL     OW18850   6.839   5.971   1.836
 5984SOL    HW118851   6.791   5.905   1.893
 5984SOL    HW218852   6.829   6.063   1.874
 5985SOL     OW18853   0.140   4.374   2.450
 5985SOL    HW118854   0.236   4.398   2.438
 5985SOL    HW218855   0.094   4.371   2.362
 5986SOL     OW18856   4.143   3.345   3.516
 5986SOL    HW118857   4.081   3.266   3.510
 5986SOL    HW218858   4.231   3.315   3.553
 5987SOL     OW18859   0.333   6.114   3.725
 5987SOL    HW118860   0.378   6.201   3.740
 5987SOL    HW218861   0.369   6.071   3.642
 5988SOL     OW18862   1.758   1.884   0.175
 5988SOL    HW118863   1.832   1.878   0.109
 5988SOL    HW218864   1.752   1.798   0.226
 5989SOL     OW18865   2.818   6.413   5.921
 5989SOL    HW118866   2.904   6.376   5.955
 5989SOL    HW218867   2.812   6.510   5.944
 5990SOL     OW18868   2.414   4.047   1.758
 5990SOL    HW118869   2.481   3.979   1.728
 5990SOL    HW218870   2.459   4.135   1.771
 5991SOL     OW18871   5.266   1.355   0.045
 5991SOL    HW118872   5.221   1.266   0.045
 5991SOL    HW218873   5.362   1.344   0.018
 5992SOL     OW18874   2.519   4.509   2.303
 5992SOL    HW118875   2.547   4.564   2.224
 5992SOL    HW218876   2.599   4.475   2.351
 5993SOL     OW18877   5.795   0.784   6.999
 5993SOL    HW118878   5.804   0.833   6.913
 5993SOL    HW218879   5.701   0.751   7.010
 5994SOL     OW18880   0.513   5.167   1.317
 5994SOL    HW118881   0.441   5.122   1.369
 5994SOL    HW218882   0.492   5.161   1.219
 5995SOL     OW18883   5.588   4.352   1.425
 5995SOL    HW118884   5.589   4.452   1.424
 5995SOL    HW218885   5.580   4.318   1.332
 5996SOL     OW18886   2.767   0.982   1.788
 5996SOL    HW118887   2.844   0.930   1.823
 5996SOL    HW218888   2.687   0.965   1.846
 5997SOL     OW18889   6.640   0.950   4.855
 5997SOL    HW118890   6.645   1.023   4.924
 5997SOL    HW218891   6.545   0.941   4.823
 5998SOL     OW18892   5.630   6.122   0.206
 5998SOL    HW118893   5.638   6.100   0.303
 5998SOL    HW218894   5.564   6.195   0.193
 5999SOL     OW18895   6.116   2.989   1.006
 5999SOL    HW118896   6.063   2.930   0.946
 5999SOL    HW218897   6.070   3.077   1.016
 6000SOL     OW18898   0.272   5.324   2.062
 6000SOL    HW118899   0.221   5.389   2.007
 6000SOL    HW218900   0.220   5.239   2.070
 6001SOL     OW18901   0.017   6.296   6.014
 6001SOL    HW118902   0.013   6.249   6.102
 6001SOL    HW218903   0.101   6.352   6.010
 6002SOL     OW18904   5.763   4.768   4.518
 6002SOL    HW118905   5.690   4.699   4.516
 6002SOL    HW218906   5.747   4.831   4.594
 6003SOL     OW18907   2.257   0.467   4.774
 6003SOL    HW118908   2.228   0.446   4.680
 6003SOL    HW218909   2.206   0.547   4.806
 6004SOL     OW18910   5.425   2.950   4.935
 6004SOL    HW118911   5.444   3.001   4.851
 6004SOL    HW218912   5.511   2.919   4.976
 6005SOL     OW18913   3.738   3.847   0.492
 6005SOL    HW118914   3.649   3.802   0.502
 6005SOL    HW218915   3.784   3.812   0.411
 6006SOL     OW18916   3.156   6.526   5.912
 6006SOL    HW118917   3.109   6.544   5.826
 6006SOL    HW218918   3.130   6.436   5.946
 6007SOL     OW18919   2.897   6.949   4.008
 6007SOL    HW118920   2.815   6.893   3.996
 6007SOL    HW218921   2.871   0.024   4.029
 6008SOL     OW18922   2.268   3.788   6.542
 6008SOL    HW118923   2.243   3.783   6.446
 6008SOL    HW218924   2.224   3.714   6.592
 6009SOL     OW18925   2.044   5.802   2.094
 6009SOL    HW118926   1.986   5.770   2.019
 6009SOL    HW218927   2.102   5.727   2.126
 6010SOL     OW18928   0.317   5.451   6.179
 6010SOL    HW118929   0.332   5.547   6.200
 6010SOL    HW218930   0.353   5.394   6.254
 6011SOL     OW18931   5.189   1.761   3.445
 6011SOL    HW118932   5.120   1.694   3.419
 6011SOL    HW218933   5.275   1.741   3.398
 6012SOL     OW18934   6.374   1.504   5.641
 6012SOL    HW118935   6.314   1.424   5.646
 6012SOL    HW218936   6.318   1.586   5.624
 6013SOL     OW18937   5.922   1.897   3.127
 6013SOL    HW118938   5.871   1.824   3.172
 6013SOL    HW218939   6.018   1.892   3.153
 6014SOL     OW18940   4.134   3.455   4.112
 6014SOL    HW118941   4.079   3.372   4.097
 6014SOL    HW218942   4.145   3.470   4.210
 6015SOL     OW18943   6.895   0.246   3.301
 6015SOL    HW118944   6.944   0.265   3.216
 6015SOL    HW218945   6.797   0.251   3.284
 6016SOL     OW18946   4.420   2.053   4.215
 6016SOL    HW118947   4.440   1.990   4.290
 6016SOL    HW218948   4.350   2.118   4.245
 6017SOL     OW18949   1.031   2.712   5.227
 6017SOL    HW118950   1.083   2.687   5.146
 6017SOL    HW218951   1.065   2.661   5.306
 6018SOL     OW18952   2.246   1.130   4.058
 6018SOL    HW118953   2.213   1.067   3.989
 6018SOL    HW218954   2.174   1.146   4.126
 6019SOL     OW18955   6.857   3.188   6.088
 6019SOL    HW118956   6.938   3.129   6.088
 6019SOL    HW218957   6.874   3.268   6.030
 6020SOL     OW18958   0.369   5.602   4.709
 6020SOL    HW118959   0.438   5.570   4.644
 6020SOL    HW218960   0.352   5.700   4.695
 6021SOL     OW18961   5.409   6.995   3.795
 6021SOL    HW118962   5.373   0.069   3.803
 6021SOL    HW218963   5.470   6.990   3.716
 6022SOL     OW18964   6.514   3.635   1.776
 6022SOL    HW118965   6.561   3.655   1.862
 6022SOL    HW218966   6.469   3.718   1.743
 6023SOL     OW18967   4.031   0.338   2.829
 6023SOL    HW118968   4.030   0.292   2.740
 6023SOL    HW218969   3.939   0.340   2.867
 6024SOL     OW18970   0.148   6.540   6.967
 6024SOL    HW118971   0.164   6.497   0.036
 6024SOL    HW218972   0.129   6.637   6.979
 6025SOL     OW18973   3.553   0.399   5.222
 6025SOL    HW118974   3.639   0.375   5.177
 6025SOL    HW218975   3.558   0.376   5.319
 6026SOL     OW18976   4.993   6.543   3.605
 6026SOL    HW118977   4.912   6.489   3.628
 6026SOL    HW218978   5.073   6.482   3.601
 6027SOL     OW18979   6.018   4.071   6.139
 6027SOL    HW118980   6.114   4.046   6.148
 6027SOL    HW218981   5.984   4.107   6.227
 6028SOL     OW18982   6.357   5.449   6.443
 6028SOL    HW118983   6.356   5.493   6.533
 6028SOL    HW218984   6.429   5.380   6.441
 6029SOL     OW18985   2.533   1.743   2.444
 6029SOL    HW118986   2.522   1.821   2.383
 6029SOL    HW218987   2.620   1.698   2.426
 6030SOL     OW18988   6.193   2.899   4.920
 6030SOL    HW118989   6.176   2.936   5.011
 6030SOL    HW218990   6.209   2.975   4.856
 6031SOL     OW18991   0.067   0.316   3.730
 6031SOL    HW118992   0.010   0.367   3.795
 6031SOL    HW218993   0.009   0.275   3.660
 6032SOL     OW18994   2.949   0.220   3.268
 6032SOL    HW118995   2.941   0.122   3.249
 6032SOL    HW218996   2.963   0.269   3.182
 6033SOL     OW18997   0.819   1.615   2.808
 6033SOL    HW118998   0.785   1.678   2.878
 6033SOL    HW218999   0.917   1.600   2.821
 6034SOL     OW19000   0.743   0.373   1.072
 6034SOL    HW119001   0.762   0.423   1.157
 6034SOL    HW219002   0.657   0.323   1.081
 6035SOL     OW19003   2.091   1.293   2.696
 6035SOL    HW119004   2.056   1.315   2.605
 6035SOL    HW219005   2.022   1.316   2.764
 6036SOL     OW19006   6.973   3.335   0.306
 6036SOL    HW119007   0.029   3.291   0.355
 6036SOL    HW219008   6.951   3.283   0.223
 6037SOL     OW19009   4.411   0.084   6.794
 6037SOL    HW119010   4.472   0.095   6.715
 6037SOL    HW219011   4.341   0.155   6.793
 6038SOL     OW19012   2.442   1.788   0.190
 6038SOL    HW119013   2.501   1.789   0.109
 6038SOL    HW219014   2.474   1.717   0.253
 6039SOL     OW19015   2.954   3.250   3.840
 6039SOL    HW119016   3.026   3.183   3.824
 6039SOL    HW219017   2.883   3.240   3.770
 6040SOL     OW19018   6.798   0.849   0.993
 6040SOL    HW119019   6.844   0.905   1.063
 6040SOL    HW219020   6.863   0.781   0.958
 6041SOL     OW19021   0.634   3.118   4.326
 6041SOL    HW119022   0.626   3.051   4.253
 6041SOL    HW219023   0.544   3.155   4.347
 6042SOL     OW19024   2.874   5.734   2.794
 6042SOL    HW119025   2.803   5.739   2.863
 6042SOL    HW219026   2.893   5.639   2.771
 6043SOL     OW19027   1.912   4.504   1.063
 6043SOL    HW119028   1.918   4.601   1.041
 6043SOL    HW219029   1.881   4.493   1.157
 6044SOL     OW19030   6.507   4.036   6.938
 6044SOL    HW119031   6.450   4.068   7.014
 6044SOL    HW219032   6.448   4.001   6.864
 6045SOL     OW19033   4.416   1.301   4.075
 6045SOL    HW119034   4.351   1.373   4.051
 6045SOL    HW219035   4.368   1.216   4.094
 6046SOL     OW19036   3.513   3.848   2.397
 6046SOL    HW119037   3.426   3.882   2.361
 6046SOL    HW219038   3.572   3.819   2.322
 6047SOL     OW19039   0.016   1.305   0.777
 6047SOL    HW119040   0.016   1.214   0.735
 6047SOL    HW219041   0.110   1.334   0.794
 6048SOL     OW19042   6.198   6.016   3.407
 6048SOL    HW119043   6.164   5.943   3.466
 6048SOL    HW219044   6.298   6.021   3.415
 6049SOL     OW19045   5.846   4.853   0.235
 6049SOL    HW119046   5.799   4.894   0.157
 6049SOL    HW219047   5.934   4.899   0.249
 6050SOL     OW19048   2.280   5.805   3.284
 6050SOL    HW119049   2.183   5.785   3.271
 6050SOL    HW219050   2.291   5.871   3.358
 6051SOL     OW19051   0.373   2.024   2.879
 6051SOL    HW119052   0.305   2.097   2.887
 6051SOL    HW219053   0.392   2.007   2.782
 6052SOL     OW19054   5.114   5.798   6.998
 6052SOL    HW119055   5.197   5.758   6.959
 6052SOL    HW219056   5.040   5.794   6.930
 6053SOL     OW19057   3.552   2.085   6.037
 6053SOL    HW119058   3.627   2.100   5.974
 6053SOL    HW219059   3.466   2.112   5.994
 6054SOL     OW19060   4.175   3.996   6.201
 6054SOL    HW119061   4.172   3.897   6.192
 6054SOL    HW219062   4.159   4.021   6.296
 6055SOL     OW19063   3.182   4.764   1.780
 6055SOL    HW119064   3.112   4.713   1.831
 6055SOL    HW219065   3.243   4.810   1.845
 6056SOL     OW19066   5.227   6.619   2.920
 6056SOL    HW119067   5.258   6.657   3.007
 6056SOL    HW219068   5.249   6.522   2.917
 6057SOL     OW19069   5.552   1.131   4.010
 6057SOL    HW119070   5.524   1.119   3.915
 6057SOL    HW219071   5.487   1.085   4.070
 6058SOL     OW19072   6.854   3.775   6.487
 6058SOL    HW119073   6.826   3.743   6.396
 6058SOL    HW219074   6.947   3.811   6.482
 6059SOL     OW19075   4.272   2.130   6.316
 6059SOL    HW119076   4.174   2.130   6.337
 6059SOL    HW219077   4.317   2.058   6.369
 6060SOL     OW19078   2.241   2.142   1.516
 6060SOL    HW119079   2.214   2.047   1.531
 6060SOL    HW219080   2.291   2.148   1.429
 6061SOL     OW19081   2.422   4.728   6.237
 6061SOL    HW119082   2.513   4.731   6.278
 6061SOL    HW219083   2.364   4.798   6.277
 6062SOL     OW19084   1.879   2.085   4.893
 6062SOL    HW119085   1.878   2.100   4.794
 6062SOL    HW219086   1.846   2.167   4.939
 6063SOL     OW19087   4.271   3.643   5.493
 6063SOL    HW119088   4.220   3.714   5.541
 6063SOL    HW219089   4.346   3.610   5.551
 6064SOL     OW19090   5.816   5.398   0.055
 6064SOL    HW119091   5.786   5.416   0.148
 6064SOL    HW219092   5.907   5.357   0.056
 6065SOL     OW19093   1.414   5.310   1.212
 6065SOL    HW119094   1.411   5.263   1.123
 6065SOL    HW219095   1.331   5.364   1.224
 6066SOL     OW19096   5.027   5.839   3.000
 6066SOL    HW119097   4.929   5.857   2.996
 6066SOL    HW219098   5.073   5.892   2.929
 6067SOL     OW19099   6.498   5.161   5.409
 6067SOL    HW119100   6.413   5.197   5.371
 6067SOL    HW219101   6.480   5.075   5.456
 6068SOL     OW19102   4.528   2.060   3.488
 6068SOL    HW119103   4.501   2.071   3.392
 6068SOL    HW219104   4.595   1.986   3.496
 6069SOL     OW19105   1.152   5.160   5.713
 6069SOL    HW119106   1.196   5.249   5.715
 6069SOL    HW219107   1.094   5.152   5.632
 6070SOL     OW19108   2.700   0.511   1.538
 6070SOL    HW119109   2.641   0.588   1.563
 6070SOL    HW219110   2.685   0.487   1.442
 6071SOL     OW19111   6.479   6.781   6.634
 6071SOL    HW119112   6.548   6.813   6.700
 6071SOL    HW219113   6.413   6.723   6.682
 6072SOL     OW19114   0.365   2.436   6.953
 6072SOL    HW119115   0.374   2.525   6.998
 6072SOL    HW219116   0.269   2.408   6.954
 6073SOL     OW19117   4.514   4.414   6.827
 6073SOL    HW119118   4.468   4.484   6.881
 6073SOL    HW219119   4.461   4.395   6.744
 6074SOL     OW19120   1.501   6.040   2.243
 6074SOL    HW119121   1.467   6.008   2.332
 6074SOL    HW219122   1.595   6.009   2.230
 6075SOL     OW19123   6.606   6.604   0.180
 6075SOL    HW119124   6.704   6.624   0.181
 6075SOL    HW219125   6.588   6.527   0.118
 6076SOL     OW19126   6.946   6.241   2.899
 6076SOL    HW119127   7.017   6.252   2.829
 6076SOL    HW219128   6.949   6.147   2.933
 6077SOL     OW19129   4.763   5.889   3.011
 6077SOL    HW119130   4.729   5.982   3.023
 6077SOL    HW219131   4.686   5.827   2.998
 6078SOL     OW19132   5.612   3.981   0.266
 6078SOL    HW119133   5.550   4.013   0.194
 6078SOL    HW219134   5.646   3.890   0.243
 6079SOL     OW19135   3.398   1.948   0.043
 6079SOL    HW119136   3.365   1.885   0.114
 6079SOL    HW219137   3.321   1.997   0.004
 6080SOL     OW19138   5.864   3.452   5.447
 6080SOL    HW119139   5.783   3.401   5.418
 6080SOL    HW219140   5.928   3.391   5.493
 6081SOL     OW19141   1.935   4.664   3.952
 6081SOL    HW119142   1.902   4.726   4.023
 6081SOL    HW219143   2.034   4.676   3.939
 6082SOL     OW19144   4.208   1.454   1.158
 6082SOL    HW119145   4.191   1.520   1.085
 6082SOL    HW219146   4.133   1.388   1.161
 6083SOL     OW19147   5.153   0.899   5.420
 6083SOL    HW119148   5.244   0.896   5.463
 6083SOL    HW219149   5.117   0.992   5.427
 6084SOL     OW19150   6.283   5.104   3.514
 6084SOL    HW119151   6.276   5.011   3.478
 6084SOL    HW219152   6.375   5.119   3.550
 6085SOL     OW19153   0.761   6.447   1.139
 6085SOL    HW119154   0.759   6.500   1.224
 6085SOL    HW219155   0.840   6.385   1.141
 6086SOL     OW19156   4.889   2.948   0.457
 6086SOL    HW119157   4.805   2.897   0.473
 6086SOL    HW219158   4.893   2.975   0.360
 6087SOL     OW19159   3.946   1.241   6.331
 6087SOL    HW119160   3.954   1.166   6.397
 6087SOL    HW219161   3.894   1.208   6.251
 6088SOL     OW19162   4.044   6.172   2.945
 6088SOL    HW119163   4.064   6.078   2.919
 6088SOL    HW219164   3.957   6.200   2.904
 6089SOL     OW19165   5.978   5.231   2.604
 6089SOL    HW119166   5.953   5.134   2.599
 6089SOL    HW219167   5.958   5.266   2.696
 6090SOL     OW19168   3.741   6.234   4.713
 6090SOL    HW119169   3.774   6.285   4.634
 6090SOL    HW219170   3.816   6.179   4.751
 6091SOL     OW19171   0.462   2.940   2.259
 6091SOL    HW119172   0.466   2.857   2.202
 6091SOL    HW219173   0.391   2.930   2.328
 6092SOL     OW19174   1.614   6.852   0.937
 6092SOL    HW119175   1.652   6.921   0.997
 6092SOL    HW219176   1.646   6.761   0.965
 6093SOL     OW19177   3.675   3.363   2.399
 6093SOL    HW119178   3.689   3.450   2.447
 6093SOL    HW219179   3.713   3.288   2.454
 6094SOL     OW19180   0.317   6.744   5.644
 6094SOL    HW119181   0.404   6.697   5.658
 6094SOL    HW219182   0.318   6.792   5.556
 6095SOL     OW19183   5.658   5.027   2.408
 6095SOL    HW119184   5.597   4.997   2.480
 6095SOL    HW219185   5.645   5.125   2.391
 6096SOL     OW19186   4.770   6.153   2.951
 6096SOL    HW119187   4.827   6.201   3.018
 6096SOL    HW219188   4.817   6.153   2.863
 6097SOL     OW19189   1.867   4.854   0.934
 6097SOL    HW119190   1.880   4.808   1.021
 6097SOL    HW219191   1.770   4.850   0.908
 6098SOL     OW19192   6.154   1.671   5.328
 6098SOL    HW119193   6.176   1.723   5.411
 6098SOL    HW219194   6.065   1.700   5.293
 6099SOL     OW19195   3.278   6.929   5.670
 6099SOL    HW119196   3.179   6.920   5.662
 6099SOL    HW219197   3.314   6.976   5.589
 6100SOL     OW19198   6.399   5.417   6.064
 6100SOL    HW119199   6.303   5.441   6.080
 6100SOL    HW219200   6.412   5.391   5.969
 6101SOL     OW19201   1.026   2.924   0.920
 6101SOL    HW119202   0.987   2.846   0.969
 6101SOL    HW219203   0.952   2.979   0.881
 6102SOL     OW19204   2.471   0.157   2.606
 6102SOL    HW119205   2.548   0.217   2.583
 6102SOL    HW219206   2.485   0.069   2.562
 6103SOL     OW19207   5.633   0.435   2.803
 6103SOL    HW119208   5.624   0.371   2.879
 6103SOL    HW219209   5.608   0.526   2.833
 6104SOL     OW19210   0.152   0.186   5.257
 6104SOL    HW119211   0.155   0.114   5.327
 6104SOL    HW219212   0.219   0.257   5.280
 6105SOL     OW19213   3.797   5.244   6.583
 6105SOL    HW119214   3.728   5.295   6.633
 6105SOL    HW219215   3.887   5.282   6.602
 6106SOL     OW19216   6.354   3.571   5.878
 6106SOL    HW119217   6.346   3.473   5.895
 6106SOL    HW219218   6.275   3.602   5.825
 6107SOL     OW19219   6.606   4.668   4.786
 6107SOL    HW119220   6.627   4.602   4.857
 6107SOL    HW219221   6.676   4.665   4.715
 6108SOL     OW19222   3.287   0.543   5.884
 6108SOL    HW119223   3.218   0.561   5.955
 6108SOL    HW219224   3.290   0.620   5.821
 6109SOL     OW19225   6.312   6.630   3.550
 6109SOL    HW119226   6.342   6.635   3.455
 6109SOL    HW219227   6.383   6.666   3.610
 6110SOL     OW19228   0.939   1.729   4.427
 6110SOL    HW119229   0.853   1.778   4.412
 6110SOL    HW219230   1.014   1.782   4.387
 6111SOL     OW19231   2.940   3.145   1.395
 6111SOL    HW119232   2.843   3.165   1.381
 6111SOL    HW219233   2.991   3.170   1.313
 6112SOL     OW19234   4.956   6.109   4.064
 6112SOL    HW119235   5.056   6.106   4.056
 6112SOL    HW219236   4.927   6.041   4.131
 6113SOL     OW19237   3.251   4.938   1.346
 6113SOL    HW119238   3.210   5.027   1.366
 6113SOL    HW219239   3.185   4.866   1.368
 6114SOL     OW19240   5.280   3.718   1.465
 6114SOL    HW119241   5.332   3.724   1.380
 6114SOL    HW219242   5.186   3.747   1.448
 6115SOL     OW19243   5.847   1.033   4.392
 6115SOL    HW119244   5.898   1.052   4.308
 6115SOL    HW219245   5.900   0.969   4.449
 6116SOL     OW19246   6.002   2.545   0.633
 6116SOL    HW119247   6.043   2.570   0.721
 6116SOL    HW219248   5.989   2.446   0.629
 6117SOL     OW19249   3.226   1.865   1.368
 6117SOL    HW119250   3.195   1.859   1.463
 6117SOL    HW219251   3.217   1.960   1.337
 6118SOL     OW19252   6.017   0.125   1.560
 6118SOL    HW119253   6.057   0.091   1.645
 6118SOL    HW219254   6.086   0.126   1.488
 6119SOL     OW19255   0.591   1.411   6.097
 6119SOL    HW119256   0.518   1.347   6.121
 6119SOL    HW219257   0.559   1.475   6.028
 6120SOL     OW19258   3.222   1.264   3.602
 6120SOL    HW119259   3.205   1.360   3.581
 6120SOL    HW219260   3.253   1.255   3.697
 6121SOL     OW19261   4.049   1.168   5.624
 6121SOL    HW119262   3.993   1.153   5.542
 6121SOL    HW219263   4.019   1.252   5.670
 6122SOL     OW19264   4.942   4.248   5.006
 6122SOL    HW119265   5.040   4.264   5.016
 6122SOL    HW219266   4.916   4.259   4.910
 6123SOL     OW19267   6.378   2.059   5.170
 6123SOL    HW119268   6.428   2.006   5.103
 6123SOL    HW219269   6.359   2.151   5.134
 6124SOL     OW19270   1.844   5.981   3.780
 6124SOL    HW119271   1.853   6.040   3.861
 6124SOL    HW219272   1.924   5.992   3.721
 6125SOL     OW19273   3.134   1.096   5.702
 6125SOL    HW119274   3.037   1.094   5.726
 6125SOL    HW219275   3.187   1.052   5.774
 6126SOL     OW19276   6.178   3.193   6.418
 6126SOL    HW119277   6.200   3.219   6.512
 6126SOL    HW219278   6.088   3.150   6.416
 6127SOL     OW19279   4.993   1.934   3.204
 6127SOL    HW119280   4.992   1.844   3.159
 6127SOL    HW219281   4.922   1.992   3.164
 6128SOL     OW19282   5.997   5.204   4.866
 6128SOL    HW119283   6.093   5.205   4.838
 6128SOL    HW219284   5.941   5.168   4.791
 6129SOL     OW19285   2.154   6.145   3.197
 6129SOL    HW119286   2.077   6.143   3.261
 6129SOL    HW219287   2.138   6.078   3.124
 6130SOL     OW19288   6.923   2.214   0.141
 6130SOL    HW119289   6.977   2.207   0.057
 6130SOL    HW219290   6.985   2.227   0.218
 6131SOL     OW19291   6.163   3.229   2.554
 6131SOL    HW119292   6.237   3.182   2.506
 6131SOL    HW219293   6.075   3.205   2.511
 6132SOL     OW19294   4.709   5.825   6.668
 6132SOL    HW119295   4.796   5.869   6.645
 6132SOL    HW219296   4.634   5.877   6.628
 6133SOL     OW19297   0.157   2.629   3.495
 6133SOL    HW119298   0.158   2.530   3.481
 6133SOL    HW219299   0.096   2.671   3.429
 6134SOL     OW19300   1.013   6.981   4.896
 6134SOL    HW119301   1.055   6.891   4.903
 6134SOL    HW219302   0.954   6.984   4.815
 6135SOL     OW19303   6.096   6.264   0.172
 6135SOL    HW119304   6.137   6.355   0.179
 6135SOL    HW219305   6.019   6.257   0.235
 6136SOL     OW19306   0.907   2.666   2.845
 6136SOL    HW119307   0.978   2.599   2.823
 6136SOL    HW219308   0.870   2.705   2.761
 6137SOL     OW19309   0.192   4.711   0.967
 6137SOL    HW119310   0.165   4.625   0.924
 6137SOL    HW219311   0.112   4.770   0.977
 6138SOL     OW19312   4.664   0.808   2.888
 6138SOL    HW119313   4.655   0.719   2.844
 6138SOL    HW219314   4.758   0.841   2.879
 6139SOL     OW19315   1.481   1.989   5.510
 6139SOL    HW119316   1.579   1.982   5.490
 6139SOL    HW219317   1.443   2.068   5.462
 6140SOL     OW19318   2.218   0.609   4.069
 6140SOL    HW119319   2.232   0.515   4.101
 6140SOL    HW219320   2.122   0.623   4.048
 6141SOL     OW19321   0.934   0.592   0.647
 6141SOL    HW119322   0.849   0.646   0.653
 6141SOL    HW219323   0.940   0.531   0.726
 6142SOL     OW19324   0.521   0.075   1.687
 6142SOL    HW119325   0.471   0.105   1.769
 6142SOL    HW219326   0.519   0.149   1.619
 6143SOL     OW19327   1.918   3.204   5.435
 6143SOL    HW119328   1.982   3.131   5.413
 6143SOL    HW219329   1.968   3.282   5.473
 6144SOL     OW19330   3.345   6.232   2.908
 6144SOL    HW119331   3.362   6.256   3.004
 6144SOL    HW219332   3.354   6.314   2.852
 6145SOL     OW19333   5.496   3.403   4.310
 6145SOL    HW119334   5.496   3.353   4.223
 6145SOL    HW219335   5.402   3.426   4.336
 6146SOL     OW19336   6.464   1.534   6.017
 6146SOL    HW119337   6.539   1.538   6.083
 6146SOL    HW219338   6.390   1.478   6.054
 6147SOL     OW19339   1.475   1.914   5.174
 6147SOL    HW119340   1.375   1.921   5.173
 6147SOL    HW219341   1.502   1.821   5.199
 6148SOL     OW19342   4.024   5.400   6.625
 6148SOL    HW119343   4.101   5.364   6.678
 6148SOL    HW219344   3.998   5.490   6.660
 6149SOL     OW19345   4.149   1.643   1.872
 6149SOL    HW119346   4.154   1.686   1.962
 6149SOL    HW219347   4.217   1.570   1.866
 6150SOL     OW19348   0.360   5.033   4.080
 6150SOL    HW119349   0.371   5.123   4.037
 6150SOL    HW219350   0.347   5.045   4.179
 6151SOL     OW19351   4.021   5.318   2.393
 6151SOL    HW119352   3.961   5.370   2.331
 6151SOL    HW219353   4.110   5.364   2.398
 6152SOL     OW19354   0.580   4.203   3.335
 6152SOL    HW119355   0.628   4.140   3.396
 6152SOL    HW219356   0.501   4.158   3.295
 6153SOL     OW19357   6.033   6.424   1.363
 6153SOL    HW119358   6.113   6.475   1.329
 6153SOL    HW219359   5.978   6.483   1.422
 6154SOL     OW19360   3.627   5.256   3.061
 6154SOL    HW119361   3.579   5.170   3.077
 6154SOL    HW219362   3.699   5.241   2.993
 6155SOL     OW19363   1.824   1.785   4.487
 6155SOL    HW119364   1.872   1.697   4.491
 6155SOL    HW219365   1.837   1.826   4.397
 6156SOL     OW19366   4.599   4.388   2.803
 6156SOL    HW119367   4.638   4.304   2.840
 6156SOL    HW219368   4.666   4.462   2.810
 6157SOL     OW19369   0.471   2.409   1.444
 6157SOL    HW119370   0.534   2.473   1.487
 6157SOL    HW219371   0.454   2.332   1.506
 6158SOL     OW19372   3.281   0.714   6.441
 6158SOL    HW119373   3.301   0.643   6.373
 6158SOL    HW219374   3.350   0.712   6.513
 6159SOL     OW19375   6.482   1.435   0.563
 6159SOL    HW119376   6.440   1.364   0.507
 6159SOL    HW219377   6.573   1.405   0.594
 6160SOL     OW19378   1.226   6.901   0.746
 6160SOL    HW119379   1.244   6.807   0.774
 6160SOL    HW219380   1.310   6.941   0.708
 6161SOL     OW19381   6.161   4.231   6.957
 6161SOL    HW119382   6.191   4.174   6.880
 6161SOL    HW219383   6.061   4.229   6.963
 6162SOL     OW19384   6.373   5.766   0.785
 6162SOL    HW119385   6.443   5.838   0.789
 6162SOL    HW219386   6.398   5.693   0.849
 6163SOL     OW19387   5.090   5.698   2.733
 6163SOL    HW119388   5.136   5.615   2.764
 6163SOL    HW219389   4.991   5.688   2.743
 6164SOL     OW19390   3.742   3.639   4.546
 6164SOL    HW119391   3.710   3.644   4.452
 6164SOL    HW219392   3.667   3.664   4.608
 6165SOL     OW19393   3.417   0.671   6.667
 6165SOL    HW119394   3.361   0.626   6.736
 6165SOL    HW219395   3.514   0.657   6.688
 6166SOL     OW19396   3.182   1.599   6.003
 6166SOL    HW119397   3.126   1.682   6.007
 6166SOL    HW219398   3.232   1.589   6.089
 6167SOL     OW19399   1.440   3.764   2.326
 6167SOL    HW119400   1.379   3.842   2.339
 6167SOL    HW219401   1.390   3.690   2.280
 6168SOL     OW19402   0.948   3.933   3.805
 6168SOL    HW119403   1.036   3.981   3.807
 6168SOL    HW219404   0.875   4.000   3.788
 6169SOL     OW19405   2.721   0.959   0.966
 6169SOL    HW119406   2.636   0.931   0.921
 6169SOL    HW219407   2.787   0.884   0.959
 6170SOL     OW19408   2.825   4.506   0.911
 6170SOL    HW119409   2.751   4.509   0.978
 6170SOL    HW219410   2.860   4.599   0.896
 6171SOL     OW19411   2.352   4.219   2.026
 6171SOL    HW119412   2.399   4.155   1.965
 6171SOL    HW219413   2.392   4.213   2.117
 6172SOL     OW19414   2.397   5.018   1.744
 6172SOL    HW119415   2.463   5.065   1.804
 6172SOL    HW219416   2.316   4.994   1.797
 6173SOL     OW19417   0.835   5.600   2.716
 6173SOL    HW119418   0.912   5.545   2.747
 6173SOL    HW219419   0.793   5.647   2.794
 6174SOL     OW19420   6.099   4.504   1.740
 6174SOL    HW119421   6.172   4.525   1.676
 6174SOL    HW219422   6.093   4.577   1.808
 6175SOL     OW19423   5.527   0.234   4.229
 6175SOL    HW119424   5.444   0.264   4.182
 6175SOL    HW219425   5.518   0.138   4.255
 6176SOL     OW19426   6.883   2.985   0.397
 6176SOL    HW119427   6.789   2.978   0.364
 6176SOL    HW219428   6.945   2.994   0.319
 6177SOL     OW19429   5.705   2.465   3.052
 6177SOL    HW119430   5.660   2.543   3.096
 6177SOL    HW219431   5.636   2.402   3.018
 6178SOL     OW19432   0.020   3.685   1.283
 6178SOL    HW119433   0.044   3.771   1.328
 6178SOL    HW219434   6.998   3.623   1.349
 6179SOL     OW19435   0.361   1.411   5.742
 6179SOL    HW119436   0.368   1.356   5.659
 6179SOL    HW219437   0.450   1.454   5.761
 6180SOL     OW19438   3.078   0.851   6.629
 6180SOL    HW119439   3.051   0.918   6.561
 6180SOL    HW219440   3.152   0.794   6.592
 6181SOL     OW19441   4.488   6.658   6.099
 6181SOL    HW119442   4.563   6.690   6.157
 6181SOL    HW219443   4.401   6.676   6.145
 6182SOL     OW19444   4.543   6.796   5.528
 6182SOL    HW119445   4.591   6.755   5.451
 6182SOL    HW219446   4.445   6.782   5.518
 6183SOL     OW19447   2.391   6.736   2.290
 6183SOL    HW119448   2.484   6.709   2.268
 6183SOL    HW219449   2.376   6.832   2.265
 6184SOL     OW19450   6.655   0.186   5.367
 6184SOL    HW119451   6.709   0.229   5.295
 6184SOL    HW219452   6.639   0.251   5.441
 6185SOL     OW19453   2.332   2.415   0.200
 6185SOL    HW119454   2.370   2.474   0.129
 6185SOL    HW219455   2.315   2.324   0.162
 6186SOL     OW19456   4.251   1.088   4.160
 6186SOL    HW119457   4.212   1.144   4.232
 6186SOL    HW219458   4.183   1.074   4.088
 6187SOL     OW19459   3.301   5.082   4.752
 6187SOL    HW119460   3.355   5.031   4.819
 6187SOL    HW219461   3.217   5.032   4.732
 6188SOL     OW19462   2.474   6.891   2.507
 6188SOL    HW119463   2.473   6.867   2.605
 6188SOL    HW219464   2.448   6.810   2.454
 6189SOL     OW19465   5.461   5.051   3.250
 6189SOL    HW119466   5.428   5.079   3.340
 6189SOL    HW219467   5.513   4.966   3.258
 6190SOL     OW19468   5.204   3.046   5.672
 6190SOL    HW119469   5.123   2.995   5.703
 6190SOL    HW219470   5.202   3.054   5.573
 6191SOL     OW19471   0.215   1.241   6.482
 6191SOL    HW119472   0.212   1.341   6.487
 6191SOL    HW219473   0.144   1.210   6.418
 6192SOL     OW19474   3.358   1.771   0.282
 6192SOL    HW119475   3.279   1.803   0.334
 6192SOL    HW219476   3.441   1.781   0.337
 6193SOL     OW19477   0.143   6.800   1.498
 6193SOL    HW119478   0.072   6.770   1.562
 6193SOL    HW219479   0.231   6.801   1.544
 6194SOL     OW19480   3.242   0.269   1.265
 6194SOL    HW119481   3.219   0.367   1.271
 6194SOL    HW219482   3.336   0.260   1.233
 6195SOL     OW19483   2.441   0.619   5.613
 6195SOL    HW119484   2.522   0.666   5.648
 6195SOL    HW219485   2.470   0.542   5.556
 6196SOL     OW19486   1.395   2.255   5.414
 6196SOL    HW119487   1.453   2.313   5.471
 6196SOL    HW219488   1.409   2.277   5.318
 6197SOL     OW19489   2.592   2.685   1.590
 6197SOL    HW119490   2.542   2.742   1.655
 6197SOL    HW219491   2.689   2.708   1.593
 6198SOL     OW19492   2.983   5.703   1.933
 6198SOL    HW119493   3.061   5.760   1.958
 6198SOL    HW219494   2.928   5.749   1.863
 6199SOL     OW19495   0.298   0.273   6.522
 6199SOL    HW119496   0.235   0.226   6.459
 6199SOL    HW219497   0.324   0.361   6.483
 6200SOL     OW19498   4.138   0.563   5.799
 6200SOL    HW119499   4.041   0.539   5.793
 6200SOL    HW219500   4.194   0.481   5.784
 6201SOL     OW19501   2.576   5.439   4.934
 6201SOL    HW119502   2.527   5.504   4.992
 6201SOL    HW219503   2.643   5.488   4.878
 6202SOL     OW19504   2.102   2.454   1.052
 6202SOL    HW119505   2.133   2.362   1.030
 6202SOL    HW219506   2.124   2.516   0.977
 6203SOL     OW19507   5.686   2.563   4.294
 6203SOL    HW119508   5.651   2.474   4.322
 6203SOL    HW219509   5.770   2.583   4.344
 6204SOL     OW19510   1.066   6.838   5.394
 6204SOL    HW119511   1.141   6.784   5.355
 6204SOL    HW219512   1.083   6.852   5.492
 6205SOL     OW19513   4.114   6.767   6.650
 6205SOL    HW119514   4.212   6.765   6.629
 6205SOL    HW219515   4.088   6.683   6.696
 6206SOL     OW19516   4.730   0.107   3.789
 6206SOL    HW119517   4.780   0.190   3.766
 6206SOL    HW219518   4.789   0.045   3.841
 6207SOL     OW19519   2.560   4.539   4.577
 6207SOL    HW119520   2.500   4.461   4.595
 6207SOL    HW219521   2.618   4.556   4.656
 6208SOL     OW19522   5.233   4.439   5.328
 6208SOL    HW119523   5.239   4.516   5.392
 6208SOL    HW219524   5.291   4.364   5.359
 6209SOL     OW19525   1.446   5.858   0.845
 6209SOL    HW119526   1.468   5.905   0.930
 6209SOL    HW219527   1.474   5.762   0.851
 6210SOL     OW19528   0.176   4.369   3.289
 6210SOL    HW119529   0.233   4.289   3.308
 6210SOL    HW219530   0.233   4.451   3.286
 6211SOL     OW19531   2.544   0.323   4.733
 6211SOL    HW119532   2.549   0.410   4.685
 6211SOL    HW219533   2.475   0.329   4.805
 6212SOL     OW19534   6.784   0.876   4.294
 6212SOL    HW119535   6.708   0.860   4.231
 6212SOL    HW219536   6.748   0.911   4.381
 6213SOL     OW19537   6.510   6.970   0.222
 6213SOL    HW119538   6.450   6.890   0.210
 6213SOL    HW219539   6.455   0.029   0.250
 6214SOL     OW19540   4.795   4.426   1.643
 6214SOL    HW119541   4.740   4.428   1.727
 6214SOL    HW219542   4.883   4.471   1.660
 6215SOL     OW19543   3.685   4.309   1.480
 6215SOL    HW119544   3.613   4.272   1.539
 6215SOL    HW219545   3.717   4.396   1.516
 6216SOL     OW19546   6.042   1.613   2.618
 6216SOL    HW119547   6.067   1.673   2.542
 6216SOL    HW219548   6.029   1.520   2.583
 6217SOL     OW19549   4.527   1.439   1.539
 6217SOL    HW119550   4.600   1.484   1.590
 6217SOL    HW219551   4.471   1.508   1.494
 6218SOL     OW19552   4.458   6.405   4.442
 6218SOL    HW119553   4.483   6.496   4.411
 6218SOL    HW219554   4.364   6.384   4.414
 6219SOL     OW19555   0.462   0.976   4.850
 6219SOL    HW119556   0.381   0.979   4.791
 6219SOL    HW219557   0.505   0.886   4.842
 6220SOL     OW19558   1.047   3.526   4.935
 6220SOL    HW119559   1.091   3.445   4.896
 6220SOL    HW219560   1.102   3.560   5.012
 6221SOL     OW19561   4.656   4.332   4.358
 6221SOL    HW119562   4.691   4.250   4.313
 6221SOL    HW219563   4.598   4.384   4.296
 6222SOL     OW19564   6.920   2.109   1.399
 6222SOL    HW119565   7.008   2.149   1.373
 6222SOL    HW219566   6.936   2.029   1.457
 6223SOL     OW19567   5.147   4.764   3.647
 6223SOL    HW119568   5.162   4.846   3.702
 6223SOL    HW219569   5.162   4.682   3.704
 6224SOL     OW19570   2.736   0.272   4.453
 6224SOL    HW119571   2.674   0.201   4.421
 6224SOL    HW219572   2.815   0.231   4.498
 6225SOL     OW19573   4.056   1.748   6.659
 6225SOL    HW119574   4.007   1.834   6.671
 6225SOL    HW219575   4.029   1.683   6.730
 6226SOL     OW19576   7.017   5.936   4.415
 6226SOL    HW119577   0.074   5.888   4.457
 6226SOL    HW219578   6.933   5.917   4.466
 6227SOL     OW19579   2.827   4.008   6.784
 6227SOL    HW119580   2.838   3.912   6.809
 6227SOL    HW219581   2.764   4.016   6.707
 6228SOL     OW19582   6.973   2.369   3.132
 6228SOL    HW119583   6.907   2.410   3.195
 6228SOL    HW219584   6.992   2.275   3.161
 6229SOL     OW19585   1.369   2.842   2.539
 6229SOL    HW119586   1.355   2.805   2.631
 6229SOL    HW219587   1.428   2.780   2.487
 6230SOL     OW19588   2.152   2.663   3.862
 6230SOL    HW119589   2.183   2.735   3.800
 6230SOL    HW219590   2.111   2.589   3.809
 6231SOL     OW19591   6.680   4.388   2.620
 6231SOL    HW119592   6.616   4.445   2.670
 6231SOL    HW219593   6.728   4.444   2.552
 6232SOL     OW19594   0.827   0.870   0.047
 6232SOL    HW119595   0.852   0.957   0.089
 6232SOL    HW219596   0.759   0.887   6.994
 6233SOL     OW19597   4.086   0.995   6.122
 6233SOL    HW119598   4.086   1.090   6.089
 6233SOL    HW219599   4.057   0.934   6.048
 6234SOL     OW19600   2.662   2.344   3.409
 6234SOL    HW119601   2.748   2.303   3.379
 6234SOL    HW219602   2.663   2.354   3.509
 6235SOL     OW19603   1.686   5.234   1.717
 6235SOL    HW119604   1.719   5.141   1.732
 6235SOL    HW219605   1.746   5.280   1.651
 6236SOL     OW19606   0.187   3.906   0.294
 6236SOL    HW119607   0.212   3.825   0.242
 6236SOL    HW219608   0.091   3.899   0.322
 6237SOL     OW19609   3.663   6.076   6.321
 6237SOL    HW119610   3.649   6.171   6.293
 6237SOL    HW219611   3.582   6.043   6.369
 6238SOL     OW19612   5.100   3.362   1.240
 6238SOL    HW119613   5.091   3.272   1.197
 6238SOL    HW219614   5.104   3.351   1.340
 6239SOL     OW19615   3.036   6.377   4.268
 6239SOL    HW119616   3.031   6.289   4.220
 6239SOL    HW219617   2.984   6.372   4.353
 6240SOL     OW19618   2.552   3.784   0.595
 6240SOL    HW119619   2.494   3.818   0.670
 6240SOL    HW219620   2.640   3.831   0.597
 6241SOL     OW19621   4.069   6.951   2.570
 6241SOL    HW119622   4.081   6.859   2.608
 6241SOL    HW219623   4.143   7.010   2.602
 6242SOL     OW19624   3.387   2.116   2.596
 6242SOL    HW119625   3.399   2.084   2.502
 6242SOL    HW219626   3.477   2.128   2.639
 6243SOL     OW19627   6.063   5.914   2.639
 6243SOL    HW119628   6.089   5.869   2.724
 6243SOL    HW219629   6.144   5.956   2.597
 6244SOL     OW19630   1.545   1.855   1.710
 6244SOL    HW119631   1.557   1.954   1.704
 6244SOL    HW219632   1.467   1.827   1.655
 6245SOL     OW19633   2.446   3.338   0.099
 6245SOL    HW119634   2.379   3.358   0.171
 6245SOL    HW219635   2.517   3.277   0.135
 6246SOL     OW19636   3.991   6.810   7.005
 6246SOL    HW119637   4.056   6.882   0.011
 6246SOL    HW219638   4.036   6.721   7.014
 6247SOL     OW19639   6.397   0.008   2.840
 6247SOL    HW119640   6.302   0.013   2.812
 6247SOL    HW219641   6.448   6.970   2.776
 6248SOL     OW19642   0.930   5.500   0.902
 6248SOL    HW119643   0.944   5.577   0.840
 6248SOL    HW219644   0.909   5.534   0.993
 6249SOL     OW19645   6.520   3.083   5.989
 6249SOL    HW119646   6.509   2.984   5.994
 6249SOL    HW219647   6.538   3.119   6.081
 6250SOL     OW19648   6.855   4.174   6.304
 6250SOL    HW119649   6.941   4.141   6.343
 6250SOL    HW219650   6.873   4.231   6.225
 6251SOL     OW19651   5.033   1.120   0.375
 6251SOL    HW119652   4.940   1.135   0.407
 6251SOL    HW219653   5.074   1.207   0.348
 6252SOL     OW19654   1.821   6.228   5.364
 6252SOL    HW119655   1.910   6.267   5.389
 6252SOL    HW219656   1.762   6.301   5.331
 6253SOL     OW19657   2.444   3.616   1.031
 6253SOL    HW119658   2.363   3.625   1.088
 6253SOL    HW219659   2.511   3.686   1.057
 6254SOL     OW19660   5.520   0.360   6.859
 6254SOL    HW119661   5.584   0.284   6.844
 6254SOL    HW219662   5.492   0.361   6.955
 6255SOL     OW19663   1.064   3.642   2.826
 6255SOL    HW119664   1.042   3.650   2.729
 6255SOL    HW219665   1.044   3.728   2.872
 6256SOL     OW19666   4.629   5.377   4.332
 6256SOL    HW119667   4.569   5.326   4.270
 6256SOL    HW219668   4.573   5.437   4.390
 6257SOL     OW19669   4.006   2.888   6.777
 6257SOL    HW119670   4.015   2.801   6.728
 6257SOL    HW219671   3.964   2.956   6.716
 6258SOL     OW19672   4.779   1.907   2.815
 6258SOL    HW119673   4.743   1.830   2.761
 6258SOL    HW219674   4.861   1.942   2.771
 6259SOL     OW19675   3.417   2.178   1.773
 6259SOL    HW119676   3.462   2.089   1.784
 6259SOL    HW219677   3.483   2.251   1.785
 6260SOL     OW19678   4.130   4.314   1.464
 6260SOL    HW119679   4.067   4.365   1.522
 6260SOL    HW219680   4.111   4.216   1.472
 6261SOL     OW19681   4.696   6.457   6.149
 6261SOL    HW119682   4.744   6.387   6.203
 6261SOL    HW219683   4.719   6.447   6.053
 6262SOL     OW19684   0.170   5.984   5.378
 6262SOL    HW119685   0.154   6.053   5.307
 6262SOL    HW219686   0.089   5.979   5.438
 6263SOL     OW19687   6.859   0.617   1.289
 6263SOL    HW119688   6.805   0.632   1.206
 6263SOL    HW219689   6.891   0.522   1.290
 6264SOL     OW19690   2.645   0.982   0.205
 6264SOL    HW119691   2.553   1.019   0.218
 6264SOL    HW219692   2.681   0.950   0.293
 6265SOL     OW19693   6.602   3.547   0.389
 6265SOL    HW119694   6.683   3.503   0.428
 6265SOL    HW219695   6.606   3.645   0.405
 6266SOL     OW19696   2.429   6.699   2.965
 6266SOL    HW119697   2.427   6.604   2.936
 6266SOL    HW219698   2.516   6.719   3.010
 6267SOL     OW19699   3.108   6.367   6.726
 6267SOL    HW119700   3.054   6.354   6.810
 6267SOL    HW219701   3.073   6.446   6.676
 6268SOL     OW19702   2.264   6.380   2.128
 6268SOL    HW119703   2.332   6.375   2.055
 6268SOL    HW219704   2.311   6.389   2.216
 6269SOL     OW19705   6.953   4.626   6.286
 6269SOL    HW119706   0.006   4.694   6.303
 6269SOL    HW219707   6.993   4.535   6.283
 6270SOL     OW19708   0.790   1.514   4.061
 6270SOL    HW119709   0.755   1.459   4.137
 6270SOL    HW219710   0.733   1.499   3.980
 6271SOL     OW19711   5.701   1.762   1.136
 6271SOL    HW119712   5.721   1.792   1.043
 6271SOL    HW219713   5.636   1.824   1.179
 6272SOL     OW19714   2.946   2.234   3.789
 6272SOL    HW119715   3.034   2.197   3.819
 6272SOL    HW219716   2.944   2.239   3.690
 6273SOL     OW19717   3.608   1.412   2.781
 6273SOL    HW119718   3.530   1.462   2.744
 6273SOL    HW219719   3.595   1.398   2.880
 6274SOL     OW19720   2.844   5.649   6.984
 6274SOL    HW119721   2.922   5.597   6.951
 6274SOL    HW219722   2.808   5.705   6.909
 6275SOL     OW19723   3.192   0.838   4.550
 6275SOL    HW119724   3.200   0.935   4.529
 6275SOL    HW219725   3.201   0.784   4.467
 6276SOL     OW19726   0.561   5.653   3.581
 6276SOL    HW119727   0.475   5.649   3.633
 6276SOL    HW219728   0.626   5.588   3.619
 6277SOL     OW19729   6.553   3.460   4.233
 6277SOL    HW119730   6.509   3.370   4.238
 6277SOL    HW219731   6.595   3.481   4.321
 6278SOL     OW19732   4.612   1.019   3.325
 6278SOL    HW119733   4.613   1.096   3.262
 6278SOL    HW219734   4.676   1.036   3.400
 6279SOL     OW19735   4.006   1.896   5.671
 6279SOL    HW119736   4.016   1.977   5.729
 6279SOL    HW219737   3.929   1.909   5.608
 6280SOL     OW19738   1.550   4.925   5.243
 6280SOL    HW119739   1.525   5.020   5.225
 6280SOL    HW219740   1.487   4.885   5.309
 6281SOL     OW19741   3.175   6.088   4.825
 6281SOL    HW119742   3.141   6.179   4.850
 6281SOL    HW219743   3.273   6.084   4.843
 6282SOL     OW19744   0.771   6.115   4.494
 6282SOL    HW119745   0.799   6.019   4.487
 6282SOL    HW219746   0.836   6.164   4.552
 6283SOL     OW19747   1.061   2.781   4.779
 6283SOL    HW119748   1.016   2.788   4.868
 6283SOL    HW219749   1.042   2.864   4.726
 6284SOL     OW19750   2.518   4.805   0.189
 6284SOL    HW119751   2.427   4.785   0.226
 6284SOL    HW219752   2.511   4.815   0.090
 6285SOL     OW19753   2.214   4.084   2.546
 6285SOL    HW119754   2.225   4.099   2.645
 6285SOL    HW219755   2.292   4.122   2.497
 6286SOL     OW19756   6.989   6.112   3.813
 6286SOL    HW119757   6.958   6.206   3.830
 6286SOL    HW219758   0.035   6.085   3.883
 6287SOL     OW19759   3.542   4.915   3.432
 6287SOL    HW119760   3.465   4.875   3.481
 6287SOL    HW219761   3.626   4.902   3.485
 6288SOL     OW19762   0.155   3.900   1.410
 6288SOL    HW119763   0.221   3.839   1.453
 6288SOL    HW219764   0.187   3.995   1.418
 6289SOL     OW19765   0.322   6.996   2.929
 6289SOL    HW119766   0.273   7.000   3.016
 6289SOL    HW219767   0.256   6.996   2.854
 6290SOL     OW19768   5.740   3.422   3.978
 6290SOL    HW119769   5.783   3.467   3.901
 6290SOL    HW219770   5.735   3.484   4.056
 6291SOL     OW19771   3.643   3.769   3.794
 6291SOL    HW119772   3.556   3.803   3.831
 6291SOL    HW219773   3.719   3.807   3.847
 6292SOL     OW19774   6.928   1.218   1.692
 6292SOL    HW119775   6.863   1.243   1.620
 6292SOL    HW219776   6.944   1.119   1.689
 6293SOL     OW19777   5.626   4.199   5.856
 6293SOL    HW119778   5.639   4.269   5.785
 6293SOL    HW219779   5.551   4.225   5.916
 6294SOL     OW19780   2.762   6.505   0.624
 6294SOL    HW119781   2.827   6.480   0.552
 6294SOL    HW219782   2.806   6.500   0.713
 6295SOL     OW19783   6.154   5.700   6.219
 6295SOL    HW119784   6.216   5.633   6.178
 6295SOL    HW219785   6.153   5.688   6.318
 6296SOL     OW19786   6.006   2.107   3.515
 6296SOL    HW119787   6.074   2.087   3.444
 6296SOL    HW219788   5.914   2.095   3.477
 6297SOL     OW19789   5.535   2.368   5.966
 6297SOL    HW119790   5.495   2.313   5.893
 6297SOL    HW219791   5.481   2.452   5.978
 6298SOL     OW19792   6.305   2.914   4.455
 6298SOL    HW119793   6.392   2.962   4.474
 6298SOL    HW219794   6.310   2.821   4.492
 6299SOL     OW19795   0.598   2.213   6.987
 6299SOL    HW119796   0.666   2.158   6.938
 6299SOL    HW219797   0.530   2.247   6.922
 6300SOL     OW19798   5.077   0.992   3.380
 6300SOL    HW119799   5.160   0.953   3.341
 6300SOL    HW219800   5.089   1.006   3.478
 6301SOL     OW19801   2.989   0.125   1.200
 6301SOL    HW119802   2.978   0.098   1.105
 6301SOL    HW219803   3.079   0.166   1.214
 6302SOL     OW19804   6.480   0.802   2.925
 6302SOL    HW119805   6.441   0.889   2.957
 6302SOL    HW219806   6.409   0.733   2.920
 6303SOL     OW19807   2.420   5.204   4.980
 6303SOL    HW119808   2.380   5.164   4.898
 6303SOL    HW219809   2.456   5.295   4.960
 6304SOL     OW19810   4.343   0.905   5.022
 6304SOL    HW119811   4.389   0.953   4.948
 6304SOL    HW219812   4.340   0.807   5.001
 6305SOL     OW19813   5.050   0.037   3.075
 6305SOL    HW119814   5.004   6.991   3.135
 6305SOL    HW219815   5.105   7.006   3.009
 6306SOL     OW19816   6.502   3.072   4.517
 6306SOL    HW119817   6.550   3.046   4.600
 6306SOL    HW219818   6.557   3.137   4.465
 6307SOL     OW19819   2.234   4.291   0.679
 6307SOL    HW119820   2.205   4.207   0.633
 6307SOL    HW219821   2.155   4.335   0.721
 6308SOL     OW19822   3.687   2.408   6.513
 6308SOL    HW119823   3.737   2.376   6.594
 6308SOL    HW219824   3.592   2.427   6.538
 6309SOL     OW19825   6.609   2.208   5.129
 6309SOL    HW119826   6.577   2.188   5.036
 6309SOL    HW219827   6.531   2.216   5.190
 6310SOL     OW19828   6.882   5.790   5.312
 6310SOL    HW119829   6.907   5.776   5.408
 6310SOL    HW219830   6.795   5.745   5.293
 6311SOL     OW19831   6.354   6.766   4.805
 6311SOL    HW119832   6.269   6.816   4.822
 6311SOL    HW219833   6.345   6.714   4.720
 6312SOL     OW19834   5.663   3.920   5.880
 6312SOL    HW119835   5.751   3.904   5.837
 6312SOL    HW219836   5.643   4.018   5.879
 6313SOL     OW19837   2.618   5.856   4.016
 6313SOL    HW119838   2.580   5.765   3.994
 6313SOL    HW219839   2.715   5.846   4.038
 6314SOL     OW19840   1.417   0.299   3.136
 6314SOL    HW119841   1.375   0.381   3.098
 6314SOL    HW219842   1.506   0.284   3.093
 6315SOL     OW19843   1.536   3.716   0.749
 6315SOL    HW119844   1.572   3.762   0.668
 6315SOL    HW219845   1.587   3.747   0.830
 6316SOL     OW19846   4.281   1.222   4.557
 6316SOL    HW119847   4.215   1.254   4.625
 6316SOL    HW219848   4.360   1.283   4.557
 6317SOL     OW19849   6.597   6.146   4.075
 6317SOL    HW119850   6.692   6.113   4.083
 6317SOL    HW219851   6.544   6.079   4.022
 6318SOL     OW19852   1.576   2.834   3.790
 6318SOL    HW119853   1.564   2.789   3.878
 6318SOL    HW219854   1.600   2.930   3.804
 6319SOL     OW19855   1.018   2.251   2.935
 6319SOL    HW119856   1.016   2.320   3.007
 6319SOL    HW219857   1.022   2.297   2.846
 6320SOL     OW19858   0.166   2.252   2.147
 6320SOL    HW119859   0.162   2.312   2.067
 6320SOL    HW219860   0.252   2.267   2.196
 6321SOL     OW19861   2.278   4.234   5.580
 6321SOL    HW119862   2.272   4.202   5.674
 6321SOL    HW219863   2.278   4.155   5.518
 6322SOL     OW19864   2.139   6.642   0.066
 6322SOL    HW119865   2.193   6.659   0.148
 6322SOL    HW219866   2.150   6.718   0.002
 6323SOL     OW19867   4.441   1.589   1.973
 6323SOL    HW119868   4.379   1.655   2.015
 6323SOL    HW219869   4.535   1.620   1.985
 6324SOL     OW19870   3.129   1.576   1.763
 6324SOL    HW119871   3.216   1.542   1.799
 6324SOL    HW219872   3.089   1.507   1.702
 6325SOL     OW19873   2.137   3.344   3.093
 6325SOL    HW119874   2.140   3.385   3.184
 6325SOL    HW219875   2.131   3.417   3.024
 6326SOL     OW19876   4.349   6.426   1.624
 6326SOL    HW119877   4.358   6.414   1.723
 6326SOL    HW219878   4.318   6.340   1.584
 6327SOL     OW19879   3.765   5.497   5.105
 6327SOL    HW119880   3.718   5.483   5.017
 6327SOL    HW219881   3.779   5.409   5.150
 6328SOL     OW19882   3.254   4.364   0.458
 6328SOL    HW119883   3.284   4.314   0.539
 6328SOL    HW219884   3.332   4.409   0.416
 6329SOL     OW19885   0.860   2.527   3.208
 6329SOL    HW119886   0.876   2.617   3.248
 6329SOL    HW219887   0.786   2.533   3.141
 6330SOL     OW19888   3.458   0.264   6.807
 6330SOL    HW119889   3.416   0.184   6.848
 6330SOL    HW219890   3.531   0.298   6.867
 6331SOL     OW19891   5.420   2.614   1.752
 6331SOL    HW119892   5.439   2.672   1.831
 6331SOL    HW219893   5.463   2.653   1.671
 6332SOL     OW19894   3.697   6.184   2.045
 6332SOL    HW119895   3.672   6.099   2.091
 6332SOL    HW219896   3.771   6.165   1.980
 6333SOL     OW19897   2.000   5.819   2.378
 6333SOL    HW119898   2.022   5.804   2.282
 6333SOL    HW219899   1.990   5.731   2.425
 6334SOL     OW19900   2.355   0.229   1.618
 6334SOL    HW119901   2.334   0.320   1.582
 6334SOL    HW219902   2.271   0.186   1.652
 6335SOL     OW19903   6.278   0.800   0.148
 6335SOL    HW119904   6.197   0.853   0.122
 6335SOL    HW219905   6.360   0.848   0.118
 6336SOL     OW19906   1.820   2.729   5.327
 6336SOL    HW119907   1.727   2.695   5.312
 6336SOL    HW219908   1.822   2.784   5.411
 6337SOL     OW19909   0.984   4.498   5.114
 6337SOL    HW119910   1.010   4.594   5.118
 6337SOL    HW219911   0.896   4.489   5.066
 6338SOL     OW19912   3.650   1.205   3.989
 6338SOL    HW119913   3.714   1.277   4.015
 6338SOL    HW219914   3.589   1.186   4.065
 6339SOL     OW19915   6.607   2.742   4.690
 6339SOL    HW119916   6.566   2.723   4.779
 6339SOL    HW219917   6.685   2.803   4.702
 6340SOL     OW19918   3.111   5.362   3.776
 6340SOL    HW119919   3.123   5.320   3.866
 6340SOL    HW219920   3.119   5.293   3.705
 6341SOL     OW19921   5.609   4.753   1.904
 6341SOL    HW119922   5.585   4.839   1.949
 6341SOL    HW219923   5.528   4.695   1.897
 6342SOL     OW19924   1.184   3.646   0.116
 6342SOL    HW119925   1.100   3.649   0.063
 6342SOL    HW219926   1.163   3.654   0.214
 6343SOL     OW19927   3.496   1.530   6.987
 6343SOL    HW119928   3.551   1.483   6.919
 6343SOL    HW219929   3.413   1.566   6.944
 6344SOL     OW19930   5.811   5.115   4.120
 6344SOL    HW119931   5.791   5.041   4.184
 6344SOL    HW219932   5.891   5.090   4.064
 6345SOL     OW19933   2.258   2.056   1.149
 6345SOL    HW119934   2.317   2.109   1.210
 6345SOL    HW219935   2.215   1.981   1.200
 6346SOL     OW19936   0.616   5.040   4.230
 6346SOL    HW119937   0.601   4.955   4.280
 6346SOL    HW219938   0.546   5.107   4.256
 6347SOL     OW19939   3.234   0.217   0.392
 6347SOL    HW119940   3.237   0.266   0.305
 6347SOL    HW219941   3.197   0.277   0.463
 6348SOL     OW19942   0.052   2.163   4.518
 6348SOL    HW119943   7.016   2.118   4.448
 6348SOL    HW219944   0.021   2.257   4.530
 6349SOL     OW19945   0.574   0.691   0.091
 6349SOL    HW119946   0.506   0.642   0.147
 6349SOL    HW219947   0.528   0.736   0.014
 6350SOL     OW19948   0.002   5.442   3.457
 6350SOL    HW119949   6.992   5.425   3.551
 6350SOL    HW219950   0.101   5.461   3.456
 6351SOL     OW19951   0.446   2.587   2.396
 6351SOL    HW119952   0.364   2.596   2.453
 6351SOL    HW219953   0.446   2.497   2.352
 6352SOL     OW19954   6.156   4.265   3.060
 6352SOL    HW119955   6.080   4.206   3.089
 6352SOL    HW219956   6.230   4.209   3.023
 6353SOL     OW19957   6.297   0.253   2.172
 6353SOL    HW119958   6.221   0.314   2.152
 6353SOL    HW219959   6.269   0.158   2.158
 6354SOL     OW19960   6.597   6.952   5.249
 6354SOL    HW119961   6.554   6.909   5.328
 6354SOL    HW219962   6.616   0.029   5.271
 6355SOL     OW19963   1.084   1.517   0.736
 6355SOL    HW119964   1.055   1.483   0.826
 6355SOL    HW219965   1.184   1.524   0.734
 6356SOL     OW19966   3.308   3.794   1.432
 6356SOL    HW119967   3.309   3.727   1.358
 6356SOL    HW219968   3.398   3.835   1.441
 6357SOL     OW19969   5.091   1.650   0.606
 6357SOL    HW119970   5.168   1.625   0.664
 6357SOL    HW219971   5.081   1.749   0.603
 6358SOL     OW19972   0.985   2.943   5.396
 6358SOL    HW119973   1.009   2.866   5.337
 6358SOL    HW219974   1.047   3.019   5.378
 6359SOL     OW19975   0.297   0.290   6.192
 6359SOL    HW119976   0.382   0.257   6.234
 6359SOL    HW219977   0.304   0.387   6.173
 6360SOL     OW19978   2.215   5.099   3.954
 6360SOL    HW119979   2.146   5.116   3.883
 6360SOL    HW219980   2.226   5.181   4.010
 6361SOL     OW19981   3.164   6.077   5.606
 6361SOL    HW119982   3.068   6.052   5.618
 6361SOL    HW219983   3.199   6.118   5.691
 6362SOL     OW19984   6.478   4.516   5.822
 6362SOL    HW119985   6.420   4.593   5.797
 6362SOL    HW219986   6.521   4.534   5.911
 6363SOL     OW19987   0.936   5.749   3.240
 6363SOL    HW119988   0.935   5.745   3.140
 6363SOL    HW219989   0.843   5.766   3.274
 6364SOL     OW19990   2.641   1.537   6.918
 6364SOL    HW119991   2.701   1.477   6.865
 6364SOL    HW219992   2.623   1.620   6.866
 6365SOL     OW19993   4.080   5.974   2.144
 6365SOL    HW119994   3.996   5.988   2.198
 6365SOL    HW219995   4.082   5.880   2.109
 6366SOL     OW19996   0.718   4.069   4.976
 6366SOL    HW119997   0.791   4.101   5.036
 6366SOL    HW219998   0.693   4.142   4.912
 6367SOL     OW19999   5.186   5.530   2.171
 6367SOL    HW120000   5.246   5.531   2.251
 6367SOL    HW220001   5.241   5.543   2.088
 6368SOL     OW20002   2.756   1.582   2.067
 6368SOL    HW120003   2.753   1.593   2.166
 6368SOL    HW220004   2.825   1.643   2.029
 6369SOL     OW20005   2.317   5.886   5.124
 6369SOL    HW120006   2.230   5.934   5.136
 6369SOL    HW220007   2.388   5.952   5.099
 6370SOL     OW20008   5.035   2.185   2.388
 6370SOL    HW120009   5.106   2.255   2.386
 6370SOL    HW220010   4.946   2.228   2.407
 6371SOL     OW20011   4.416   1.773   3.450
 6371SOL    HW120012   4.466   1.752   3.366
 6371SOL    HW220013   4.343   1.839   3.429
 6372SOL     OW20014   2.686   0.229   2.893
 6372SOL    HW120015   2.641   0.301   2.842
 6372SOL    HW220016   2.730   0.165   2.829
 6373SOL     OW20017   3.249   4.706   6.956
 6373SOL    HW120018   3.341   4.690   6.989
 6373SOL    HW220019   3.184   4.652   7.010
 6374SOL     OW20020   2.939   3.222   4.648
 6374SOL    HW120021   2.918   3.282   4.725
 6374SOL    HW220022   2.876   3.144   4.648
 6375SOL     OW20023   2.142   5.702   1.655
 6375SOL    HW120024   2.170   5.771   1.721
 6375SOL    HW220025   2.053   5.664   1.681
 6376SOL     OW20026   1.226   0.999   5.602
 6376SOL    HW120027   1.281   1.014   5.684
 6376SOL    HW220028   1.177   0.912   5.610
 6377SOL     OW20029   0.557   2.756   3.394
 6377SOL    HW120030   0.488   2.816   3.434
 6377SOL    HW220031   0.515   2.670   3.366
 6378SOL     OW20032   4.120   5.220   3.957
 6378SOL    HW120033   4.176   5.295   3.923
 6378SOL    HW220034   4.154   5.190   4.046
 6379SOL     OW20035   1.937   4.081   1.753
 6379SOL    HW120036   2.006   4.102   1.684
 6379SOL    HW220037   1.847   4.110   1.720
 6380SOL     OW20038   0.830   0.135   6.189
 6380SOL    HW120039   0.899   0.207   6.179
 6380SOL    HW220040   0.854   0.057   6.131
 6381SOL     OW20041   3.896   3.273   3.253
 6381SOL    HW120042   3.801   3.246   3.241
 6381SOL    HW220043   3.927   3.247   3.344
 6382SOL     OW20044   1.164   4.323   5.197
 6382SOL    HW120045   1.261   4.330   5.171
 6382SOL    HW220046   1.109   4.381   5.138
 6383SOL     OW20047   3.957   1.633   3.952
 6383SOL    HW120048   3.888   1.583   4.004
 6383SOL    HW220049   4.019   1.681   4.014
 6384SOL     OW20050   6.497   4.603   2.149
 6384SOL    HW120051   6.529   4.509   2.164
 6384SOL    HW220052   6.550   4.666   2.206
 6385SOL     OW20053   0.759   5.693   5.367
 6385SOL    HW120054   0.839   5.698   5.307
 6385SOL    HW220055   0.697   5.768   5.347
 6386SOL     OW20056   2.072   5.447   2.676
 6386SOL    HW120057   2.060   5.470   2.772
 6386SOL    HW220058   2.026   5.360   2.656
 6387SOL     OW20059   5.723   1.568   5.099
 6387SOL    HW120060   5.695   1.480   5.137
 6387SOL    HW220061   5.714   1.565   4.999
 6388SOL     OW20062   2.395   5.349   1.541
 6388SOL    HW120063   2.494   5.353   1.526
 6388SOL    HW220064   2.371   5.403   1.621
 6389SOL     OW20065   1.704   3.764   0.948
 6389SOL    HW120066   1.724   3.675   0.908
 6389SOL    HW220067   1.755   3.775   1.033
 6390SOL     OW20068   0.723   3.226   4.724
 6390SOL    HW120069   0.818   3.234   4.754
 6390SOL    HW220070   0.692   3.132   4.736
 6391SOL     OW20071   4.108   0.486   0.434
 6391SOL    HW120072   4.075   0.564   0.486
 6391SOL    HW220073   4.185   0.444   0.482
 6392SOL     OW20074   1.262   5.863   4.603
 6392SOL    HW120075   1.281   5.808   4.522
 6392SOL    HW220076   1.231   5.803   4.677
 6393SOL     OW20077   4.997   1.593   6.362
 6393SOL    HW120078   5.034   1.686   6.367
 6393SOL    HW220079   5.017   1.545   6.448
 6394SOL     OW20080   3.622   5.636   2.706
 6394SOL    HW120081   3.569   5.710   2.748
 6394SOL    HW220082   3.698   5.611   2.766
 6395SOL     OW20083   5.659   1.865   6.922
 6395SOL    HW120084   5.710   1.906   6.847
 6395SOL    HW220085   5.564   1.896   6.920
 6396SOL     OW20086   6.846   1.683   6.617
 6396SOL    HW120087   6.830   1.735   6.701
 6396SOL    HW220088   6.868   1.746   6.542
 6397SOL     OW20089   0.198   0.261   0.343
 6397SOL    HW120090   0.214   0.283   0.247
 6397SOL    HW220091   0.114   0.206   0.350
 6398SOL     OW20092   4.629   0.991   1.629
 6398SOL    HW120093   4.579   0.962   1.710
 6398SOL    HW220094   4.726   1.005   1.653
 6399SOL     OW20095   0.849   6.585   6.427
 6399SOL    HW120096   0.937   6.538   6.436
 6399SOL    HW220097   0.776   6.517   6.426
 6400SOL     OW20098   3.049   4.951   4.745
 6400SOL    HW120099   3.048   4.929   4.843
 6400SOL    HW220100   2.987   5.028   4.728
 6401SOL     OW20101   6.704   4.834   5.561
 6401SOL    HW120102   6.765   4.822   5.483
 6401SOL    HW220103   6.669   4.745   5.591
 6402SOL     OW20104   2.150   4.043   3.039
 6402SOL    HW120105   2.067   4.011   2.994
 6402SOL    HW220106   2.201   4.103   2.976
 6403SOL     OW20107   0.243   6.294   2.038
 6403SOL    HW120108   0.303   6.374   2.033
 6403SOL    HW220109   0.150   6.324   2.060
 6404SOL     OW20110   5.178   0.187   1.844
 6404SOL    HW120111   5.230   0.264   1.879
 6404SOL    HW220112   5.124   0.215   1.765
 6405SOL     OW20113   3.640   5.927   2.104
 6405SOL    HW120114   3.542   5.919   2.116
 6405SOL    HW220115   3.687   5.877   2.176
 6406SOL     OW20116   2.190   2.245   3.463
 6406SOL    HW120117   2.221   2.280   3.551
 6406SOL    HW220118   2.269   2.217   3.408
 6407SOL     OW20119   5.398   6.350   0.462
 6407SOL    HW120120   5.492   6.343   0.495
 6407SOL    HW220121   5.369   6.263   0.423
 6408SOL     OW20122   6.819   1.985   0.880
 6408SOL    HW120123   6.805   1.889   0.854
 6408SOL    HW220124   6.732   2.027   0.903
 6409SOL     OW20125   0.724   5.121   1.668
 6409SOL    HW120126   0.750   5.179   1.746
 6409SOL    HW220127   0.806   5.082   1.626
 6410SOL     OW20128   6.787   6.893   0.829
 6410SOL    HW120129   6.744   6.888   0.739
 6410SOL    HW220130   6.802   6.989   0.853
 6411SOL     OW20131   1.891   1.510   3.233
 6411SOL    HW120132   1.814   1.508   3.169
 6411SOL    HW220133   1.927   1.603   3.238
 6412SOL     OW20134   6.138   2.431   4.944
 6412SOL    HW120135   6.127   2.505   4.879
 6412SOL    HW220136   6.169   2.468   5.032
 6413SOL     OW20137   7.016   5.547   1.168
 6413SOL    HW120138   7.003   5.585   1.259
 6413SOL    HW220139   6.927   5.530   1.125
 6414SOL     OW20140   6.715   0.284   3.645
 6414SOL    HW120141   6.694   0.186   3.643
 6414SOL    HW220142   6.662   0.329   3.716
 6415SOL     OW20143   1.408   1.720   2.317
 6415SOL    HW120144   1.328   1.697   2.372
 6415SOL    HW220145   1.491   1.687   2.362
 6416SOL     OW20146   3.144   6.119   6.625
 6416SOL    HW120147   3.116   6.212   6.646
 6416SOL    HW220148   3.082   6.079   6.558
 6417SOL     OW20149   6.922   6.323   3.982
 6417SOL    HW120150   6.917   6.254   4.055
 6417SOL    HW220151   6.874   6.406   4.011
 6418SOL     OW20152   6.580   5.069   2.109
 6418SOL    HW120153   6.502   5.006   2.108
 6418SOL    HW220154   6.611   5.084   2.015
 6419SOL     OW20155   3.179   2.291   1.116
 6419SOL    HW120156   3.199   2.227   1.042
 6419SOL    HW220157   3.205   2.251   1.204
 6420SOL     OW20158   0.882   2.068   0.081
 6420SOL    HW120159   0.867   2.106   7.009
 6420SOL    HW220160   0.807   2.096   0.141
 6421SOL     OW20161   5.813   1.792   0.627
 6421SOL    HW120162   5.907   1.790   0.661
 6421SOL    HW220163   5.784   1.699   0.602
 6422SOL     OW20164   5.449   2.579   3.160
 6422SOL    HW120165   5.415   2.487   3.135
 6422SOL    HW220166   5.505   2.573   3.242
 6423SOL     OW20167   5.841   3.645   0.510
 6423SOL    HW120168   5.816   3.717   0.446
 6423SOL    HW220169   5.759   3.606   0.550
 6424SOL     OW20170   6.571   3.501   4.936
 6424SOL    HW120171   6.495   3.480   4.997
 6424SOL    HW220172   6.591   3.599   4.940
 6425SOL     OW20173   0.896   5.534   1.211
 6425SOL    HW120174   0.822   5.467   1.197
 6425SOL    HW220175   0.860   5.614   1.259
 6426SOL     OW20176   6.712   4.191   3.542
 6426SOL    HW120177   6.749   4.258   3.478
 6426SOL    HW220178   6.776   4.177   3.618
 6427SOL     OW20179   1.302   3.613   5.800
 6427SOL    HW120180   1.293   3.612   5.701
 6427SOL    HW220181   1.386   3.565   5.826
 6428SOL     OW20182   6.477   3.825   5.899
 6428SOL    HW120183   6.447   3.738   5.861
 6428SOL    HW220184   6.479   3.894   5.826
 6429SOL     OW20185   1.478   0.213   4.503
 6429SOL    HW120186   1.433   0.285   4.451
 6429SOL    HW220187   1.493   0.244   4.597
 6430SOL     OW20188   6.385   3.359   6.797
 6430SOL    HW120189   6.450   3.378   6.871
 6430SOL    HW220190   6.430   3.372   6.709
 6431SOL     OW20191   5.490   1.588   1.952
 6431SOL    HW120192   5.457   1.495   1.933
 6431SOL    HW220193   5.492   1.602   2.051
 6432SOL     OW20194   6.341   3.809   0.947
 6432SOL    HW120195   6.346   3.800   0.848
 6432SOL    HW220196   6.340   3.906   0.971
 6433SOL     OW20197   2.179   3.278   1.746
 6433SOL    HW120198   2.218   3.209   1.685
 6433SOL    HW220199   2.253   3.334   1.784
 6434SOL     OW20200   1.495   6.167   0.816
 6434SOL    HW120201   1.410   6.159   0.869
 6434SOL    HW220202   1.473   6.160   0.718
 6435SOL     OW20203   6.069   3.514   0.448
 6435SOL    HW120204   5.980   3.556   0.467
 6435SOL    HW220205   6.059   3.415   0.446
 6436SOL     OW20206   3.324   2.317   0.788
 6436SOL    HW120207   3.382   2.385   0.833
 6436SOL    HW220208   3.286   2.356   0.704
 6437SOL     OW20209   6.755   1.041   2.402
 6437SOL    HW120210   6.773   1.106   2.475
 6437SOL    HW220211   6.834   1.037   2.340
 6438SOL     OW20212   0.699   4.024   4.594
 6438SOL    HW120213   0.616   3.980   4.562
 6438SOL    HW220214   0.712   4.111   4.545
 6439SOL     OW20215   0.306   5.772   2.568
 6439SOL    HW120216   0.215   5.799   2.598
 6439SOL    HW220217   0.299   5.710   2.490
 6440SOL     OW20218   0.414   0.792   2.142
 6440SOL    HW120219   0.419   0.881   2.097
 6440SOL    HW220220   0.484   0.786   2.213
 6441SOL     OW20221   5.196   2.238   3.189
 6441SOL    HW120222   5.168   2.334   3.182
 6441SOL    HW220223   5.148   2.195   3.265
 6442SOL     OW20224   1.274   2.300   3.808
 6442SOL    HW120225   1.176   2.280   3.816
 6442SOL    HW220226   1.322   2.218   3.780
 6443SOL     OW20227   2.548   0.927   0.731
 6443SOL    HW120228   2.546   0.991   0.655
 6443SOL    HW220229   2.581   0.838   0.699
 6444SOL     OW20230   0.775   1.786   2.992
 6444SOL    HW120231   0.678   1.783   3.016
 6444SOL    HW220232   0.829   1.757   3.071
 6445SOL     OW20233   3.776   4.246   6.453
 6445SOL    HW120234   3.780   4.318   6.522
 6445SOL    HW220235   3.689   4.197   6.459
 6446SOL     OW20236   0.583   1.057   0.968
 6446SOL    HW120237   0.606   1.082   1.062
 6446SOL    HW220238   0.659   1.006   0.928
 6447SOL     OW20239   1.635   1.110   3.641
 6447SOL    HW120240   1.685   1.025   3.627
 6447SOL    HW220241   1.684   1.185   3.597
 6448SOL     OW20242   6.042   2.076   1.990
 6448SOL    HW120243   6.046   1.977   2.003
 6448SOL    HW220244   5.987   2.097   1.909
 6449SOL     OW20245   4.515   2.493   0.340
 6449SOL    HW120246   4.599   2.519   0.388
 6449SOL    HW220247   4.538   2.452   0.252
 6450SOL     OW20248   6.369   2.497   0.436
 6450SOL    HW120249   6.340   2.526   0.344
 6450SOL    HW220250   6.467   2.514   0.447
 6451SOL     OW20251   3.103   6.430   4.877
 6451SOL    HW120252   3.180   6.420   4.939
 6451SOL    HW220253   3.021   6.390   4.918
 6452SOL     OW20254   3.464   6.147   4.933
 6452SOL    HW120255   3.515   6.222   4.974
 6452SOL    HW220256   3.527   6.084   4.888
 6453SOL     OW20257   2.785   5.060   6.938
 6453SOL    HW120258   2.717   4.989   6.924
 6453SOL    HW220259   2.876   5.024   6.919
 6454SOL     OW20260   3.905   0.834   5.077
 6454SOL    HW120261   3.827   0.871   5.126
 6454SOL    HW220262   3.988   0.846   5.131
 6455SOL     OW20263   5.902   3.258   0.167
 6455SOL    HW120264   5.954   3.207   0.099
 6455SOL    HW220265   5.912   3.356   0.149
 6456SOL     OW20266   6.478   2.127   4.060
 6456SOL    HW120267   6.437   2.163   4.144
 6456SOL    HW220268   6.418   2.148   3.982
 6457SOL     OW20269   6.172   3.209   1.385
 6457SOL    HW120270   6.237   3.155   1.439
 6457SOL    HW220271   6.092   3.152   1.363
 6458SOL     OW20272   1.145   5.769   3.908
 6458SOL    HW120273   1.239   5.744   3.932
 6458SOL    HW220274   1.082   5.699   3.943
 6459SOL     OW20275   5.922   3.876   6.973
 6459SOL    HW120276   5.897   3.943   6.903
 6459SOL    HW220277   5.937   3.923   0.041
 6460SOL     OW20278   3.921   5.381   2.143
 6460SOL    HW120279   3.983   5.404   2.067
 6460SOL    HW220280   3.831   5.419   2.125
 6461SOL     OW20281   3.138   5.736   4.387
 6461SOL    HW120282   3.062   5.714   4.448
 6461SOL    HW220283   3.211   5.778   4.439
 6462SOL     OW20284   1.968   4.567   2.663
 6462SOL    HW120285   1.900   4.542   2.593
 6462SOL    HW220286   1.965   4.665   2.679
 6463SOL     OW20287   2.684   2.979   5.756
 6463SOL    HW120288   2.612   2.936   5.702
 6463SOL    HW220289   2.649   3.005   5.846
 6464SOL     OW20290   0.868   5.638   1.980
 6464SOL    HW120291   0.788   5.640   2.040
 6464SOL    HW220292   0.839   5.658   1.886
 6465SOL     OW20293   6.148   0.048   3.134
 6465SOL    HW120294   6.201   0.133   3.129
 6465SOL    HW220295   6.207   6.990   3.115
 6466SOL     OW20296   6.618   3.175   4.756
 6466SOL    HW120297   6.685   3.193   4.828
 6466SOL    HW220298   6.526   3.181   4.794
 6467SOL     OW20299   3.903   0.438   5.815
 6467SOL    HW120300   3.850   0.467   5.735
 6467SOL    HW220301   3.846   0.445   5.897
 6468SOL     OW20302   6.449   4.861   2.792
 6468SOL    HW120303   6.545   4.833   2.797
 6468SOL    HW220304   6.443   4.947   2.741
 6469SOL     OW20305   6.576   2.523   6.010
 6469SOL    HW120306   6.660   2.488   6.051
 6469SOL    HW220307   6.512   2.447   5.996
 6470SOL     OW20308   6.590   6.506   4.688
 6470SOL    HW120309   6.672   6.520   4.632
 6470SOL    HW220310   6.521   6.574   4.663
 6471SOL     OW20311   6.550   6.611   5.287
 6471SOL    HW120312   6.526   6.683   5.352
 6471SOL    HW220313   6.644   6.581   5.304
 6472SOL     OW20314   1.366   0.095   1.794
 6472SOL    HW120315   1.268   0.077   1.783
 6472SOL    HW220316   1.407   0.112   1.704
 6473SOL     OW20317   2.193   1.597   5.897
 6473SOL    HW120318   2.137   1.515   5.886
 6473SOL    HW220319   2.218   1.632   5.807
 6474SOL     OW20320   1.886   2.858   6.575
 6474SOL    HW120321   1.882   2.942   6.630
 6474SOL    HW220322   1.935   2.877   6.490
 6475SOL     OW20323   4.248   5.037   3.773
 6475SOL    HW120324   4.223   5.078   3.685
 6475SOL    HW220325   4.207   5.090   3.847
 6476SOL     OW20326   4.661   5.830   3.269
 6476SOL    HW120327   4.645   5.826   3.171
 6476SOL    HW220328   4.755   5.802   3.289
 6477SOL     OW20329   6.602   5.741   0.582
 6477SOL    HW120330   6.634   5.647   0.591
 6477SOL    HW220331   6.554   5.752   0.495
 6478SOL     OW20332   4.406   6.417   0.778
 6478SOL    HW120333   4.489   6.412   0.723
 6478SOL    HW220334   4.407   6.346   0.848
 6479SOL     OW20335   2.817   6.115   2.307
 6479SOL    HW120336   2.905   6.067   2.308
 6479SOL    HW220337   2.783   6.124   2.400
 6480SOL     OW20338   2.329   1.283   0.764
 6480SOL    HW120339   2.427   1.262   0.769
 6480SOL    HW220340   2.276   1.199   0.769
 6481SOL     OW20341   4.562   0.925   0.802
 6481SOL    HW120342   4.465   0.908   0.823
 6481SOL    HW220343   4.609   0.955   0.884
 6482SOL     OW20344   6.723   0.121   5.736
 6482SOL    HW120345   6.665   0.044   5.762
 6482SOL    HW220346   6.819   0.097   5.748
 6483SOL     OW20347   1.171   5.457   1.252
 6483SOL    HW120348   1.184   5.427   1.347
 6483SOL    HW220349   1.074   5.467   1.233
 6484SOL     OW20350   3.988   0.346   2.511
 6484SOL    HW120351   4.084   0.325   2.493
 6484SOL    HW220352   3.964   0.432   2.465
 6485SOL     OW20353   6.784   2.383   2.129
 6485SOL    HW120354   6.859   2.383   2.195
 6485SOL    HW220355   6.812   2.333   2.047
 6486SOL     OW20356   1.533   3.296   2.886
 6486SOL    HW120357   1.507   3.368   2.951
 6486SOL    HW220358   1.558   3.214   2.937
 6487SOL     OW20359   6.251   5.442   2.797
 6487SOL    HW120360   6.250   5.410   2.892
 6487SOL    HW220361   6.161   5.428   2.756
 6488SOL     OW20362   3.551   5.116   4.307
 6488SOL    HW120363   3.475   5.126   4.371
 6488SOL    HW220364   3.633   5.086   4.357
 6489SOL     OW20365   2.860   0.721   6.783
 6489SOL    HW120366   2.788   0.776   6.826
 6489SOL    HW220367   2.921   0.781   6.730
 6490SOL     OW20368   3.855   0.798   6.899
 6490SOL    HW120369   3.806   0.714   6.875
 6490SOL    HW220370   3.793   0.861   6.944
 6491SOL     OW20371   4.916   0.839   5.678
 6491SOL    HW120372   4.876   0.866   5.765
 6491SOL    HW220373   5.013   0.820   5.690
 6492SOL     OW20374   5.872   4.940   6.507
 6492SOL    HW120375   5.828   4.862   6.462
 6492SOL    HW220376   5.814   5.020   6.499
 6493SOL     OW20377   6.909   6.272   5.221
 6493SOL    HW120378   6.887   6.313   5.309
 6493SOL    HW220379   6.843   6.302   5.153
 6494SOL     OW20380   6.941   2.989   3.163
 6494SOL    HW120381   6.939   3.038   3.076
 6494SOL    HW220382   0.007   3.009   3.211
 6495SOL     OW20383   5.499   4.700   2.213
 6495SOL    HW120384   5.595   4.672   2.218
 6495SOL    HW220385   5.454   4.648   2.141
 6496SOL     OW20386   6.898   6.796   3.669
 6496SOL    HW120387   6.995   6.820   3.664
 6496SOL    HW220388   6.889   6.698   3.681
 6497SOL     OW20389   1.181   0.505   0.964
 6497SOL    HW120390   1.257   0.569   0.961
 6497SOL    HW220391   1.180   0.459   1.053
 6498SOL     OW20392   1.318   3.350   4.575
 6498SOL    HW120393   1.349   3.281   4.509
 6498SOL    HW220394   1.312   3.439   4.530
 6499SOL     OW20395   6.149   1.352   2.997
 6499SOL    HW120396   6.108   1.432   3.042
 6499SOL    HW220397   6.126   1.269   3.048
 6500SOL     OW20398   5.542   4.935   2.083
 6500SOL    HW120399   5.528   4.859   2.146
 6500SOL    HW220400   5.465   4.998   2.089
 6501SOL     OW20401   6.642   4.110   0.722
 6501SOL    HW120402   6.695   4.051   0.662
 6501SOL    HW220403   6.545   4.089   0.713
 6502SOL     OW20404   0.193   5.122   2.253
 6502SOL    HW120405   0.244   5.080   2.328
 6502SOL    HW220406   0.131   5.054   2.213
 6503SOL     OW20407   3.823   0.255   3.960
 6503SOL    HW120408   3.748   0.189   3.972
 6503SOL    HW220409   3.889   0.218   3.895
 6504SOL     OW20410   2.413   2.612   0.428
 6504SOL    HW120411   2.451   2.689   0.377
 6504SOL    HW220412   2.430   2.527   0.378
 6505SOL     OW20413   5.361   5.041   0.867
 6505SOL    HW120414   5.429   5.036   0.793
 6505SOL    HW220415   5.307   5.125   0.857
 6506SOL     OW20416   2.550   1.451   1.961
 6506SOL    HW120417   2.595   1.383   1.902
 6506SOL    HW220418   2.618   1.518   1.992
 6507SOL     OW20419   2.984   0.494   1.553
 6507SOL    HW120420   2.964   0.401   1.522
 6507SOL    HW220421   2.913   0.556   1.519
 6508SOL     OW20422   1.227   3.255   1.758
 6508SOL    HW120423   1.129   3.260   1.780
 6508SOL    HW220424   1.238   3.235   1.661
 6509SOL     OW20425   1.376   3.063   3.886
 6509SOL    HW120426   1.464   3.090   3.848
 6509SOL    HW220427   1.363   3.107   3.975
 6510SOL     OW20428   6.192   4.130   6.705
 6510SOL    HW120429   6.236   4.042   6.691
 6510SOL    HW220430   6.207   4.188   6.624
 6511SOL     OW20431   6.574   6.711   6.096
 6511SOL    HW120432   6.513   6.650   6.148
 6511SOL    HW220433   6.534   6.802   6.093
 6512SOL     OW20434   5.391   6.219   4.326
 6512SOL    HW120435   5.357   6.313   4.316
 6512SOL    HW220436   5.459   6.216   4.399
 6513SOL     OW20437   1.174   7.004   3.584
 6513SOL    HW120438   1.220   6.930   3.635
 6513SOL    HW220439   1.231   0.012   3.507
 6514SOL     OW20440   2.658   0.951   3.845
 6514SOL    HW120441   2.567   0.971   3.882
 6514SOL    HW220442   2.649   0.890   3.766
 6515SOL     OW20443   1.330   1.050   3.581
 6515SOL    HW120444   1.426   1.034   3.605
 6515SOL    HW220445   1.297   1.130   3.630
 6516SOL     OW20446   2.210   1.387   5.671
 6516SOL    HW120447   2.308   1.381   5.654
 6516SOL    HW220448   2.160   1.342   5.596
 6517SOL     OW20449   3.441   2.136   0.927
 6517SOL    HW120450   3.381   2.197   0.875
 6517SOL    HW220451   3.497   2.189   0.990
 6518SOL     OW20452   4.988   6.261   1.707
 6518SOL    HW120453   5.006   6.163   1.716
 6518SOL    HW220454   5.059   6.303   1.650
 6519SOL     OW20455   0.458   2.047   3.774
 6519SOL    HW120456   0.433   1.966   3.721
 6519SOL    HW220457   0.537   2.092   3.731
 6520SOL     OW20458   5.965   5.031   1.349
 6520SOL    HW120459   5.904   5.072   1.282
 6520SOL    HW220460   5.949   5.072   1.439
 6521SOL     OW20461   1.454   2.285   6.078
 6521SOL    HW120462   1.512   2.308   6.155
 6521SOL    HW220463   1.480   2.342   5.999
 6522SOL     OW20464   2.409   4.806   4.163
 6522SOL    HW120465   2.473   4.794   4.239
 6522SOL    HW220466   2.427   4.737   4.094
 6523SOL     OW20467   2.738   2.518   1.250
 6523SOL    HW120468   2.684   2.537   1.168
 6523SOL    HW220469   2.820   2.467   1.225
 6524SOL     OW20470   4.025   2.306   5.309
 6524SOL    HW120471   3.994   2.371   5.379
 6524SOL    HW220472   3.960   2.230   5.304
 6525SOL     OW20473   0.354   2.392   4.712
 6525SOL    HW120474   0.271   2.446   4.707
 6525SOL    HW220475   0.339   2.312   4.771
 6526SOL     OW20476   1.806   6.264   2.900
 6526SOL    HW120477   1.810   6.218   2.811
 6526SOL    HW220478   1.747   6.345   2.892
 6527SOL     OW20479   1.704   1.242   4.830
 6527SOL    HW120480   1.797   1.223   4.860
 6527SOL    HW220481   1.659   1.157   4.803
 6528SOL     OW20482   6.763   0.707   2.880
 6528SOL    HW120483   6.688   0.662   2.832
 6528SOL    HW220484   6.726   0.778   2.940
 6529SOL     OW20485   5.965   3.305   2.352
 6529SOL    HW120486   5.919   3.280   2.267
 6529SOL    HW220487   5.971   3.404   2.359
 6530SOL     OW20488   0.224   0.910   0.335
 6530SOL    HW120489   0.274   0.983   0.382
 6530SOL    HW220490   0.130   0.940   0.317
 6531SOL     OW20491   4.944   2.286   5.883
 6531SOL    HW120492   4.957   2.197   5.838
 6531SOL    HW220493   4.981   2.283   5.975
 6532SOL     OW20494   1.780   1.119   6.497
 6532SOL    HW120495   1.777   1.199   6.556
 6532SOL    HW220496   1.870   1.114   6.452
 6533SOL     OW20497   5.120   0.827   0.042
 6533SOL    HW120498   5.123   0.730   0.067
 6533SOL    HW220499   5.096   0.836   6.965
 6534SOL     OW20500   4.110   2.456   6.935
 6534SOL    HW120501   4.032   2.405   6.899
 6534SOL    HW220502   4.195   2.410   6.909
 6535SOL     OW20503   1.569   2.269   4.648
 6535SOL    HW120504   1.667   2.251   4.636
 6535SOL    HW220505   1.540   2.340   4.584
 6536SOL     OW20506   0.686   1.448   0.874
 6536SOL    HW120507   0.610   1.388   0.850
 6536SOL    HW220508   0.651   1.537   0.904
 6537SOL     OW20509   6.922   1.104   6.011
 6537SOL    HW120510   6.977   1.169   6.064
 6537SOL    HW220511   6.931   1.125   5.913
 6538SOL     OW20512   3.042   2.571   5.578
 6538SOL    HW120513   3.114   2.640   5.572
 6538SOL    HW220514   3.030   2.528   5.488
 6539SOL     OW20515   3.205   1.229   6.446
 6539SOL    HW120516   3.158   1.317   6.456
 6539SOL    HW220517   3.276   1.220   6.515
 6540SOL     OW20518   3.955   2.147   3.244
 6540SOL    HW120519   4.023   2.190   3.185
 6540SOL    HW220520   3.947   2.050   3.220
 6541SOL     OW20521   2.977   1.721   5.375
 6541SOL    HW120522   3.011   1.630   5.353
 6541SOL    HW220523   3.055   1.783   5.390
 6542SOL     OW20524   4.210   5.063   2.800
 6542SOL    HW120525   4.188   5.093   2.893
 6542SOL    HW220526   4.221   4.964   2.799
 6543SOL     OW20527   1.507   6.294   6.377
 6543SOL    HW120528   1.582   6.230   6.388
 6543SOL    HW220529   1.491   6.310   6.280
 6544SOL     OW20530   0.814   4.953   2.721
 6544SOL    HW120531   0.775   5.030   2.771
 6544SOL    HW220532   0.770   4.868   2.753
 6545SOL     OW20533   6.310   2.358   6.892
 6545SOL    HW120534   6.249   2.434   6.917
 6545SOL    HW220535   6.279   2.318   6.806
 6546SOL     OW20536   3.252   4.803   6.265
 6546SOL    HW120537   3.325   4.872   6.259
 6546SOL    HW220538   3.199   4.818   6.349
 6547SOL     OW20539   4.266   1.144   6.282
 6547SOL    HW120540   4.186   1.087   6.296
 6547SOL    HW220541   4.277   1.163   6.184
 6548SOL     OW20542   4.693   3.860   5.589
 6548SOL    HW120543   4.653   3.816   5.509
 6548SOL    HW220544   4.759   3.930   5.559
 6549SOL     OW20545   2.422   1.941   2.263
 6549SOL    HW120546   2.344   1.976   2.212
 6549SOL    HW220547   2.506   1.983   2.229
 6550SOL     OW20548   0.860   6.010   2.110
 6550SOL    HW120549   0.779   6.041   2.161
 6550SOL    HW220550   0.846   6.027   2.013
 6551SOL     OW20551   3.406   5.177   2.133
 6551SOL    HW120552   3.490   5.152   2.084
 6551SOL    HW220553   3.342   5.100   2.130
 6552SOL     OW20554   4.597   4.701   5.964
 6552SOL    HW120555   4.503   4.679   5.940
 6552SOL    HW220556   4.604   4.800   5.982
 6553SOL     OW20557   6.406   3.410   2.924
 6553SOL    HW120558   6.404   3.360   2.838
 6553SOL    HW220559   6.359   3.358   2.995
 6554SOL     OW20560   6.704   3.187   4.356
 6554SOL    HW120561   6.660   3.155   4.272
 6554SOL    HW220562   6.798   3.155   4.359
 6555SOL     OW20563   0.524   0.854   1.371
 6555SOL    HW120564   0.505   0.945   1.408
 6555SOL    HW220565   0.446   0.794   1.389
 6556SOL     OW20566   2.780   6.720   3.303
 6556SOL    HW120567   2.863   6.713   3.358
 6556SOL    HW220568   2.703   6.742   3.363
 6557SOL     OW20569   4.748   6.281   0.449
 6557SOL    HW120570   4.770   6.190   0.485
 6557SOL    HW220571   4.724   6.273   0.352
 6558SOL     OW20572   5.853   6.799   6.359
 6558SOL    HW120573   5.930   6.763   6.306
 6558SOL    HW220574   5.776   6.817   6.299
 6559SOL     OW20575   3.047   3.950   0.938
 6559SOL    HW120576   3.068   3.867   0.886
 6559SOL    HW220577   3.022   4.023   0.875
 6560SOL     OW20578   4.691   1.826   1.023
 6560SOL    HW120579   4.605   1.854   0.980
 6560SOL    HW220580   4.750   1.906   1.034
 6561SOL     OW20581   2.886   3.385   4.856
 6561SOL    HW120582   2.950   3.333   4.913
 6561SOL    HW220583   2.799   3.396   4.904
 6562SOL     OW20584   6.988   4.619   4.988
 6562SOL    HW120585   6.990   4.575   5.078
 6562SOL    HW220586   0.061   4.623   4.951
 6563SOL     OW20587   0.820   6.467   2.467
 6563SOL    HW120588   0.837   6.399   2.395
 6563SOL    HW220589   0.858   6.434   2.554
 6564SOL     OW20590   2.136   5.133   3.058
 6564SOL    HW120591   2.142   5.214   3.117
 6564SOL    HW220592   2.187   5.058   3.100
 6565SOL     OW20593   0.300   3.603   5.329
 6565SOL    HW120594   0.225   3.593   5.264
 6565SOL    HW220595   0.279   3.678   5.392
 6566SOL     OW20596   4.503   1.406   0.845
 6566SOL    HW120597   4.497   1.493   0.796
 6566SOL    HW220598   4.596   1.370   0.839
 6567SOL     OW20599   6.853   2.512   0.692
 6567SOL    HW120600   6.901   2.595   0.667
 6567SOL    HW220601   6.918   2.443   0.723
 6568SOL     OW20602   5.509   3.100   1.635
 6568SOL    HW120603   5.534   3.152   1.553
 6568SOL    HW220604   5.416   3.124   1.663
 6569SOL     OW20605   1.317   4.617   5.772
 6569SOL    HW120606   1.377   4.612   5.852
 6569SOL    HW220607   1.287   4.711   5.759
 6570SOL     OW20608   0.770   3.868   2.152
 6570SOL    HW120609   0.751   3.875   2.250
 6570SOL    HW220610   0.690   3.830   2.105
 6571SOL     OW20611   2.038   5.430   4.348
 6571SOL    HW120612   2.009   5.499   4.282
 6571SOL    HW220613   1.961   5.406   4.408
 6572SOL     OW20614   1.652   3.491   5.190
 6572SOL    HW120615   1.732   3.550   5.194
 6572SOL    HW220616   1.680   3.396   5.199
 6573SOL     OW20617   1.458   2.036   1.408
 6573SOL    HW120618   1.536   2.071   1.460
 6573SOL    HW220619   1.403   1.976   1.466
 6574SOL     OW20620   2.005   4.934   4.554
 6574SOL    HW120621   2.085   4.902   4.503
 6574SOL    HW220622   2.002   4.891   4.644
 6575SOL     OW20623   1.502   1.393   2.376
 6575SOL    HW120624   1.518   1.419   2.280
 6575SOL    HW220625   1.405   1.402   2.397
 6576SOL     OW20626   0.249   5.427   4.295
 6576SOL    HW120627   0.192   5.454   4.217
 6576SOL    HW220628   0.223   5.480   4.375
 6577SOL     OW20629   1.042   4.191   5.818
 6577SOL    HW120630   1.037   4.164   5.722
 6577SOL    HW220631   1.121   4.149   5.861
 6578SOL     OW20632   5.473   6.027   4.628
 6578SOL    HW120633   5.550   5.974   4.665
 6578SOL    HW220634   5.501   6.122   4.616
 6579SOL     OW20635   0.572   4.048   4.138
 6579SOL    HW120636   0.482   4.027   4.175
 6579SOL    HW220637   0.636   3.974   4.163
 6580SOL     OW20638   5.427   2.571   1.071
 6580SOL    HW120639   5.439   2.482   1.026
 6580SOL    HW220640   5.408   2.641   1.002
 6581SOL     OW20641   2.673   2.026   5.214
 6581SOL    HW120642   2.671   2.046   5.116
 6581SOL    HW220643   2.619   2.095   5.262
 6582SOL     OW20644   5.907   0.480   2.483
 6582SOL    HW120645   5.932   0.471   2.386
 6582SOL    HW220646   5.982   0.523   2.532
 6583SOL     OW20647   5.813   0.429   6.078
 6583SOL    HW120648   5.823   0.527   6.096
 6583SOL    HW220649   5.770   0.385   6.157
 6584SOL     OW20650   5.936   2.247   0.537
 6584SOL    HW120651   5.899   2.219   0.449
 6584SOL    HW220652   6.018   2.194   0.558
 6585SOL     OW20653   2.109   1.042   2.812
 6585SOL    HW120654   2.106   1.137   2.783
 6585SOL    HW220655   2.169   1.033   2.891
 6586SOL     OW20656   5.956   0.632   6.206
 6586SOL    HW120657   6.001   0.668   6.125
 6586SOL    HW220658   6.015   0.564   6.250
 6587SOL     OW20659   1.751   5.908   2.240
 6587SOL    HW120660   1.801   5.939   2.321
 6587SOL    HW220661   1.812   5.906   2.161
 6588SOL     OW20662   3.456   3.584   0.163
 6588SOL    HW120663   3.413   3.499   0.192
 6588SOL    HW220664   3.551   3.567   0.138
 6589SOL     OW20665   4.683   1.693   6.111
 6589SOL    HW120666   4.627   1.689   6.194
 6589SOL    HW220667   4.774   1.657   6.131
 6590SOL     OW20668   6.684   2.157   5.527
 6590SOL    HW120669   6.632   2.081   5.487
 6590SOL    HW220670   6.721   2.129   5.616
 6591SOL     OW20671   4.537   0.180   2.401
 6591SOL    HW120672   4.487   0.095   2.382
 6591SOL    HW220673   4.598   0.200   2.324
 6592SOL     OW20674   6.471   4.656   5.529
 6592SOL    HW120675   6.424   4.613   5.606
 6592SOL    HW220676   6.420   4.637   5.445
 6593SOL     OW20677   5.296   1.545   2.463
 6593SOL    HW120678   5.217   1.592   2.503
 6593SOL    HW220679   5.357   1.515   2.536
 6594SOL     OW20680   5.555   0.388   6.591
 6594SOL    HW120681   5.475   0.333   6.566
 6594SOL    HW220682   5.563   0.393   6.690
 6595SOL     OW20683   3.684   2.779   6.529
 6595SOL    HW120684   3.645   2.832   6.455
 6595SOL    HW220685   3.658   2.818   6.617
 6596SOL     OW20686   2.150   5.383   5.286
 6596SOL    HW120687   2.136   5.285   5.294
 6596SOL    HW220688   2.063   5.431   5.299
 6597SOL     OW20689   0.526   4.446   0.478
 6597SOL    HW120690   0.445   4.428   0.422
 6597SOL    HW220691   0.521   4.393   0.563
 6598SOL     OW20692   2.888   6.384   4.503
 6598SOL    HW120693   2.812   6.376   4.439
 6598SOL    HW220694   2.901   6.297   4.550
 6599SOL     OW20695   4.055   3.759   5.628
 6599SOL    HW120696   4.039   3.849   5.669
 6599SOL    HW220697   3.980   3.737   5.566
 6600SOL     OW20698   4.457   4.721   5.142
 6600SOL    HW120699   4.413   4.655   5.081
 6600SOL    HW220700   4.525   4.773   5.091
 6601SOL     OW20701   1.213   1.250   2.349
 6601SOL    HW120702   1.244   1.164   2.389
 6601SOL    HW220703   1.201   1.318   2.422
 6602SOL     OW20704   5.327   1.561   0.713
 6602SOL    HW120705   5.369   1.567   0.623
 6602SOL    HW220706   5.311   1.465   0.737
 6603SOL     OW20707   3.201   2.132   1.646
 6603SOL    HW120708   3.282   2.156   1.700
 6603SOL    HW220709   3.198   2.033   1.634
 6604SOL     OW20710   4.389   5.085   4.851
 6604SOL    HW120711   4.387   4.986   4.839
 6604SOL    HW220712   4.363   5.130   4.766
 6605SOL     OW20713   4.760   5.486   0.766
 6605SOL    HW120714   4.690   5.545   0.807
 6605SOL    HW220715   4.760   5.498   0.667
 6606SOL     OW20716   0.436   2.940   3.184
 6606SOL    HW120717   0.532   2.921   3.162
 6606SOL    HW220718   0.387   2.853   3.191
 6607SOL     OW20719   1.933   3.918   2.933
 6607SOL    HW120720   1.875   3.852   2.885
 6607SOL    HW220721   1.910   3.918   3.030
 6608SOL     OW20722   5.048   4.205   4.733
 6608SOL    HW120723   5.033   4.258   4.649
 6608SOL    HW220724   4.970   4.144   4.748
 6609SOL     OW20725   5.659   2.815   6.279
 6609SOL    HW120726   5.664   2.864   6.192
 6609SOL    HW220727   5.631   2.721   6.263
 6610SOL     OW20728   4.195   0.937   0.730
 6610SOL    HW120729   4.236   1.001   0.665
 6610SOL    HW220730   4.118   0.981   0.776
 6611SOL     OW20731   5.684   3.000   2.285
 6611SOL    HW120732   5.748   2.939   2.238
 6611SOL    HW220733   5.634   3.054   2.217
 6612SOL     OW20734   0.821   5.340   6.497
 6612SOL    HW120735   0.824   5.313   6.593
 6612SOL    HW220736   0.740   5.396   6.480
 6613SOL     OW20737   6.352   5.120   0.699
 6613SOL    HW120738   6.307   5.031   0.693
 6613SOL    HW220739   6.288   5.188   0.736
 6614SOL     OW20740   5.596   3.823   6.240
 6614SOL    HW120741   5.683   3.844   6.196
 6614SOL    HW220742   5.612   3.758   6.315
 6615SOL     OW20743   0.445   3.566   4.772
 6615SOL    HW120744   0.519   3.567   4.704
 6615SOL    HW220745   0.449   3.650   4.826
 6616SOL     OW20746   4.746   1.542   3.867
 6616SOL    HW120747   4.805   1.607   3.916
 6616SOL    HW220748   4.768   1.545   3.770
 6617SOL     OW20749   3.774   0.564   4.573
 6617SOL    HW120750   3.677   0.587   4.571
 6617SOL    HW220751   3.786   0.465   4.581
 6618SOL     OW20752   6.837   4.394   1.445
 6618SOL    HW120753   6.880   4.324   1.388
 6618SOL    HW220754   6.765   4.440   1.393
 6619SOL     OW20755   6.016   5.569   2.485
 6619SOL    HW120756   6.031   5.547   2.581
 6619SOL    HW220757   6.099   5.610   2.447
 6620SOL     OW20758   5.235   3.564   5.460
 6620SOL    HW120759   5.234   3.615   5.374
 6620SOL    HW220760   5.329   3.548   5.489
 6621SOL     OW20761   4.298   3.492   1.343
 6621SOL    HW120762   4.198   3.497   1.339
 6621SOL    HW220763   4.332   3.437   1.267
 6622SOL     OW20764   5.812   5.324   0.573
 6622SOL    HW120765   5.719   5.298   0.600
 6622SOL    HW220766   5.834   5.415   0.609
 6623SOL     OW20767   2.891   3.663   2.700
 6623SOL    HW120768   2.917   3.745   2.751
 6623SOL    HW220769   2.933   3.583   2.741
 6624SOL     OW20770   4.502   4.893   4.474
 6624SOL    HW120771   4.560   4.974   4.462
 6624SOL    HW220772   4.408   4.922   4.493
 6625SOL     OW20773   5.186   6.068   0.661
 6625SOL    HW120774   5.201   6.156   0.706
 6625SOL    HW220775   5.090   6.061   0.633
 6626SOL     OW20776   2.808   5.362   4.512
 6626SOL    HW120777   2.900   5.386   4.481
 6626SOL    HW220778   2.786   5.269   4.482
 6627SOL     OW20779   0.257   0.626   1.065
 6627SOL    HW120780   0.345   0.624   1.017
 6627SOL    HW220781   0.213   0.537   1.058
 6628SOL     OW20782   3.360   6.155   4.298
 6628SOL    HW120783   3.346   6.114   4.208
 6628SOL    HW220784   3.280   6.138   4.355
 6629SOL     OW20785   2.787   4.379   0.448
 6629SOL    HW120786   2.855   4.450   0.466
 6629SOL    HW220787   2.785   4.315   0.525
 6630SOL     OW20788   2.858   1.126   5.792
 6630SOL    HW120789   2.789   1.184   5.836
 6630SOL    HW220790   2.823   1.094   5.704
 6631SOL     OW20791   3.351   6.520   1.936
 6631SOL    HW120792   3.307   6.463   2.005
 6631SOL    HW220793   3.446   6.491   1.924
 6632SOL     OW20794   6.282   3.363   1.898
 6632SOL    HW120795   6.203   3.306   1.922
 6632SOL    HW220796   6.282   3.378   1.799
 6633SOL     OW20797   1.114   6.085   3.058
 6633SOL    HW120798   1.147   6.129   2.974
 6633SOL    HW220799   1.014   6.085   3.058
 6634SOL     OW20800   6.507   2.119   4.882
 6634SOL    HW120801   6.514   2.026   4.845
 6634SOL    HW220802   6.433   2.168   4.836
 6635SOL     OW20803   4.199   5.072   4.220
 6635SOL    HW120804   4.104   5.092   4.245
 6635SOL    HW220805   4.209   4.975   4.200
 6636SOL     OW20806   2.072   3.532   2.418
 6636SOL    HW120807   2.005   3.580   2.475
 6636SOL    HW220808   2.076   3.576   2.328
 6637SOL     OW20809   0.314   2.247   0.210
 6637SOL    HW120810   0.378   2.298   0.268
 6637SOL    HW220811   0.348   2.247   0.116
 6638SOL     OW20812   1.836   0.457   6.712
 6638SOL    HW120813   1.811   0.399   6.634
 6638SOL    HW220814   1.910   0.414   6.763
 6639SOL     OW20815   4.274   5.334   6.398
 6639SOL    HW120816   4.190   5.386   6.385
 6639SOL    HW220817   4.263   5.272   6.476
 6640SOL     OW20818   5.244   4.090   3.089
 6640SOL    HW120819   5.338   4.056   3.085
 6640SOL    HW220820   5.181   4.014   3.076
 6641SOL     OW20821   2.478   5.258   6.435
 6641SOL    HW120822   2.450   5.245   6.340
 6641SOL    HW220823   2.577   5.250   6.442
 6642SOL     OW20824   6.369   6.080   6.086
 6642SOL    HW120825   6.309   6.042   6.156
 6642SOL    HW220826   6.393   6.174   6.111
 6643SOL     OW20827   4.227   5.284   1.223
 6643SOL    HW120828   4.238   5.198   1.274
 6643SOL    HW220829   4.149   5.276   1.162
 6644SOL     OW20830   1.073   2.921   2.136
 6644SOL    HW120831   1.073   3.021   2.143
 6644SOL    HW220832   1.072   2.895   2.039
 6645SOL     OW20833   0.299   4.983   5.386
 6645SOL    HW120834   0.202   5.000   5.402
 6645SOL    HW220835   0.352   5.063   5.415
 6646SOL     OW20836   1.664   5.579   3.759
 6646SOL    HW120837   1.664   5.564   3.858
 6646SOL    HW220838   1.677   5.491   3.713
 6647SOL     OW20839   4.298   1.396   1.840
 6647SOL    HW120840   4.321   1.353   1.753
 6647SOL    HW220841   4.379   1.442   1.876
 6648SOL     OW20842   3.497   5.347   2.349
 6648SOL    HW120843   3.468   5.284   2.276
 6648SOL    HW220844   3.500   5.440   2.312
 6649SOL     OW20845   4.255   1.870   5.570
 6649SOL    HW120846   4.255   1.934   5.493
 6649SOL    HW220847   4.171   1.882   5.624
 6650SOL     OW20848   3.231   1.619   3.928
 6650SOL    HW120849   3.298   1.585   3.862
 6650SOL    HW220850   3.232   1.561   4.010
 6651SOL     OW20851   0.732   1.569   1.328
 6651SOL    HW120852   0.659   1.633   1.305
 6651SOL    HW220853   0.801   1.615   1.384
 6652SOL     OW20854   0.313   5.608   3.726
 6652SOL    HW120855   0.251   5.546   3.775
 6652SOL    HW220856   0.275   5.700   3.726
 6653SOL     OW20857   3.669   4.051   3.937
 6653SOL    HW120858   3.699   4.143   3.911
 6653SOL    HW220859   3.688   4.035   4.033
 6654SOL     OW20860   1.208   3.555   1.720
 6654SOL    HW120861   1.264   3.476   1.743
 6654SOL    HW220862   1.213   3.623   1.793
 6655SOL     OW20863   1.406   0.818   6.633
 6655SOL    HW120864   1.371   0.905   6.669
 6655SOL    HW220865   1.369   0.743   6.687
 6656SOL     OW20866   6.619   1.527   1.333
 6656SOL    HW120867   6.629   1.605   1.272
 6656SOL    HW220868   6.522   1.507   1.346
 6657SOL     OW20869   3.688   4.883   5.550
 6657SOL    HW120870   3.693   4.783   5.555
 6657SOL    HW220871   3.691   4.921   5.643
 6658SOL     OW20872   6.033   0.033   5.307
 6658SOL    HW120873   6.074   0.049   5.218
 6658SOL    HW220874   5.934   0.017   5.297
 6659SOL     OW20875   2.277   3.031   0.379
 6659SOL    HW120876   2.198   2.985   0.418
 6659SOL    HW220877   2.357   2.972   0.386
 6660SOL     OW20878   6.898   6.677   3.043
 6660SOL    HW120879   6.874   6.774   3.053
 6660SOL    HW220880   6.968   6.667   2.972
 6661SOL     OW20881   6.568   6.938   3.899
 6661SOL    HW120882   6.590   0.014   3.917
 6661SOL    HW220883   6.589   6.883   3.980
 6662SOL     OW20884   1.897   3.598   5.818
 6662SOL    HW120885   1.962   3.624   5.747
 6662SOL    HW220886   1.916   3.648   5.902
 6663SOL     OW20887   0.992   5.449   1.820
 6663SOL    HW120888   1.006   5.451   1.721
 6663SOL    HW220889   1.021   5.536   1.860
 6664SOL     OW20890   0.023   1.911   1.610
 6664SOL    HW120891   6.971   1.858   1.564
 6664SOL    HW220892   0.000   1.919   1.707
 6665SOL     OW20893   1.961   0.000   3.777
 6665SOL    HW120894   1.986   7.003   3.681
 6665SOL    HW220895   1.897   6.949   3.807
 6666SOL     OW20896   6.016   0.438   0.327
 6666SOL    HW120897   5.962   0.522   0.320
 6666SOL    HW220898   6.040   0.406   0.235
 6667SOL     OW20899   5.419   5.045   5.511
 6667SOL    HW120900   5.362   5.107   5.457
 6667SOL    HW220901   5.441   5.087   5.598
 6668SOL     OW20902   6.248   6.361   0.754
 6668SOL    HW120903   6.163   6.393   0.795
 6668SOL    HW220904   6.233   6.272   0.711
 6669SOL     OW20905   0.703   4.825   3.484
 6669SOL    HW120906   0.794   4.814   3.444
 6669SOL    HW220907   0.708   4.809   3.582
 6670SOL     OW20908   5.423   4.683   0.380
 6670SOL    HW120909   5.389   4.641   0.296
 6670SOL    HW220910   5.370   4.650   0.458
 6671SOL     OW20911   1.051   2.319   5.369
 6671SOL    HW120912   0.966   2.289   5.326
 6671SOL    HW220913   1.063   2.272   5.456
 6672SOL     OW20914   6.853   1.311   5.099
 6672SOL    HW120915   6.952   1.322   5.105
 6672SOL    HW220916   6.810   1.351   5.179
 6673SOL     OW20917   3.404   6.014   1.519
 6673SOL    HW120918   3.373   5.985   1.610
 6673SOL    HW220919   3.489   5.966   1.497
 6674SOL     OW20920   1.200   5.736   4.871
 6674SOL    HW120921   1.139   5.658   4.875
 6674SOL    HW220922   1.164   5.810   4.928
 6675SOL     OW20923   6.413   6.573   6.447
 6675SOL    HW120924   6.446   6.656   6.491
 6675SOL    HW220925   6.454   6.493   6.491
 6676SOL     OW20926   0.510   1.251   0.758
 6676SOL    HW120927   0.509   1.155   0.783
 6676SOL    HW220928   0.537   1.261   0.662
 6677SOL     OW20929   0.931   4.627   0.715
 6677SOL    HW120930   0.835   4.621   0.686
 6677SOL    HW220931   0.987   4.652   0.636
 6678SOL     OW20932   0.622   3.773   4.267
 6678SOL    HW120933   0.595   3.706   4.198
 6678SOL    HW220934   0.722   3.782   4.268
 6679SOL     OW20935   2.562   1.767   4.251
 6679SOL    HW120936   2.545   1.694   4.185
 6679SOL    HW220937   2.520   1.744   4.339
 6680SOL     OW20938   3.120   0.769   7.004
 6680SOL    HW120939   3.080   0.795   0.073
 6680SOL    HW220940   3.141   0.850   6.951
 6681SOL     OW20941   6.113   5.057   6.591
 6681SOL    HW120942   6.190   5.010   6.547
 6681SOL    HW220943   6.027   5.015   6.562
 6682SOL     OW20944   6.248   4.678   2.462
 6682SOL    HW120945   6.259   4.770   2.499
 6682SOL    HW220946   6.222   4.616   2.535
 6683SOL     OW20947   5.773   3.113   3.908
 6683SOL    HW120948   5.822   3.179   3.966
 6683SOL    HW220949   5.833   3.085   3.833
 6684SOL     OW20950   2.007   1.010   1.685
 6684SOL    HW120951   2.082   1.050   1.738
 6684SOL    HW220952   1.920   1.047   1.718
 6685SOL     OW20953   6.240   2.635   6.985
 6685SOL    HW120954   6.333   2.651   6.954
 6685SOL    HW220955   6.241   2.600   0.060
 6686SOL     OW20956   5.177   4.360   3.909
 6686SOL    HW120957   5.096   4.365   3.967
 6686SOL    HW220958   5.150   4.363   3.813
 6687SOL     OW20959   0.059   6.854   6.931
 6687SOL    HW120960   6.980   6.838   6.927
 6687SOL    HW220961   0.077   6.950   6.952
 6688SOL     OW20962   0.506   4.798   3.063
 6688SOL    HW120963   0.523   4.811   2.966
 6688SOL    HW220964   0.573   4.733   3.100
 6689SOL     OW20965   5.688   3.474   0.278
 6689SOL    HW120966   5.618   3.500   0.345
 6689SOL    HW220967   5.679   3.376   0.258
 6690SOL     OW20968   0.359   1.111   0.447
 6690SOL    HW120969   0.317   1.199   0.468
 6690SOL    HW220970   0.458   1.119   0.458
 6691SOL     OW20971   0.643   5.390   1.510
 6691SOL    HW120972   0.628   5.320   1.439
 6691SOL    HW220973   0.626   5.349   1.600
 6692SOL     OW20974   4.913   3.290   6.599
 6692SOL    HW120975   4.835   3.228   6.593
 6692SOL    HW220976   4.884   3.383   6.575
 6693SOL     OW20977   4.031   3.061   5.816
 6693SOL    HW120978   3.998   3.009   5.737
 6693SOL    HW220979   4.056   2.998   5.889
 6694SOL     OW20980   2.391   5.680   0.242
 6694SOL    HW120981   2.457   5.660   0.169
 6694SOL    HW220982   2.364   5.594   0.286
 6695SOL     OW20983   1.868   1.560   0.049
 6695SOL    HW120984   1.804   1.530   0.119
 6695SOL    HW220985   1.899   1.481   7.015
 6696SOL     OW20986   1.719   1.861   1.194
 6696SOL    HW120987   1.652   1.924   1.155
 6696SOL    HW220988   1.783   1.832   1.123
 6697SOL     OW20989   5.604   3.510   4.777
 6697SOL    HW120990   5.531   3.568   4.813
 6697SOL    HW220991   5.610   3.522   4.678
 6698SOL     OW20992   2.324   4.682   5.432
 6698SOL    HW120993   2.283   4.599   5.471
 6698SOL    HW220994   2.382   4.725   5.501
 6699SOL     OW20995   1.504   3.228   6.630
 6699SOL    HW120996   1.435   3.164   6.595
 6699SOL    HW220997   1.577   3.238   6.563
 6700SOL     OW20998   0.231   6.357   6.592
 6700SOL    HW120999   0.135   6.333   6.608
 6700SOL    HW221000   0.268   6.405   6.672
 6701SOL     OW21001   1.722   2.162   6.351
 6701SOL    HW121002   1.638   2.111   6.371
 6701SOL    HW221003   1.799   2.119   6.398
 6702SOL     OW21004   3.223   3.267   0.459
 6702SOL    HW121005   3.133   3.266   0.502
 6702SOL    HW221006   3.267   3.355   0.477
 6703SOL     OW21007   0.645   1.900   0.379
 6703SOL    HW121008   0.617   1.980   0.433
 6703SOL    HW221009   0.590   1.896   0.295
 6704SOL     OW21010   5.506   3.330   2.831
 6704SOL    HW121011   5.422   3.281   2.808
 6704SOL    HW221012   5.483   3.424   2.857
 6705SOL     OW21013   4.964   2.488   1.047
 6705SOL    HW121014   4.889   2.462   0.987
 6705SOL    HW221015   5.029   2.546   0.997
 6706SOL     OW21016   1.389   6.720   6.528
 6706SOL    HW121017   1.367   6.623   6.519
 6706SOL    HW221018   1.306   6.772   6.547
 6707SOL     OW21019   1.156   5.382   3.500
 6707SOL    HW121020   1.073   5.438   3.503
 6707SOL    HW221021   1.206   5.403   3.416
 6708SOL     OW21022   2.226   5.902   1.030
 6708SOL    HW121023   2.301   5.867   1.087
 6708SOL    HW221024   2.224   6.002   1.037
 6709SOL     OW21025   4.662   1.903   3.825
 6709SOL    HW121026   4.752   1.880   3.862
 6709SOL    HW221027   4.659   1.884   3.727
 6710SOL     OW21028   3.010   1.894   0.903
 6710SOL    HW121029   3.074   1.848   0.965
 6710SOL    HW221030   3.059   1.924   0.821
 6711SOL     OW21031   5.463   3.492   6.139
 6711SOL    HW121032   5.456   3.577   6.087
 6711SOL    HW221033   5.392   3.428   6.108
 6712SOL     OW21034   3.231   6.268   0.167
 6712SOL    HW121035   3.202   6.242   0.259
 6712SOL    HW221036   3.176   6.345   0.135
 6713SOL     OW21037   0.329   2.695   3.206
 6713SOL    HW121038   0.286   2.668   3.120
 6713SOL    HW221039   0.331   2.617   3.268
 6714SOL     OW21040   6.576   1.282   5.391
 6714SOL    HW121041   6.645   1.349   5.365
 6714SOL    HW221042   6.486   1.326   5.391
 6715SOL     OW21043   4.804   2.814   1.612
 6715SOL    HW121044   4.742   2.882   1.572
 6715SOL    HW221045   4.862   2.858   1.680
 6716SOL     OW21046   3.397   5.887   1.134
 6716SOL    HW121047   3.418   5.949   1.209
 6716SOL    HW221048   3.482   5.851   1.095
 6717SOL     OW21049   3.419   0.907   6.796
 6717SOL    HW121050   3.435   0.829   6.736
 6717SOL    HW221051   3.469   0.894   6.882
 6718SOL     OW21052   4.614   0.409   6.569
 6718SOL    HW121053   4.569   0.474   6.630
 6718SOL    HW221054   4.561   0.400   6.485
 6719SOL     OW21055   0.941   2.252   4.987
 6719SOL    HW121056   1.000   2.172   4.978
 6719SOL    HW221057   0.896   2.270   4.900
 6720SOL     OW21058   1.924   4.329   0.234
 6720SOL    HW121059   1.974   4.406   0.193
 6720SOL    HW221060   1.829   4.331   0.203
 6721SOL     OW21061   5.911   6.618   2.673
 6721SOL    HW121062   5.858   6.632   2.757
 6721SOL    HW221063   6.008   6.631   2.692
 6722SOL     OW21064   3.657   4.684   6.241
 6722SOL    HW121065   3.645   4.776   6.278
 6722SOL    HW221066   3.569   4.636   6.244
 6723SOL     OW21067   3.620   1.791   2.613
 6723SOL    HW121068   3.668   1.703   2.618
 6723SOL    HW221069   3.685   1.862   2.587
 6724SOL     OW21070   3.934   5.029   6.033
 6724SOL    HW121071   3.851   5.063   5.989
 6724SOL    HW221072   3.910   4.990   6.122
 6725SOL     OW21073   0.522   6.344   1.286
 6725SOL    HW121074   0.489   6.259   1.244
 6725SOL    HW221075   0.615   6.363   1.253
 6726SOL     OW21076   2.255   2.519   1.810
 6726SOL    HW121077   2.319   2.552   1.879
 6726SOL    HW221078   2.306   2.488   1.729
 6727SOL     OW21079   2.596   3.508   1.437
 6727SOL    HW121080   2.525   3.508   1.367
 6727SOL    HW221081   2.647   3.594   1.434
 6728SOL     OW21082   4.313   1.538   3.932
 6728SOL    HW121083   4.332   1.612   3.996
 6728SOL    HW221084   4.246   1.568   3.865
 6729SOL     OW21085   3.927   5.445   3.442
 6729SOL    HW121086   3.868   5.452   3.362
 6729SOL    HW221087   3.945   5.536   3.479
 6730SOL     OW21088   1.316   6.836   2.675
 6730SOL    HW121089   1.300   6.782   2.593
 6730SOL    HW221090   1.237   6.895   2.692
 6731SOL     OW21091   1.910   3.974   1.174
 6731SOL    HW121092   1.829   3.975   1.233
 6731SOL    HW221093   1.891   4.026   1.091
 6732SOL     OW21094   3.489   5.740   0.212
 6732SOL    HW121095   3.405   5.711   0.258
 6732SOL    HW221096   3.565   5.739   0.277
 6733SOL     OW21097   6.295   5.826   4.385
 6733SOL    HW121098   6.361   5.847   4.458
 6733SOL    HW221099   6.317   5.880   4.304
 6734SOL     OW21100   2.885   3.761   6.847
 6734SOL    HW121101   2.970   3.795   6.886
 6734SOL    HW221102   2.904   3.714   6.761
 6735SOL     OW21103   0.278   6.399   6.018
 6735SOL    HW121104   0.377   6.391   6.033
 6735SOL    HW221105   0.257   6.491   5.984
 6736SOL     OW21106   2.224   4.417   1.913
 6736SOL    HW121107   2.259   4.331   1.952
 6736SOL    HW221108   2.301   4.475   1.888
 6737SOL     OW21109   1.507   0.308   1.376
 6737SOL    HW121110   1.488   0.384   1.314
 6737SOL    HW221111   1.445   0.312   1.454
 6738SOL     OW21112   5.695   1.944   0.441
 6738SOL    HW121113   5.597   1.944   0.457
 6738SOL    HW221114   5.739   1.883   0.507
 6739SOL     OW21115   4.064   5.524   6.271
 6739SOL    HW121116   3.993   5.509   6.339
 6739SOL    HW221117   4.032   5.489   6.182
 6740SOL     OW21118   5.690   2.425   5.297
 6740SOL    HW121119   5.649   2.373   5.222
 6740SOL    HW221120   5.618   2.478   5.343
 6741SOL     OW21121   0.237   0.758   5.367
 6741SOL    HW121122   0.282   0.755   5.278
 6741SOL    HW221123   0.141   0.734   5.357
 6742SOL     OW21124   5.889   6.026   5.178
 6742SOL    HW121125   5.989   6.023   5.181
 6742SOL    HW221126   5.855   6.070   5.261
 6743SOL     OW21127   5.975   2.099   0.951
 6743SOL    HW121128   5.960   2.126   1.046
 6743SOL    HW221129   6.062   2.136   0.918
 6744SOL     OW21130   4.241   0.731   3.684
 6744SOL    HW121131   4.164   0.790   3.709
 6744SOL    HW221132   4.211   0.636   3.684
 6745SOL     OW21133   0.932   3.846   3.337
 6745SOL    HW121134   0.995   3.847   3.414
 6745SOL    HW221135   0.852   3.790   3.359
 6746SOL     OW21136   6.304   0.299   6.893
 6746SOL    HW121137   6.278   0.219   6.947
 6746SOL    HW221138   6.400   0.290   6.865
 6747SOL     OW21139   5.167   5.164   5.983
 6747SOL    HW121140   5.110   5.104   6.038
 6747SOL    HW221141   5.264   5.145   6.003
 6748SOL     OW21142   6.103   6.733   2.262
 6748SOL    HW121143   6.147   6.773   2.342
 6748SOL    HW221144   6.003   6.739   2.273
 6749SOL     OW21145   3.078   5.024   1.006
 6749SOL    HW121146   3.145   4.954   1.028
 6749SOL    HW221147   3.019   5.041   1.086
 6750SOL     OW21148   2.167   3.145   5.185
 6750SOL    HW121149   2.226   3.087   5.130
 6750SOL    HW221150   2.109   3.201   5.124
 6751SOL     OW21151   4.942   2.874   5.665
 6751SOL    HW121152   4.909   2.959   5.706
 6751SOL    HW221153   4.864   2.820   5.632
 6752SOL     OW21154   6.217   0.940   0.427
 6752SOL    HW121155   6.161   0.857   0.418
 6752SOL    HW221156   6.198   0.983   0.515
 6753SOL     OW21157   5.667   0.361   6.286
 6753SOL    HW121158   5.583   0.307   6.293
 6753SOL    HW221159   5.666   0.433   6.356
 6754SOL     OW21160   4.523   1.291   6.747
 6754SOL    HW121161   4.483   1.200   6.756
 6754SOL    HW221162   4.480   1.338   6.670
 6755SOL     OW21163   4.959   1.604   3.019
 6755SOL    HW121164   4.969   1.519   2.968
 6755SOL    HW221165   5.050   1.644   3.035
 6756SOL     OW21166   4.040   5.116   3.052
 6756SOL    HW121167   4.030   5.017   3.061
 6756SOL    HW221168   4.011   5.161   3.137
 6757SOL     OW21169   6.230   3.862   1.879
 6757SOL    HW121170   6.308   3.865   1.816
 6757SOL    HW221171   6.264   3.856   1.973
 6758SOL     OW21172   6.981   2.357   2.316
 6758SOL    HW121173   0.030   2.298   2.273
 6758SOL    HW221174   6.980   2.341   2.415
 6759SOL     OW21175   6.721   5.802   4.224
 6759SOL    HW121176   6.635   5.750   4.226
 6759SOL    HW221177   6.795   5.743   4.190
 6760SOL     OW21178   0.927   3.831   5.126
 6760SOL    HW121179   0.957   3.822   5.031
 6760SOL    HW221180   0.913   3.928   5.148
 6761SOL     OW21181   6.559   2.952   6.839
 6761SOL    HW121182   6.658   2.960   6.841
 6761SOL    HW221183   6.526   2.967   6.746
 6762SOL     OW21184   6.925   1.807   4.517
 6762SOL    HW121185   6.997   1.749   4.554
 6762SOL    HW221186   6.884   1.861   4.590
 6763SOL     OW21187   4.934   6.649   5.226
 6763SOL    HW121188   4.945   6.550   5.216
 6763SOL    HW221189   5.010   6.685   5.280
 6764SOL     OW21190   1.917   3.562   7.017
 6764SOL    HW121191   1.849   3.538   0.066
 6764SOL    HW221192   1.999   3.598   0.042
 6765SOL     OW21193   4.886   5.648   1.911
 6765SOL    HW121194   4.899   5.550   1.920
 6765SOL    HW221195   4.800   5.666   1.863
 6766SOL     OW21196   2.551   2.441   4.940
 6766SOL    HW121197   2.501   2.355   4.926
 6766SOL    HW221198   2.485   2.516   4.945
 6767SOL     OW21199   0.980   2.553   5.998
 6767SOL    HW121200   0.976   2.649   6.026
 6767SOL    HW221201   1.037   2.502   6.063
 6768SOL     OW21202   6.580   0.343   5.623
 6768SOL    HW121203   6.638   0.277   5.669
 6768SOL    HW221204   6.494   0.299   5.594
 6769SOL     OW21205   1.442   2.888   6.274
 6769SOL    HW121206   1.478   2.837   6.196
 6769SOL    HW221207   1.491   2.862   6.357
 6770SOL     OW21208   0.414   2.330   3.786
 6770SOL    HW121209   0.475   2.319   3.864
 6770SOL    HW221210   0.410   2.245   3.734
 6771SOL     OW21211   5.688   2.279   1.917
 6771SOL    HW121212   5.761   2.235   1.970
 6771SOL    HW221213   5.697   2.378   1.924
 6772SOL     OW21214   1.426   6.683   1.584
 6772SOL    HW121215   1.422   6.699   1.683
 6772SOL    HW221216   1.406   6.587   1.565
 6773SOL     OW21217   1.770   1.362   3.431
 6773SOL    HW121218   1.754   1.280   3.378
 6773SOL    HW221219   1.810   1.433   3.373
 6774SOL     OW21220   3.602   0.957   5.219
 6774SOL    HW121221   3.592   0.890   5.292
 6774SOL    HW221222   3.574   1.047   5.251
 6775SOL     OW21223   1.722   3.228   5.253
 6775SOL    HW121224   1.786   3.221   5.330
 6775SOL    HW221225   1.741   3.156   5.187
 6776SOL     OW21226   3.147   3.040   4.184
 6776SOL    HW121227   3.133   2.991   4.269
 6776SOL    HW221228   3.080   3.114   4.176
 6777SOL     OW21229   6.976   0.162   5.070
 6777SOL    HW121230   6.912   0.234   5.098
 6777SOL    HW221231   0.039   0.167   5.125
 6778SOL     OW21232   6.484   5.990   1.501
 6778SOL    HW121233   6.540   6.064   1.539
 6778SOL    HW221234   6.388   6.013   1.512
 6779SOL     OW21235   5.466   3.244   5.568
 6779SOL    HW121236   5.370   3.252   5.541
 6779SOL    HW221237   5.484   3.150   5.598
 6780SOL     OW21238   4.753   0.746   2.102
 6780SOL    HW121239   4.797   0.657   2.090
 6780SOL    HW221240   4.666   0.734   2.149
 6781SOL     OW21241   5.019   3.783   3.348
 6781SOL    HW121242   5.001   3.840   3.428
 6781SOL    HW221243   4.936   3.773   3.294
 6782SOL     OW21244   6.429   1.741   3.002
 6782SOL    HW121245   6.525   1.716   3.012
 6782SOL    HW221246   6.405   1.746   2.905
 6783SOL     OW21247   0.591   6.903   6.619
 6783SOL    HW121248   0.576   7.001   6.632
 6783SOL    HW221249   0.509   6.852   6.644
 6784SOL     OW21250   1.423   4.620   6.531
 6784SOL    HW121251   1.521   4.636   6.513
 6784SOL    HW221252   1.395   4.672   6.611
 6785SOL     OW21253   5.426   4.149   1.182
 6785SOL    HW121254   5.380   4.098   1.110
 6785SOL    HW221255   5.450   4.088   1.257
 6786SOL     OW21256   6.431   1.535   6.357
 6786SOL    HW121257   6.341   1.579   6.355
 6786SOL    HW221258   6.420   1.436   6.354
 6787SOL     OW21259   4.240   2.426   1.798
 6787SOL    HW121260   4.239   2.479   1.714
 6787SOL    HW221261   4.322   2.450   1.851
 6788SOL     OW21262   1.314   4.735   1.298
 6788SOL    HW121263   1.254   4.813   1.282
 6788SOL    HW221264   1.305   4.670   1.223
 6789SOL     OW21265   6.188   2.370   2.441
 6789SOL    HW121266   6.120   2.320   2.496
 6789SOL    HW221267   6.238   2.433   2.500
 6790SOL     OW21268   1.158   5.677   0.033
 6790SOL    HW121269   1.105   5.667   0.118
 6790SOL    HW221270   1.202   5.589   0.012
 6791SOL     OW21271   1.863   6.335   3.768
 6791SOL    HW121272   1.871   6.272   3.845
 6791SOL    HW221273   1.948   6.388   3.760
 6792SOL     OW21274   3.119   5.775   0.092
 6792SOL    HW121275   3.087   5.681   0.093
 6792SOL    HW221276   3.199   5.783   0.032
 6793SOL     OW21277   1.804   3.348   5.789
 6793SOL    HW121278   1.887   3.292   5.792
 6793SOL    HW221279   1.823   3.437   5.831
 6794SOL     OW21280   4.331   2.424   3.729
 6794SOL    HW121281   4.321   2.524   3.727
 6794SOL    HW221282   4.395   2.396   3.658
 6795SOL     OW21283   0.776   0.145   2.434
 6795SOL    HW121284   0.678   0.162   2.424
 6795SOL    HW221285   0.815   0.124   2.345
 6796SOL     OW21286   5.852   2.451   2.258
 6796SOL    HW121287   5.925   2.520   2.266
 6796SOL    HW221288   5.894   2.361   2.244
 6797SOL     OW21289   2.247   4.106   0.462
 6797SOL    HW121290   2.210   4.039   0.528
 6797SOL    HW221291   2.341   4.081   0.439
 6798SOL     OW21292   5.295   2.337   1.419
 6798SOL    HW121293   5.286   2.372   1.513
 6798SOL    HW221294   5.205   2.329   1.378
 6799SOL     OW21295   4.075   6.722   2.946
 6799SOL    HW121296   4.167   6.755   2.925
 6799SOL    HW221297   4.081   6.635   2.996
 6800SOL     OW21298   0.224   2.699   2.940
 6800SOL    HW121299   0.155   2.628   2.930
 6800SOL    HW221300   0.201   2.778   2.884
 6801SOL     OW21301   1.956   4.948   4.842
 6801SOL    HW121302   1.935   5.042   4.815
 6801SOL    HW221303   1.955   4.940   4.941
 6802SOL     OW21304   2.380   4.650   2.615
 6802SOL    HW121305   2.377   4.746   2.641
 6802SOL    HW221306   2.364   4.642   2.517
 6803SOL     OW21307   6.038   5.097   6.076
 6803SOL    HW121308   6.076   5.167   6.138
 6803SOL    HW221309   6.113   5.048   6.032
 6804SOL     OW21310   3.021   5.949   1.312
 6804SOL    HW121311   2.947   5.893   1.349
 6804SOL    HW221312   2.982   6.020   1.254
 6805SOL     OW21313   0.350   4.089   4.263
 6805SOL    HW121314   0.347   4.186   4.285
 6805SOL    HW221315   0.406   4.041   4.331
 6806SOL     OW21316   5.424   3.560   2.265
 6806SOL    HW121317   5.397   3.501   2.341
 6806SOL    HW221318   5.500   3.518   2.215
 6807SOL     OW21319   4.020   3.433   2.495
 6807SOL    HW121320   4.012   3.474   2.585
 6807SOL    HW221321   4.116   3.433   2.466
 6808SOL     OW21322   2.434   6.255   4.591
 6808SOL    HW121323   2.345   6.232   4.551
 6808SOL    HW221324   2.463   6.344   4.558
 6809SOL     OW21325   6.192   2.181   0.521
 6809SOL    HW121326   6.249   2.179   0.439
 6809SOL    HW221327   6.247   2.214   0.599
 6810SOL     OW21328   3.552   0.241   4.816
 6810SOL    HW121329   3.494   0.311   4.858
 6810SOL    HW221330   3.582   0.273   4.726
 6811SOL     OW21331   6.674   2.137   1.292
 6811SOL    HW121332   6.668   2.057   1.352
 6811SOL    HW221333   6.763   2.181   1.304
 6812SOL     OW21334   3.624   5.005   5.800
 6812SOL    HW121335   3.575   5.086   5.833
 6812SOL    HW221336   3.589   4.924   5.847
 6813SOL     OW21337   0.490   3.400   1.639
 6813SOL    HW121338   0.520   3.355   1.723
 6813SOL    HW221339   0.412   3.460   1.659
 6814SOL     OW21340   4.827   2.442   1.539
 6814SOL    HW121341   4.873   2.507   1.478
 6814SOL    HW221342   4.833   2.476   1.633
 6815SOL     OW21343   1.519   5.960   1.142
 6815SOL    HW121344   1.478   6.018   1.213
 6815SOL    HW221345   1.573   6.017   1.080
 6816SOL     OW21346   5.421   0.507   3.534
 6816SOL    HW121347   5.428   0.524   3.436
 6816SOL    HW221348   5.376   0.419   3.550
 6817SOL     OW21349   6.149   0.667   0.857
 6817SOL    HW121350   6.110   0.730   0.791
 6817SOL    HW221351   6.229   0.622   0.817
 6818SOL     OW21352   0.113   6.524   5.601
 6818SOL    HW121353   0.188   6.544   5.538
 6818SOL    HW221354   0.058   6.449   5.565
 6819SOL     OW21355   6.362   4.086   1.021
 6819SOL    HW121356   6.452   4.121   0.996
 6819SOL    HW221357   6.292   4.136   0.971
 6820SOL     OW21358   2.626   4.526   1.089
 6820SOL    HW121359   2.568   4.447   1.111
 6820SOL    HW221360   2.687   4.545   1.166
 6821SOL     OW21361   2.587   3.888   5.924
 6821SOL    HW121362   2.614   3.876   6.020
 6821SOL    HW221363   2.545   3.804   5.891
 6822SOL     OW21364   0.864   4.407   4.743
 6822SOL    HW121365   0.946   4.354   4.765
 6822SOL    HW221366   0.856   4.485   4.806
 6823SOL     OW21367   6.828   3.577   5.498
 6823SOL    HW121368   6.911   3.523   5.510
 6823SOL    HW221369   6.750   3.528   5.537
 6824SOL     OW21370   1.336   0.830   3.839
 6824SOL    HW121371   1.388   0.802   3.920
 6824SOL    HW221372   1.369   0.778   3.760
 6825SOL     OW21373   5.069   5.270   1.647
 6825SOL    HW121374   5.152   5.256   1.702
 6825SOL    HW221375   5.058   5.367   1.627
 6826SOL     OW21376   5.270   0.592   4.254
 6826SOL    HW121377   5.325   0.565   4.176
 6826SOL    HW221378   5.209   0.667   4.228
 6827SOL     OW21379   5.715   5.207   5.261
 6827SOL    HW121380   5.758   5.269   5.327
 6827SOL    HW221381   5.699   5.256   5.175
 6828SOL     OW21382   2.332   1.386   2.833
 6828SOL    HW121383   2.383   1.461   2.790
 6828SOL    HW221384   2.244   1.375   2.788
 6829SOL     OW21385   5.756   6.381   5.244
 6829SOL    HW121386   5.739   6.305   5.307
 6829SOL    HW221387   5.683   6.386   5.177
 6830SOL     OW21388   3.699   6.295   3.674
 6830SOL    HW121389   3.687   6.310   3.576
 6830SOL    HW221390   3.666   6.204   3.698
 6831SOL     OW21391   2.174   0.198   0.063
 6831SOL    HW121392   2.105   0.265   0.089
 6831SOL    HW221393   2.164   0.116   0.120
 6832SOL     OW21394   4.156   3.640   0.281
 6832SOL    HW121395   4.181   3.609   0.372
 6832SOL    HW221396   4.233   3.626   0.219
 6833SOL     OW21397   3.871   5.469   0.797
 6833SOL    HW121398   3.929   5.446   0.719
 6833SOL    HW221399   3.836   5.562   0.787
 6834SOL     OW21400   6.416   6.036   5.021
 6834SOL    HW121401   6.430   6.038   4.922
 6834SOL    HW221402   6.384   5.946   5.048
 6835SOL     OW21403   3.374   0.267   3.139
 6835SOL    HW121404   3.318   0.316   3.072
 6835SOL    HW221405   3.392   0.327   3.217
 6836SOL     OW21406   1.167   4.399   6.604
 6836SOL    HW121407   1.251   4.346   6.596
 6836SOL    HW221408   1.093   4.342   6.639
 6837SOL     OW21409   5.992   2.647   1.874
 6837SOL    HW121410   5.909   2.600   1.903
 6837SOL    HW221411   6.049   2.584   1.821
 6838SOL     OW21412   2.424   4.495   6.996
 6838SOL    HW121413   2.446   4.479   0.073
 6838SOL    HW221414   2.340   4.445   6.973
 6839SOL     OW21415   0.082   2.918   5.122
 6839SOL    HW121416   0.063   2.829   5.162
 6839SOL    HW221417   0.061   2.990   5.189
 6840SOL     OW21418   3.373   0.264   4.233
 6840SOL    HW121419   3.358   0.352   4.188
 6840SOL    HW221420   3.338   0.190   4.175
 6841SOL     OW21421   4.955   5.816   0.931
 6841SOL    HW121422   4.980   5.721   0.952
 6841SOL    HW221423   5.000   5.877   0.995
 6842SOL     OW21424   6.891   3.403   3.051
 6842SOL    HW121425   6.970   3.458   3.024
 6842SOL    HW221426   6.812   3.463   3.067
 6843SOL     OW21427   4.474   3.369   1.715
 6843SOL    HW121428   4.570   3.359   1.742
 6843SOL    HW221429   4.432   3.279   1.708
 6844SOL     OW21430   3.078   6.690   3.859
 6844SOL    HW121431   3.020   6.758   3.814
 6844SOL    HW221432   3.144   6.736   3.918
 6845SOL     OW21433   3.817   4.410   0.227
 6845SOL    HW121434   3.748   4.460   0.174
 6845SOL    HW221435   3.771   4.358   0.300
 6846SOL     OW21436   3.360   3.004   4.009
 6846SOL    HW121437   3.430   2.947   4.051
 6846SOL    HW221438   3.286   3.020   4.075
 6847SOL     OW21439   5.118   3.618   0.577
 6847SOL    HW121440   5.041   3.672   0.613
 6847SOL    HW221441   5.108   3.609   0.477
 6848SOL     OW21442   0.969   5.913   4.476
 6848SOL    HW121443   1.002   5.904   4.382
 6848SOL    HW221444   1.046   5.902   4.540
 6849SOL     OW21445   2.407   0.559   4.401
 6849SOL    HW121446   2.313   0.557   4.437
 6849SOL    HW221447   2.425   0.649   4.363
 6850SOL     OW21448   0.456   2.233   1.660
 6850SOL    HW121449   0.523   2.169   1.623
 6850SOL    HW221450   0.366   2.188   1.666
 6851SOL     OW21451   2.106   4.952   0.843
 6851SOL    HW121452   2.021   4.938   0.894
 6851SOL    HW221453   2.181   4.905   0.888
 6852SOL     OW21454   4.690   4.653   2.757
 6852SOL    HW121455   4.641   4.682   2.675
 6852SOL    HW221456   4.705   4.732   2.817
 6853SOL     OW21457   6.137   4.153   4.582
 6853SOL    HW121458   6.061   4.206   4.619
 6853SOL    HW221459   6.198   4.213   4.530
 6854SOL     OW21460   5.964   0.704   6.476
 6854SOL    HW121461   6.023   0.784   6.469
 6854SOL    HW221462   5.967   0.653   6.390
 6855SOL     OW21463   2.591   6.771   3.496
 6855SOL    HW121464   2.520   6.829   3.537
 6855SOL    HW221465   2.621   6.703   3.563
 6856SOL     OW21466   0.773   5.067   5.638
 6856SOL    HW121467   0.833   5.017   5.700
 6856SOL    HW221468   0.679   5.036   5.649
 6857SOL     OW21469   5.034   1.123   6.517
 6857SOL    HW121470   5.022   1.098   6.613
 6857SOL    HW221471   4.952   1.169   6.484
 6858SOL     OW21472   3.566   3.313   6.464
 6858SOL    HW121473   3.507   3.345   6.538
 6858SOL    HW221474   3.510   3.285   6.387
 6859SOL     OW21475   4.403   6.608   1.404
 6859SOL    HW121476   4.379   6.528   1.458
 6859SOL    HW221477   4.494   6.640   1.429
 6860SOL     OW21478   4.636   3.280   0.232
 6860SOL    HW121479   4.723   3.254   0.190
 6860SOL    HW221480   4.560   3.250   0.174
 6861SOL     OW21481   6.336   3.246   0.185
 6861SOL    HW121482   6.265   3.307   0.148
 6861SOL    HW221483   6.336   3.160   0.134
 6862SOL     OW21484   2.598   4.739   4.405
 6862SOL    HW121485   2.576   4.665   4.469
 6862SOL    HW221486   2.647   4.812   4.453
 6863SOL     OW21487   0.837   3.607   3.634
 6863SOL    HW121488   0.874   3.520   3.667
 6863SOL    HW221489   0.912   3.671   3.618
 6864SOL     OW21490   3.389   5.691   5.721
 6864SOL    HW121491   3.463   5.757   5.707
 6864SOL    HW221492   3.308   5.719   5.669
 6865SOL     OW21493   0.657   2.358   5.594
 6865SOL    HW121494   0.625   2.359   5.499
 6865SOL    HW221495   0.757   2.370   5.595
 6866SOL     OW21496   0.647   4.364   2.737
 6866SOL    HW121497   0.611   4.453   2.765
 6866SOL    HW221498   0.604   4.292   2.791
 6867SOL     OW21499   3.041   5.693   3.931
 6867SOL    HW121500   3.110   5.736   3.872
 6867SOL    HW221501   2.984   5.631   3.876
 6868SOL     OW21502   2.274   5.903   5.538
 6868SOL    HW121503   2.216   5.844   5.482
 6868SOL    HW221504   2.237   5.908   5.630
 6869SOL     OW21505   0.190   2.430   3.825
 6869SOL    HW121506   0.272   2.394   3.781
 6869SOL    HW221507   0.141   2.354   3.869
 6870SOL     OW21508   4.982   4.033   2.691
 6870SOL    HW121509   5.031   4.119   2.674
 6870SOL    HW221510   4.901   4.030   2.633
 6871SOL     OW21511   4.283   5.952   2.346
 6871SOL    HW121512   4.372   5.993   2.323
 6871SOL    HW221513   4.211   5.997   2.293
 6872SOL     OW21514   3.321   4.189   1.139
 6872SOL    HW121515   3.222   4.198   1.135
 6872SOL    HW221516   3.364   4.276   1.114
 6873SOL     OW21517   4.831   4.775   5.413
 6873SOL    HW121518   4.876   4.688   5.393
 6873SOL    HW221519   4.752   4.759   5.472
 6874SOL     OW21520   1.297   1.587   6.421
 6874SOL    HW121521   1.381   1.535   6.437
 6874SOL    HW221522   1.305   1.638   6.335
 6875SOL     OW21523   3.462   6.570   4.873
 6875SOL    HW121524   3.397   6.516   4.926
 6875SOL    HW221525   3.492   6.518   4.793
 6876SOL     OW21526   2.947   6.960   4.993
 6876SOL    HW121527   3.012   6.961   4.917
 6876SOL    HW221528   2.961   0.022   5.050
 6877SOL     OW21529   1.330   4.341   0.909
 6877SOL    HW121530   1.310   4.243   0.917
 6877SOL    HW221531   1.429   4.355   0.914
 6878SOL     OW21532   2.337   1.884   5.057
 6878SOL    HW121533   2.409   1.819   5.032
 6878SOL    HW221534   2.286   1.848   5.135
 6879SOL     OW21535   6.275   1.046   6.072
 6879SOL    HW121536   6.228   0.960   6.049
 6879SOL    HW221537   6.373   1.032   6.066
 6880SOL     OW21538   1.099   5.207   4.396
 6880SOL    HW121539   1.166   5.281   4.399
 6880SOL    HW221540   1.067   5.187   4.489
 6881SOL     OW21541   4.911   6.739   1.033
 6881SOL    HW121542   4.928   6.800   1.110
 6881SOL    HW221543   4.813   6.727   1.021
 6882SOL     OW21544   2.796   5.802   5.580
 6882SOL    HW121545   2.861   5.863   5.625
 6882SOL    HW221546   2.713   5.795   5.634
 6883SOL     OW21547   2.386   6.959   1.888
 6883SOL    HW121548   2.292   6.925   1.890
 6883SOL    HW221549   2.403   7.015   1.970
 6884SOL     OW21550   1.773   5.236   3.178
 6884SOL    HW121551   1.706   5.221   3.251
 6884SOL    HW221552   1.807   5.147   3.146
 6885SOL     OW21553   4.494   4.526   4.722
 6885SOL    HW121554   4.528   4.441   4.682
 6885SOL    HW221555   4.438   4.506   4.802
 6886SOL     OW21556   5.573   6.591   0.753
 6886SOL    HW121557   5.562   6.492   0.762
 6886SOL    HW221558   5.504   6.626   0.689
 6887SOL     OW21559   6.901   0.570   5.156
 6887SOL    HW121560   6.863   0.642   5.213
 6887SOL    HW221561   6.891   0.595   5.060
 6888SOL     OW21562   6.731   6.563   3.981
 6888SOL    HW121563   6.655   6.601   4.035
 6888SOL    HW221564   6.810   6.624   3.987
 6889SOL     OW21565   1.975   4.228   6.233
 6889SOL    HW121566   1.895   4.277   6.199
 6889SOL    HW221567   2.049   4.235   6.166
 6890SOL     OW21568   1.465   0.509   1.215
 6890SOL    HW121569   1.439   0.550   1.127
 6890SOL    HW221570   1.461   0.579   1.287
 6891SOL     OW21571   5.152   5.492   5.336
 6891SOL    HW121572   5.251   5.510   5.336
 6891SOL    HW221573   5.106   5.563   5.282
 6892SOL     OW21574   2.926   2.259   4.115
 6892SOL    HW121575   2.901   2.260   4.018
 6892SOL    HW221576   3.026   2.254   4.124
 6893SOL     OW21577   4.986   0.335   0.557
 6893SOL    HW121578   4.964   0.432   0.551
 6893SOL    HW221579   4.952   0.288   0.475
 6894SOL     OW21580   5.698   4.397   4.986
 6894SOL    HW121581   5.784   4.346   4.975
 6894SOL    HW221582   5.702   4.451   5.070
 6895SOL     OW21583   4.951   4.373   4.059
 6895SOL    HW121584   4.869   4.319   4.039
 6895SOL    HW221585   4.939   4.422   4.145
 6896SOL     OW21586   5.312   1.879   2.181
 6896SOL    HW121587   5.216   1.905   2.176
 6896SOL    HW221588   5.362   1.943   2.239
 6897SOL     OW21589   4.448   1.683   1.426
 6897SOL    HW121590   4.379   1.713   1.361
 6897SOL    HW221591   4.537   1.721   1.401
 6898SOL     OW21592   4.307   1.251   1.610
 6898SOL    HW121593   4.245   1.232   1.534
 6898SOL    HW221594   4.399   1.269   1.575
 6899SOL     OW21595   5.255   4.388   5.800
 6899SOL    HW121596   5.196   4.360   5.725
 6899SOL    HW221597   5.274   4.486   5.794
 6900SOL     OW21598   4.310   0.343   5.777
 6900SOL    HW121599   4.380   0.286   5.822
 6900SOL    HW221600   4.279   0.298   5.693
 6901SOL     OW21601   1.690   0.599   7.017
 6901SOL    HW121602   1.731   0.659   6.949
 6901SOL    HW221603   1.594   0.624   0.011
 6902SOL     OW21604   6.239   5.214   2.448
 6902SOL    HW121605   6.285   5.296   2.413
 6902SOL    HW221606   6.146   5.237   2.476
 6903SOL     OW21607   6.152   4.660   0.021
 6903SOL    HW121608   6.237   4.702   0.052
 6903SOL    HW221609   6.134   4.685   6.945
 6904SOL     OW21610   0.494   1.142   2.371
 6904SOL    HW121611   0.464   1.150   2.466
 6904SOL    HW221612   0.452   1.061   2.329
 6905SOL     OW21613   3.499   4.997   0.792
 6905SOL    HW121614   3.582   5.013   0.846
 6905SOL    HW221615   3.431   5.067   0.814
 6906SOL     OW21616   5.502   6.412   2.331
 6906SOL    HW121617   5.545   6.435   2.418
 6906SOL    HW221618   5.568   6.425   2.257
 6907SOL     OW21619   3.677   1.336   1.717
 6907SOL    HW121620   3.656   1.361   1.812
 6907SOL    HW221621   3.770   1.300   1.713
 6908SOL     OW21622   5.209   6.597   0.017
 6908SOL    HW121623   5.271   6.673   0.036
 6908SOL    HW221624   5.217   6.527   0.088
 6909SOL     OW21625   2.633   2.166   6.761
 6909SOL    HW121626   2.571   2.136   6.834
 6909SOL    HW221627   2.633   2.266   6.756
 6910SOL     OW21628   4.080   1.151   0.833
 6910SOL    HW121629   4.146   1.208   0.881
 6910SOL    HW221630   4.030   1.207   0.766
 6911SOL     OW21631   3.742   6.302   5.457
 6911SOL    HW121632   3.647   6.325   5.479
 6911SOL    HW221633   3.786   6.262   5.538
 6912SOL     OW21634   3.563   5.552   1.814
 6912SOL    HW121635   3.612   5.477   1.858
 6912SOL    HW221636   3.473   5.563   1.857
 6913SOL     OW21637   3.900   6.090   5.953
 6913SOL    HW121638   3.996   6.084   5.982
 6913SOL    HW221639   3.842   6.045   6.020
 6914SOL     OW21640   0.215   5.060   0.193
 6914SOL    HW121641   0.241   5.083   0.099
 6914SOL    HW221642   0.117   5.042   0.197
 6915SOL     OW21643   0.822   0.219   6.793
 6915SOL    HW121644   0.899   0.241   6.853
 6915SOL    HW221645   0.839   0.132   6.747
 6916SOL     OW21646   6.148   0.499   6.338
 6916SOL    HW121647   6.190   0.421   6.291
 6916SOL    HW221648   6.152   0.484   6.437
 6917SOL     OW21649   4.153   6.207   6.483
 6917SOL    HW121650   4.084   6.147   6.443
 6917SOL    HW221651   4.148   6.201   6.583
 6918SOL     OW21652   1.837   2.688   3.810
 6918SOL    HW121653   1.744   2.724   3.823
 6918SOL    HW221654   1.881   2.678   3.900
 6919SOL     OW21655   1.580   5.992   3.602
 6919SOL    HW121656   1.511   5.926   3.632
 6919SOL    HW221657   1.667   5.973   3.648
 6920SOL     OW21658   5.966   5.927   3.996
 6920SOL    HW121659   5.876   5.970   3.987
 6920SOL    HW221660   5.956   5.836   4.037
 6921SOL     OW21661   1.683   5.030   2.419
 6921SOL    HW121662   1.740   5.107   2.394
 6921SOL    HW221663   1.587   5.053   2.405
 6922SOL     OW21664   1.414   6.404   1.613
 6922SOL    HW121665   1.340   6.336   1.607
 6922SOL    HW221666   1.441   6.415   1.708
 6923SOL     OW21667   5.154   5.718   4.918
 6923SOL    HW121668   5.180   5.814   4.933
 6923SOL    HW221669   5.094   5.711   4.838
 6924SOL     OW21670   5.327   5.941   2.523
 6924SOL    HW121671   5.354   5.984   2.437
 6924SOL    HW221672   5.239   5.895   2.512
 6925SOL     OW21673   4.283   5.872   1.867
 6925SOL    HW121674   4.309   5.949   1.925
 6925SOL    HW221675   4.237   5.802   1.922
 6926SOL     OW21676   2.658   4.365   5.479
 6926SOL    HW121677   2.674   4.458   5.447
 6926SOL    HW221678   2.597   4.318   5.415
 6927SOL     OW21679   4.206   3.584   0.541
 6927SOL    HW121680   4.133   3.639   0.583
 6927SOL    HW221681   4.285   3.583   0.602
 6928SOL     OW21682   6.648   0.157   6.586
 6928SOL    HW121683   6.568   0.102   6.563
 6928SOL    HW221684   6.619   0.241   6.633
 6929SOL     OW21685   4.006   6.104   1.123
 6929SOL    HW121686   3.943   6.182   1.118
 6929SOL    HW221687   4.033   6.088   1.218
 6930SOL     OW21688   0.176   0.937   3.316
 6930SOL    HW121689   0.079   0.933   3.295
 6930SOL    HW221690   0.194   0.890   3.403
 6931SOL     OW21691   2.277   7.008   0.965
 6931SOL    HW121692   2.356   6.946   0.970
 6931SOL    HW221693   2.197   6.963   1.003
 6932SOL     OW21694   3.396   2.824   0.697
 6932SOL    HW121695   3.333   2.845   0.622
 6932SOL    HW221696   3.431   2.731   0.686
 6933SOL     OW21697   2.871   6.252   5.237
 6933SOL    HW121698   2.824   6.172   5.272
 6933SOL    HW221699   2.968   6.248   5.263
 6934SOL     OW21700   5.522   4.767   7.014
 6934SOL    HW121701   5.562   4.677   0.015
 6934SOL    HW221702   5.423   4.759   7.006
 6935SOL     OW21703   4.335   5.622   3.542
 6935SOL    HW121704   4.347   5.528   3.576
 6935SOL    HW221705   4.281   5.621   3.459
 6936SOL     OW21706   1.345   4.612   0.411
 6936SOL    HW121707   1.343   4.526   0.360
 6936SOL    HW221708   1.344   4.592   0.509
 6937SOL     OW21709   4.480   6.030   6.626
 6937SOL    HW121710   4.460   6.097   6.554
 6937SOL    HW221711   4.401   6.023   6.687
 6938SOL     OW21712   6.736   2.382   5.400
 6938SOL    HW121713   6.778   2.446   5.465
 6938SOL    HW221714   6.716   2.296   5.446
 6939SOL     OW21715   6.397   4.267   2.264
 6939SOL    HW121716   6.480   4.238   2.216
 6939SOL    HW221717   6.408   4.361   2.296
 6940SOL     OW21718   3.996   0.622   4.001
 6940SOL    HW121719   3.956   0.711   4.022
 6940SOL    HW221720   3.968   0.593   3.910
 6941SOL     OW21721   3.594   2.998   5.310
 6941SOL    HW121722   3.575   3.003   5.212
 6941SOL    HW221723   3.620   2.905   5.335
 6942SOL     OW21724   6.620   1.243   6.305
 6942SOL    HW121725   6.526   1.213   6.322
 6942SOL    HW221726   6.632   1.259   6.207
 6943SOL     OW21727   6.101   4.183   0.297
 6943SOL    HW121728   6.115   4.282   0.290
 6943SOL    HW221729   6.177   4.142   0.347
 6944SOL     OW21730   2.413   0.320   0.115
 6944SOL    HW121731   2.384   0.405   0.160
 6944SOL    HW221732   2.335   0.280   0.067
 6945SOL     OW21733   3.020   1.032   6.412
 6945SOL    HW121734   2.992   1.012   6.319
 6945SOL    HW221735   3.093   1.101   6.411
 6946SOL     OW21736   5.889   3.838   2.739
 6946SOL    HW121737   5.869   3.859   2.644
 6946SOL    HW221738   5.882   3.739   2.754
 6947SOL     OW21739   3.957   6.745   0.900
 6947SOL    HW121740   3.989   6.689   0.824
 6947SOL    HW221741   3.867   6.712   0.930
 6948SOL     OW21742   3.460   1.533   6.142
 6948SOL    HW121743   3.397   1.457   6.125
 6948SOL    HW221744   3.481   1.536   6.240
 6949SOL     OW21745   5.248   6.945   2.602
 6949SOL    HW121746   5.163   6.994   2.583
 6949SOL    HW221747   5.231   6.847   2.601
 6950SOL     OW21748   3.155   1.915   3.400
 6950SOL    HW121749   3.218   1.848   3.361
 6950SOL    HW221750   3.108   1.874   3.478
 6951SOL     OW21751   3.949   3.932   5.400
 6951SOL    HW121752   3.975   3.988   5.321
 6951SOL    HW221753   3.869   3.973   5.445
 6952SOL     OW21754   0.529   3.647   6.510
 6952SOL    HW121755   0.529   3.679   6.415
 6952SOL    HW221756   0.549   3.725   6.571
 6953SOL     OW21757   5.976   2.420   4.531
 6953SOL    HW121758   5.938   2.383   4.616
 6953SOL    HW221759   5.961   2.354   4.457
 6954SOL     OW21760   0.168   4.720   1.935
 6954SOL    HW121761   0.179   4.782   1.857
 6954SOL    HW221762   0.224   4.639   1.922
 6955SOL     OW21763   6.947   1.066   3.758
 6955SOL    HW121764   6.965   1.086   3.854
 6955SOL    HW221765   6.869   1.120   3.726
 6956SOL     OW21766   3.551   3.890   1.459
 6956SOL    HW121767   3.638   3.871   1.504
 6956SOL    HW221768   3.563   3.881   1.360
 6957SOL     OW21769   1.391   4.580   0.701
 6957SOL    HW121770   1.325   4.528   0.756
 6957SOL    HW221771   1.478   4.584   0.749
 6958SOL     OW21772   2.167   3.515   5.965
 6958SOL    HW121773   2.099   3.498   5.894
 6958SOL    HW221774   2.224   3.593   5.938
 6959SOL     OW21775   4.155   1.432   5.294
 6959SOL    HW121776   4.114   1.344   5.270
 6959SOL    HW221777   4.097   1.478   5.362
 6960SOL     OW21778   1.027   6.038   6.839
 6960SOL    HW121779   1.031   5.943   6.808
 6960SOL    HW221780   1.114   6.083   6.817
 6961SOL     OW21781   6.061   0.678   3.808
 6961SOL    HW121782   6.007   0.653   3.728
 6961SOL    HW221783   6.006   0.664   3.890
 6962SOL     OW21784   3.397   2.976   0.931
 6962SOL    HW121785   3.320   3.039   0.937
 6962SOL    HW221786   3.410   2.948   0.836
 6963SOL     OW21787   6.675   6.209   1.604
 6963SOL    HW121788   6.606   6.249   1.544
 6963SOL    HW221789   6.748   6.276   1.620
 6964SOL     OW21790   4.251   5.291   5.608
 6964SOL    HW121791   4.201   5.358   5.553
 6964SOL    HW221792   4.345   5.284   5.574
 6965SOL     OW21793   5.807   0.898   6.101
 6965SOL    HW121794   5.717   0.898   6.144
 6965SOL    HW221795   5.848   0.807   6.109
 6966SOL     OW21796   4.191   2.250   3.576
 6966SOL    HW121797   4.099   2.222   3.604
 6966SOL    HW221798   4.230   2.312   3.645
 6967SOL     OW21799   2.900   2.884   6.776
 6967SOL    HW121800   2.815   2.928   6.803
 6967SOL    HW221801   2.974   2.912   6.837
 6968SOL     OW21802   3.226   0.732   3.519
 6968SOL    HW121803   3.205   0.686   3.432
 6968SOL    HW221804   3.175   0.818   3.523
 6969SOL     OW21805   3.805   3.344   1.863
 6969SOL    HW121806   3.824   3.333   1.961
 6969SOL    HW221807   3.729   3.285   1.837
 6970SOL     OW21808   4.918   3.868   0.176
 6970SOL    HW121809   4.845   3.920   0.220
 6970SOL    HW221810   4.891   3.847   0.082
 6971SOL     OW21811   6.078   1.761   2.384
 6971SOL    HW121812   6.156   1.813   2.349
 6971SOL    HW221813   5.996   1.817   2.380
 6972SOL     OW21814   4.867   5.840   4.344
 6972SOL    HW121815   4.912   5.865   4.430
 6972SOL    HW221816   4.776   5.881   4.340
 6973SOL     OW21817   1.911   4.424   2.903
 6973SOL    HW121818   1.899   4.327   2.880
 6973SOL    HW221819   1.905   4.479   2.820
 6974SOL     OW21820   2.876   3.461   5.261
 6974SOL    HW121821   2.792   3.406   5.259
 6974SOL    HW221822   2.856   3.553   5.227
 6975SOL     OW21823   1.680   6.612   6.038
 6975SOL    HW121824   1.687   6.522   6.081
 6975SOL    HW221825   1.617   6.669   6.090
 6976SOL     OW21826   1.142   6.161   1.591
 6976SOL    HW121827   1.151   6.105   1.509
 6976SOL    HW221828   1.167   6.107   1.671
 6977SOL     OW21829   5.792   2.456   1.214
 6977SOL    HW121830   5.824   2.551   1.217
 6977SOL    HW221831   5.703   2.452   1.169
 6978SOL     OW21832   5.269   2.870   3.868
 6978SOL    HW121833   5.327   2.950   3.852
 6978SOL    HW221834   5.177   2.888   3.834
 6979SOL     OW21835   0.128   3.372   4.370
 6979SOL    HW121836   0.076   3.422   4.439
 6979SOL    HW221837   0.067   3.311   4.320
 6980SOL     OW21838   5.031   1.975   5.000
 6980SOL    HW121839   4.976   2.056   5.020
 6980SOL    HW221840   5.001   1.936   4.913
 6981SOL     OW21841   3.218   3.399   6.456
 6981SOL    HW121842   3.148   3.467   6.436
 6981SOL    HW221843   3.298   3.416   6.399
 6982SOL     OW21844   1.127   0.164   4.350
 6982SOL    HW121845   1.127   0.128   4.444
 6982SOL    HW221846   1.191   0.240   4.343
 6983SOL     OW21847   5.883   0.737   2.849
 6983SOL    HW121848   5.861   0.648   2.889
 6983SOL    HW221849   5.944   0.724   2.771
 6984SOL     OW21850   2.344   0.885   6.509
 6984SOL    HW121851   2.406   0.883   6.586
 6984SOL    HW221852   2.333   0.978   6.476
 6985SOL     OW21853   4.412   6.898   4.062
 6985SOL    HW121854   4.366   6.884   4.150
 6985SOL    HW221855   4.458   6.986   4.062
 6986SOL     OW21856   2.774   6.214   5.752
 6986SOL    HW121857   2.770   6.292   5.814
 6986SOL    HW221858   2.688   6.164   5.756
 6987SOL     OW21859   6.844   3.566   6.268
 6987SOL    HW121860   6.770   3.591   6.205
 6987SOL    HW221861   6.932   3.585   6.226
 6988SOL     OW21862   5.232   2.170   6.563
 6988SOL    HW121863   5.263   2.128   6.648
 6988SOL    HW221864   5.182   2.254   6.583
 6989SOL     OW21865   2.214   3.898   4.313
 6989SOL    HW121866   2.220   3.975   4.377
 6989SOL    HW221867   2.243   3.928   4.222
 6990SOL     OW21868   4.322   3.786   1.670
 6990SOL    HW121869   4.295   3.691   1.689
 6990SOL    HW221870   4.421   3.792   1.667
 6991SOL     OW21871   4.634   4.682   5.581
 6991SOL    HW121872   4.542   4.695   5.544
 6991SOL    HW221873   4.631   4.613   5.654
 6992SOL     OW21874   6.651   6.295   5.009
 6992SOL    HW121875   6.617   6.279   5.102
 6992SOL    HW221876   6.610   6.229   4.947
 6993SOL     OW21877   0.414   0.807   2.842
 6993SOL    HW121878   0.360   0.769   2.916
 6993SOL    HW221879   0.376   0.777   2.754
 6994SOL     OW21880   2.135   2.635   0.287
 6994SOL    HW121881   2.207   2.703   0.269
 6994SOL    HW221882   2.140   2.563   0.218
 6995SOL     OW21883   0.781   5.524   3.712
 6995SOL    HW121884   0.745   5.430   3.709
 6995SOL    HW221885   0.804   5.547   3.807
 6996SOL     OW21886   1.618   6.764   5.084
 6996SOL    HW121887   1.662   6.788   4.998
 6996SOL    HW221888   1.656   6.819   5.158
 6997SOL     OW21889   4.737   4.866   4.682
 6997SOL    HW121890   4.733   4.797   4.755
 6997SOL    HW221891   4.664   4.848   4.616
 6998SOL     OW21892   2.448   2.217   1.772
 6998SOL    HW121893   2.535   2.264   1.788
 6998SOL    HW221894   2.412   2.241   1.682
 6999SOL     OW21895   5.641   2.382   6.481
 6999SOL    HW121896   5.674   2.287   6.477
 6999SOL    HW221897   5.709   2.438   6.528
 7000SOL     OW21898   6.817   0.097   1.562
 7000SOL    HW121899   6.736   0.154   1.548
 7000SOL    HW221900   6.871   0.133   1.638
 7001SOL     OW21901   2.798   1.415   6.746
 7001SOL    HW121902   2.858   1.473   6.691
 7001SOL    HW221903   2.835   1.322   6.749
 7002SOL     OW21904   2.900   5.532   1.298
 7002SOL    HW121905   2.975   5.522   1.233
 7002SOL    HW221906   2.825   5.582   1.256
 7003SOL     OW21907   1.143   6.026   6.181
 7003SOL    HW121908   1.062   5.971   6.163
 7003SOL    HW221909   1.128   6.119   6.146
 7004SOL     OW21910   2.536   4.071   6.285
 7004SOL    HW121911   2.507   4.036   6.374
 7004SOL    HW221912   2.624   4.118   6.295
 7005SOL     OW21913   6.189   0.464   5.588
 7005SOL    HW121914   6.132   0.431   5.513
 7005SOL    HW221915   6.215   0.559   5.571
 7006SOL     OW21916   4.898   5.446   4.242
 7006SOL    HW121917   4.910   5.538   4.205
 7006SOL    HW221918   4.806   5.439   4.282
 7007SOL     OW21919   5.360   4.685   1.378
 7007SOL    HW121920   5.361   4.679   1.279
 7007SOL    HW221921   5.446   4.650   1.415
 7008SOL     OW21922   0.609   6.566   4.067
 7008SOL    HW121923   0.539   6.557   4.139
 7008SOL    HW221924   0.584   6.643   4.007
 7009SOL     OW21925   6.915   4.010   1.497
 7009SOL    HW121926   6.965   4.096   1.508
 7009SOL    HW221927   6.976   3.940   1.460
 7010SOL     OW21928   5.071   4.304   5.611
 7010SOL    HW121929   5.064   4.389   5.560
 7010SOL    HW221930   5.010   4.307   5.691
 7011SOL     OW21931   1.422   0.252   5.902
 7011SOL    HW121932   1.412   0.153   5.903
 7011SOL    HW221933   1.469   0.280   5.819
 7012SOL     OW21934   0.020   0.558   1.806
 7012SOL    HW121935   0.048   0.632   1.745
 7012SOL    HW221936   6.949   0.525   1.780
 7013SOL     OW21937   6.391   1.973   1.274
 7013SOL    HW121938   6.448   1.934   1.346
 7013SOL    HW221939   6.404   2.072   1.272
 7014SOL     OW21940   2.334   5.454   1.067
 7014SOL    HW121941   2.330   5.482   0.971
 7014SOL    HW221942   2.400   5.380   1.078
 7015SOL     OW21943   4.647   1.975   2.421
 7015SOL    HW121944   4.570   1.914   2.440
 7015SOL    HW221945   4.618   2.070   2.434
 7016SOL     OW21946   5.318   4.343   0.365
 7016SOL    HW121947   5.307   4.409   0.291
 7016SOL    HW221948   5.414   4.317   0.373
 7017SOL     OW21949   5.460   2.463   5.581
 7017SOL    HW121950   5.373   2.470   5.629
 7017SOL    HW221951   5.449   2.404   5.501
 7018SOL     OW21952   0.489   4.497   3.706
 7018SOL    HW121953   0.394   4.483   3.679
 7018SOL    HW221954   0.493   4.551   3.790
 7019SOL     OW21955   6.373   6.395   2.344
 7019SOL    HW121956   6.299   6.460   2.364
 7019SOL    HW221957   6.377   6.327   2.416
 7020SOL     OW21958   6.734   5.513   0.590
 7020SOL    HW121959   6.824   5.474   0.610
 7020SOL    HW221960   6.718   5.512   0.492
 7021SOL     OW21961   2.992   6.935   5.606
 7021SOL    HW121962   2.898   6.905   5.595
 7021SOL    HW221963   3.028   6.967   5.519
 7022SOL     OW21964   3.708   4.607   5.653
 7022SOL    HW121965   3.736   4.522   5.608
 7022SOL    HW221966   3.690   4.589   5.750
 7023SOL     OW21967   4.978   5.163   2.418
 7023SOL    HW121968   4.965   5.110   2.502
 7023SOL    HW221969   4.956   5.106   2.339
 7024SOL     OW21970   6.175   6.998   2.104
 7024SOL    HW121971   6.096   0.021   2.059
 7024SOL    HW221972   6.146   6.913   2.148
 7025SOL     OW21973   3.153   0.128   1.534
 7025SOL    HW121974   3.221   0.128   1.461
 7025SOL    HW221975   3.073   0.181   1.505
 7026SOL     OW21976   4.306   2.360   0.456
 7026SOL    HW121977   4.389   2.406   0.427
 7026SOL    HW221978   4.281   2.390   0.548
 7027SOL     OW21979   5.604   5.854   5.005
 7027SOL    HW121980   5.644   5.938   4.969
 7027SOL    HW221981   5.649   5.831   5.092
 7028SOL     OW21982   3.315   0.923   4.779
 7028SOL    HW121983   3.268   0.944   4.865
 7028SOL    HW221984   3.252   0.878   4.716
 7029SOL     OW21985   3.657   0.028   4.019
 7029SOL    HW121986   3.562   0.057   4.012
 7029SOL    HW221987   3.670   6.961   3.970
 7030SOL     OW21988   1.052   3.796   3.605
 7030SOL    HW121989   1.019   3.851   3.682
 7030SOL    HW221990   1.146   3.821   3.583
 7031SOL     OW21991   1.836   0.872   4.263
 7031SOL    HW121992   1.835   0.774   4.243
 7031SOL    HW221993   1.868   0.922   4.183
 7032SOL     OW21994   6.342   2.264   3.545
 7032SOL    HW121995   6.290   2.215   3.475
 7032SOL    HW221996   6.390   2.341   3.503
 7033SOL     OW21997   6.905   0.980   5.109
 7033SOL    HW121998   6.873   0.998   5.016
 7033SOL    HW221999   6.863   0.896   5.144
 7034SOL     OW22000   6.761   5.068   4.161
 7034SOL    HW122001   6.775   5.050   4.258
 7034SOL    HW222002   6.827   5.016   4.107
 7035SOL     OW22003   6.865   4.315   1.030
 7035SOL    HW122004   6.887   4.279   1.120
 7035SOL    HW222005   6.773   4.285   1.004
 7036SOL     OW22006   6.072   5.690   0.854
 7036SOL    HW122007   6.134   5.744   0.798
 7036SOL    HW222008   6.117   5.663   0.938
 7037SOL     OW22009   1.150   0.065   6.666
 7037SOL    HW122010   1.163   0.042   6.763
 7037SOL    HW222011   1.113   0.157   6.658
 7038SOL     OW22012   2.351   2.444   3.627
 7038SOL    HW122013   2.412   2.487   3.694
 7038SOL    HW222014   2.257   2.448   3.660
 7039SOL     OW22015   4.314   1.803   6.628
 7039SOL    HW122016   4.225   1.778   6.666
 7039SOL    HW222017   4.378   1.819   6.702
 7040SOL     OW22018   6.700   2.151   6.711
 7040SOL    HW122019   6.654   2.196   6.788
 7040SOL    HW222020   6.671   2.193   6.625
 7041SOL     OW22021   2.095   1.446   3.578
 7041SOL    HW122022   2.110   1.400   3.491
 7041SOL    HW222023   2.013   1.409   3.622
 7042SOL     OW22024   2.094   0.893   6.951
 7042SOL    HW122025   2.168   0.959   6.967
 7042SOL    HW222026   2.030   0.896   0.008
 7043SOL     OW22027   1.801   2.732   1.066
 7043SOL    HW122028   1.854   2.709   0.984
 7043SOL    HW222029   1.784   2.649   1.119
 7044SOL     OW22030   0.237   5.604   0.700
 7044SOL    HW122031   0.184   5.563   0.626
 7044SOL    HW222032   0.186   5.680   0.740
 7045SOL     OW22033   0.540   4.253   0.171
 7045SOL    HW122034   0.508   4.348   0.176
 7045SOL    HW222035   0.633   4.248   0.206
 7046SOL     OW22036   2.478   1.943   3.411
 7046SOL    HW122037   2.458   1.859   3.360
 7046SOL    HW222038   2.409   1.957   3.481
 7047SOL     OW22039   1.230   6.756   3.211
 7047SOL    HW122040   1.281   6.692   3.268
 7047SOL    HW222041   1.286   6.785   3.134
 7048SOL     OW22042   0.478   5.370   6.606
 7048SOL    HW122043   0.402   5.336   6.550
 7048SOL    HW222044   0.473   5.469   6.613
 7049SOL     OW22045   2.704   1.333   6.373
 7049SOL    HW122046   2.790   1.381   6.359
 7049SOL    HW222047   2.716   1.262   6.443
 7050SOL     OW22048   3.514   3.490   6.011
 7050SOL    HW122049   3.584   3.511   5.943
 7050SOL    HW222050   3.425   3.479   5.965
 7051SOL     OW22051   5.655   6.385   1.660
 7051SOL    HW122052   5.746   6.381   1.700
 7051SOL    HW222053   5.638   6.302   1.607
 7052SOL     OW22054   6.395   0.987   4.754
 7052SOL    HW122055   6.305   0.975   4.796
 7052SOL    HW222056   6.384   1.004   4.656
 7053SOL     OW22057   6.384   3.524   6.558
 7053SOL    HW122058   6.454   3.591   6.580
 7053SOL    HW222059   6.293   3.566   6.566
 7054SOL     OW22060   5.883   2.689   2.510
 7054SOL    HW122061   5.787   2.698   2.486
 7054SOL    HW222062   5.893   2.679   2.609
 7055SOL     OW22063   4.019   1.762   3.421
 7055SOL    HW122064   3.937   1.812   3.392
 7055SOL    HW222065   4.079   1.822   3.473
 7056SOL     OW22066   4.614   5.927   4.392
 7056SOL    HW122067   4.533   5.869   4.397
 7056SOL    HW222068   4.601   6.007   4.450
 7057SOL     OW22069   5.648   5.981   2.990
 7057SOL    HW122070   5.611   6.026   2.909
 7057SOL    HW222071   5.692   6.049   3.049
 7058SOL     OW22072   0.173   4.175   4.663
 7058SOL    HW122073   0.172   4.163   4.762
 7058SOL    HW222074   0.170   4.085   4.619
 7059SOL     OW22075   1.501   0.510   2.082
 7059SOL    HW122076   1.459   0.522   2.172
 7059SOL    HW222077   1.492   0.415   2.054
 7060SOL     OW22078   4.035   0.028   1.461
 7060SOL    HW122079   4.049   0.090   1.538
 7060SOL    HW222080   4.124   7.014   1.429
 7061SOL     OW22081   0.699   1.293   2.872
 7061SOL    HW122082   0.673   1.196   2.871
 7061SOL    HW222083   0.788   1.303   2.917
 7062SOL     OW22084   6.507   0.917   5.658
 7062SOL    HW122085   6.423   0.970   5.656
 7062SOL    HW222086   6.586   0.979   5.656
 7063SOL     OW22087   1.702   6.703   1.629
 7063SOL    HW122088   1.749   6.649   1.560
 7063SOL    HW222089   1.604   6.685   1.624
 7064SOL     OW22090   3.132   3.144   0.906
 7064SOL    HW122091   3.111   3.194   0.990
 7064SOL    HW222092   3.146   3.210   0.832
 7065SOL     OW22093   3.010   3.591   2.427
 7065SOL    HW122094   2.954   3.597   2.510
 7065SOL    HW222095   3.105   3.576   2.453
 7066SOL     OW22096   2.575   4.797   1.733
 7066SOL    HW122097   2.505   4.869   1.736
 7066SOL    HW222098   2.646   4.817   1.800
 7067SOL     OW22099   1.282   4.050   4.636
 7067SOL    HW122100   1.352   3.989   4.675
 7067SOL    HW222101   1.208   3.995   4.599
 7068SOL     OW22102   0.745   1.056   3.111
 7068SOL    HW122103   0.666   1.104   3.148
 7068SOL    HW222104   0.719   0.961   3.090
 7069SOL     OW22105   1.352   3.796   5.439
 7069SOL    HW122106   1.438   3.838   5.469
 7069SOL    HW222107   1.372   3.714   5.385
 7070SOL     OW22108   5.510   5.626   2.671
 7070SOL    HW122109   5.518   5.647   2.769
 7070SOL    HW222110   5.569   5.548   2.649
 7071SOL     OW22111   1.650   6.578   5.444
 7071SOL    HW122112   1.718   6.566   5.516
 7071SOL    HW222113   1.595   6.660   5.464
 7072SOL     OW22114   0.065   6.934   6.561
 7072SOL    HW122115   6.996   6.951   6.603
 7072SOL    HW222116   0.092   7.013   6.505
 7073SOL     OW22117   2.043   2.544   0.042
 7073SOL    HW122118   2.067   2.630   7.016
 7073SOL    HW222119   1.952   2.515   0.013
 7074SOL     OW22120   3.992   1.493   6.400
 7074SOL    HW122121   3.979   1.487   6.499
 7074SOL    HW222122   4.015   1.403   6.363
 7075SOL     OW22123   0.520   6.229   3.379
 7075SOL    HW122124   0.549   6.177   3.460
 7075SOL    HW222125   0.433   6.192   3.346
 7076SOL     OW22126   2.667   1.298   5.909
 7076SOL    HW122127   2.649   1.254   5.997
 7076SOL    HW222128   2.707   1.388   5.924
 7077SOL     OW22129   0.889   5.690   6.455
 7077SOL    HW122130   0.914   5.642   6.539
 7077SOL    HW222131   0.800   5.657   6.424
 7078SOL     OW22132   0.370   0.546   1.384
 7078SOL    HW122133   0.348   0.456   1.346
 7078SOL    HW222134   0.368   0.615   1.312
 7079SOL     OW22135   5.378   6.519   4.063
 7079SOL    HW122136   5.434   6.536   4.143
 7079SOL    HW222137   5.432   6.472   3.993
 7080SOL     OW22138   6.285   0.375   3.590
 7080SOL    HW122139   6.207   0.324   3.627
 7080SOL    HW222140   6.305   0.344   3.498
 7081SOL     OW22141   4.354   0.955   4.482
 7081SOL    HW122142   4.282   0.922   4.421
 7081SOL    HW222143   4.333   1.048   4.511
 7082SOL     OW22144   5.908   1.058   0.397
 7082SOL    HW122145   5.951   0.971   0.418
 7082SOL    HW222146   5.889   1.064   0.299
 7083SOL     OW22147   4.348   0.310   5.055
 7083SOL    HW122148   4.263   0.360   5.074
 7083SOL    HW222149   4.426   0.363   5.088
 7084SOL     OW22150   6.332   5.644   0.261
 7084SOL    HW122151   6.241   5.685   0.254
 7084SOL    HW222152   6.354   5.598   0.175
 7085SOL     OW22153   5.183   1.667   1.014
 7085SOL    HW122154   5.273   1.705   0.992
 7085SOL    HW222155   5.190   1.568   1.024
 7086SOL     OW22156   1.481   0.692   5.805
 7086SOL    HW122157   1.512   0.612   5.858
 7086SOL    HW222158   1.498   0.775   5.858
 7087SOL     OW22159   2.413   2.652   4.446
 7087SOL    HW122160   2.492   2.662   4.506
 7087SOL    HW222161   2.352   2.730   4.458
 7088SOL     OW22162   6.718   1.372   4.403
 7088SOL    HW122163   6.709   1.471   4.414
 7088SOL    HW222164   6.785   1.353   4.330
 7089SOL     OW22165   2.657   2.020   2.122
 7089SOL    HW122166   2.664   2.119   2.136
 7089SOL    HW222167   2.749   1.981   2.113
 7090SOL     OW22168   3.373   0.833   5.076
 7090SOL    HW122169   3.433   0.884   5.138
 7090SOL    HW222170   3.344   0.748   5.120
 7091SOL     OW22171   6.811   4.975   6.755
 7091SOL    HW122172   6.905   4.941   6.743
 7091SOL    HW222173   6.794   4.993   6.852
 7092SOL     OW22174   3.761   2.224   0.885
 7092SOL    HW122175   3.765   2.258   0.791
 7092SOL    HW222176   3.700   2.282   0.939
 7093SOL     OW22177   3.886   3.622   5.948
 7093SOL    HW122178   3.949   3.604   5.873
 7093SOL    HW222179   3.797   3.649   5.911
 7094SOL     OW22180   6.330   1.259   6.443
 7094SOL    HW122181   6.283   1.319   6.507
 7094SOL    HW222182   6.262   1.214   6.384
 7095SOL     OW22183   1.235   4.368   1.475
 7095SOL    HW122184   1.140   4.374   1.446
 7095SOL    HW222185   1.273   4.279   1.449
 7096SOL     OW22186   3.428   0.034   3.298
 7096SOL    HW122187   3.416   0.117   3.244
 7096SOL    HW222188   3.400   0.051   3.392
 7097SOL     OW22189   1.966   1.622   1.446
 7097SOL    HW122190   1.971   1.624   1.546
 7097SOL    HW222191   1.893   1.684   1.415
 7098SOL     OW22192   1.537   0.483   6.740
 7098SOL    HW122193   1.635   0.476   6.759
 7098SOL    HW222194   1.486   0.447   6.818
 7099SOL     OW22195   0.146   1.355   4.162
 7099SOL    HW122196   0.121   1.293   4.236
 7099SOL    HW222197   0.064   1.381   4.111
 7100SOL     OW22198   5.783   2.332   0.762
 7100SOL    HW122199   5.719   2.382   0.704
 7100SOL    HW222200   5.844   2.277   0.704
 7101SOL     OW22201   1.621   0.639   4.890
 7101SOL    HW122202   1.623   0.736   4.866
 7101SOL    HW222203   1.567   0.589   4.822
 7102SOL     OW22204   4.451   2.601   0.021
 7102SOL    HW122205   4.426   2.598   6.944
 7102SOL    HW222206   4.374   2.568   0.076
 7103SOL     OW22207   2.214   6.842   6.387
 7103SOL    HW122208   2.245   6.921   6.332
 7103SOL    HW222209   2.128   6.808   6.350
 7104SOL     OW22210   0.385   3.774   1.554
 7104SOL    HW122211   0.323   3.696   1.564
 7104SOL    HW222212   0.471   3.742   1.514
 7105SOL     OW22213   2.160   2.355   4.774
 7105SOL    HW122214   2.148   2.278   4.836
 7105SOL    HW222215   2.074   2.406   4.767
 7106SOL     OW22216   3.063   3.035   5.277
 7106SOL    HW122217   3.013   3.084   5.349
 7106SOL    HW222218   3.020   2.947   5.261
 7107SOL     OW22219   2.229   1.880   0.080
 7107SOL    HW122220   2.255   1.968   0.041
 7107SOL    HW222221   2.304   1.845   0.136
 7108SOL     OW22222   4.225   6.702   2.558
 7108SOL    HW122223   4.239   6.731   2.652
 7108SOL    HW222224   4.152   6.634   2.554
 7109SOL     OW22225   4.842   5.766   6.906
 7109SOL    HW122226   4.794   5.746   6.992
 7109SOL    HW222227   4.776   5.789   6.835
 7110SOL     OW22228   3.786   5.448   4.340
 7110SOL    HW122229   3.751   5.415   4.428
 7110SOL    HW222230   3.838   5.374   4.296
 7111SOL     OW22231   1.293   3.165   3.127
 7111SOL    HW122232   1.268   3.262   3.127
 7111SOL    HW222233   1.319   3.137   3.219
 7112SOL     OW22234   1.988   6.125   2.677
 7112SOL    HW122235   2.031   6.207   2.639
 7112SOL    HW222236   1.890   6.127   2.657
 7113SOL     OW22237   3.752   4.019   5.980
 7113SOL    HW122238   3.769   4.091   6.048
 7113SOL    HW222239   3.685   4.052   5.914
 7114SOL     OW22240   3.730   6.689   0.711
 7114SOL    HW122241   3.672   6.750   0.657
 7114SOL    HW222242   3.825   6.701   0.684
 7115SOL     OW22243   4.000   2.315   1.726
 7115SOL    HW122244   4.077   2.360   1.770
 7115SOL    HW222245   3.932   2.383   1.699
 7116SOL     OW22246   6.404   4.254   3.852
 7116SOL    HW122247   6.424   4.225   3.758
 7116SOL    HW222248   6.319   4.210   3.883
 7117SOL     OW22249   5.453   0.344   2.537
 7117SOL    HW122250   5.401   0.346   2.623
 7117SOL    HW222251   5.550   0.336   2.557
 7118SOL     OW22252   6.747   3.534   3.689
 7118SOL    HW122253   6.817   3.563   3.623
 7118SOL    HW222254   6.791   3.486   3.765
 7119SOL     OW22255   0.750   2.197   2.208
 7119SOL    HW122256   0.761   2.186   2.110
 7119SOL    HW222257   0.694   2.123   2.245
 7120SOL     OW22258   4.574   6.668   4.357
 7120SOL    HW122259   4.588   6.669   4.258
 7120SOL    HW222260   4.572   6.762   4.391
 7121SOL     OW22261   1.471   6.452   0.904
 7121SOL    HW122262   1.478   6.358   0.870
 7121SOL    HW222263   1.442   6.513   0.831
 7122SOL     OW22264   0.119   6.125   0.127
 7122SOL    HW122265   0.037   6.172   0.160
 7122SOL    HW222266   0.102   6.026   0.126
 7123SOL     OW22267   3.092   4.549   0.765
 7123SOL    HW122268   3.074   4.462   0.810
 7123SOL    HW222269   3.184   4.580   0.786
 7124SOL     OW22270   0.256   5.073   6.707
 7124SOL    HW122271   0.270   5.106   6.800
 7124SOL    HW222272   0.233   5.150   6.647
 7125SOL     OW22273   1.397   5.707   3.179
 7125SOL    HW122274   1.494   5.683   3.179
 7125SOL    HW222275   1.373   5.750   3.266
 7126SOL     OW22276   1.471   4.483   1.161
 7126SOL    HW122277   1.500   4.408   1.102
 7126SOL    HW222278   1.390   4.526   1.123
 7127SOL     OW22279   2.411   0.351   5.050
 7127SOL    HW122280   2.421   0.450   5.058
 7127SOL    HW222281   2.485   0.305   5.100
 7128SOL     OW22282   3.145   3.883   2.601
 7128SOL    HW122283   3.077   3.872   2.529
 7128SOL    HW222284   3.189   3.973   2.593
 7129SOL     OW22285   3.584   1.774   0.440
 7129SOL    HW122286   3.535   1.755   0.525
 7129SOL    HW222287   3.661   1.836   0.459
 7130SOL     OW22288   1.649   0.674   2.894
 7130SOL    HW122289   1.590   0.727   2.832
 7130SOL    HW222290   1.678   0.732   2.970
 7131SOL     OW22291   2.801   1.171   2.986
 7131SOL    HW122292   2.812   1.243   2.919
 7131SOL    HW222293   2.809   1.209   3.078
 7132SOL     OW22294   3.112   4.067   2.215
 7132SOL    HW122295   3.086   3.971   2.222
 7132SOL    HW222296   3.077   4.117   2.294
 7133SOL     OW22297   6.175   4.088   2.230
 7133SOL    HW122298   6.250   4.150   2.252
 7133SOL    HW222299   6.108   4.136   2.174
 7134SOL     OW22300   4.534   4.665   2.516
 7134SOL    HW122301   4.584   4.725   2.452
 7134SOL    HW222302   4.544   4.570   2.488
 7135SOL     OW22303   6.860   1.702   5.785
 7135SOL    HW122304   6.907   1.642   5.850
 7135SOL    HW222305   6.870   1.797   5.814
 7136SOL     OW22306   2.257   1.988   6.498
 7136SOL    HW122307   2.338   1.944   6.459
 7136SOL    HW222308   2.272   2.086   6.504
 7137SOL     OW22309   5.550   2.131   5.263
 7137SOL    HW122310   5.555   2.034   5.288
 7137SOL    HW222311   5.523   2.140   5.167
 7138SOL     OW22312   2.492   1.826   6.465
 7138SOL    HW122313   2.549   1.775   6.400
 7138SOL    HW222314   2.428   1.764   6.509
 7139SOL     OW22315   1.968   1.297   6.989
 7139SOL    HW122316   1.969   1.246   6.903
 7139SOL    HW222317   1.977   1.232   0.046
 7140SOL     OW22318   6.539   4.694   4.400
 7140SOL    HW122319   6.559   4.622   4.333
 7140SOL    HW222320   6.470   4.756   4.363
 7141SOL     OW22321   0.917   0.861   2.069
 7141SOL    HW122322   0.870   0.774   2.088
 7141SOL    HW222323   1.015   0.844   2.058
 7142SOL     OW22324   3.442   6.696   4.168
 7142SOL    HW122325   3.374   6.628   4.141
 7142SOL    HW222326   3.404   6.753   4.241
 7143SOL     OW22327   1.836   3.107   4.012
 7143SOL    HW122328   1.796   3.018   4.028
 7143SOL    HW222329   1.866   3.114   3.917
 7144SOL     OW22330   1.788   3.486   3.428
 7144SOL    HW122331   1.834   3.572   3.403
 7144SOL    HW222332   1.833   3.446   3.508
 7145SOL     OW22333   3.387   5.660   6.845
 7145SOL    HW122334   3.340   5.595   6.905
 7145SOL    HW222335   3.385   5.751   6.887
 7146SOL     OW22336   3.792   4.944   1.455
 7146SOL    HW122337   3.866   4.950   1.522
 7146SOL    HW222338   3.704   4.952   1.501
 7147SOL     OW22339   0.719   1.388   3.436
 7147SOL    HW122340   0.705   1.322   3.509
 7147SOL    HW222341   0.770   1.467   3.471
 7148SOL     OW22342   6.621   2.084   0.686
 7148SOL    HW122343   6.525   2.111   0.694
 7148SOL    HW222344   6.679   2.154   0.728
 7149SOL     OW22345   1.043   0.720   4.555
 7149SOL    HW122346   1.096   0.772   4.488
 7149SOL    HW222347   1.048   0.766   4.644
 7150SOL     OW22348   6.609   3.008   5.725
 7150SOL    HW122349   6.571   3.068   5.796
 7150SOL    HW222350   6.646   2.925   5.768
 7151SOL     OW22351   1.422   0.155   0.420
 7151SOL    HW122352   1.366   0.101   0.357
 7151SOL    HW222353   1.507   0.106   0.440
 7152SOL     OW22354   0.704   2.340   4.388
 7152SOL    HW122355   0.645   2.375   4.461
 7152SOL    HW222356   0.662   2.360   4.299
 7153SOL     OW22357   4.478   2.066   3.215
 7153SOL    HW122358   4.382   2.072   3.190
 7153SOL    HW222359   4.523   2.154   3.198
 7154SOL     OW22360   3.353   0.100   4.473
 7154SOL    HW122361   3.385   0.068   4.562
 7154SOL    HW222362   3.427   0.149   4.427
 7155SOL     OW22363   2.516   1.497   4.151
 7155SOL    HW122364   2.546   1.448   4.069
 7155SOL    HW222365   2.514   1.433   4.228
 7156SOL     OW22366   2.320   5.477   5.467
 7156SOL    HW122367   2.238   5.479   5.410
 7156SOL    HW222368   2.384   5.548   5.436
 7157SOL     OW22369   5.837   4.177   0.740
 7157SOL    HW122370   5.758   4.200   0.796
 7157SOL    HW222371   5.806   4.137   0.654
 7158SOL     OW22372   3.849   0.256   3.300
 7158SOL    HW122373   3.777   0.217   3.357
 7158SOL    HW222374   3.850   0.355   3.311
 7159SOL     OW22375   1.486   5.940   0.253
 7159SOL    HW122376   1.544   5.888   0.191
 7159SOL    HW222377   1.443   5.877   0.318
 7160SOL     OW22378   0.347   0.299   2.432
 7160SOL    HW122379   0.313   0.212   2.469
 7160SOL    HW222380   0.328   0.372   2.497
 7161SOL     OW22381   3.072   3.659   4.968
 7161SOL    HW122382   3.089   3.609   5.053
 7161SOL    HW222383   3.038   3.751   4.989
 7162SOL     OW22384   3.535   4.948   4.095
 7162SOL    HW122385   3.445   4.927   4.056
 7162SOL    HW222386   3.524   5.012   4.172
 7163SOL     OW22387   1.029   6.620   3.908
 7163SOL    HW122388   1.077   6.570   3.836
 7163SOL    HW222389   1.095   6.668   3.966
 7164SOL     OW22390   3.636   1.289   4.266
 7164SOL    HW122391   3.562   1.336   4.314
 7164SOL    HW222392   3.680   1.224   4.328
 7165SOL     OW22393   4.369   5.046   2.145
 7165SOL    HW122394   4.269   5.047   2.141
 7165SOL    HW222395   4.400   4.955   2.173
 7166SOL     OW22396   3.323   6.806   2.600
 7166SOL    HW122397   3.371   6.765   2.522
 7166SOL    HW222398   3.370   6.782   2.685
 7167SOL     OW22399   5.845   2.615   0.412
 7167SOL    HW122400   5.899   2.587   0.491
 7167SOL    HW222401   5.896   2.681   0.358
 7168SOL     OW22402   6.443   1.114   4.473
 7168SOL    HW122403   6.397   1.151   4.393
 7168SOL    HW222404   6.487   1.189   4.524
 7169SOL     OW22405   2.544   2.720   0.170
 7169SOL    HW122406   2.554   2.635   0.118
 7169SOL    HW222407   2.457   2.764   0.147
 7170SOL     OW22408   4.863   3.823   4.597
 7170SOL    HW122409   4.867   3.815   4.697
 7170SOL    HW222410   4.873   3.733   4.556
 7171SOL     OW22411   3.516   3.722   5.101
 7171SOL    HW122412   3.528   3.773   5.186
 7171SOL    HW222413   3.513   3.785   5.024
 7172SOL     OW22414   5.677   5.775   1.446
 7172SOL    HW122415   5.742   5.723   1.391
 7172SOL    HW222416   5.679   5.741   1.540
 7173SOL     OW22417   6.418   6.691   4.563
 7173SOL    HW122418   6.386   6.783   4.540
 7173SOL    HW222419   6.469   6.653   4.485
 7174SOL     OW22420   0.907   6.364   5.941
 7174SOL    HW122421   0.854   6.370   5.856
 7174SOL    HW222422   0.852   6.399   6.017
 7175SOL     OW22423   6.027   3.446   5.814
 7175SOL    HW122424   6.069   3.535   5.796
 7175SOL    HW222425   6.030   3.390   5.731
 7176SOL     OW22426   1.375   3.392   1.235
 7176SOL    HW122427   1.372   3.418   1.332
 7176SOL    HW222428   1.405   3.298   1.227
 7177SOL     OW22429   0.326   4.975   1.357
 7177SOL    HW122430   0.226   4.971   1.352
 7177SOL    HW222431   0.357   4.922   1.436
 7178SOL     OW22432   6.447   0.560   6.669
 7178SOL    HW122433   6.440   0.655   6.641
 7178SOL    HW222434   6.357   0.516   6.661
 7179SOL     OW22435   0.799   3.781   5.845
 7179SOL    HW122436   0.847   3.791   5.932
 7179SOL    HW222437   0.745   3.697   5.845
 7180SOL     OW22438   0.045   0.440   2.060
 7180SOL    HW122439   0.127   0.491   2.089
 7180SOL    HW222440   0.018   0.471   1.969
 7181SOL     OW22441   5.217   6.382   2.247
 7181SOL    HW122442   5.314   6.391   2.272
 7181SOL    HW222443   5.172   6.321   2.312
 7182SOL     OW22444   3.654   3.750   5.896
 7182SOL    HW122445   3.559   3.749   5.863
 7182SOL    HW222446   3.681   3.845   5.914
 7183SOL     OW22447   2.361   2.809   2.773
 7183SOL    HW122448   2.360   2.821   2.674
 7183SOL    HW222449   2.381   2.714   2.796
 7184SOL     OW22450   2.580   5.519   3.165
 7184SOL    HW122451   2.621   5.551   3.079
 7184SOL    HW222452   2.652   5.487   3.226
 7185SOL     OW22453   5.550   2.135   6.249
 7185SOL    HW122454   5.614   2.186   6.191
 7185SOL    HW222455   5.476   2.195   6.277
 7186SOL     OW22456   1.168   6.618   4.590
 7186SOL    HW122457   1.250   6.615   4.647
 7186SOL    HW222458   1.149   6.527   4.554
 7187SOL     OW22459   1.607   4.802   1.247
 7187SOL    HW122460   1.625   4.820   1.344
 7187SOL    HW222461   1.517   4.759   1.238
 7188SOL     OW22462   4.385   0.160   1.843
 7188SOL    HW122463   4.431   0.108   1.772
 7188SOL    HW222464   4.321   0.225   1.801
 7189SOL     OW22465   6.092   0.965   5.840
 7189SOL    HW122466   6.012   0.922   5.797
 7189SOL    HW222467   6.070   1.059   5.865
 7190SOL     OW22468   4.892   5.029   2.199
 7190SOL    HW122469   4.977   5.023   2.146
 7190SOL    HW222470   4.828   4.959   2.166
 7191SOL     OW22471   0.868   3.718   1.599
 7191SOL    HW122472   0.784   3.713   1.544
 7191SOL    HW222473   0.947   3.720   1.538
 7192SOL     OW22474   3.516   4.387   6.205
 7192SOL    HW122475   3.591   4.396   6.139
 7192SOL    HW222476   3.476   4.296   6.198
 7193SOL     OW22477   5.841   2.075   4.718
 7193SOL    HW122478   5.899   2.129   4.779
 7193SOL    HW222479   5.806   1.995   4.768
 7194SOL     OW22480   3.462   0.663   1.450
 7194SOL    HW122481   3.405   0.604   1.508
 7194SOL    HW222482   3.453   0.758   1.481
 7195SOL     OW22483   0.611   0.195   3.382
 7195SOL    HW122484   0.707   0.168   3.377
 7195SOL    HW222485   0.576   0.212   3.290
 7196SOL     OW22486   4.041   4.049   1.417
 7196SOL    HW122487   3.958   4.094   1.382
 7196SOL    HW222488   4.089   4.005   1.341
 7197SOL     OW22489   1.923   1.043   4.038
 7197SOL    HW122490   1.842   1.099   4.023
 7197SOL    HW222491   1.946   0.995   3.953
 7198SOL     OW22492   0.007   6.797   5.598
 7198SOL    HW122493   0.036   6.702   5.610
 7198SOL    HW222494   7.007   6.814   5.502
 7199SOL     OW22495   6.238   6.050   1.579
 7199SOL    HW122496   6.268   6.097   1.662
 7199SOL    HW222497   6.173   6.108   1.530
 7200SOL     OW22498   1.195   2.044   2.350
 7200SOL    HW122499   1.278   1.988   2.343
 7200SOL    HW222500   1.140   2.012   2.427
 7201SOL     OW22501   1.363   4.857   2.991
 7201SOL    HW122502   1.399   4.764   2.991
 7201SOL    HW222503   1.267   4.856   2.963
 7202SOL     OW22504   2.142   6.826   5.207
 7202SOL    HW122505   2.046   6.831   5.178
 7202SOL    HW222506   2.199   6.806   5.127
 7203SOL     OW22507   5.535   0.692   6.740
 7203SOL    HW122508   5.527   0.595   6.720
 7203SOL    HW222509   5.528   0.707   6.839
 7204SOL     OW22510   0.940   3.387   2.675
 7204SOL    HW122511   1.036   3.411   2.659
 7204SOL    HW222512   0.935   3.299   2.722
 7205SOL     OW22513   1.327   4.110   1.392
 7205SOL    HW122514   1.366   4.049   1.322
 7205SOL    HW222515   1.273   4.056   1.456
 7206SOL     OW22516   6.766   0.660   1.733
 7206SOL    HW122517   6.771   0.560   1.727
 7206SOL    HW222518   6.704   0.694   1.662
 7207SOL     OW22519   3.703   0.038   1.408
 7207SOL    HW122520   3.727   0.003   1.498
 7207SOL    HW222521   3.647   0.120   1.418
 7208SOL     OW22522   2.678   7.003   4.958
 7208SOL    HW122523   2.742   0.040   4.904
 7208SOL    HW222524   2.589   7.004   4.914
 7209SOL     OW22525   2.521   3.565   5.431
 7209SOL    HW122526   2.536   3.595   5.525
 7209SOL    HW222527   2.522   3.644   5.370
 7210SOL     OW22528   4.172   0.812   4.268
 7210SOL    HW122529   4.086   0.778   4.306
 7210SOL    HW222530   4.154   0.885   4.203
 7211SOL     OW22531   0.528   5.560   3.005
 7211SOL    HW122532   0.576   5.473   3.007
 7211SOL    HW222533   0.450   5.554   2.944
 7212SOL     OW22534   5.554   6.121   2.776
 7212SOL    HW122535   5.628   6.176   2.738
 7212SOL    HW222536   5.490   6.096   2.702
 7213SOL     OW22537   5.384   6.285   5.471
 7213SOL    HW122538   5.465   6.343   5.472
 7213SOL    HW222539   5.394   6.215   5.399
 7214SOL     OW22540   1.494   5.140   6.095
 7214SOL    HW122541   1.399   5.144   6.064
 7214SOL    HW222542   1.554   5.126   6.016
 7215SOL     OW22543   1.395   2.815   1.304
 7215SOL    HW122544   1.442   2.733   1.273
 7215SOL    HW222545   1.296   2.804   1.290
 7216SOL     OW22546   2.416   1.636   2.700
 7216SOL    HW122547   2.323   1.658   2.730
 7216SOL    HW222548   2.443   1.698   2.626
 7217SOL     OW22549   1.188   3.737   1.935
 7217SOL    HW122550   1.216   3.707   2.026
 7217SOL    HW222551   1.111   3.799   1.943
 7218SOL     OW22552   6.393   3.088   3.645
 7218SOL    HW122553   6.412   2.993   3.624
 7218SOL    HW222554   6.426   3.146   3.570
 7219SOL     OW22555   2.179   1.296   1.633
 7219SOL    HW122556   2.202   1.247   1.717
 7219SOL    HW222557   2.258   1.350   1.604
 7220SOL     OW22558   6.918   2.173   3.362
 7220SOL    HW122559   6.894   2.102   3.295
 7220SOL    HW222560   6.868   2.257   3.341
 7221SOL     OW22561   6.737   3.820   4.635
 7221SOL    HW122562   6.692   3.908   4.650
 7221SOL    HW222563   6.754   3.775   4.723
 7222SOL     OW22564   6.537   0.272   2.764
 7222SOL    HW122565   6.467   0.203   2.782
 7222SOL    HW222566   6.584   0.251   2.679
 7223SOL     OW22567   5.135   1.063   4.273
 7223SOL    HW122568   5.055   1.073   4.332
 7223SOL    HW222569   5.150   1.148   4.222
 7224SOL     OW22570   4.813   1.038   3.499
 7224SOL    HW122571   4.775   0.962   3.552
 7224SOL    HW222572   4.890   1.004   3.444
 7225SOL     OW22573   2.907   0.238   1.452
 7225SOL    HW122574   2.916   0.216   1.355
 7225SOL    HW222575   2.818   0.204   1.485
 7226SOL     OW22576   5.494   6.727   5.227
 7226SOL    HW122577   5.438   6.810   5.221
 7226SOL    HW222578   5.585   6.751   5.261
 7227SOL     OW22579   0.593   2.677   5.576
 7227SOL    HW122580   0.620   2.588   5.613
 7227SOL    HW222581   0.642   2.750   5.624
 7228SOL     OW22582   1.727   6.940   2.849
 7228SOL    HW122583   1.823   6.912   2.862
 7228SOL    HW222584   1.719   0.019   2.865
 7229SOL     OW22585   6.407   6.917   3.662
 7229SOL    HW122586   6.466   6.960   3.730
 7229SOL    HW222587   6.451   6.920   3.573
 7230SOL     OW22588   6.209   5.203   1.337
 7230SOL    HW122589   6.236   5.144   1.412
 7230SOL    HW222590   6.114   5.184   1.312
 7231SOL     OW22591   5.656   0.943   6.642
 7231SOL    HW122592   5.755   0.941   6.627
 7231SOL    HW222593   5.632   0.875   6.712
 7232SOL     OW22594   3.196   3.768   0.552
 7232SOL    HW122595   3.168   3.840   0.489
 7232SOL    HW222596   3.138   3.688   0.540
 7233SOL     OW22597   1.184   1.918   6.482
 7233SOL    HW122598   1.205   1.823   6.457
 7233SOL    HW222599   1.206   1.978   6.406
 7234SOL     OW22600   5.286   2.587   3.944
 7234SOL    HW122601   5.290   2.686   3.933
 7234SOL    HW222602   5.373   2.554   3.982
 7235SOL     OW22603   5.578   2.693   4.745
 7235SOL    HW122604   5.541   2.603   4.722
 7235SOL    HW222605   5.564   2.756   4.669
 7236SOL     OW22606   0.931   1.662   3.181
 7236SOL    HW122607   0.978   1.751   3.175
 7236SOL    HW222608   0.997   1.589   3.163
 7237SOL     OW22609   6.214   4.833   5.470
 7237SOL    HW122610   6.155   4.783   5.407
 7237SOL    HW222611   6.166   4.914   5.504
 7238SOL     OW22612   1.427   0.067   2.513
 7238SOL    HW122613   1.360   0.118   2.460
 7238SOL    HW222614   1.379   7.017   2.568
 7239SOL     OW22615   4.684   1.686   2.063
 7239SOL    HW122616   4.689   1.623   2.141
 7239SOL    HW222617   4.768   1.677   2.008
 7240SOL     OW22618   2.935   3.315   3.547
 7240SOL    HW122619   2.907   3.328   3.452
 7240SOL    HW222620   3.032   3.292   3.551
 7241SOL     OW22621   4.751   0.017   5.110
 7241SOL    HW122622   4.726   0.031   5.206
 7241SOL    HW222623   4.792   0.100   5.074
 7242SOL     OW22624   5.890   5.564   0.694
 7242SOL    HW122625   5.901   5.617   0.610
 7242SOL    HW222626   5.954   5.598   0.763
 7243SOL     OW22627   0.460   5.999   1.309
 7243SOL    HW122628   0.423   6.060   1.238
 7243SOL    HW222629   0.525   5.935   1.267
 7244SOL     OW22630   4.811   1.906   1.809
 7244SOL    HW122631   4.839   1.851   1.887
 7244SOL    HW222632   4.722   1.948   1.828
 7245SOL     OW22633   5.505   1.879   3.432
 7245SOL    HW122634   5.480   1.958   3.376
 7245SOL    HW222635   5.495   1.795   3.379
 7246SOL     OW22636   0.857   5.959   5.635
 7246SOL    HW122637   0.944   5.939   5.591
 7246SOL    HW222638   0.828   5.880   5.689
 7247SOL     OW22639   4.072   5.571   3.801
 7247SOL    HW122640   4.045   5.593   3.707
 7247SOL    HW222641   3.994   5.585   3.862
 7248SOL     OW22642   3.310   1.072   5.477
 7248SOL    HW122643   3.352   0.986   5.507
 7248SOL    HW222644   3.236   1.096   5.540
 7249SOL     OW22645   5.188   2.850   6.336
 7249SOL    HW122646   5.111   2.876   6.394
 7249SOL    HW222647   5.205   2.752   6.345
 7250SOL     OW22648   3.147   3.097   0.239
 7250SOL    HW122649   3.180   3.136   0.326
 7250SOL    HW222650   3.176   3.155   0.163
 7251SOL     OW22651   6.315   1.083   5.731
 7251SOL    HW122652   6.251   1.035   5.791
 7251SOL    HW222653   6.277   1.172   5.707
 7252SOL     OW22654   4.601   3.683   5.393
 7252SOL    HW122655   4.617   3.629   5.311
 7252SOL    HW222656   4.571   3.623   5.468
 7253SOL     OW22657   4.964   4.989   0.218
 7253SOL    HW122658   4.893   4.986   0.288
 7253SOL    HW222659   5.031   4.916   0.234
 7254SOL     OW22660   5.196   5.978   5.572
 7254SOL    HW122661   5.175   6.075   5.578
 7254SOL    HW222662   5.142   5.936   5.499
 7255SOL     OW22663   3.596   3.528   3.648
 7255SOL    HW122664   3.619   3.600   3.714
 7255SOL    HW222665   3.677   3.506   3.593
 7256SOL     OW22666   3.605   5.849   4.154
 7256SOL    HW122667   3.633   5.784   4.084
 7256SOL    HW222668   3.511   5.830   4.182
 7257SOL     OW22669   6.237   5.176   2.038
 7257SOL    HW122670   6.273   5.268   2.024
 7257SOL    HW222671   6.152   5.181   2.091
 7258SOL     OW22672   2.666   0.954   5.955
 7258SOL    HW122673   2.618   0.965   6.042
 7258SOL    HW222674   2.696   1.044   5.923
 7259SOL     OW22675   3.583   4.059   5.769
 7259SOL    HW122676   3.514   4.131   5.759
 7259SOL    HW222677   3.557   3.980   5.713
 7260SOL     OW22678   4.463   2.347   2.667
 7260SOL    HW122679   4.435   2.338   2.572
 7260SOL    HW222680   4.512   2.433   2.680
 7261SOL     OW22681   2.599   4.757   1.291
 7261SOL    HW122682   2.572   4.754   1.194
 7261SOL    HW222683   2.638   4.847   1.311
 7262SOL     OW22684   5.747   0.272   4.674
 7262SOL    HW122685   5.662   0.289   4.623
 7262SOL    HW222686   5.780   0.358   4.714
 7263SOL     OW22687   4.624   4.534   1.229
 7263SOL    HW122688   4.723   4.517   1.231
 7263SOL    HW222689   4.590   4.543   1.323
 7264SOL     OW22690   6.696   0.134   4.602
 7264SOL    HW122691   6.652   0.185   4.676
 7264SOL    HW222692   6.655   0.161   4.514
 7265SOL     OW22693   4.496   2.951   6.396
 7265SOL    HW122694   4.460   3.004   6.319
 7265SOL    HW222695   4.562   2.884   6.364
 7266SOL     OW22696   3.840   1.072   2.847
 7266SOL    HW122697   3.763   1.038   2.793
 7266SOL    HW222698   3.835   1.034   2.939
 7267SOL     OW22699   4.689   2.256   3.945
 7267SOL    HW122700   4.782   2.292   3.934
 7267SOL    HW222701   4.661   2.209   3.861
 7268SOL     OW22702   3.752   6.661   6.678
 7268SOL    HW122703   3.737   6.632   6.583
 7268SOL    HW222704   3.787   6.755   6.679
 7269SOL     OW22705   1.332   0.233   4.144
 7269SOL    HW122706   1.280   0.265   4.064
 7269SOL    HW222707   1.299   0.281   4.226
 7270SOL     OW22708   3.729   2.711   1.455
 7270SOL    HW122709   3.664   2.779   1.487
 7270SOL    HW222710   3.761   2.656   1.532
 7271SOL     OW22711   4.740   6.252   3.974
 7271SOL    HW122712   4.790   6.338   3.987
 7271SOL    HW222713   4.799   6.175   3.995
 7272SOL     OW22714   5.396   1.627   1.648
 7272SOL    HW122715   5.298   1.616   1.669
 7272SOL    HW222716   5.451   1.585   1.720
 7273SOL     OW22717   6.108   5.072   4.414
 7273SOL    HW122718   6.118   5.170   4.429
 7273SOL    HW222719   6.188   5.025   4.448
 7274SOL     OW22720   5.702   4.828   3.819
 7274SOL    HW122721   5.683   4.916   3.775
 7274SOL    HW222722   5.633   4.761   3.793
 7275SOL     OW22723   5.823   0.254   1.968
 7275SOL    HW122724   5.858   0.338   1.927
 7275SOL    HW222725   5.758   0.277   2.040
 7276SOL     OW22726   3.978   1.648   3.149
 7276SOL    HW122727   3.914   1.719   3.180
 7276SOL    HW222728   3.980   1.573   3.216
 7277SOL     OW22729   6.303   2.469   4.042
 7277SOL    HW122730   6.393   2.447   4.078
 7277SOL    HW222731   6.310   2.548   3.981
 7278SOL     OW22732   3.890   1.370   2.960
 7278SOL    HW122733   3.933   1.430   2.892
 7278SOL    HW222734   3.841   1.296   2.914
 7279SOL     OW22735   3.528   3.445   2.004
 7279SOL    HW122736   3.544   3.369   1.941
 7279SOL    HW222737   3.443   3.430   2.054
 7280SOL     OW22738   6.303   1.358   6.083
 7280SOL    HW122739   6.284   1.284   6.147
 7280SOL    HW222740   6.361   1.324   6.009
 7281SOL     OW22741   3.592   0.067   3.686
 7281SOL    HW122742   3.609   7.000   3.733
 7281SOL    HW222743   3.505   0.061   3.635
 7282SOL     OW22744   0.751   3.665   1.173
 7282SOL    HW122745   0.764   3.732   1.245
 7282SOL    HW222746   0.752   3.573   1.212
 7283SOL     OW22747   2.958   5.984   2.730
 7283SOL    HW122748   2.934   5.897   2.771
 7283SOL    HW222749   3.005   6.041   2.797
 7284SOL     OW22750   0.418   0.868   4.084
 7284SOL    HW122751   0.485   0.794   4.080
 7284SOL    HW222752   0.328   0.829   4.105
 7285SOL     OW22753   4.551   2.220   2.400
 7285SOL    HW122754   4.499   2.227   2.315
 7285SOL    HW222755   4.637   2.270   2.390
 7286SOL     OW22756   6.421   1.292   5.020
 7286SOL    HW122757   6.449   1.381   4.985
 7286SOL    HW222758   6.502   1.236   5.038
 7287SOL     OW22759   3.200   1.411   4.601
 7287SOL    HW122760   3.122   1.459   4.561
 7287SOL    HW222761   3.171   1.320   4.630
 7288SOL     OW22762   3.041   1.656   1.263
 7288SOL    HW122763   3.091   1.687   1.344
 7288SOL    HW222764   3.061   1.559   1.247
 7289SOL     OW22765   6.892   2.476   1.017
 7289SOL    HW122766   6.904   2.562   0.968
 7289SOL    HW222767   6.795   2.460   1.035
 7290SOL     OW22768   3.232   2.042   4.962
 7290SOL    HW122769   3.223   2.140   4.985
 7290SOL    HW222770   3.240   1.990   5.047
 7291SOL     OW22771   0.916   1.086   0.205
 7291SOL    HW122772   0.957   1.169   0.244
 7291SOL    HW222773   0.941   1.007   0.262
 7292SOL     OW22774   3.217   1.270   2.299
 7292SOL    HW122775   3.212   1.184   2.249
 7292SOL    HW222776   3.266   1.256   2.385
 7293SOL     OW22777   5.985   1.214   4.162
 7293SOL    HW122778   6.024   1.122   4.160
 7293SOL    HW222779   5.896   1.214   4.118
 7294SOL     OW22780   2.000   1.331   2.449
 7294SOL    HW122781   1.952   1.244   2.438
 7294SOL    HW222782   2.068   1.341   2.377
 7295SOL     OW22783   5.182   4.394   1.449
 7295SOL    HW122784   5.145   4.485   1.431
 7295SOL    HW222785   5.282   4.396   1.438
 7296SOL     OW22786   3.162   0.270   2.917
 7296SOL    HW122787   3.066   0.296   2.911
 7296SOL    HW222788   3.210   0.305   2.836
 7297SOL     OW22789   4.832   0.548   6.705
 7297SOL    HW122790   4.927   0.517   6.695
 7297SOL    HW222791   4.773   0.496   6.643
 7298SOL     OW22792   4.139   4.228   0.554
 7298SOL    HW122793   4.053   4.268   0.585
 7298SOL    HW222794   4.125   4.186   0.464
 7299SOL     OW22795   0.416   2.702   0.016
 7299SOL    HW122796   0.462   2.717   0.103
 7299SOL    HW222797   0.437   2.777   6.972
 7300SOL     OW22798   0.460   4.053   2.563
 7300SOL    HW122799   0.543   4.107   2.577
 7300SOL    HW222800   0.418   4.078   2.476
 7301SOL     OW22801   3.960   1.696   0.440
 7301SOL    HW122802   4.059   1.701   0.458
 7301SOL    HW222803   3.942   1.728   0.348
 7302SOL     OW22804   5.847   1.582   6.643
 7302SOL    HW122805   5.884   1.625   6.725
 7302SOL    HW222806   5.922   1.553   6.584
 7303SOL     OW22807   4.001   2.699   1.092
 7303SOL    HW122808   3.966   2.611   1.122
 7303SOL    HW222809   4.089   2.717   1.136
 7304SOL     OW22810   3.003   0.204   0.694
 7304SOL    HW122811   3.009   0.142   0.616
 7304SOL    HW222812   2.931   0.272   0.677
 7305SOL     OW22813   6.760   6.831   6.287
 7305SOL    HW122814   6.836   6.884   6.247
 7305SOL    HW222815   6.728   6.763   6.222
 7306SOL     OW22816   1.818   3.526   0.856
 7306SOL    HW122817   1.811   3.488   0.764
 7306SOL    HW222818   1.886   3.474   0.909
 7307SOL     OW22819   4.416   6.811   0.960
 7307SOL    HW122820   4.383   6.814   0.865
 7307SOL    HW222821   4.338   6.814   1.022
 7308SOL     OW22822   3.530   1.910   2.838
 7308SOL    HW122823   3.573   1.861   2.763
 7308SOL    HW222824   3.527   1.852   2.919
 7309SOL     OW22825   2.325   5.533   3.256
 7309SOL    HW122826   2.318   5.625   3.294
 7309SOL    HW222827   2.411   5.524   3.205
 7310SOL     OW22828   5.276   2.971   0.288
 7310SOL    HW122829   5.190   2.981   0.238
 7310SOL    HW222830   5.331   3.054   0.277
 7311SOL     OW22831   1.276   6.673   5.371
 7311SOL    HW122832   1.320   6.651   5.459
 7311SOL    HW222833   1.225   6.594   5.339
 7312SOL     OW22834   5.502   1.477   4.702
 7312SOL    HW122835   5.538   1.480   4.609
 7312SOL    HW222836   5.463   1.566   4.725
 7313SOL     OW22837   3.332   0.854   3.078
 7313SOL    HW122838   3.429   0.830   3.068
 7313SOL    HW222839   3.324   0.944   3.121
 7314SOL     OW22840   2.778   5.671   5.058
 7314SOL    HW122841   2.686   5.690   5.093
 7314SOL    HW222842   2.789   5.573   5.045
 7315SOL     OW22843   2.665   4.944   2.166
 7315SOL    HW122844   2.615   5.002   2.231
 7315SOL    HW222845   2.742   4.901   2.211
 7316SOL     OW22846   3.033   0.820   2.635
 7316SOL    HW122847   2.981   0.738   2.660
 7316SOL    HW222848   3.120   0.821   2.684
 7317SOL     OW22849   5.447   1.364   1.153
 7317SOL    HW122850   5.352   1.392   1.162
 7317SOL    HW222851   5.464   1.331   1.060
 7318SOL     OW22852   4.877   0.054   1.654
 7318SOL    HW122853   4.858   0.115   1.577
 7318SOL    HW222854   4.971   0.021   1.649
 7319SOL     OW22855   4.585   4.968   5.982
 7319SOL    HW122856   4.514   5.028   5.945
 7319SOL    HW222857   4.647   5.022   6.039
 7320SOL     OW22858   1.867   2.973   0.667
 7320SOL    HW122859   1.823   2.981   0.756
 7320SOL    HW222860   1.885   3.064   0.630
 7321SOL     OW22861   2.344   2.490   5.303
 7321SOL    HW122862   2.321   2.426   5.230
 7321SOL    HW222863   2.347   2.583   5.267
 7322SOL     OW22864   2.767   2.014   3.833
 7322SOL    HW122865   2.778   1.990   3.737
 7322SOL    HW222866   2.837   2.081   3.859
 7323SOL     OW22867   2.034   2.083   6.866
 7323SOL    HW122868   2.067   2.166   6.911
 7323SOL    HW222869   1.978   2.108   6.787
 7324SOL     OW22870   5.923   3.961   5.323
 7324SOL    HW122871   5.974   3.877   5.304
 7324SOL    HW222872   5.854   3.944   5.393
 7325SOL     OW22873   3.423   0.776   0.043
 7325SOL    HW122874   3.509   0.740   0.081
 7325SOL    HW222875   3.375   0.703   7.013
 7326SOL     OW22876   3.794   6.892   0.290
 7326SOL    HW122877   3.695   6.904   0.297
 7326SOL    HW222878   3.836   6.980   0.268
 7327SOL     OW22879   2.060   4.732   3.317
 7327SOL    HW122880   2.032   4.817   3.363
 7327SOL    HW222881   1.979   4.684   3.284
 7328SOL     OW22882   4.170   5.912   0.046
 7328SOL    HW122883   4.265   5.943   0.057
 7328SOL    HW222884   4.149   5.844   0.115
 7329SOL     OW22885   2.794   3.914   6.406
 7329SOL    HW122886   2.856   3.851   6.452
 7329SOL    HW222887   2.700   3.889   6.426
 7330SOL     OW22888   2.613   3.511   1.700
 7330SOL    HW122889   2.534   3.485   1.756
 7330SOL    HW222890   2.595   3.485   1.605
 7331SOL     OW22891   5.277   1.749   2.842
 7331SOL    HW122892   5.362   1.704   2.813
 7331SOL    HW222893   5.294   1.848   2.851
 7332SOL     OW22894   1.647   0.215   4.759
 7332SOL    HW122895   1.741   0.238   4.785
 7332SOL    HW222896   1.586   0.240   4.834
 7333SOL     OW22897   6.342   1.510   1.317
 7333SOL    HW122898   6.292   1.451   1.380
 7333SOL    HW222899   6.293   1.596   1.306
 7334SOL     OW22900   0.614   5.077   5.233
 7334SOL    HW122901   0.589   5.090   5.137
 7334SOL    HW222902   0.536   5.101   5.291
 7335SOL     OW22903   6.770   2.502   1.428
 7335SOL    HW122904   6.791   2.589   1.474
 7335SOL    HW222905   6.747   2.520   1.333
 7336SOL     OW22906   2.322   0.213   1.110
 7336SOL    HW122907   2.309   0.139   1.044
 7336SOL    HW222908   2.298   0.180   1.202
 7337SOL     OW22909   2.711   1.595   1.652
 7337SOL    HW122910   2.679   1.518   1.596
 7337SOL    HW222911   2.632   1.644   1.689
 7338SOL     OW22912   5.385   2.178   0.064
 7338SOL    HW122913   5.309   2.164   0.128
 7338SOL    HW222914   5.381   2.272   0.029
 7339SOL     OW22915   6.719   6.574   3.405
 7339SOL    HW122916   6.691   6.592   3.500
 7339SOL    HW222917   6.816   6.593   3.395
 7340SOL     OW22918   2.847   0.082   0.202
 7340SOL    HW122919   2.783   0.078   0.279
 7340SOL    HW222920   2.797   0.108   0.119
 7341SOL     OW22921   5.671   5.251   3.063
 7341SOL    HW122922   5.735   5.320   3.029
 7341SOL    HW222923   5.645   5.273   3.157
 7342SOL     OW22924   0.062   4.900   6.761
 7342SOL    HW122925   0.046   4.841   6.682
 7342SOL    HW222926   0.140   4.960   6.742
 7343SOL     OW22927   0.347   2.227   3.495
 7343SOL    HW122928   0.419   2.203   3.430
 7343SOL    HW222929   0.268   2.167   3.482
 7344SOL     OW22930   1.344   1.432   5.649
 7344SOL    HW122931   1.368   1.520   5.689
 7344SOL    HW222932   1.319   1.446   5.553
 7345SOL     OW22933   1.820   6.583   6.707
 7345SOL    HW122934   1.774   6.604   6.621
 7345SOL    HW222935   1.774   6.506   6.752
 7346SOL     OW22936   3.144   5.585   3.088
 7346SOL    HW122937   3.140   5.488   3.112
 7346SOL    HW222938   3.221   5.628   3.135
 7347SOL     OW22939   5.884   2.852   3.547
 7347SOL    HW122940   5.976   2.888   3.563
 7347SOL    HW222941   5.817   2.924   3.562
 7348SOL     OW22942   5.384   6.960   6.731
 7348SOL    HW122943   5.345   0.017   6.783
 7348SOL    HW222944   5.342   6.957   6.640
 7349SOL     OW22945   3.891   1.947   1.217
 7349SOL    HW122946   3.883   1.929   1.315
 7349SOL    HW222947   3.984   1.977   1.196
 7350SOL     OW22948   1.802   1.619   2.173
 7350SOL    HW122949   1.781   1.525   2.144
 7350SOL    HW222950   1.840   1.670   2.096
 7351SOL     OW22951   6.089   4.978   0.233
 7351SOL    HW122952   6.053   5.062   0.274
 7351SOL    HW222953   6.162   5.001   0.168
 7352SOL     OW22954   6.713   1.694   2.935
 7352SOL    HW122955   6.800   1.647   2.946
 7352SOL    HW222956   6.681   1.684   2.841
 7353SOL     OW22957   5.463   1.738   4.170
 7353SOL    HW122958   5.526   1.696   4.104
 7353SOL    HW222959   5.493   1.832   4.188
 7354SOL     OW22960   6.017   4.446   5.475
 7354SOL    HW122961   6.115   4.425   5.470
 7354SOL    HW222962   5.964   4.363   5.462
 7355SOL     OW22963   0.159   5.464   0.474
 7355SOL    HW122964   0.075   5.439   0.521
 7355SOL    HW222965   0.180   5.395   0.404
 7356SOL     OW22966   6.952   2.149   6.654
 7356SOL    HW122967   6.852   2.148   6.661
 7356SOL    HW222968   6.984   2.059   6.625
 7357SOL     OW22969   1.167   0.924   1.478
 7357SOL    HW122970   1.243   0.866   1.448
 7357SOL    HW222971   1.111   0.875   1.545
 7358SOL     OW22972   3.858   1.386   3.786
 7358SOL    HW122973   3.940   1.407   3.733
 7358SOL    HW222974   3.783   1.362   3.724
 7359SOL     OW22975   3.266   3.755   4.092
 7359SOL    HW122976   3.330   3.812   4.040
 7359SOL    HW222977   3.177   3.800   4.097
 7360SOL     OW22978   1.925   5.020   5.808
 7360SOL    HW122979   1.834   5.020   5.850
 7360SOL    HW222980   1.949   4.927   5.782
 7361SOL     OW22981   4.363   0.260   1.487
 7361SOL    HW122982   4.421   0.178   1.492
 7361SOL    HW222983   4.422   0.341   1.483
 7362SOL     OW22984   1.275   5.023   0.415
 7362SOL    HW122985   1.219   5.040   0.496
 7362SOL    HW222986   1.218   4.991   0.340
 7363SOL     OW22987   5.225   2.500   6.210
 7363SOL    HW122988   5.294   2.571   6.197
 7363SOL    HW222989   5.257   2.435   6.278
 7364SOL     OW22990   4.737   6.525   0.030
 7364SOL    HW122991   4.687   6.506   6.965
 7364SOL    HW222992   4.835   6.509   0.015
 7365SOL     OW22993   5.614   6.902   2.004
 7365SOL    HW122994   5.628   6.824   2.065
 7365SOL    HW222995   5.702   6.937   1.973
 7366SOL     OW22996   3.102   6.742   0.485
 7366SOL    HW122997   3.193   6.781   0.497
 7366SOL    HW222998   3.085   6.674   0.557
 7367SOL     OW22999   5.125   3.059   6.081
 7367SOL    HW123000   5.068   3.105   6.148
 7367SOL    HW223001   5.151   3.124   6.009
 7368SOL     OW23002   3.289   2.901   5.229
 7368SOL    HW123003   3.349   2.938   5.300
 7368SOL    HW223004   3.196   2.934   5.243
 7369SOL     OW23005   0.283   6.434   6.311
 7369SOL    HW123006   0.267   6.422   6.408
 7369SOL    HW223007   0.200   6.408   6.260
 7370SOL     OW23008   6.665   5.558   1.262
 7370SOL    HW123009   6.671   5.658   1.261
 7370SOL    HW223010   6.722   5.521   1.189
 7371SOL     OW23011   2.393   5.074   3.342
 7371SOL    HW123012   2.348   5.013   3.277
 7371SOL    HW223013   2.490   5.081   3.319
 7372SOL     OW23014   1.876   6.747   5.317
 7372SOL    HW123015   1.814   6.825   5.321
 7372SOL    HW223016   1.833   6.668   5.362
 7373SOL     OW23017   4.066   1.548   0.763
 7373SOL    HW123018   4.122   1.599   0.830
 7373SOL    HW223019   3.997   1.609   0.725
 7374SOL     OW23020   2.409   3.864   0.793
 7374SOL    HW123021   2.384   3.947   0.842
 7374SOL    HW223022   2.424   3.790   0.858
 7375SOL     OW23023   2.197   5.600   2.210
 7375SOL    HW123024   2.266   5.627   2.276
 7375SOL    HW223025   2.236   5.532   2.147
 7376SOL     OW23026   3.162   4.738   0.379
 7376SOL    HW123027   3.180   4.827   0.421
 7376SOL    HW223028   3.078   4.700   0.416
 7377SOL     OW23029   4.721   6.204   1.387
 7377SOL    HW123030   4.705   6.202   1.288
 7377SOL    HW223031   4.638   6.175   1.434
 7378SOL     OW23032   1.070   1.289   6.182
 7378SOL    HW123033   1.004   1.226   6.223
 7378SOL    HW223034   1.074   1.373   6.237
 7379SOL     OW23035   4.609   0.926   6.951
 7379SOL    HW123036   4.570   0.957   6.864
 7379SOL    HW223037   4.597   0.997   0.000
 7380SOL     OW23038   0.339   3.291   6.302
 7380SOL    HW123039   0.412   3.353   6.330
 7380SOL    HW223040   0.273   3.282   6.377
 7381SOL     OW23041   5.572   2.927   0.726
 7381SOL    HW123042   5.509   2.876   0.785
 7381SOL    HW223043   5.587   2.877   0.641
 7382SOL     OW23044   0.675   5.770   3.874
 7382SOL    HW123045   0.679   5.689   3.933
 7382SOL    HW223046   0.748   5.766   3.806
 7383SOL     OW23047   1.486   4.945   2.008
 7383SOL    HW123048   1.480   4.846   2.022
 7383SOL    HW223049   1.489   4.964   1.910
 7384SOL     OW23050   5.796   0.959   1.686
 7384SOL    HW123051   5.894   0.948   1.673
 7384SOL    HW223052   5.747   0.917   1.609
 7385SOL     OW23053   5.247   6.891   2.184
 7385SOL    HW123054   5.191   6.849   2.255
 7385SOL    HW223055   5.213   6.984   2.165
 7386SOL     OW23056   5.914   1.711   5.212
 7386SOL    HW123057   5.879   1.800   5.241
 7386SOL    HW223058   5.844   1.662   5.160
 7387SOL     OW23059   5.239   5.604   4.553
 7387SOL    HW123060   5.248   5.542   4.476
 7387SOL    HW223061   5.274   5.694   4.528
 7388SOL     OW23062   4.924   3.828   4.157
 7388SOL    HW123063   4.998   3.764   4.134
 7388SOL    HW223064   4.895   3.876   4.074
 7389SOL     OW23065   2.290   3.756   5.897
 7389SOL    HW123066   2.314   3.793   5.807
 7389SOL    HW223067   2.358   3.687   5.923
 7390SOL     OW23068   4.246   6.002   0.749
 7390SOL    HW123069   4.256   6.011   0.849
 7390SOL    HW223070   4.185   5.926   0.729
 7391SOL     OW23071   7.016   4.814   0.680
 7391SOL    HW123072   6.972   4.796   0.768
 7391SOL    HW223073   0.095   4.824   0.693
 7392SOL     OW23074   1.267   4.610   1.571
 7392SOL    HW123075   1.261   4.669   1.491
 7392SOL    HW223076   1.256   4.515   1.544
 7393SOL     OW23077   1.644   3.875   0.529
 7393SOL    HW123078   1.605   3.960   0.493
 7393SOL    HW223079   1.730   3.856   0.482
 7394SOL     OW23080   2.957   4.238   6.864
 7394SOL    HW123081   2.897   4.161   6.843
 7394SOL    HW223082   2.959   4.301   6.785
 7395SOL     OW23083   2.592   6.985   0.698
 7395SOL    HW123084   2.520   6.953   0.636
 7395SOL    HW223085   2.681   6.951   0.667
 7396SOL     OW23086   6.777   6.891   2.301
 7396SOL    HW123087   6.849   6.840   2.253
 7396SOL    HW223088   6.698   6.831   2.315
 7397SOL     OW23089   5.708   4.044   3.915
 7397SOL    HW123090   5.700   3.997   4.003
 7397SOL    HW223091   5.641   4.118   3.911
 7398SOL     OW23092   4.071   5.400   3.003
 7398SOL    HW123093   4.021   5.400   2.917
 7398SOL    HW223094   4.037   5.326   3.061
 7399SOL     OW23095   4.851   6.507   4.012
 7399SOL    HW123096   4.917   6.522   3.938
 7399SOL    HW223097   4.900   6.503   4.099
 7400SOL     OW23098   2.616   4.703   6.607
 7400SOL    HW123099   2.629   4.632   6.676
 7400SOL    HW223100   2.522   4.738   6.613
 7401SOL     OW23101   6.535   3.065   3.872
 7401SOL    HW123102   6.632   3.051   3.851
 7401SOL    HW223103   6.488   3.100   3.791
 7402SOL     OW23104   1.702   5.950   5.290
 7402SOL    HW123105   1.749   5.880   5.343
 7402SOL    HW223106   1.749   6.038   5.301
 7403SOL     OW23107   2.027   3.090   1.579
 7403SOL    HW123108   2.005   3.148   1.658
 7403SOL    HW223109   1.942   3.065   1.531
 7404SOL     OW23110   1.258   2.907   3.051
 7404SOL    HW123111   1.250   2.993   3.102
 7404SOL    HW223112   1.340   2.859   3.078
 7405SOL     OW23113   3.600   5.612   5.976
 7405SOL    HW123114   3.686   5.662   5.965
 7405SOL    HW223115   3.530   5.654   5.919
 7406SOL     OW23116   5.794   5.742   2.752
 7406SOL    HW123117   5.776   5.746   2.850
 7406SOL    HW223118   5.737   5.808   2.705
 7407SOL     OW23119   4.217   1.682   5.995
 7407SOL    HW123120   4.294   1.641   5.946
 7407SOL    HW223121   4.251   1.755   6.054
 7408SOL     OW23122   0.660   3.409   5.147
 7408SOL    HW123123   0.602   3.421   5.228
 7408SOL    HW223124   0.604   3.411   5.065
 7409SOL     OW23125   2.089   7.018   4.306
 7409SOL    HW123126   2.012   7.012   4.242
 7409SOL    HW223127   2.087   6.940   4.368
 7410SOL     OW23128   4.146   5.408   5.822
 7410SOL    HW123129   4.097   5.360   5.895
 7410SOL    HW223130   4.175   5.343   5.752
 7411SOL     OW23131   5.651   3.299   5.364
 7411SOL    HW123132   5.592   3.276   5.441
 7411SOL    HW223133   5.596   3.341   5.292
 7412SOL     OW23134   1.189   0.874   0.105
 7412SOL    HW123135   1.110   0.812   0.110
 7412SOL    HW223136   1.251   0.854   0.181
 7413SOL     OW23137   6.623   3.842   3.071
 7413SOL    HW123138   6.525   3.828   3.058
 7413SOL    HW223139   6.638   3.917   3.136
 7414SOL     OW23140   0.215   5.378   2.363
 7414SOL    HW123141   0.216   5.295   2.308
 7414SOL    HW223142   0.239   5.456   2.306
 7415SOL     OW23143   2.895   1.482   3.476
 7415SOL    HW123144   2.936   1.447   3.560
 7415SOL    HW223145   2.849   1.407   3.428
 7416SOL     OW23146   6.471   0.606   2.152
 7416SOL    HW123147   6.427   0.690   2.121
 7416SOL    HW223148   6.457   0.533   2.084
 7417SOL     OW23149   0.055   5.469   1.709
 7417SOL    HW123150   0.134   5.524   1.736
 7417SOL    HW223151   6.991   5.521   1.726
 7418SOL     OW23152   2.060   3.447   0.987
 7418SOL    HW123153   2.121   3.526   0.980
 7418SOL    HW223154   2.112   3.363   0.969
 7419SOL     OW23155   6.118   2.047   5.378
 7419SOL    HW123156   6.117   2.141   5.343
 7419SOL    HW223157   6.178   2.042   5.457
 7420SOL     OW23158   0.719   6.657   1.926
 7420SOL    HW123159   0.710   6.751   1.959
 7420SOL    HW223160   0.722   6.594   2.005
 7421SOL     OW23161   4.931   2.000   1.160
 7421SOL    HW123162   5.002   1.938   1.193
 7421SOL    HW223163   4.901   2.059   1.235
 7422SOL     OW23164   1.661   1.640   0.291
 7422SOL    HW123165   1.658   1.541   0.301
 7422SOL    HW223166   1.594   1.682   0.352
 7423SOL     OW23167   3.044   4.140   0.721
 7423SOL    HW123168   2.982   4.204   0.677
 7423SOL    HW223169   3.136   4.179   0.723
 7424SOL     OW23170   5.274   6.325   3.583
 7424SOL    HW123171   5.212   6.279   3.520
 7424SOL    HW223172   5.317   6.403   3.537
 7425SOL     OW23173   4.053   6.835   4.862
 7425SOL    HW123174   4.060   6.904   4.790
 7425SOL    HW223175   4.126   6.849   4.929
 7426SOL     OW23176   0.122   0.134   6.362
 7426SOL    HW123177   0.141   0.198   6.287
 7426SOL    HW223178   0.023   0.134   6.380
 7427SOL     OW23179   5.333   4.836   6.375
 7427SOL    HW123180   5.337   4.753   6.320
 7427SOL    HW223181   5.251   4.834   6.433
 7428SOL     OW23182   5.642   1.831   5.115
 7428SOL    HW123183   5.681   1.745   5.148
 7428SOL    HW223184   5.545   1.819   5.096
 7429SOL     OW23185   5.626   6.397   3.002
 7429SOL    HW123186   5.644   6.319   3.063
 7429SOL    HW223187   5.552   6.374   2.940
 7430SOL     OW23188   0.387   4.333   4.366
 7430SOL    HW123189   0.339   4.409   4.322
 7430SOL    HW223190   0.478   4.362   4.394
 7431SOL     OW23191   6.959   4.060   2.975
 7431SOL    HW123192   0.032   4.024   2.977
 7431SOL    HW223193   6.899   3.998   2.924
 7432SOL     OW23194   2.057   6.268   5.966
 7432SOL    HW123195   1.983   6.213   5.928
 7432SOL    HW223196   2.137   6.209   5.982
 7433SOL     OW23197   0.843   6.627   0.898
 7433SOL    HW123198   0.823   6.533   0.869
 7433SOL    HW223199   0.911   6.626   0.971
 7434SOL     OW23200   4.354   0.019   0.512
 7434SOL    HW123201   4.362   0.017   0.412
 7434SOL    HW223202   4.423   0.081   0.549
 7435SOL     OW23203   1.166   4.101   6.898
 7435SOL    HW123204   1.126   4.141   6.816
 7435SOL    HW223205   1.174   4.002   6.887
 7436SOL     OW23206   5.128   3.696   6.371
 7436SOL    HW123207   5.208   3.751   6.395
 7436SOL    HW223208   5.107   3.709   6.274
 7437SOL     OW23209   6.485   6.688   5.688
 7437SOL    HW123210   6.583   6.691   5.710
 7437SOL    HW223211   6.436   6.641   5.761
 7438SOL     OW23212   6.627   3.768   1.004
 7438SOL    HW123213   6.528   3.757   0.991
 7438SOL    HW223214   6.661   3.694   1.062
 7439SOL     OW23215   1.726   6.396   2.478
 7439SOL    HW123216   1.714   6.311   2.529
 7439SOL    HW223217   1.713   6.379   2.380
 7440SOL     OW23218   1.391   0.603   4.755
 7440SOL    HW123219   1.402   0.636   4.661
 7440SOL    HW223220   1.390   0.503   4.755
 7441SOL     OW23221   6.886   1.145   3.368
 7441SOL    HW123222   6.905   1.235   3.406
 7441SOL    HW223223   6.827   1.094   3.431
 7442SOL     OW23224   1.882   0.734   0.152
 7442SOL    HW123225   1.857   0.830   0.137
 7442SOL    HW223226   1.813   0.675   0.109
 7443SOL     OW23227   5.867   1.383   1.328
 7443SOL    HW123228   5.779   1.410   1.289
 7443SOL    HW223229   5.871   1.409   1.424
 7444SOL     OW23230   2.037   2.776   4.668
 7444SOL    HW123231   2.055   2.824   4.754
 7444SOL    HW223232   1.960   2.714   4.680
 7445SOL     OW23233   6.338   2.550   2.554
 7445SOL    HW123234   6.428   2.552   2.599
 7445SOL    HW223235   6.286   2.632   2.579
 7446SOL     OW23236   4.573   4.379   2.511
 7446SOL    HW123237   4.648   4.318   2.486
 7446SOL    HW223238   4.564   4.382   2.610
 7447SOL     OW23239   1.852   3.132   6.089
 7447SOL    HW123240   1.928   3.187   6.123
 7447SOL    HW223241   1.773   3.191   6.072
 7448SOL     OW23242   6.940   1.122   5.489
 7448SOL    HW123243   6.957   1.178   5.407
 7448SOL    HW223244   6.960   1.026   5.468
 7449SOL     OW23245   3.243   1.327   2.978
 7449SOL    HW123246   3.256   1.249   3.040
 7449SOL    HW223247   3.204   1.404   3.030
 7450SOL     OW23248   3.804   2.139   1.747
 7450SOL    HW123249   3.898   2.174   1.757
 7450SOL    HW223250   3.741   2.200   1.793
 7451SOL     OW23251   1.051   0.792   1.684
 7451SOL    HW123252   1.120   0.776   1.754
 7451SOL    HW223253   0.960   0.776   1.723
 7452SOL     OW23254   2.014   5.482   2.928
 7452SOL    HW123255   2.012   5.432   3.015
 7452SOL    HW223256   2.007   5.580   2.946
 7453SOL     OW23257   6.312   4.338   4.451
 7453SOL    HW123258   6.312   4.430   4.492
 7453SOL    HW223259   6.298   4.346   4.353
 7454SOL     OW23260   2.880   2.101   0.210
 7454SOL    HW123261   2.920   2.082   0.300
 7454SOL    HW223262   2.798   2.157   0.221
 7455SOL     OW23263   4.922   6.953   0.429
 7455SOL    HW123264   4.997   6.948   0.362
 7455SOL    HW223265   4.949   6.904   0.512
 7456SOL     OW23266   2.048   3.174   6.392
 7456SOL    HW123267   2.039   3.271   6.371
 7456SOL    HW223268   2.034   3.159   6.490
 7457SOL     OW23269   0.487   6.720   5.387
 7457SOL    HW123270   0.454   6.775   5.310
 7457SOL    HW223271   0.570   6.762   5.424
 7458SOL     OW23272   3.095   0.473   2.029
 7458SOL    HW123273   3.099   0.389   1.975
 7458SOL    HW223274   3.060   0.547   1.971
 7459SOL     OW23275   3.882   5.229   3.630
 7459SOL    HW123276   3.893   5.246   3.728
 7459SOL    HW223277   3.907   5.311   3.579
 7460SOL     OW23278   1.322   4.722   6.285
 7460SOL    HW123279   1.326   4.675   6.374
 7460SOL    HW223280   1.406   4.705   6.235
 7461SOL     OW23281   3.383   1.796   4.128
 7461SOL    HW123282   3.357   1.760   4.039
 7461SOL    HW223283   3.367   1.895   4.130
 7462SOL     OW23284   1.548   2.655   4.033
 7462SOL    HW123285   1.507   2.585   3.974
 7462SOL    HW223286   1.599   2.611   4.107
 7463SOL     OW23287   3.797   3.582   2.483
 7463SOL    HW123288   3.868   3.511   2.483
 7463SOL    HW223289   3.840   3.671   2.471
 7464SOL     OW23290   4.294   5.438   0.713
 7464SOL    HW123291   4.381   5.487   0.713
 7464SOL    HW223292   4.258   5.433   0.806
 7465SOL     OW23293   2.965   1.210   2.509
 7465SOL    HW123294   2.918   1.124   2.490
 7465SOL    HW223295   3.038   1.195   2.575
 7466SOL     OW23296   0.363   6.305   0.789
 7466SOL    HW123297   0.264   6.295   0.787
 7466SOL    HW223298   0.388   6.401   0.781
 7467SOL     OW23299   4.259   2.407   0.736
 7467SOL    HW123300   4.281   2.432   0.831
 7467SOL    HW223301   4.168   2.367   0.732
 7468SOL     OW23302   5.188   5.119   4.567
 7468SOL    HW123303   5.194   5.109   4.666
 7468SOL    HW223304   5.094   5.105   4.538
 7469SOL     OW23305   5.100   2.315   0.864
 7469SOL    HW123306   5.172   2.268   0.915
 7469SOL    HW223307   5.011   2.277   0.888
 7470SOL     OW23308   0.806   3.656   3.149
 7470SOL    HW123309   0.860   3.576   3.121
 7470SOL    HW223310   0.868   3.733   3.167
 7471SOL     OW23311   6.736   4.102   5.939
 7471SOL    HW123312   6.794   4.059   6.007
 7471SOL    HW223313   6.792   4.160   5.879
 7472SOL     OW23314   3.780   5.897   2.860
 7472SOL    HW123315   3.762   5.905   2.958
 7472SOL    HW223316   3.787   5.801   2.835
 7473SOL     OW23317   1.835   2.031   5.887
 7473SOL    HW123318   1.928   2.014   5.853
 7473SOL    HW223319   1.811   1.961   5.954
 7474SOL     OW23320   2.355   1.270   2.048
 7474SOL    HW123321   2.392   1.341   1.987
 7474SOL    HW223322   2.401   1.276   2.137
 7475SOL     OW23323   5.505   1.059   6.348
 7475SOL    HW123324   5.512   1.155   6.321
 7475SOL    HW223325   5.428   1.047   6.412
 7476SOL     OW23326   1.730   6.547   4.685
 7476SOL    HW123327   1.763   6.589   4.600
 7476SOL    HW223328   1.733   6.614   4.759
 7477SOL     OW23329   5.028   3.959   5.046
 7477SOL    HW123330   5.033   4.054   5.077
 7477SOL    HW223331   5.027   3.897   5.124
 7478SOL     OW23332   6.900   4.132   1.234
 7478SOL    HW123333   6.960   4.059   1.201
 7478SOL    HW223334   6.807   4.097   1.240
 7479SOL     OW23335   3.802   0.066   4.591
 7479SOL    HW123336   3.852   0.113   4.519
 7479SOL    HW223337   3.713   0.036   4.556
 7480SOL     OW23338   5.756   4.958   0.001
 7480SOL    HW123339   5.663   4.927   7.001
 7480SOL    HW223340   5.774   5.042   6.970
 7481SOL     OW23341   5.594   6.824   0.343
 7481SOL    HW123342   5.674   6.809   0.402
 7481SOL    HW223343   5.568   6.920   0.347
 7482SOL     OW23344   5.031   0.418   5.245
 7482SOL    HW123345   5.041   0.366   5.330
 7482SOL    HW223346   5.013   0.514   5.267
 7483SOL     OW23347   3.887   0.044   6.383
 7483SOL    HW123348   3.790   0.070   6.377
 7483SOL    HW223349   3.934   0.106   6.446
 7484SOL     OW23350   3.117   6.187   0.433
 7484SOL    HW123351   3.095   6.090   0.418
 7484SOL    HW223352   3.190   6.194   0.501
 7485SOL     OW23353   1.344   0.212   5.370
 7485SOL    HW123354   1.329   0.300   5.413
 7485SOL    HW223355   1.259   0.180   5.328
 7486SOL     OW23356   1.791   2.262   5.058
 7486SOL    HW123357   1.716   2.326   5.076
 7486SOL    HW223358   1.872   2.289   5.111
 7487SOL     OW23359   1.923   6.602   2.221
 7487SOL    HW123360   1.974   6.582   2.138
 7487SOL    HW223361   1.985   6.598   2.300
 7488SOL     OW23362   4.509   2.172   4.714
 7488SOL    HW123363   4.548   2.262   4.695
 7488SOL    HW223364   4.416   2.183   4.749
 7489SOL     OW23365   1.286   3.535   3.274
 7489SOL    HW123366   1.190   3.514   3.289
 7489SOL    HW223367   1.338   3.514   3.357
 7490SOL     OW23368   5.346   0.643   2.504
 7490SOL    HW123369   5.364   0.544   2.505
 7490SOL    HW223370   5.250   0.660   2.525
 7491SOL     OW23371   0.997   0.157   1.153
 7491SOL    HW123372   1.074   0.096   1.134
 7491SOL    HW223373   0.916   0.124   1.104
 7492SOL     OW23374   1.433   2.191   2.701
 7492SOL    HW123375   1.346   2.212   2.659
 7492SOL    HW223376   1.507   2.234   2.649
 7493SOL     OW23377   5.891   4.228   0.058
 7493SOL    HW123378   5.917   4.267   0.147
 7493SOL    HW223379   5.794   4.202   0.060
 7494SOL     OW23380   4.804   2.245   0.786
 7494SOL    HW123381   4.752   2.191   0.852
 7494SOL    HW223382   4.798   2.342   0.811
 7495SOL     OW23383   1.244   1.716   3.229
 7495SOL    HW123384   1.235   1.815   3.227
 7495SOL    HW223385   1.206   1.681   3.315
 7496SOL     OW23386   0.149   4.918   6.071
 7496SOL    HW123387   0.232   4.867   6.094
 7496SOL    HW223388   0.172   5.014   6.054
 7497SOL     OW23389   0.479   4.423   3.039
 7497SOL    HW123390   0.574   4.408   3.067
 7497SOL    HW223391   0.443   4.340   2.997
 7498SOL     OW23392   4.958   1.517   4.241
 7498SOL    HW123393   4.883   1.467   4.199
 7498SOL    HW223394   5.023   1.546   4.171
 7499SOL     OW23395   3.236   4.906   3.748
 7499SOL    HW123396   3.226   4.994   3.702
 7499SOL    HW223397   3.298   4.915   3.826
 7500SOL     OW23398   5.076   3.999   1.719
 7500SOL    HW123399   5.115   4.043   1.800
 7500SOL    HW223400   4.993   4.047   1.691
 7501SOL     OW23401   1.135   4.359   3.807
 7501SOL    HW123402   1.066   4.321   3.869
 7501SOL    HW223403   1.184   4.284   3.763
 7502SOL     OW23404   1.145   2.043   4.977
 7502SOL    HW123405   1.179   1.952   4.952
 7502SOL    HW223406   1.204   2.113   4.936
 7503SOL     OW23407   2.358   2.235   0.827
 7503SOL    HW123408   2.407   2.303   0.772
 7503SOL    HW223409   2.270   2.215   0.783
 7504SOL     OW23410   5.416   5.105   6.056
 7504SOL    HW123411   5.456   5.014   6.051
 7504SOL    HW223412   5.423   5.140   6.149
 7505SOL     OW23413   1.509   1.874   3.054
 7505SOL    HW123414   1.436   1.935   3.086
 7505SOL    HW223415   1.472   1.782   3.041
 7506SOL     OW23416   3.794   0.573   3.190
 7506SOL    HW123417   3.873   0.540   3.139
 7506SOL    HW223418   3.824   0.640   3.258
 7507SOL     OW23419   1.809   6.326   5.035
 7507SOL    HW123420   1.869   6.404   5.017
 7507SOL    HW223421   1.744   6.350   5.108
 7508SOL     OW23422   4.929   5.726   3.229
 7508SOL    HW123423   4.889   5.646   3.184
 7508SOL    HW223424   4.935   5.801   3.164
 7509SOL     OW23425   2.481   4.412   6.503
 7509SOL    HW123426   2.420   4.339   6.473
 7509SOL    HW223427   2.513   4.464   6.424
 7510SOL     OW23428   3.719   2.942   4.167
 7510SOL    HW123429   3.716   2.852   4.125
 7510SOL    HW223430   3.631   2.963   4.209
 7511SOL     OW23431   1.420   1.350   1.935
 7511SOL    HW123432   1.380   1.282   1.873
 7511SOL    HW223433   1.347   1.393   1.989
 7512SOL     OW23434   1.676   3.341   2.641
 7512SOL    HW123435   1.629   3.313   2.724
 7512SOL    HW223436   1.652   3.278   2.566
 7513SOL     OW23437   2.388   3.132   6.855
 7513SOL    HW123438   2.350   3.095   6.940
 7513SOL    HW223439   2.368   3.229   6.850
 7514SOL     OW23440   3.178   5.296   3.075
 7514SOL    HW123441   3.169   5.314   2.977
 7514SOL    HW223442   3.194   5.198   3.090
 7515SOL     OW23443   6.564   5.468   3.412
 7515SOL    HW123444   6.631   5.520   3.359
 7515SOL    HW223445   6.498   5.530   3.453
 7516SOL     OW23446   1.709   3.281   1.078
 7516SOL    HW123447   1.719   3.357   1.015
 7516SOL    HW223448   1.644   3.215   1.041
 7517SOL     OW23449   1.302   5.501   2.478
 7517SOL    HW123450   1.291   5.587   2.430
 7517SOL    HW223451   1.400   5.482   2.490
 7518SOL     OW23452   4.910   3.601   2.217
 7518SOL    HW123453   4.895   3.569   2.123
 7518SOL    HW223454   4.833   3.659   2.245
 7519SOL     OW23455   1.799   0.473   4.657
 7519SOL    HW123456   1.827   0.464   4.753
 7519SOL    HW223457   1.785   0.570   4.636
 7520SOL     OW23458   1.852   6.974   4.161
 7520SOL    HW123459   1.827   6.891   4.112
 7520SOL    HW223460   1.822   0.034   4.108
 7521SOL     OW23461   3.966   2.647   5.925
 7521SOL    HW123462   4.018   2.592   5.990
 7521SOL    HW223463   4.026   2.677   5.851
 7522SOL     OW23464   1.857   6.880   2.105
 7522SOL    HW123465   1.840   6.788   2.141
 7522SOL    HW223466   1.793   6.900   2.032
 7523SOL     OW23467   6.552   5.845   6.102
 7523SOL    HW123468   6.512   5.923   6.149
 7523SOL    HW223469   6.556   5.863   6.004
 7524SOL     OW23470   6.377   1.999   6.200
 7524SOL    HW123471   6.476   2.005   6.184
 7524SOL    HW223472   6.339   1.924   6.146
 7525SOL     OW23473   0.410   7.002   0.397
 7525SOL    HW123474   0.497   0.007   0.355
 7525SOL    HW223475   0.340   0.048   0.369
 7526SOL     OW23476   4.013   3.210   5.352
 7526SOL    HW123477   3.945   3.273   5.314
 7526SOL    HW223478   3.985   3.116   5.335
 7527SOL     OW23479   2.318   6.369   1.512
 7527SOL    HW123480   2.266   6.368   1.427
 7527SOL    HW223481   2.342   6.276   1.539
 7528SOL     OW23482   6.073   1.939   0.318
 7528SOL    HW123483   6.167   1.965   0.342
 7528SOL    HW223484   6.012   2.016   0.335
 7529SOL     OW23485   0.902   0.158   4.184
 7529SOL    HW123486   0.893   0.256   4.203
 7529SOL    HW223487   0.977   0.120   4.240
 7530SOL     OW23488   0.204   3.317   3.002
 7530SOL    HW123489   0.301   3.334   2.987
 7530SOL    HW223490   0.153   3.403   2.995
 7531SOL     OW23491   1.692   2.469   4.200
 7531SOL    HW123492   1.677   2.375   4.167
 7531SOL    HW223493   1.702   2.468   4.299
 7532SOL     OW23494   4.567   4.340   2.239
 7532SOL    HW123495   4.507   4.313   2.315
 7532SOL    HW223496   4.541   4.288   2.157
 7533SOL     OW23497   3.761   6.993   5.092
 7533SOL    HW123498   3.757   6.893   5.101
 7533SOL    HW223499   3.826   7.017   5.020
 7534SOL     OW23500   4.303   6.628   4.191
 7534SOL    HW123501   4.286   6.691   4.267
 7534SOL    HW223502   4.374   6.666   4.132
 7535SOL     OW23503   2.997   4.288   6.577
 7535SOL    HW123504   2.925   4.347   6.541
 7535SOL    HW223505   3.085   4.335   6.570
 7536SOL     OW23506   4.543   5.208   6.695
 7536SOL    HW123507   4.603   5.270   6.644
 7536SOL    HW223508   4.596   5.130   6.728
 7537SOL     OW23509   2.118   4.496   4.756
 7537SOL    HW123510   2.132   4.509   4.658
 7537SOL    HW223511   2.084   4.581   4.796
 7538SOL     OW23512   3.471   3.953   5.278
 7538SOL    HW123513   3.558   3.956   5.229
 7538SOL    HW223514   3.412   4.026   5.246
 7539SOL     OW23515   1.608   3.199   4.258
 7539SOL    HW123516   1.707   3.197   4.245
 7539SOL    HW223517   1.587   3.219   4.354
 7540SOL     OW23518   3.040   1.000   0.129
 7540SOL    HW123519   3.135   1.029   0.116
 7540SOL    HW223520   2.979   1.072   0.098
 7541SOL     OW23521   0.515   1.943   6.103
 7541SOL    HW123522   0.469   2.032   6.093
 7541SOL    HW223523   0.603   1.946   6.055
 7542SOL     OW23524   1.759   0.453   4.396
 7542SOL    HW123525   1.714   0.371   4.361
 7542SOL    HW223526   1.764   0.448   4.496
 7543SOL     OW23527   2.474   2.573   1.962
 7543SOL    HW123528   2.533   2.559   2.041
 7543SOL    HW223529   2.501   2.511   1.888
 7544SOL     OW23530   1.047   2.498   2.439
 7544SOL    HW123531   0.995   2.569   2.486
 7544SOL    HW223532   1.030   2.504   2.341
 7545SOL     OW23533   3.728   0.509   4.190
 7545SOL    HW123534   3.712   0.410   4.195
 7545SOL    HW223535   3.808   0.532   4.245
 7546SOL     OW23536   4.944   6.843   4.559
 7546SOL    HW123537   4.928   6.938   4.530
 7546SOL    HW223538   4.863   6.807   4.603
 7547SOL     OW23539   1.748   6.620   0.643
 7547SOL    HW123540   1.762   6.719   0.641
 7547SOL    HW223541   1.689   6.593   0.566
 7548SOL     OW23542   2.699   4.055   0.900
 7548SOL    HW123543   2.740   3.968   0.876
 7548SOL    HW223544   2.618   4.040   0.957
 7549SOL     OW23545   5.847   6.938   2.282
 7549SOL    HW123546   5.904   6.914   2.360
 7549SOL    HW223547   5.752   6.912   2.300
 7550SOL     OW23548   1.072   5.524   0.625
 7550SOL    HW123549   1.162   5.481   0.623
 7550SOL    HW223550   1.005   5.464   0.582
 7551SOL     OW23551   4.756   3.688   5.833
 7551SOL    HW123552   4.739   3.737   5.748
 7551SOL    HW223553   4.807   3.604   5.813
 7552SOL     OW23554   3.598   5.697   4.655
 7552SOL    HW123555   3.507   5.732   4.632
 7552SOL    HW223556   3.661   5.718   4.581
 7553SOL     OW23557   4.076   4.189   5.591
 7553SOL    HW123558   4.011   4.195   5.515
 7553SOL    HW223559   4.093   4.281   5.627
 7554SOL     OW23560   6.590   0.874   0.817
 7554SOL    HW123561   6.653   0.828   0.880
 7554SOL    HW223562   6.558   0.960   0.858
 7555SOL     OW23563   2.600   6.824   6.650
 7555SOL    HW123564   2.546   6.799   6.730
 7555SOL    HW223565   2.599   6.749   6.584
 7556SOL     OW23566   0.238   3.957   2.994
 7556SOL    HW123567   0.224   3.982   2.899
 7556SOL    HW223568   0.289   3.871   2.999
 7557SOL     OW23569   4.768   4.213   0.777
 7557SOL    HW123570   4.721   4.233   0.690
 7557SOL    HW223571   4.700   4.193   0.847
 7558SOL     OW23572   1.483   3.685   3.583
 7558SOL    HW123573   1.562   3.714   3.637
 7558SOL    HW223574   1.454   3.594   3.612
 7559SOL     OW23575   0.722   4.954   0.179
 7559SOL    HW123576   0.763   4.978   0.267
 7559SOL    HW223577   0.794   4.947   0.110
 7560SOL     OW23578   4.479   0.169   5.941
 7560SOL    HW123579   4.504   0.153   6.037
 7560SOL    HW223580   4.423   0.093   5.908
 7561SOL     OW23581   1.613   2.903   0.573
 7561SOL    HW123582   1.597   2.918   0.475
 7561SOL    HW223583   1.711   2.890   0.588
 7562SOL     OW23584   4.349   6.162   5.220
 7562SOL    HW123585   4.407   6.128   5.146
 7562SOL    HW223586   4.340   6.261   5.213
 7563SOL     OW23587   2.499   1.475   3.470
 7563SOL    HW123588   2.537   1.534   3.540
 7563SOL    HW223589   2.495   1.381   3.504
 7564SOL     OW23590   6.355   5.750   4.080
 7564SOL    HW123591   6.315   5.842   4.086
 7564SOL    HW223592   6.408   5.742   3.996
 7565SOL     OW23593   4.720   4.911   6.674
 7565SOL    HW123594   4.803   4.885   6.724
 7565SOL    HW223595   4.743   4.928   6.578
 7566SOL     OW23596   1.444   5.731   3.680
 7566SOL    HW123597   1.532   5.685   3.669
 7566SOL    HW223598   1.446   5.788   3.762
 7567SOL     OW23599   2.617   4.102   0.088
 7567SOL    HW123600   2.654   4.192   0.112
 7567SOL    HW223601   2.680   4.056   0.026
 7568SOL     OW23602   4.167   4.758   4.292
 7568SOL    HW123603   4.248   4.715   4.333
 7568SOL    HW223604   4.099   4.776   4.363
 7569SOL     OW23605   3.557   0.248   2.736
 7569SOL    HW123606   3.615   0.232   2.656
 7569SOL    HW223607   3.473   0.195   2.728
 7570SOL     OW23608   6.381   5.383   5.071
 7570SOL    HW123609   6.344   5.377   5.163
 7570SOL    HW223610   6.354   5.303   5.018
 7571SOL     OW23611   6.753   4.342   0.570
 7571SOL    HW123612   6.850   4.349   0.596
 7571SOL    HW223613   6.709   4.273   0.628
 7572SOL     OW23614   5.879   1.195   3.806
 7572SOL    HW123615   5.943   1.123   3.833
 7572SOL    HW223616   5.835   1.232   3.888
 7573SOL     OW23617   2.863   5.046   3.779
 7573SOL    HW123618   2.811   5.127   3.753
 7573SOL    HW223619   2.892   5.054   3.875
 7574SOL     OW23620   3.997   6.022   1.407
 7574SOL    HW123621   3.910   6.057   1.441
 7574SOL    HW223622   3.991   5.923   1.394
 7575SOL     OW23623   4.959   3.511   3.929
 7575SOL    HW123624   4.930   3.468   3.843
 7575SOL    HW223625   4.895   3.584   3.954
 7576SOL     OW23626   0.306   4.495   1.838
 7576SOL    HW123627   0.356   4.459   1.917
 7576SOL    HW223628   0.274   4.419   1.782
 7577SOL     OW23629   3.739   1.493   4.116
 7577SOL    HW123630   3.696   1.413   4.156
 7577SOL    HW223631   3.700   1.576   4.157
 7578SOL     OW23632   2.099   5.219   5.716
 7578SOL    HW123633   2.049   5.134   5.731
 7578SOL    HW223634   2.192   5.198   5.686
 7579SOL     OW23635   4.462   2.421   4.521
 7579SOL    HW123636   4.534   2.366   4.479
 7579SOL    HW223637   4.375   2.373   4.515
 7580SOL     OW23638   1.801   3.581   2.554
 7580SOL    HW123639   1.768   3.603   2.462
 7580SOL    HW223640   1.772   3.489   2.579
 7581SOL     OW23641   5.805   0.953   1.197
 7581SOL    HW123642   5.712   0.978   1.227
 7581SOL    HW223643   5.863   1.034   1.201
 7582SOL     OW23644   4.044   3.359   1.629
 7582SOL    HW123645   4.084   3.287   1.685
 7582SOL    HW223646   3.955   3.330   1.594
 7583SOL     OW23647   6.203   4.074   3.631
 7583SOL    HW123648   6.174   4.010   3.702
 7583SOL    HW223649   6.301   4.092   3.640
 7584SOL     OW23650   1.962   2.849   2.043
 7584SOL    HW123651   1.878   2.891   2.076
 7584SOL    HW223652   2.040   2.909   2.063
 7585SOL     OW23653   3.035   3.997   0.479
 7585SOL    HW123654   3.041   4.023   0.575
 7585SOL    HW223655   3.039   4.079   0.422
 7586SOL     OW23656   1.445   2.768   3.171
 7586SOL    HW123657   1.480   2.678   3.197
 7586SOL    HW223658   1.402   2.812   3.250
 7587SOL     OW23659   2.980   0.584   5.378
 7587SOL    HW123660   2.905   0.625   5.326
 7587SOL    HW223661   3.045   0.541   5.315
 7588SOL     OW23662   0.278   4.474   1.532
 7588SOL    HW123663   0.284   4.505   1.437
 7588SOL    HW223664   0.186   4.489   1.566
 7589SOL     OW23665   4.387   5.468   6.185
 7589SOL    HW123666   4.321   5.508   6.121
 7589SOL    HW223667   4.341   5.446   6.271
 7590SOL     OW23668   2.349   0.796   5.044
 7590SOL    HW123669   2.432   0.811   4.990
 7590SOL    HW223670   2.351   0.704   5.083
 7591SOL     OW23671   6.823   6.005   6.254
 7591SOL    HW123672   6.738   5.987   6.304
 7591SOL    HW223673   6.802   6.021   6.158
 7592SOL     OW23674   4.638   4.789   6.396
 7592SOL    HW123675   4.649   4.721   6.469
 7592SOL    HW223676   4.556   4.767   6.342
 7593SOL     OW23677   6.719   4.791   0.044
 7593SOL    HW123678   6.788   4.737   7.015
 7593SOL    HW223679   6.741   4.889   0.035
 7594SOL     OW23680   1.106   0.424   4.838
 7594SOL    HW123681   1.105   0.512   4.885
 7594SOL    HW223682   1.059   0.356   4.894
 7595SOL     OW23683   0.098   3.887   6.621
 7595SOL    HW123684   0.120   3.790   6.630
 7595SOL    HW223685   0.047   3.917   6.702
 7596SOL     OW23686   5.545   5.297   2.375
 7596SOL    HW123687   5.454   5.293   2.416
 7596SOL    HW223688   5.565   5.390   2.346
 7597SOL     OW23689   2.148   4.630   2.974
 7597SOL    HW123690   2.187   4.715   2.939
 7597SOL    HW223691   2.142   4.563   2.900
 7598SOL     OW23692   6.656   1.466   2.508
 7598SOL    HW123693   6.716   1.500   2.435
 7598SOL    HW223694   6.680   1.511   2.594
 7599SOL     OW23695   5.442   3.891   1.838
 7599SOL    HW123696   5.453   3.797   1.805
 7599SOL    HW223697   5.446   3.954   1.760
 7600SOL     OW23698   2.102   2.746   2.407
 7600SOL    HW123699   2.035   2.728   2.479
 7600SOL    HW223700   2.090   2.679   2.333
 7601SOL     OW23701   2.224   0.742   5.383
 7601SOL    HW123702   2.140   0.702   5.419
 7601SOL    HW223703   2.277   0.781   5.459
 7602SOL     OW23704   2.047   2.812   5.146
 7602SOL    HW123705   1.979   2.792   5.217
 7602SOL    HW223706   2.036   2.748   5.070
 7603SOL     OW23707   6.050   1.254   2.250
 7603SOL    HW123708   6.072   1.351   2.259
 7603SOL    HW223709   6.091   1.219   2.165
 7604SOL     OW23710   5.878   5.540   6.587
 7604SOL    HW123711   5.906   5.509   6.678
 7604SOL    HW223712   5.868   5.639   6.587
 7605SOL     OW23713   4.896   3.196   5.441
 7605SOL    HW123714   4.928   3.103   5.424
 7605SOL    HW223715   4.894   3.213   5.540
 7606SOL     OW23716   5.746   0.971   4.035
 7606SOL    HW123717   5.716   0.877   4.055
 7606SOL    HW223718   5.671   1.034   4.052
 7607SOL     OW23719   4.895   6.217   6.233
 7607SOL    HW123720   4.951   6.299   6.218
 7607SOL    HW223721   4.942   6.137   6.194
 7608SOL     OW23722   3.741   3.280   4.753
 7608SOL    HW123723   3.681   3.321   4.684
 7608SOL    HW223724   3.695   3.200   4.793
 7609SOL     OW23725   0.992   2.875   3.035
 7609SOL    HW123726   1.092   2.886   3.032
 7609SOL    HW223727   0.960   2.839   2.948
 7610SOL     OW23728   5.622   0.355   2.193
 7610SOL    HW123729   5.580   0.273   2.152
 7610SOL    HW223730   5.645   0.336   2.288
 7611SOL     OW23731   1.432   2.045   1.901
 7611SOL    HW123732   1.478   1.960   1.876
 7611SOL    HW223733   1.499   2.118   1.910
 7612SOL     OW23734   3.297   0.920   2.648
 7612SOL    HW123735   3.326   0.925   2.552
 7612SOL    HW223736   3.369   0.879   2.703
 7613SOL     OW23737   6.745   0.673   2.029
 7613SOL    HW123738   6.735   0.684   1.930
 7613SOL    HW223739   6.657   0.687   2.073
 7614SOL     OW23740   4.231   1.102   6.970
 7614SOL    HW123741   4.295   1.178   6.981
 7614SOL    HW223742   4.187   1.109   6.880
 7615SOL     OW23743   4.417   4.781   6.214
 7615SOL    HW123744   4.380   4.870   6.187
 7615SOL    HW223745   4.403   4.715   6.141
 7616SOL     OW23746   6.976   6.345   3.495
 7616SOL    HW123747   6.926   6.371   3.413
 7616SOL    HW223748   7.007   6.251   3.487
 7617SOL     OW23749   3.985   5.251   3.285
 7617SOL    HW123750   3.968   5.172   3.344
 7617SOL    HW223751   3.971   5.335   3.337
 7618SOL     OW23752   3.339   1.517   0.186
 7618SOL    HW123753   3.329   1.614   0.205
 7618SOL    HW223754   3.413   1.504   0.120
 7619SOL     OW23755   5.749   3.647   5.598
 7619SOL    HW123756   5.788   3.582   5.533
 7619SOL    HW223757   5.725   3.599   5.683
 7620SOL     OW23758   2.743   5.614   2.055
 7620SOL    HW123759   2.691   5.699   2.060
 7620SOL    HW223760   2.838   5.634   2.034
 7621SOL     OW23761   2.754   2.896   1.415
 7621SOL    HW123762   2.820   2.966   1.444
 7621SOL    HW223763   2.783   2.807   1.449
 7622SOL     OW23764   4.939   2.000   0.727
 7622SOL    HW123765   4.860   1.948   0.759
 7622SOL    HW223766   4.914   2.097   0.722
 7623SOL     OW23767   6.847   6.854   5.195
 7623SOL    HW123768   6.757   6.894   5.183
 7623SOL    HW223769   6.888   6.887   5.280
 7624SOL     OW23770   6.878   1.180   4.866
 7624SOL    HW123771   6.789   1.183   4.821
 7624SOL    HW223772   6.876   1.234   4.950
 7625SOL     OW23773   2.325   4.495   0.487
 7625SOL    HW123774   2.314   4.403   0.527
 7625SOL    HW223775   2.387   4.548   0.544
 7626SOL     OW23776   2.535   3.828   5.333
 7626SOL    HW123777   2.570   3.885   5.407
 7626SOL    HW223778   2.485   3.885   5.267
 7627SOL     OW23779   0.071   0.224   6.725
 7627SOL    HW123780   7.011   0.208   6.666
 7627SOL    HW223781   0.154   0.224   6.670
 7628SOL     OW23782   3.947   1.407   0.239
 7628SOL    HW123783   3.900   1.395   0.326
 7628SOL    HW223784   3.995   1.323   0.214
 7629SOL     OW23785   6.380   5.427   2.342
 7629SOL    HW123786   6.428   5.427   2.254
 7629SOL    HW223787   6.312   5.500   2.344
 7630SOL     OW23788   5.833   1.845   2.427
 7630SOL    HW123789   5.777   1.769   2.460
 7630SOL    HW223790   5.787   1.889   2.350
 7631SOL     OW23791   0.897   0.373   3.949
 7631SOL    HW123792   0.810   0.348   3.991
 7631SOL    HW223793   0.942   0.292   3.912
 7632SOL     OW23794   4.984   1.132   4.891
 7632SOL    HW123795   4.988   1.062   4.962
 7632SOL    HW223796   5.073   1.176   4.883
 7633SOL     OW23797   5.615   3.304   6.313
 7633SOL    HW123798   5.557   3.223   6.311
 7633SOL    HW223799   5.571   3.378   6.261
 7634SOL     OW23800   0.856   2.263   1.741
 7634SOL    HW123801   0.954   2.278   1.740
 7634SOL    HW223802   0.824   2.244   1.648
 7635SOL     OW23803   1.942   4.699   5.988
 7635SOL    HW123804   2.027   4.680   5.937
 7635SOL    HW223805   1.940   4.644   6.071
 7636SOL     OW23806   0.844   1.652   3.447
 7636SOL    HW123807   0.851   1.651   3.347
 7636SOL    HW223808   0.763   1.702   3.475
 7637SOL     OW23809   3.158   6.402   3.852
 7637SOL    HW123810   3.226   6.405   3.925
 7637SOL    HW223811   3.124   6.495   3.834
 7638SOL     OW23812   4.721   5.202   1.799
 7638SOL    HW123813   4.730   5.136   1.724
 7638SOL    HW223814   4.662   5.277   1.771
 7639SOL     OW23815   0.850   2.082   4.444
 7639SOL    HW123816   0.781   2.010   4.440
 7639SOL    HW223817   0.806   2.171   4.454
 7640SOL     OW23818   2.381   2.964   6.393
 7640SOL    HW123819   2.366   3.035   6.461
 7640SOL    HW223820   2.303   2.901   6.392
 7641SOL     OW23821   5.956   3.050   1.315
 7641SOL    HW123822   5.919   3.026   1.225
 7641SOL    HW223823   5.887   3.033   1.385
 7642SOL     OW23824   1.013   3.523   3.318
 7642SOL    HW123825   1.013   3.511   3.418
 7642SOL    HW223826   0.943   3.465   3.277
 7643SOL     OW23827   5.433   3.726   3.483
 7643SOL    HW123828   5.488   3.720   3.566
 7643SOL    HW223829   5.491   3.711   3.403
 7644SOL     OW23830   6.523   2.748   3.988
 7644SOL    HW123831   6.482   2.793   4.068
 7644SOL    HW223832   6.451   2.730   3.921
 7645SOL     OW23833   3.937   2.841   0.579
 7645SOL    HW123834   3.974   2.854   0.487
 7645SOL    HW223835   4.006   2.799   0.638
 7646SOL     OW23836   0.598   0.587   2.268
 7646SOL    HW123837   0.525   0.551   2.209
 7646SOL    HW223838   0.582   0.557   2.362
 7647SOL     OW23839   2.381   3.977   0.083
 7647SOL    HW123840   2.466   4.029   0.079
 7647SOL    HW223841   2.367   3.929   7.016
 7648SOL     OW23842   2.245   0.736   3.692
 7648SOL    HW123843   2.242   0.781   3.603
 7648SOL    HW223844   2.257   0.637   3.679
 7649SOL     OW23845   4.167   1.900   1.186
 7649SOL    HW123846   4.151   1.835   1.260
 7649SOL    HW223847   4.248   1.956   1.207
 7650SOL     OW23848   0.366   4.437   0.889
 7650SOL    HW123849   0.395   4.385   0.808
 7650SOL    HW223850   0.269   4.422   0.904
 7651SOL     OW23851   5.719   2.015   5.795
 7651SOL    HW123852   5.641   1.956   5.812
 7651SOL    HW223853   5.697   2.080   5.723
 7652SOL     OW23854   0.864   2.848   2.278
 7652SOL    HW123855   0.804   2.771   2.259
 7652SOL    HW223856   0.933   2.856   2.206
 7653SOL     OW23857   4.870   2.517   1.806
 7653SOL    HW123858   4.931   2.443   1.833
 7653SOL    HW223859   4.923   2.600   1.788
 7654SOL     OW23860   5.796   3.940   5.047
 7654SOL    HW123861   5.885   3.975   5.075
 7654SOL    HW223862   5.770   3.983   4.960
 7655SOL     OW23863   5.119   4.357   6.306
 7655SOL    HW123864   5.086   4.429   6.367
 7655SOL    HW223865   5.067   4.359   6.221
 7656SOL     OW23866   6.895   6.999   5.444
 7656SOL    HW123867   6.904   6.961   5.536
 7656SOL    HW223868   6.808   0.028   5.436
 7657SOL     OW23869   3.738   2.135   3.410
 7657SOL    HW123870   3.657   2.142   3.352
 7657SOL    HW223871   3.819   2.157   3.356
 7658SOL     OW23872   4.355   1.079   5.445
 7658SOL    HW123873   4.352   1.095   5.347
 7658SOL    HW223874   4.325   1.162   5.493
 7659SOL     OW23875   5.045   5.906   6.252
 7659SOL    HW123876   4.977   5.865   6.314
 7659SOL    HW223877   5.130   5.854   6.257
 7660SOL     OW23878   5.665   5.496   3.721
 7660SOL    HW123879   5.719   5.580   3.727
 7660SOL    HW223880   5.727   5.417   3.717
 7661SOL     OW23881   5.845   3.314   3.556
 7661SOL    HW123882   5.837   3.400   3.607
 7661SOL    HW223883   5.939   3.282   3.560
 7662SOL     OW23884   6.244   5.347   3.354
 7662SOL    HW123885   6.217   5.277   3.420
 7662SOL    HW223886   6.204   5.435   3.381
 7663SOL     OW23887   0.932   6.770   6.868
 7663SOL    HW123888   0.878   6.783   6.785
 7663SOL    HW223889   1.021   6.732   6.844
 7664SOL     OW23890   4.814   5.014   4.903
 7664SOL    HW123891   4.760   4.973   4.829
 7664SOL    HW223892   4.901   4.966   4.911
 7665SOL     OW23893   1.929   5.726   3.847
 7665SOL    HW123894   1.904   5.822   3.831
 7665SOL    HW223895   1.850   5.668   3.826
 7666SOL     OW23896   1.934   0.004   2.569
 7666SOL    HW123897   1.945   6.992   2.475
 7666SOL    HW223898   1.855   0.066   2.575
 7667SOL     OW23899   5.489   0.228   5.593
 7667SOL    HW123900   5.415   0.263   5.536
 7667SOL    HW223901   5.541   0.159   5.542
 7668SOL     OW23902   3.122   4.035   3.113
 7668SOL    HW123903   3.077   3.963   3.166
 7668SOL    HW223904   3.155   3.996   3.027
 7669SOL     OW23905   4.299   6.528   4.637
 7669SOL    HW123906   4.206   6.549   4.607
 7669SOL    HW223907   4.350   6.486   4.562
 7670SOL     OW23908   1.398   5.647   1.469
 7670SOL    HW123909   1.447   5.587   1.532
 7670SOL    HW223910   1.434   5.635   1.376
 7671SOL     OW23911   4.927   2.729   5.082
 7671SOL    HW123912   4.990   2.652   5.089
 7671SOL    HW223913   4.835   2.696   5.064
 7672SOL     OW23914   5.138   6.979   1.663
 7672SOL    HW123915   5.207   6.923   1.618
 7672SOL    HW223916   5.173   7.011   1.751
 7673SOL     OW23917   1.808   3.765   0.344
 7673SOL    HW123918   1.875   3.693   0.327
 7673SOL    HW223919   1.824   3.840   0.279
 7674SOL     OW23920   6.468   1.794   6.455
 7674SOL    HW123921   6.423   1.855   6.390
 7674SOL    HW223922   6.459   1.699   6.424
 7675SOL     OW23923   5.465   6.859   3.274
 7675SOL    HW123924   5.523   6.778   3.267
 7675SOL    HW223925   5.520   6.937   3.303
 7676SOL     OW23926   2.429   0.337   0.586
 7676SOL    HW123927   2.354   0.301   0.642
 7676SOL    HW223928   2.414   0.434   0.571
 7677SOL     OW23929   1.623   2.268   2.494
 7677SOL    HW123930   1.678   2.349   2.478
 7677SOL    HW223931   1.580   2.239   2.408
 7678SOL     OW23932   4.835   6.789   5.866
 7678SOL    HW123933   4.751   6.801   5.918
 7678SOL    HW223934   4.869   6.878   5.836
 7679SOL     OW23935   1.762   5.057   4.556
 7679SOL    HW123936   1.781   5.101   4.643
 7679SOL    HW223937   1.847   5.018   4.519
 7680SOL     OW23938   4.439   0.419   0.970
 7680SOL    HW123939   4.487   0.416   0.882
 7680SOL    HW223940   4.369   0.348   0.973
 7681SOL     OW23941   4.345   2.352   5.470
 7681SOL    HW123942   4.311   2.401   5.551
 7681SOL    HW223943   4.434   2.311   5.491
 7682SOL     OW23944   3.462   1.157   6.690
 7682SOL    HW123945   3.561   1.161   6.701
 7682SOL    HW223946   3.429   1.066   6.714
 7683SOL     OW23947   6.664   3.552   3.057
 7683SOL    HW123948   6.592   3.535   2.990
 7683SOL    HW223949   6.654   3.644   3.094
 7684SOL     OW23950   4.123   1.912   6.423
 7684SOL    HW123951   4.024   1.923   6.424
 7684SOL    HW223952   4.155   1.888   6.515
 7685SOL     OW23953   4.565   4.485   1.518
 7685SOL    HW123954   4.645   4.462   1.574
 7685SOL    HW223955   4.484   4.439   1.556
 7686SOL     OW23956   2.035   0.639   2.062
 7686SOL    HW123957   2.094   0.599   2.132
 7686SOL    HW223958   2.066   0.732   2.042
 7687SOL     OW23959   4.897   4.322   5.296
 7687SOL    HW123960   4.918   4.377   5.215
 7687SOL    HW223961   4.849   4.239   5.268
 7688SOL     OW23962   6.747   0.663   3.920
 7688SOL    HW123963   6.714   0.757   3.915
 7688SOL    HW223964   6.799   0.642   3.837
 7689SOL     OW23965   3.358   6.964   5.125
 7689SOL    HW123966   3.287   6.897   5.105
 7689SOL    HW223967   3.429   6.960   5.055
 7690SOL     OW23968   0.961   5.470   3.155
 7690SOL    HW123969   0.966   5.569   3.162
 7690SOL    HW223970   1.051   5.433   3.131
 7691SOL     OW23971   6.705   3.917   5.529
 7691SOL    HW123972   6.779   3.886   5.588
 7691SOL    HW223973   6.619   3.916   5.581
 7692SOL     OW23974   1.158   6.015   1.358
 7692SOL    HW123975   1.234   5.964   1.399
 7692SOL    HW223976   1.087   5.951   1.328
 7693SOL     OW23977   4.166   1.297   6.751
 7693SOL    HW123978   4.201   1.258   6.665
 7693SOL    HW223979   4.227   1.371   6.780
 7694SOL     OW23980   5.931   5.448   3.932
 7694SOL    HW123981   5.860   5.507   3.894
 7694SOL    HW223982   6.021   5.483   3.906
 7695SOL     OW23983   5.131   6.445   6.590
 7695SOL    HW123984   5.194   6.486   6.524
 7695SOL    HW223985   5.087   6.366   6.549
 7696SOL     OW23986   1.514   4.233   5.384
 7696SOL    HW123987   1.432   4.233   5.441
 7696SOL    HW223988   1.544   4.139   5.368
 7697SOL     OW23989   4.334   0.539   2.540
 7697SOL    HW123990   4.284   0.545   2.627
 7697SOL    HW223991   4.324   0.447   2.503
 7698SOL     OW23992   0.191   1.974   6.424
 7698SOL    HW123993   0.112   1.921   6.394
 7698SOL    HW223994   0.275   1.933   6.386
 7699SOL     OW23995   3.337   3.280   1.164
 7699SOL    HW123996   3.387   3.347   1.109
 7699SOL    HW223997   3.398   3.203   1.185
 7700SOL     OW23998   5.428   1.023   5.483
 7700SOL    HW123999   5.403   1.098   5.422
 7700SOL    HW224000   5.458   1.060   5.571
 7701SOL     OW24001   6.800   2.345   4.939
 7701SOL    HW124002   6.734   2.393   4.882
 7701SOL    HW224003   6.866   2.297   4.880
 7702SOL     OW24004   0.933   6.053   0.073
 7702SOL    HW124005   0.997   6.065   7.017
 7702SOL    HW224006   0.888   6.140   0.092
 7703SOL     OW24007   1.158   2.462   0.211
 7703SOL    HW124008   1.141   2.379   0.264
 7703SOL    HW224009   1.250   2.460   0.174
 7704SOL     OW24010   3.827   3.849   1.070
 7704SOL    HW124011   3.817   3.770   1.010
 7704SOL    HW224012   3.871   3.821   1.155
 7705SOL     OW24013   4.015   3.221   4.693
 7705SOL    HW124014   4.081   3.287   4.729
 7705SOL    HW224015   3.922   3.251   4.715
 7706SOL     OW24016   5.595   1.291   5.557
 7706SOL    HW124017   5.682   1.322   5.519
 7706SOL    HW224018   5.521   1.318   5.495
 7707SOL     OW24019   0.400   4.839   6.139
 7707SOL    HW124020   0.445   4.865   6.053
 7707SOL    HW224021   0.468   4.806   6.204
 7708SOL     OW24022   5.114   1.600   5.623
 7708SOL    HW124023   5.055   1.519   5.622
 7708SOL    HW224024   5.115   1.639   5.714
 7709SOL     OW24025   4.230   2.898   1.677
 7709SOL    HW124026   4.259   2.843   1.598
 7709SOL    HW224027   4.154   2.853   1.722
 7710SOL     OW24028   3.265   1.338   6.159
 7710SOL    HW124029   3.233   1.319   6.252
 7710SOL    HW224030   3.186   1.351   6.099
 7711SOL     OW24031   5.167   6.672   4.566
 7711SOL    HW124032   5.096   6.742   4.570
 7711SOL    HW224033   5.144   6.604   4.496
 7712SOL     OW24034   6.128   4.485   6.335
 7712SOL    HW124035   6.137   4.574   6.291
 7712SOL    HW224036   6.174   4.415   6.280
 7713SOL     OW24037   0.808   4.725   6.594
 7713SOL    HW124038   0.761   4.711   6.507
 7713SOL    HW224039   0.814   4.823   6.613
 7714SOL     OW24040   6.343   4.964   5.172
 7714SOL    HW124041   6.413   4.925   5.231
 7714SOL    HW224042   6.311   5.051   5.210
 7715SOL     OW24043   3.615   1.947   1.613
 7715SOL    HW124044   3.573   1.927   1.701
 7715SOL    HW224045   3.690   2.012   1.626
 7716SOL     OW24046   3.886   2.186   4.492
 7716SOL    HW124047   3.790   2.213   4.496
 7716SOL    HW224048   3.910   2.159   4.399
 7717SOL     OW24049   2.962   6.419   0.452
 7717SOL    HW124050   3.006   6.329   0.444
 7717SOL    HW224051   2.982   6.473   0.370
 7718SOL     OW24052   1.407   6.452   3.188
 7718SOL    HW124053   1.334   6.383   3.183
 7718SOL    HW224054   1.491   6.410   3.222
 7719SOL     OW24055   5.486   2.661   5.393
 7719SOL    HW124056   5.411   2.686   5.333
 7719SOL    HW224057   5.451   2.610   5.471
 7720SOL     OW24058   4.723   6.672   1.344
 7720SOL    HW124059   4.821   6.661   1.359
 7720SOL    HW224060   4.691   6.755   1.390
 7721SOL     OW24061   0.336   4.974   3.691
 7721SOL    HW124062   0.358   5.033   3.613
 7721SOL    HW224063   0.414   4.970   3.753
 7722SOL     OW24064   0.413   5.922   3.310
 7722SOL    HW124065   0.363   5.837   3.325
 7722SOL    HW224066   0.348   5.998   3.305
 7723SOL     OW24067   0.079   2.407   6.114
 7723SOL    HW124068   0.176   2.428   6.125
 7723SOL    HW224069   0.047   2.357   6.194
 7724SOL     OW24070   2.538   6.002   6.848
 7724SOL    HW124071   2.505   6.096   6.839
 7724SOL    HW224072   2.466   5.939   6.821
 7725SOL     OW24073   5.098   4.467   3.650
 7725SOL    HW124074   5.018   4.519   3.680
 7725SOL    HW224075   5.090   4.447   3.552
 7726SOL     OW24076   5.140   5.976   3.781
 7726SOL    HW124077   5.053   6.025   3.785
 7726SOL    HW224078   5.161   5.956   3.685
 7727SOL     OW24079   5.835   3.645   2.263
 7727SOL    HW124080   5.867   3.735   2.233
 7727SOL    HW224081   5.827   3.585   2.183
 7728SOL     OW24082   2.128   3.525   2.714
 7728SOL    HW124083   2.054   3.459   2.731
 7728SOL    HW224084   2.177   3.498   2.631
 7729SOL     OW24085   5.607   1.559   5.934
 7729SOL    HW124086   5.674   1.545   5.862
 7729SOL    HW224087   5.597   1.475   5.988
 7730SOL     OW24088   4.176   6.055   3.260
 7730SOL    HW124089   4.272   6.073   3.240
 7730SOL    HW224090   4.161   5.956   3.267
 7731SOL     OW24091   5.962   1.613   3.887
 7731SOL    HW124092   6.031   1.685   3.890
 7731SOL    HW224093   5.873   1.652   3.911
 7732SOL     OW24094   4.017   4.582   0.905
 7732SOL    HW124095   4.011   4.647   0.981
 7732SOL    HW224096   3.936   4.591   0.847
 7733SOL     OW24097   3.769   5.283   1.819
 7733SOL    HW124098   3.864   5.310   1.809
 7733SOL    HW224099   3.722   5.293   1.731
 7734SOL     OW24100   1.213   3.208   2.264
 7734SOL    HW124101   1.303   3.201   2.220
 7734SOL    HW224102   1.206   3.141   2.337
 7735SOL     OW24103   5.762   4.007   0.530
 7735SOL    HW124104   5.846   4.021   0.477
 7735SOL    HW224105   5.687   3.986   0.468
 7736SOL     OW24106   5.694   4.112   6.592
 7736SOL    HW124107   5.647   4.174   6.655
 7736SOL    HW224108   5.631   4.083   6.520
 7737SOL     OW24109   5.301   2.732   0.062
 7737SOL    HW124110   5.347   2.684   0.136
 7737SOL    HW224111   5.224   2.784   0.099
 7738SOL     OW24112   1.927   4.970   6.632
 7738SOL    HW124113   1.965   4.935   6.717
 7738SOL    HW224114   1.848   5.027   6.651
 7739SOL     OW24115   6.019   4.552   2.335
 7739SOL    HW124116   6.058   4.488   2.269
 7739SOL    HW224117   6.093   4.607   2.375
 7740SOL     OW24118   6.671   6.138   3.172
 7740SOL    HW124119   6.579   6.155   3.137
 7740SOL    HW224120   6.738   6.187   3.117
 7741SOL     OW24121   2.523   5.181   3.611
 7741SOL    HW124122   2.507   5.096   3.662
 7741SOL    HW224123   2.582   5.242   3.665
 7742SOL     OW24124   0.185   0.857   4.682
 7742SOL    HW124125   0.147   0.794   4.750
 7742SOL    HW224126   0.171   0.952   4.712
 7743SOL     OW24127   4.893   3.259   1.924
 7743SOL    HW124128   4.834   3.193   1.971
 7743SOL    HW224129   4.868   3.263   1.827
 7744SOL     OW24130   0.176   6.437   3.976
 7744SOL    HW124131   0.101   6.372   3.963
 7744SOL    HW224132   0.246   6.422   3.906
 7745SOL     OW24133   6.344   2.819   5.259
 7745SOL    HW124134   6.378   2.851   5.347
 7745SOL    HW224135   6.273   2.882   5.227
 7746SOL     OW24136   2.041   0.624   6.282
 7746SOL    HW124137   2.040   0.539   6.229
 7746SOL    HW224138   2.047   0.603   6.380
 7747SOL     OW24139   5.023   4.977   1.112
 7747SOL    HW124140   4.951   4.954   1.178
 7747SOL    HW224141   5.022   4.910   1.038
 7748SOL     OW24142   1.506   3.660   6.635
 7748SOL    HW124143   1.425   3.643   6.578
 7748SOL    HW224144   1.541   3.574   6.670
 7749SOL     OW24145   6.116   3.137   6.014
 7749SOL    HW124146   6.198   3.193   6.006
 7749SOL    HW224147   6.044   3.189   6.061
 7750SOL     OW24148   3.718   5.645   3.039
 7750SOL    HW124149   3.623   5.677   3.034
 7750SOL    HW224150   3.723   5.562   3.093
 7751SOL     OW24151   1.339   2.318   1.336
 7751SOL    HW124152   1.380   2.381   1.402
 7751SOL    HW224153   1.402   2.242   1.320
 7752SOL     OW24154   2.805   0.978   2.481
 7752SOL    HW124155   2.709   0.949   2.484
 7752SOL    HW224156   2.856   0.931   2.554
 7753SOL     OW24157   4.559   0.501   5.128
 7753SOL    HW124158   4.573   0.547   5.216
 7753SOL    HW224159   4.593   0.559   5.054
 7754SOL     OW24160   4.703   6.472   1.145
 7754SOL    HW124161   4.694   6.549   1.207
 7754SOL    HW224162   4.682   6.501   1.052
 7755SOL     OW24163   1.575   3.062   6.043
 7755SOL    HW124164   1.576   2.968   6.009
 7755SOL    HW224165   1.516   3.067   6.125
 7756SOL     OW24166   1.664   4.205   2.308
 7756SOL    HW124167   1.695   4.114   2.282
 7756SOL    HW224168   1.717   4.274   2.258
 7757SOL     OW24169   1.021   4.466   0.287
 7757SOL    HW124170   0.997   4.510   0.201
 7757SOL    HW224171   1.112   4.425   0.279
 7758SOL     OW24172   6.646   1.130   5.048
 7758SOL    HW124173   6.712   1.205   5.055
 7758SOL    HW224174   6.640   1.082   5.136
 7759SOL     OW24175   3.158   1.163   2.722
 7759SOL    HW124176   3.170   1.197   2.816
 7759SOL    HW224177   3.184   1.067   2.718
 7760SOL     OW24178   5.387   2.764   0.867
 7760SOL    HW124179   5.380   2.688   0.802
 7760SOL    HW224180   5.302   2.817   0.865
 7761SOL     OW24181   4.832   5.656   2.746
 7761SOL    HW124182   4.782   5.601   2.680
 7761SOL    HW224183   4.826   5.613   2.836
 7762SOL     OW24184   4.614   1.158   0.071
 7762SOL    HW124185   4.629   1.179   0.168
 7762SOL    HW224186   4.522   1.187   0.045
 7763SOL     OW24187   1.777   0.823   3.099
 7763SOL    HW124188   1.817   0.915   3.099
 7763SOL    HW224189   1.720   0.812   3.181
 7764SOL     OW24190   3.910   4.588   5.362
 7764SOL    HW124191   4.008   4.582   5.384
 7764SOL    HW224192   3.896   4.651   5.286
 7765SOL     OW24193   6.307   4.117   4.184
 7765SOL    HW124194   6.362   4.037   4.209
 7765SOL    HW224195   6.243   4.092   4.112
 7766SOL     OW24196   6.981   2.731   5.752
 7766SOL    HW124197   0.015   2.758   5.672
 7766SOL    HW224198   0.005   2.764   5.835
 7767SOL     OW24199   4.050   0.667   3.087
 7767SOL    HW124200   4.052   0.567   3.077
 7767SOL    HW224201   4.144   0.701   3.094
 7768SOL     OW24202   3.075   6.085   4.100
 7768SOL    HW124203   3.171   6.082   4.075
 7768SOL    HW224204   3.019   6.056   4.022
 7769SOL     OW24205   3.797   1.838   6.093
 7769SOL    HW124206   3.725   1.845   6.162
 7769SOL    HW224207   3.869   1.777   6.126
 7770SOL     OW24208   1.445   3.163   3.370
 7770SOL    HW124209   1.454   3.257   3.403
 7770SOL    HW224210   1.535   3.128   3.343
 7771SOL     OW24211   1.196   3.408   5.273
 7771SOL    HW124212   1.209   3.373   5.180
 7771SOL    HW224213   1.190   3.508   5.270
 7772SOL     OW24214   4.918   6.389   1.953
 7772SOL    HW124215   4.925   6.333   2.035
 7772SOL    HW224216   4.960   6.341   1.876
 7773SOL     OW24217   2.835   6.667   6.020
 7773SOL    HW124218   2.782   6.747   5.990
 7773SOL    HW224219   2.929   6.696   6.041
 7774SOL     OW24220   4.924   0.882   2.933
 7774SOL    HW124221   5.017   0.850   2.918
 7774SOL    HW224222   4.904   0.886   3.031
 7775SOL     OW24223   4.141   2.247   1.214
 7775SOL    HW124224   4.058   2.294   1.185
 7775SOL    HW224225   4.139   2.233   1.313
 7776SOL     OW24226   2.493   1.713   3.685
 7776SOL    HW124227   2.414   1.670   3.728
 7776SOL    HW224228   2.494   1.811   3.709
 7777SOL     OW24229   4.858   4.735   2.997
 7777SOL    HW124230   4.920   4.812   3.014
 7777SOL    HW224231   4.912   4.655   2.969
 7778SOL     OW24232   0.749   3.091   1.723
 7778SOL    HW124233   0.758   3.052   1.631
 7778SOL    HW224234   0.840   3.108   1.761
 7779SOL     OW24235   2.510   1.203   3.993
 7779SOL    HW124236   2.495   1.276   3.927
 7779SOL    HW224237   2.426   1.186   4.044
 7780SOL     OW24238   6.346   6.088   3.829
 7780SOL    HW124239   6.290   6.022   3.779
 7780SOL    HW224240   6.289   6.139   3.893
 7781SOL     OW24241   3.347   3.082   1.596
 7781SOL    HW124242   3.252   3.083   1.629
 7781SOL    HW224243   3.363   3.162   1.539
 7782SOL     OW24244   5.051   5.130   3.516
 7782SOL    HW124245   5.064   5.162   3.422
 7782SOL    HW224246   5.013   5.204   3.571
 7783SOL     OW24247   0.332   6.998   3.922
 7783SOL    HW124248   0.357   6.922   3.862
 7783SOL    HW224249   0.321   6.965   4.015
 7784SOL     OW24250   0.742   3.308   2.479
 7784SOL    HW124251   0.821   3.333   2.535
 7784SOL    HW224252   0.743   3.209   2.462
 7785SOL     OW24253   6.311   0.058   2.484
 7785SOL    HW124254   6.373   0.015   2.419
 7785SOL    HW224255   6.334   0.155   2.494
 7786SOL     OW24256   5.344   0.600   6.403
 7786SOL    HW124257   5.381   0.524   6.349
 7786SOL    HW224258   5.413   0.671   6.412
 7787SOL     OW24259   0.944   2.068   0.863
 7787SOL    HW124260   0.968   1.980   0.821
 7787SOL    HW224261   1.027   2.111   0.900
 7788SOL     OW24262   0.949   4.604   2.518
 7788SOL    HW124263   0.967   4.524   2.461
 7788SOL    HW224264   0.947   4.577   2.614
 7789SOL     OW24265   3.778   0.109   6.837
 7789SOL    HW124266   3.726   0.145   6.760
 7789SOL    HW224267   3.824   0.024   6.809
 7790SOL     OW24268   4.096   4.898   4.960
 7790SOL    HW124269   4.173   4.857   4.910
 7790SOL    HW224270   4.132   4.956   5.033
 7791SOL     OW24271   1.875   6.612   1.429
 7791SOL    HW124272   1.946   6.659   1.376
 7791SOL    HW224273   1.811   6.567   1.366
 7792SOL     OW24274   1.151   1.870   1.787
 7792SOL    HW124275   1.225   1.881   1.854
 7792SOL    HW224276   1.137   1.772   1.770
 7793SOL     OW24277   5.269   1.301   0.746
 7793SOL    HW124278   5.261   1.231   0.675
 7793SOL    HW224279   5.214   1.276   0.825
 7794SOL     OW24280   0.950   1.372   2.999
 7794SOL    HW124281   0.985   1.442   2.936
 7794SOL    HW224282   0.983   1.391   3.091
 7795SOL     OW24283   4.914   3.687   0.801
 7795SOL    HW124284   4.924   3.649   0.893
 7795SOL    HW224285   4.937   3.785   0.803
 7796SOL     OW24286   4.115   1.193   0.237
 7796SOL    HW124287   4.103   1.135   0.157
 7796SOL    HW224288   4.180   1.151   0.299
 7797SOL     OW24289   1.672   6.135   2.688
 7797SOL    HW124290   1.674   6.035   2.685
 7797SOL    HW224291   1.597   6.165   2.747
 7798SOL     OW24292   2.231   3.198   0.987
 7798SOL    HW124293   2.277   3.177   1.073
 7798SOL    HW224294   2.152   3.137   0.976
 7799SOL     OW24295   1.927   5.858   4.532
 7799SOL    HW124296   1.925   5.763   4.561
 7799SOL    HW224297   2.022   5.886   4.520
 7800SOL     OW24298   0.576   0.908   1.697
 7800SOL    HW124299   0.484   0.883   1.726
 7800SOL    HW224300   0.577   1.002   1.663
 7801SOL     OW24301   2.940   2.302   1.230
 7801SOL    HW124302   2.936   2.252   1.316
 7801SOL    HW224303   3.035   2.320   1.205
 7802SOL     OW24304   6.766   4.752   4.094
 7802SOL    HW124305   6.856   4.790   4.074
 7802SOL    HW224306   6.763   4.657   4.062
 7803SOL     OW24307   3.170   2.395   6.329
 7803SOL    HW124308   3.219   2.460   6.388
 7803SOL    HW224309   3.236   2.342   6.275
 7804SOL     OW24310   2.969   1.672   5.653
 7804SOL    HW124311   2.899   1.602   5.668
 7804SOL    HW224312   2.949   1.720   5.567
 7805SOL     OW24313   0.230   2.037   6.806
 7805SOL    HW124314   0.229   2.094   6.724
 7805SOL    HW224315   0.197   1.945   6.784
 7806SOL     OW24316   6.430   2.697   4.883
 7806SOL    HW124317   6.337   2.716   4.852
 7806SOL    HW224318   6.428   2.623   4.951
 7807SOL     OW24319   2.476   6.258   5.466
 7807SOL    HW124320   2.466   6.356   5.447
 7807SOL    HW224321   2.551   6.244   5.530
 7808SOL     OW24322   0.352   2.960   4.595
 7808SOL    HW124323   0.443   2.918   4.597
 7808SOL    HW224324   0.358   3.052   4.558
 7809SOL     OW24325   3.111   0.653   3.294
 7809SOL    HW124326   3.166   0.616   3.219
 7809SOL    HW224327   3.098   0.752   3.280
 7810SOL     OW24328   2.503   6.865   5.806
 7810SOL    HW124329   2.406   6.890   5.798
 7810SOL    HW224330   2.510   6.777   5.852
 7811SOL     OW24331   1.237   5.457   3.248
 7811SOL    HW124332   1.304   5.385   3.226
 7811SOL    HW224333   1.267   5.543   3.206
 7812SOL     OW24334   2.886   0.051   5.824
 7812SOL    HW124335   2.901   0.148   5.846
 7812SOL    HW224336   2.946   0.026   5.747
 7813SOL     OW24337   5.683   0.835   0.623
 7813SOL    HW124338   5.676   0.869   0.529
 7813SOL    HW224339   5.616   0.762   0.637
 7814SOL     OW24340   6.689   1.587   1.601
 7814SOL    HW124341   6.651   1.582   1.509
 7814SOL    HW224342   6.620   1.561   1.668
 7815SOL     OW24343   4.686   5.927   3.739
 7815SOL    HW124344   4.605   5.939   3.681
 7815SOL    HW224345   4.738   5.848   3.707
 7816SOL     OW24346   1.225   1.274   5.161
 7816SOL    HW124347   1.177   1.199   5.205
 7816SOL    HW224348   1.188   1.288   5.069
 7817SOL     OW24349   4.738   0.880   5.184
 7817SOL    HW124350   4.672   0.830   5.241
 7817SOL    HW224351   4.697   0.966   5.153
 7818SOL     OW24352   4.024   0.390   3.085
 7818SOL    HW124353   4.047   0.331   3.008
 7818SOL    HW224354   4.020   0.336   3.169
 7819SOL     OW24355   2.451   2.574   4.167
 7819SOL    HW124356   2.520   2.508   4.137
 7819SOL    HW224357   2.461   2.590   4.265
 7820SOL     OW24358   2.062   0.590   6.540
 7820SOL    HW124359   1.986   0.533   6.570
 7820SOL    HW224360   2.071   0.669   6.600
 7821SOL     OW24361   2.877   5.879   6.196
 7821SOL    HW124362   2.796   5.880   6.136
 7821SOL    HW224363   2.871   5.801   6.258
 7822SOL     OW24364   0.864   1.447   4.449
 7822SOL    HW124365   0.889   1.543   4.441
 7822SOL    HW224366   0.806   1.420   4.372
 7823SOL     OW24367   1.953   2.504   5.225
 7823SOL    HW124368   1.919   2.592   5.256
 7823SOL    HW224369   1.964   2.443   5.303
 7824SOL     OW24370   6.313   4.081   2.931
 7824SOL    HW124371   6.261   4.011   2.883
 7824SOL    HW224372   6.340   4.153   2.867
 7825SOL     OW24373   2.910   3.558   3.845
 7825SOL    HW124374   2.944   3.465   3.830
 7825SOL    HW224375   2.900   3.605   3.757
 7826SOL     OW24376   6.138   6.503   1.051
 7826SOL    HW124377   6.044   6.484   1.077
 7826SOL    HW224378   6.198   6.429   1.084
 7827SOL     OW24379   5.464   3.547   0.428
 7827SOL    HW124380   5.417   3.611   0.368
 7827SOL    HW224381   5.516   3.597   0.497
 7828SOL     OW24382   0.944   5.640   0.214
 7828SOL    HW124383   0.877   5.706   0.181
 7828SOL    HW224384   0.935   5.630   0.313
 7829SOL     OW24385   2.975   3.859   2.902
 7829SOL    HW124386   2.917   3.934   2.934
 7829SOL    HW224387   3.053   3.897   2.852
 7830SOL     OW24388   6.961   4.732   6.587
 7830SOL    HW124389   6.959   4.634   6.566
 7830SOL    HW224390   6.924   4.783   6.509
 7831SOL     OW24391   3.239   3.763   0.118
 7831SOL    HW124392   3.267   3.856   0.141
 7831SOL    HW224393   3.318   3.702   0.123
 7832SOL     OW24394   3.987   2.751   6.238
 7832SOL    HW124395   4.080   2.718   6.252
 7832SOL    HW224396   3.925   2.701   6.299
 7833SOL     OW24397   6.372   6.806   2.040
 7833SOL    HW124398   6.322   6.892   2.054
 7833SOL    HW224399   6.400   6.769   2.129
 7834SOL     OW24400   4.950   1.230   1.451
 7834SOL    HW124401   4.901   1.288   1.516
 7834SOL    HW224402   4.889   1.203   1.377
 7835SOL     OW24403   1.900   2.157   3.880
 7835SOL    HW124404   1.872   2.251   3.866
 7835SOL    HW224405   1.866   2.100   3.805
 7836SOL     OW24406   2.456   0.034   6.573
 7836SOL    HW124407   2.398   0.066   6.648
 7836SOL    HW224408   2.514   6.979   6.604
 7837SOL     OW24409   4.871   6.693   2.209
 7837SOL    HW124410   4.789   6.717   2.157
 7837SOL    HW224411   4.951   6.696   2.149
 7838SOL     OW24412   3.322   5.126   4.460
 7838SOL    HW124413   3.321   5.131   4.560
 7838SOL    HW224414   3.228   5.119   4.427
 7839SOL     OW24415   0.039   5.410   3.057
 7839SOL    HW124416   6.994   5.476   3.017
 7839SOL    HW224417   7.010   5.325   3.078
 7840SOL     OW24418   4.073   2.990   6.085
 7840SOL    HW124419   4.042   2.900   6.117
 7840SOL    HW224420   4.020   3.062   6.131
 7841SOL     OW24421   1.152   1.693   5.742
 7841SOL    HW124422   1.247   1.714   5.716
 7841SOL    HW224423   1.092   1.766   5.710
 7842SOL     OW24424   1.206   0.832   2.663
 7842SOL    HW124425   1.253   0.770   2.600
 7842SOL    HW224426   1.263   0.846   2.744
 7843SOL     OW24427   7.017   2.026   2.116
 7843SOL    HW124428   0.014   1.977   2.201
 7843SOL    HW224429   0.020   2.123   2.128
 7844SOL     OW24430   3.460   2.124   3.022
 7844SOL    HW124431   3.446   2.202   2.961
 7844SOL    HW224432   3.481   2.043   2.967
 7845SOL     OW24433   0.768   1.248   4.600
 7845SOL    HW124434   0.833   1.206   4.663
 7845SOL    HW224435   0.812   1.325   4.554
 7846SOL     OW24436   4.953   6.558   2.926
 7846SOL    HW124437   5.052   6.571   2.920
 7846SOL    HW224438   4.907   6.638   2.888
 7847SOL     OW24439   0.574   6.572   5.642
 7847SOL    HW124440   0.563   6.605   5.549
 7847SOL    HW224441   0.588   6.473   5.641
 7848SOL     OW24442   4.352   3.390   1.096
 7848SOL    HW124443   4.416   3.321   1.129
 7848SOL    HW224444   4.313   3.361   1.009
 7849SOL     OW24445   6.536   4.248   5.703
 7849SOL    HW124446   6.603   4.284   5.769
 7849SOL    HW224447   6.470   4.319   5.680
 7850SOL     OW24448   1.362   2.951   4.746
 7850SOL    HW124449   1.329   2.938   4.840
 7850SOL    HW224450   1.442   3.010   4.747
 7851SOL     OW24451   2.662   6.738   0.562
 7851SOL    HW124452   2.735   6.806   0.559
 7851SOL    HW224453   2.699   6.649   0.589
 7852SOL     OW24454   2.591   6.345   0.491
 7852SOL    HW124455   2.654   6.404   0.541
 7852SOL    HW224456   2.636   6.310   0.409
 7853SOL     OW24457   2.722   1.702   6.381
 7853SOL    HW124458   2.743   1.609   6.349
 7853SOL    HW224459   2.798   1.763   6.358
 7854SOL     OW24460   3.779   4.093   4.479
 7854SOL    HW124461   3.713   4.094   4.554
 7854SOL    HW224462   3.781   4.183   4.435
 7855SOL     OW24463   3.115   6.962   4.786
 7855SOL    HW124464   3.211   6.934   4.793
 7855SOL    HW224465   3.070   6.910   4.714
 7856SOL     OW24466   3.114   2.766   5.793
 7856SOL    HW124467   3.046   2.699   5.762
 7856SOL    HW224468   3.165   2.800   5.713
 7857SOL     OW24469   0.451   3.212   5.188
 7857SOL    HW124470   0.468   3.236   5.092
 7857SOL    HW224471   0.494   3.124   5.209
 7858SOL     OW24472   5.140   2.731   3.322
 7858SOL    HW124473   5.054   2.782   3.321
 7858SOL    HW224474   5.162   2.706   3.416
 7859SOL     OW24475   6.489   7.019   6.910
 7859SOL    HW124476   6.395   6.983   6.905
 7859SOL    HW224477   6.495   0.064   6.987
 7860SOL     OW24478   4.676   6.531   0.403
 7860SOL    HW124479   4.714   6.447   0.441
 7860SOL    HW224480   4.577   6.520   0.390
 7861SOL     OW24481   6.616   3.571   0.127
 7861SOL    HW124482   6.600   3.556   0.224
 7861SOL    HW224483   6.529   3.571   0.078
 7862SOL     OW24484   2.926   4.652   1.607
 7862SOL    HW124485   2.948   4.612   1.696
 7862SOL    HW224486   2.827   4.645   1.591
 7863SOL     OW24487   4.464   6.096   2.729
 7863SOL    HW124488   4.538   6.046   2.685
 7863SOL    HW224489   4.494   6.127   2.820
 7864SOL     OW24490   2.105   5.921   5.758
 7864SOL    HW124491   2.085   5.829   5.792
 7864SOL    HW224492   2.070   5.930   5.665
 7865SOL     OW24493   4.425   0.293   3.288
 7865SOL    HW124494   4.430   0.371   3.226
 7865SOL    HW224495   4.344   0.238   3.266
 7866SOL     OW24496   2.645   0.242   5.672
 7866SOL    HW124497   2.677   0.324   5.624
 7866SOL    HW224498   2.713   0.214   5.739
 7867SOL     OW24499   0.158   2.736   0.341
 7867SOL    HW124500   0.130   2.829   0.366
 7867SOL    HW224501   0.088   2.695   0.283
 7868SOL     OW24502   5.106   0.095   1.421
 7868SOL    HW124503   5.167   0.170   1.446
 7868SOL    HW224504   5.105   0.027   1.494
 7869SOL     OW24505   6.031   1.750   4.336
 7869SOL    HW124506   6.076   1.822   4.389
 7869SOL    HW224507   5.944   1.727   4.378
 7870SOL     OW24508   5.881   0.065   2.983
 7870SOL    HW124509   5.971   0.067   3.027
 7870SOL    HW224510   5.892   0.062   2.884
 7871SOL     OW24511   5.733   2.332   3.328
 7871SOL    HW124512   5.685   2.410   3.368
 7871SOL    HW224513   5.701   2.318   3.234
 7872SOL     OW24514   5.419   3.913   3.740
 7872SOL    HW124515   5.331   3.956   3.720
 7872SOL    HW224516   5.483   3.931   3.665
 7873SOL     OW24517   0.146   6.201   5.222
 7873SOL    HW124518   0.175   6.279   5.278
 7873SOL    HW224519   0.060   6.223   5.176
 7874SOL     OW24520   6.126   6.724   0.251
 7874SOL    HW124521   6.183   6.643   0.238
 7874SOL    HW224522   6.147   6.766   0.339
 7875SOL     OW24523   5.659   2.381   6.963
 7875SOL    HW124524   5.747   2.415   6.998
 7875SOL    HW224525   5.585   2.435   7.002
 7876SOL     OW24526   6.993   2.498   5.165
 7876SOL    HW124527   0.023   2.461   5.086
 7876SOL    HW224528   0.033   2.563   5.213
 7877SOL     OW24529   6.011   3.414   1.585
 7877SOL    HW124530   5.978   3.320   1.576
 7877SOL    HW224531   6.110   3.413   1.593
 7878SOL     OW24532   3.817   4.021   2.250
 7878SOL    HW124533   3.887   4.020   2.179
 7878SOL    HW224534   3.727   4.011   2.207
 7879SOL     OW24535   6.800   1.472   5.320
 7879SOL    HW124536   6.856   1.551   5.293
 7879SOL    HW224537   6.806   1.460   5.419
 7880SOL     OW24538   1.672   6.069   6.438
 7880SOL    HW124539   1.649   5.985   6.487
 7880SOL    HW224540   1.755   6.109   6.479
 7881SOL     OW24541   0.068   4.778   5.611
 7881SOL    HW124542   0.002   4.788   5.686
 7881SOL    HW224543   0.077   4.865   5.564
 7882SOL     OW24544   1.493   4.828   0.469
 7882SOL    HW124545   1.457   4.747   0.424
 7882SOL    HW224546   1.448   4.910   0.431
 7883SOL     OW24547   2.708   2.214   2.757
 7883SOL    HW124548   2.716   2.243   2.662
 7883SOL    HW224549   2.669   2.122   2.762
 7884SOL     OW24550   6.806   2.099   5.769
 7884SOL    HW124551   6.726   2.047   5.800
 7884SOL    HW224552   6.889   2.044   5.782
 7885SOL     OW24553   5.336   5.047   2.286
 7885SOL    HW124554   5.422   5.012   2.322
 7885SOL    HW224555   5.305   5.124   2.343
 7886SOL     OW24556   3.542   5.281   3.353
 7886SOL    HW124557   3.475   5.217   3.316
 7886SOL    HW224558   3.588   5.239   3.431
 7887SOL     OW24559   0.727   3.355   0.500
 7887SOL    HW124560   0.824   3.377   0.489
 7887SOL    HW224561   0.716   3.293   0.578
 7888SOL     OW24562   0.490   1.412   5.094
 7888SOL    HW124563   0.484   1.351   5.172
 7888SOL    HW224564   0.569   1.472   5.104
 7889SOL     OW24565   5.982   4.522   0.409
 7889SOL    HW124566   6.042   4.501   0.332
 7889SOL    HW224567   5.886   4.514   0.379
 7890SOL     OW24568   1.450   2.485   1.503
 7890SOL    HW124569   1.511   2.464   1.580
 7890SOL    HW224570   1.502   2.526   1.429
 7891SOL     OW24571   6.149   0.987   4.897
 7891SOL    HW124572   6.117   0.895   4.919
 7891SOL    HW224573   6.088   1.029   4.830
 7892SOL     OW24574   0.943   1.714   4.729
 7892SOL    HW124575   0.929   1.694   4.632
 7892SOL    HW224576   0.925   1.631   4.782
 7893SOL     OW24577   6.073   6.071   0.860
 7893SOL    HW124578   6.168   6.070   0.888
 7893SOL    HW224579   6.067   6.061   0.760
 7894SOL     OW24580   2.876   0.323   6.352
 7894SOL    HW124581   2.800   0.258   6.349
 7894SOL    HW224582   2.885   0.359   6.445
 7895SOL     OW24583   5.118   6.762   2.383
 7895SOL    HW124584   5.031   6.811   2.390
 7895SOL    HW224585   5.149   6.735   2.474
 7896SOL     OW24586   3.633   2.067   1.175
 7896SOL    HW124587   3.723   2.025   1.179
 7896SOL    HW224588   3.612   2.110   1.263
 7897SOL     OW24589   5.032   0.891   1.536
 7897SOL    HW124590   4.985   0.836   1.605
 7897SOL    HW224591   5.120   0.849   1.513
 7898SOL     OW24592   3.690   6.342   3.161
 7898SOL    HW124593   3.742   6.339   3.247
 7898SOL    HW224594   3.722   6.418   3.105
 7899SOL     OW24595   5.739   4.469   2.757
 7899SOL    HW124596   5.770   4.426   2.672
 7899SOL    HW224597   5.685   4.404   2.810
 7900SOL     OW24598   0.369   3.864   0.702
 7900SOL    HW124599   0.405   3.894   0.790
 7900SOL    HW224600   0.270   3.846   0.711
 7901SOL     OW24601   0.081   2.729   6.291
 7901SOL    HW124602   0.073   2.805   6.355
 7901SOL    HW224603   7.010   2.711   6.250
 7902SOL     OW24604   1.562   0.052   1.122
 7902SOL    HW124605   1.554   0.104   1.207
 7902SOL    HW224606   1.558   0.114   1.044
 7903SOL     OW24607   3.384   2.294   5.629
 7903SOL    HW124608   3.415   2.205   5.662
 7903SOL    HW224609   3.370   2.291   5.530
 7904SOL     OW24610   5.380   3.061   3.045
 7904SOL    HW124611   5.342   2.968   3.043
 7904SOL    HW224612   5.478   3.058   3.025
 7905SOL     OW24613   6.247   2.041   1.059
 7905SOL    HW124614   6.307   2.013   1.134
 7905SOL    HW224615   6.205   1.960   1.019
 7906SOL     OW24616   6.923   6.036   5.589
 7906SOL    HW124617   6.919   6.071   5.682
 7906SOL    HW224618   6.936   5.937   5.592
 7907SOL     OW24619   5.218   5.507   2.888
 7907SOL    HW124620   5.273   5.572   2.941
 7907SOL    HW224621   5.278   5.435   2.852
 7908SOL     OW24622   1.574   6.916   6.483
 7908SOL    HW124623   1.586   6.976   6.404
 7908SOL    HW224624   1.489   6.865   6.473
 7909SOL     OW24625   6.757   4.271   3.023
 7909SOL    HW124626   6.823   4.345   3.009
 7909SOL    HW224627   6.806   4.186   3.039
 7910SOL     OW24628   1.321   4.325   4.651
 7910SOL    HW124629   1.404   4.370   4.619
 7910SOL    HW224630   1.310   4.238   4.604
 7911SOL     OW24631   6.065   3.942   6.487
 7911SOL    HW124632   6.031   4.030   6.455
 7911SOL    HW224633   6.055   3.874   6.414
 7912SOL     OW24634   5.665   5.667   1.733
 7912SOL    HW124635   5.649   5.578   1.775
 7912SOL    HW224636   5.655   5.739   1.801
 7913SOL     OW24637   1.154   3.947   6.580
 7913SOL    HW124638   1.167   3.882   6.654
 7913SOL    HW224639   1.214   3.924   6.503
 7914SOL     OW24640   1.359   0.317   4.875
 7914SOL    HW124641   1.266   0.350   4.861
 7914SOL    HW224642   1.405   0.376   4.942
 7915SOL     OW24643   2.706   6.423   1.625
 7915SOL    HW124644   2.801   6.451   1.616
 7915SOL    HW224645   2.646   6.493   1.585
 7916SOL     OW24646   2.017   0.429   3.102
 7916SOL    HW124647   1.974   0.348   3.142
 7916SOL    HW224648   2.059   0.404   3.014
 7917SOL     OW24649   4.586   1.456   3.001
 7917SOL    HW124650   4.600   1.543   3.048
 7917SOL    HW224651   4.580   1.471   2.902
 7918SOL     OW24652   1.621   2.965   2.629
 7918SOL    HW124653   1.609   2.869   2.606
 7918SOL    HW224654   1.566   3.021   2.568
 7919SOL     OW24655   1.176   0.464   4.591
 7919SOL    HW124656   1.116   0.538   4.560
 7919SOL    HW224657   1.154   0.441   4.686
 7920SOL     OW24658   4.956   6.932   1.246
 7920SOL    HW124659   4.925   6.872   1.320
 7920SOL    HW224660   5.000   7.013   1.284
 7921SOL     OW24661   6.328   3.456   0.696
 7921SOL    HW124662   6.311   3.394   0.620
 7921SOL    HW224663   6.414   3.431   0.741
 7922SOL     OW24664   1.794   6.461   3.517
 7922SOL    HW124665   1.885   6.486   3.484
 7922SOL    HW224666   1.801   6.417   3.607
 7923SOL     OW24667   5.107   0.630   0.432
 7923SOL    HW124668   5.015   0.658   0.457
 7923SOL    HW224669   5.160   0.709   0.403
 7924SOL     OW24670   5.365   5.764   6.890
 7924SOL    HW124671   5.435   5.735   6.825
 7924SOL    HW224672   5.375   5.712   6.975
 7925SOL     OW24673   2.233   4.547   6.284
 7925SOL    HW124674   2.290   4.628   6.269
 7925SOL    HW224675   2.269   4.470   6.231
 7926SOL     OW24676   4.524   5.660   0.727
 7926SOL    HW124677   4.470   5.738   0.695
 7926SOL    HW224678   4.578   5.624   0.651
 7927SOL     OW24679   4.860   6.830   3.696
 7927SOL    HW124680   4.890   6.854   3.788
 7927SOL    HW224681   4.928   6.771   3.652
 7928SOL     OW24682   6.073   2.838   3.872
 7928SOL    HW124683   6.118   2.899   3.936
 7928SOL    HW224684   6.054   2.887   3.787
 7929SOL     OW24685   4.437   4.125   5.461
 7929SOL    HW124686   4.392   4.101   5.547
 7929SOL    HW224687   4.416   4.056   5.392
 7930SOL     OW24688   3.755   5.557   1.302
 7930SOL    HW124689   3.720   5.601   1.219
 7930SOL    HW224690   3.737   5.617   1.381
 7931SOL     OW24691   5.437   0.721   0.278
 7931SOL    HW124692   5.415   0.632   0.318
 7931SOL    HW224693   5.354   0.775   0.271
 7932SOL     OW24694   1.309   3.810   0.559
 7932SOL    HW124695   1.405   3.815   0.587
 7932SOL    HW224696   1.252   3.846   0.633
 7933SOL     OW24697   1.964   1.142   6.736
 7933SOL    HW124698   2.058   1.133   6.702
 7933SOL    HW224699   1.918   1.053   6.730
 7934SOL     OW24700   6.228   5.323   0.856
 7934SOL    HW124701   6.128   5.326   0.854
 7934SOL    HW224702   6.258   5.271   0.935
 7935SOL     OW24703   6.467   4.105   3.643
 7935SOL    HW124704   6.482   4.010   3.673
 7935SOL    HW224705   6.549   4.139   3.597
 7936SOL     OW24706   2.624   5.630   3.609
 7936SOL    HW124707   2.576   5.718   3.604
 7936SOL    HW224708   2.570   5.561   3.561
 7937SOL     OW24709   3.842   1.302   1.405
 7937SOL    HW124710   3.768   1.302   1.338
 7937SOL    HW224711   3.866   1.208   1.428
 7938SOL     OW24712   1.800   7.006   3.391
 7938SOL    HW124713   1.865   6.954   3.447
 7938SOL    HW224714   1.788   6.961   3.303
 7939SOL     OW24715   1.813   0.252   3.558
 7939SOL    HW124716   1.721   0.255   3.597
 7939SOL    HW224717   1.817   0.182   3.486
 7940SOL     OW24718   6.653   1.124   5.589
 7940SOL    HW124719   6.620   1.186   5.518
 7940SOL    HW224720   6.748   1.099   5.571
 7941SOL     OW24721   2.607   0.236   0.760
 7941SOL    HW124722   2.624   0.137   0.766
 7941SOL    HW224723   2.529   0.253   0.701
 7942SOL     OW24724   1.671   3.605   1.308
 7942SOL    HW124725   1.719   3.644   1.386
 7942SOL    HW224726   1.736   3.583   1.236
 7943SOL     OW24727   1.744   5.497   0.047
 7943SOL    HW124728   1.736   5.517   6.969
 7943SOL    HW224729   1.837   5.519   0.078
 7944SOL     OW24730   1.887   1.839   0.490
 7944SOL    HW124731   1.878   1.750   0.446
 7944SOL    HW224732   1.969   1.885   0.455
 7945SOL     OW24733   6.211   4.426   3.720
 7945SOL    HW124734   6.291   4.379   3.757
 7945SOL    HW224735   6.136   4.420   3.785
 7946SOL     OW24736   5.137   1.216   5.767
 7946SOL    HW124737   5.222   1.270   5.769
 7946SOL    HW224738   5.060   1.277   5.744
 7947SOL     OW24739   0.697   3.945   6.924
 7947SOL    HW124740   0.675   4.010   6.997
 7947SOL    HW224741   0.631   3.870   6.925
 7948SOL     OW24742   1.108   5.713   1.340
 7948SOL    HW124743   1.153   5.635   1.297
 7948SOL    HW224744   1.020   5.730   1.296
 7949SOL     OW24745   3.934   5.393   4.896
 7949SOL    HW124746   3.943   5.359   4.989
 7949SOL    HW224747   3.952   5.492   4.895
 7950SOL     OW24748   6.736   2.427   6.281
 7950SOL    HW124749   6.681   2.390   6.356
 7950SOL    HW224750   6.824   2.379   6.277
 7951SOL     OW24751   3.259   0.592   3.050
 7951SOL    HW124752   3.330   0.545   2.998
 7951SOL    HW224753   3.286   0.688   3.064
 7952SOL     OW24754   0.271   3.458   5.775
 7952SOL    HW124755   0.289   3.372   5.728
 7952SOL    HW224756   0.320   3.533   5.730
 7953SOL     OW24757   0.668   0.874   0.284
 7953SOL    HW124758   0.637   0.955   0.233
 7953SOL    HW224759   0.667   0.794   0.223
 7954SOL     OW24760   3.910   2.407   1.143
 7954SOL    HW124761   3.828   2.367   1.102
 7954SOL    HW224762   3.904   2.400   1.243
 7955SOL     OW24763   6.291   0.241   6.257
 7955SOL    HW124764   6.277   0.168   6.323
 7955SOL    HW224765   6.307   0.201   6.167
 7956SOL     OW24766   0.329   6.979   1.192
 7956SOL    HW124767   0.348   6.883   1.211
 7956SOL    HW224768   0.382   0.017   1.255
 7957SOL     OW24769   6.116   2.073   6.288
 7957SOL    HW124770   6.065   2.144   6.241
 7957SOL    HW224771   6.202   2.055   6.240
 7958SOL     OW24772   5.078   2.709   6.641
 7958SOL    HW124773   5.041   2.800   6.622
 7958SOL    HW224774   5.030   2.642   6.585
 7959SOL     OW24775   5.614   2.842   6.765
 7959SOL    HW124776   5.681   2.782   6.808
 7959SOL    HW224777   5.550   2.876   6.834
 7960SOL     OW24778   0.779   2.574   5.174
 7960SOL    HW124779   0.876   2.597   5.182
 7960SOL    HW224780   0.766   2.510   5.098
 7961SOL     OW24781   6.164   7.007   5.952
 7961SOL    HW124782   6.076   0.007   5.997
 7961SOL    HW224783   6.187   0.061   5.890
 7962SOL     OW24784   5.866   0.497   4.797
 7962SOL    HW124785   5.809   0.522   4.876
 7962SOL    HW224786   5.961   0.488   4.826
 7963SOL     OW24787   5.739   5.982   2.277
 7963SOL    HW124788   5.675   5.989   2.200
 7963SOL    HW224789   5.687   5.973   2.362
 7964SOL     OW24790   0.890   4.493   1.890
 7964SOL    HW124791   0.928   4.563   1.951
 7964SOL    HW224792   0.922   4.510   1.797
 7965SOL     OW24793   4.810   1.794   6.612
 7965SOL    HW124794   4.728   1.835   6.573
 7965SOL    HW224795   4.843   1.850   6.688
 7966SOL     OW24796   5.735   3.906   5.501
 7966SOL    HW124797   5.742   3.807   5.517
 7966SOL    HW224798   5.639   3.931   5.490
 7967SOL     OW24799   2.085   4.325   1.511
 7967SOL    HW124800   2.017   4.254   1.494
 7967SOL    HW224801   2.173   4.282   1.531
 7968SOL     OW24802   1.900   2.161   3.568
 7968SOL    HW124803   1.997   2.141   3.553
 7968SOL    HW224804   1.862   2.201   3.485
 7969SOL     OW24805   2.627   4.397   6.048
 7969SOL    HW124806   2.720   4.410   6.013
 7969SOL    HW224807   2.581   4.327   5.994
 7970SOL     OW24808   6.812   2.629   2.732
 7970SOL    HW124809   6.718   2.621   2.767
 7970SOL    HW224810   6.811   2.628   2.632
 7971SOL     OW24811   2.402   0.311   6.848
 7971SOL    HW124812   2.356   0.352   6.769
 7971SOL    HW224813   2.465   0.378   6.888
 7972SOL     OW24814   3.500   3.112   3.818
 7972SOL    HW124815   3.487   3.210   3.831
 7972SOL    HW224816   3.461   3.063   3.896
 7973SOL     OW24817   1.020   5.613   2.207
 7973SOL    HW124818   0.966   5.567   2.277
 7973SOL    HW224819   0.977   5.600   2.118
 7974SOL     OW24820   0.030   2.954   4.053
 7974SOL    HW124821   6.978   3.005   4.006
 7974SOL    HW224822   0.004   2.858   4.061
 7975SOL     OW24823   4.111   0.566   6.349
 7975SOL    HW124824   4.112   0.508   6.267
 7975SOL    HW224825   4.185   0.539   6.410
 7976SOL     OW24826   0.133   0.396   1.132
 7976SOL    HW124827   0.123   0.409   1.033
 7976SOL    HW224828   0.045   0.371   1.171
 7977SOL     OW24829   5.312   4.892   2.856
 7977SOL    HW124830   5.342   4.802   2.824
 7977SOL    HW224831   5.392   4.946   2.884
 7978SOL     OW24832   0.325   4.152   1.444
 7978SOL    HW124833   0.390   4.180   1.515
 7978SOL    HW224834   0.352   4.063   1.407
 7979SOL     OW24835   3.713   2.743   5.843
 7979SOL    HW124836   3.795   2.688   5.862
 7979SOL    HW224837   3.703   2.755   5.744
 7980SOL     OW24838   3.951   5.986   2.621
 7980SOL    HW124839   4.045   6.012   2.643
 7980SOL    HW224840   3.906   5.953   2.703
 7981SOL     OW24841   0.909   2.953   3.542
 7981SOL    HW124842   0.914   2.901   3.627
 7981SOL    HW224843   0.831   3.015   3.545
 7982SOL     OW24844   6.684   6.968   0.566
 7982SOL    HW124845   6.688   0.014   0.490
 7982SOL    HW224846   6.727   6.882   0.539
 7983SOL     OW24847   3.637   1.597   1.158
 7983SOL    HW124848   3.543   1.601   1.191
 7983SOL    HW224849   3.700   1.622   1.232
 7984SOL     OW24850   5.985   1.802   2.034
 7984SOL    HW124851   6.025   1.763   2.116
 7984SOL    HW224852   5.890   1.772   2.025
 7985SOL     OW24853   2.946   3.901   5.870
 7985SOL    HW124854   2.893   3.840   5.929
 7985SOL    HW224855   2.970   3.984   5.920
 7986SOL     OW24856   1.985   1.079   3.635
 7986SOL    HW124857   1.928   1.009   3.591
 7986SOL    HW224858   1.929   1.159   3.656
 7987SOL     OW24859   1.098   2.927   6.767
 7987SOL    HW124860   1.012   2.968   6.798
 7987SOL    HW224861   1.091   2.827   6.773
 7988SOL     OW24862   6.132   7.015   1.800
 7988SOL    HW124863   6.065   6.942   1.815
 7988SOL    HW224864   6.225   6.979   1.810
 7989SOL     OW24865   0.834   4.691   1.640
 7989SOL    HW124866   0.750   4.742   1.656
 7989SOL    HW224867   0.911   4.741   1.680
 7990SOL     OW24868   4.518   5.252   5.562
 7990SOL    HW124869   4.559   5.343   5.560
 7990SOL    HW224870   4.581   5.188   5.606
 7991SOL     OW24871   5.449   0.963   4.211
 7991SOL    HW124872   5.349   0.959   4.219
 7991SOL    HW224873   5.486   0.871   4.213
 7992SOL     OW24874   3.171   0.712   0.403
 7992SOL    HW124875   3.163   0.632   0.463
 7992SOL    HW224876   3.088   0.719   0.347
 7993SOL     OW24877   6.381   4.474   1.095
 7993SOL    HW124878   6.312   4.411   1.131
 7993SOL    HW224879   6.336   4.544   1.039
 7994SOL     OW24880   0.915   1.336   5.339
 7994SOL    HW124881   0.958   1.394   5.269
 7994SOL    HW224882   0.979   1.322   5.414
 7995SOL     OW24883   0.359   5.837   0.583
 7995SOL    HW124884   0.352   5.744   0.620
 7995SOL    HW224885   0.448   5.877   0.608
 7996SOL     OW24886   1.648   6.247   4.131
 7996SOL    HW124887   1.693   6.227   4.219
 7996SOL    HW224888   1.549   6.236   4.141
 7997SOL     OW24889   2.415   0.642   6.005
 7997SOL    HW124890   2.386   0.548   5.987
 7997SOL    HW224891   2.380   0.671   6.094
 7998SOL     OW24892   1.924   1.862   1.683
 7998SOL    HW124893   1.865   1.822   1.613
 7998SOL    HW224894   2.019   1.840   1.663
 7999SOL     OW24895   0.193   0.654   2.234
 7999SOL    HW124896   0.216   0.599   2.314
 7999SOL    HW224897   0.277   0.679   2.186
 8000SOL     OW24898   4.426   5.878   0.564
 8000SOL    HW124899   4.351   5.939   0.588
 8000SOL    HW224900   4.488   5.925   0.502
 8001SOL     OW24901   5.161   5.005   2.091
 8001SOL    HW124902   5.222   5.008   2.170
 8001SOL    HW224903   5.143   5.098   2.059
 8002SOL     OW24904   1.511   0.452   5.055
 8002SOL    HW124905   1.566   0.368   5.062
 8002SOL    HW224906   1.559   0.518   4.997
 8003SOL     OW24907   2.336   5.523   2.830
 8003SOL    HW124908   2.277   5.562   2.901
 8003SOL    HW224909   2.315   5.426   2.818
 8004SOL     OW24910   2.020   3.922   3.853
 8004SOL    HW124911   2.028   3.898   3.756
 8004SOL    HW224912   1.930   3.963   3.869
 8005SOL     OW24913   2.774   0.151   4.760
 8005SOL    HW124914   2.864   0.191   4.778
 8005SOL    HW224915   2.709   0.224   4.740
 8006SOL     OW24916   4.760   5.313   6.554
 8006SOL    HW124917   4.751   5.412   6.567
 8006SOL    HW224918   4.717   5.287   6.467
 8007SOL     OW24919   0.552   0.151   1.065
 8007SOL    HW124920   0.503   0.107   0.989
 8007SOL    HW224921   0.486   0.186   1.131
 8008SOL     OW24922   5.136   5.621   1.259
 8008SOL    HW124923   5.229   5.583   1.268
 8008SOL    HW224924   5.083   5.598   1.341
 8009SOL     OW24925   5.805   0.029   1.402
 8009SOL    HW124926   5.851   0.082   1.473
 8009SOL    HW224927   5.720   7.010   1.438
 8010SOL     OW24928   3.044   0.022   0.473
 8010SOL    HW124929   3.100   0.078   0.411
 8010SOL    HW224930   3.075   6.947   0.470
 8011SOL     OW24931   3.763   1.772   1.889
 8011SOL    HW124932   3.799   1.762   1.797
 8011SOL    HW224933   3.821   1.835   1.942
 8012SOL     OW24934   5.914   0.922   5.494
 8012SOL    HW124935   5.852   0.902   5.419
 8012SOL    HW224936   5.961   1.009   5.477
 8013SOL     OW24937   3.437   0.603   3.673
 8013SOL    HW124938   3.496   0.671   3.716
 8013SOL    HW224939   3.357   0.649   3.633
 8014SOL     OW24940   2.035   2.527   3.645
 8014SOL    HW124941   1.943   2.516   3.683
 8014SOL    HW224942   2.030   2.582   3.562
 8015SOL     OW24943   3.692   5.921   4.846
 8015SOL    HW124944   3.650   5.835   4.818
 8015SOL    HW224945   3.729   5.968   4.766
 8016SOL     OW24946   2.861   3.683   5.511
 8016SOL    HW124947   2.917   3.742   5.569
 8016SOL    HW224948   2.863   3.717   5.417
 8017SOL     OW24949   5.427   6.369   1.822
 8017SOL    HW124950   5.521   6.396   1.843
 8017SOL    HW224951   5.424   6.327   1.732
 8018SOL     OW24952   3.684   2.663   0.878
 8018SOL    HW124953   3.668   2.732   0.949
 8018SOL    HW224954   3.782   2.652   0.863
 8019SOL     OW24955   2.902   3.426   0.840
 8019SOL    HW124956   2.819   3.467   0.880
 8019SOL    HW224957   2.908   3.450   0.743
 8020SOL     OW24958   1.189   0.055   0.261
 8020SOL    HW124959   1.123   0.092   0.197
 8020SOL    HW224960   1.142   0.025   0.344
 8021SOL     OW24961   1.464   2.228   0.412
 8021SOL    HW124962   1.417   2.144   0.386
 8021SOL    HW224963   1.562   2.211   0.419
 8022SOL     OW24964   3.700   0.251   2.492
 8022SOL    HW124965   3.794   0.285   2.501
 8022SOL    HW224966   3.677   0.241   2.396
 8023SOL     OW24967   3.508   5.071   2.505
 8023SOL    HW124968   3.537   5.119   2.588
 8023SOL    HW224969   3.465   5.136   2.443
 8024SOL     OW24970   2.844   0.452   6.589
 8024SOL    HW124971   2.854   0.535   6.645
 8024SOL    HW224972   2.754   0.412   6.605
 8025SOL     OW24973   0.772   0.067   1.779
 8025SOL    HW124974   0.675   0.086   1.764
 8025SOL    HW224975   0.811   0.031   1.694
 8026SOL     OW24976   0.620   6.510   5.068
 8026SOL    HW124977   0.699   6.544   5.017
 8026SOL    HW224978   0.652   6.464   5.151
 8027SOL     OW24979   4.304   0.048   6.323
 8027SOL    HW124980   4.253   0.076   6.242
 8027SOL    HW224981   4.272   0.099   6.403
 8028SOL     OW24982   3.450   5.934   6.440
 8028SOL    HW124983   3.397   5.999   6.495
 8028SOL    HW224984   3.394   5.854   6.420
 8029SOL     OW24985   1.519   6.832   1.373
 8029SOL    HW124986   1.512   6.761   1.443
 8029SOL    HW224987   1.502   6.792   1.283
 8030SOL     OW24988   0.497   3.510   0.819
 8030SOL    HW124989   0.515   3.608   0.818
 8030SOL    HW224990   0.422   3.488   0.757
 8031SOL     OW24991   0.549   1.080   3.951
 8031SOL    HW124992   0.639   1.068   3.994
 8031SOL    HW224993   0.483   1.018   3.993
 8032SOL     OW24994   0.628   3.308   1.867
 8032SOL    HW124995   0.688   3.283   1.791
 8032SOL    HW224996   0.613   3.228   1.926
 8033SOL     OW24997   3.852   5.121   0.633
 8033SOL    HW124998   3.753   5.107   0.630
 8033SOL    HW224999   3.879   5.154   0.724
 8034SOL     OW25000   1.006   1.529   5.180
 8034SOL    HW125001   1.009   1.535   5.080
 8034SOL    HW225002   0.982   1.619   5.217
 8035SOL     OW25003   5.609   0.418   3.900
 8035SOL    HW125004   5.589   0.497   3.842
 8035SOL    HW225005   5.531   0.399   3.959
 8036SOL     OW25006   5.359   4.856   5.082
 8036SOL    HW125007   5.326   4.936   5.133
 8036SOL    HW225008   5.447   4.878   5.040
 8037SOL     OW25009   3.630   1.047   6.417
 8037SOL    HW125010   3.588   1.118   6.474
 8037SOL    HW225011   3.695   1.088   6.353
 8038SOL     OW25012   5.377   5.812   1.801
 8038SOL    HW125013   5.371   5.713   1.789
 8038SOL    HW225014   5.458   5.833   1.857
 8039SOL     OW25015   1.717   2.859   4.924
 8039SOL    HW125016   1.620   2.833   4.932
 8039SOL    HW225017   1.748   2.842   4.830
 8040SOL     OW25018   0.610   0.116   4.973
 8040SOL    HW125019   0.589   0.022   4.943
 8040SOL    HW225020   0.681   0.113   5.043
 8041SOL     OW25021   2.835   1.857   3.048
 8041SOL    HW125022   2.885   1.773   3.024
 8041SOL    HW225023   2.887   1.937   3.016
 8042SOL     OW25024   4.766   4.173   6.339
 8042SOL    HW125025   4.682   4.129   6.307
 8042SOL    HW225026   4.811   4.221   6.264
 8043SOL     OW25027   6.059   5.294   7.019
 8043SOL    HW125028   6.142   5.250   0.037
 8043SOL    HW225029   6.014   5.230   6.956
 8044SOL     OW25030   1.119   2.813   1.299
 8044SOL    HW125031   1.123   2.768   1.209
 8044SOL    HW225032   1.106   2.744   1.370
 8045SOL     OW25033   5.889   3.028   5.229
 8045SOL    HW125034   5.827   3.051   5.304
 8045SOL    HW225035   5.844   3.047   5.142
 8046SOL     OW25036   0.067   4.220   1.548
 8046SOL    HW125037   0.139   4.254   1.487
 8046SOL    HW225038   0.093   4.238   1.643
 8047SOL     OW25039   2.658   6.348   6.887
 8047SOL    HW125040   2.623   6.305   6.970
 8047SOL    HW225041   2.751   6.315   6.870
 8048SOL     OW25042   4.948   1.892   6.851
 8048SOL    HW125043   4.961   1.933   6.941
 8048SOL    HW225044   4.952   1.963   6.780
 8049SOL     OW25045   2.679   1.840   0.492
 8049SOL    HW125046   2.630   1.758   0.464
 8049SOL    HW225047   2.636   1.879   0.573
 8050SOL     OW25048   6.878   4.687   6.032
 8050SOL    HW125049   6.924   4.683   6.121
 8050SOL    HW225050   6.779   4.681   6.045
 8051SOL     OW25051   4.053   6.475   3.501
 8051SOL    HW125052   4.075   6.535   3.424
 8051SOL    HW225053   4.117   6.398   3.502
 8052SOL     OW25054   1.978   1.689   2.938
 8052SOL    HW125055   1.898   1.734   2.977
 8052SOL    HW225056   1.954   1.655   2.847
 8053SOL     OW25057   1.987   1.152   6.133
 8053SOL    HW125058   1.913   1.219   6.139
 8053SOL    HW225059   1.966   1.075   6.193
 8054SOL     OW25060   4.891   3.790   4.875
 8054SOL    HW125061   4.851   3.728   4.942
 8054SOL    HW225062   4.941   3.863   4.922
 8055SOL     OW25063   0.070   1.107   6.296
 8055SOL    HW125064   0.136   1.032   6.299
 8055SOL    HW225065   6.997   1.070   6.280
 8056SOL     OW25066   1.819   2.451   2.367
 8056SOL    HW125067   1.788   2.545   2.378
 8056SOL    HW225068   1.904   2.438   2.419
 8057SOL     OW25069   2.968   1.735   1.944
 8057SOL    HW125070   2.936   1.829   1.932
 8057SOL    HW225071   3.004   1.700   1.858
 8058SOL     OW25072   3.327   6.301   2.105
 8058SOL    HW125073   3.385   6.259   2.175
 8058SOL    HW225074   3.233   6.305   2.138
 8059SOL     OW25075   4.660   4.279   5.055
 8059SOL    HW125076   4.759   4.265   5.047
 8059SOL    HW225077   4.617   4.196   5.089
 8060SOL     OW25078   0.466   1.240   4.641
 8060SOL    HW125079   0.398   1.199   4.580
 8060SOL    HW225080   0.548   1.264   4.589
 8061SOL     OW25081   6.845   0.669   0.649
 8061SOL    HW125082   6.844   0.583   0.701
 8061SOL    HW225083   6.753   0.687   0.614
 8062SOL     OW25084   4.775   4.314   6.849
 8062SOL    HW125085   4.770   4.279   6.755
 8062SOL    HW225086   4.691   4.364   6.870
 8063SOL     OW25087   2.603   4.684   2.089
 8063SOL    HW125088   2.697   4.666   2.058
 8063SOL    HW225089   2.591   4.782   2.103
 8064SOL     OW25090   6.870   2.289   0.492
 8064SOL    HW125091   6.880   2.306   0.590
 8064SOL    HW225092   6.944   2.230   0.461
 8065SOL     OW25093   4.850   0.227   6.754
 8065SOL    HW125094   4.805   0.137   6.756
 8065SOL    HW225095   4.801   0.290   6.814
 8066SOL     OW25096   6.615   1.012   5.285
 8066SOL    HW125097   6.564   0.937   5.328
 8066SOL    HW225098   6.599   1.097   5.335
 8067SOL     OW25099   5.246   0.769   4.482
 8067SOL    HW125100   5.256   0.711   4.402
 8067SOL    HW225101   5.282   0.723   4.563
 8068SOL     OW25102   7.015   3.874   1.093
 8068SOL    HW125103   6.944   3.868   1.023
 8068SOL    HW225104   0.022   3.782   1.121
 8069SOL     OW25105   0.981   2.642   1.776
 8069SOL    HW125106   0.928   2.613   1.856
 8069SOL    HW225107   0.919   2.669   1.703
 8070SOL     OW25108   5.486   3.944   1.354
 8070SOL    HW125109   5.560   3.946   1.420
 8070SOL    HW225110   5.494   3.862   1.297
 8071SOL     OW25111   1.680   0.065   6.254
 8071SOL    HW125112   1.757   0.103   6.201
 8071SOL    HW225113   1.596   0.113   6.229
 8072SOL     OW25114   2.519   1.659   5.480
 8072SOL    HW125115   2.598   1.689   5.426
 8072SOL    HW225116   2.509   1.560   5.473
 8073SOL     OW25117   5.393   5.706   0.151
 8073SOL    HW125118   5.483   5.727   0.189
 8073SOL    HW225119   5.354   5.627   0.198
 8074SOL     OW25120   6.501   0.408   0.233
 8074SOL    HW125121   6.432   0.478   0.218
 8074SOL    HW225122   6.571   0.443   0.295
 8075SOL     OW25123   0.119   6.982   1.006
 8075SOL    HW125124   0.191   7.002   1.073
 8075SOL    HW225125   0.045   6.931   1.051
 8076SOL     OW25126   6.743   5.970   0.618
 8076SOL    HW125127   6.689   5.885   0.613
 8076SOL    HW225128   6.805   5.975   0.540
 8077SOL     OW25129   6.119   4.323   1.373
 8077SOL    HW125130   6.029   4.328   1.415
 8077SOL    HW225131   6.180   4.269   1.431
 8078SOL     OW25132   5.229   1.819   1.454
 8078SOL    HW125133   5.285   1.792   1.532
 8078SOL    HW225134   5.264   1.905   1.416
 8079SOL     OW25135   0.106   0.659   6.209
 8079SOL    HW125136   0.086   0.704   6.296
 8079SOL    HW225137   0.056   0.572   6.204
 8080SOL     OW25138   6.740   3.865   3.506
 8080SOL    HW125139   6.729   3.881   3.604
 8080SOL    HW225140   6.687   3.785   3.479
 8081SOL     OW25141   5.759   0.865   5.271
 8081SOL    HW125142   5.747   0.918   5.188
 8081SOL    HW225143   5.670   0.853   5.316
 8082SOL     OW25144   4.890   2.187   4.887
 8082SOL    HW125145   4.969   2.248   4.887
 8082SOL    HW225146   4.873   2.156   4.793
 8083SOL     OW25147   6.833   3.002   3.861
 8083SOL    HW125148   6.823   2.917   3.810
 8083SOL    HW225149   6.813   3.080   3.801
 8084SOL     OW25150   5.942   1.722   6.889
 8084SOL    HW125151   5.899   1.807   6.920
 8084SOL    HW225152   5.945   1.656   6.964
 8085SOL     OW25153   1.542   5.917   4.191
 8085SOL    HW125154   1.548   5.893   4.287
 8085SOL    HW225155   1.475   5.990   4.179
 8086SOL     OW25156   0.167   2.129   1.599
 8086SOL    HW125157   0.156   2.183   1.516
 8086SOL    HW225158   0.115   2.044   1.591
 8087SOL     OW25159   6.139   0.892   6.405
 8087SOL    HW125160   6.149   0.991   6.396
 8087SOL    HW225161   6.170   0.848   6.321
 8088SOL     OW25162   6.209   6.952   5.490
 8088SOL    HW125163   6.149   7.006   5.431
 8088SOL    HW225164   6.154   6.890   5.546
 8089SOL     OW25165   0.034   0.727   0.014
 8089SOL    HW125166   6.963   0.687   0.001
 8089SOL    HW225167   0.081   0.681   0.090
 8090SOL     OW25168   4.189   2.330   4.569
 8090SOL    HW125169   4.184   2.257   4.637
 8090SOL    HW225170   4.102   2.379   4.565
 8091SOL     OW25171   1.132   3.308   5.503
 8091SOL    HW125172   1.197   3.321   5.577
 8091SOL    HW225173   1.172   3.342   5.417
 8092SOL     OW25174   4.545   6.440   5.248
 8092SOL    HW125175   4.572   6.347   5.224
 8092SOL    HW225176   4.460   6.463   5.202
 8093SOL     OW25177   3.875   0.050   3.776
 8093SOL    HW125178   3.776   0.047   3.759
 8093SOL    HW225179   3.917   6.985   3.743
 8094SOL     OW25180   2.573   5.220   3.074
 8094SOL    HW125181   2.668   5.231   3.101
 8094SOL    HW225182   2.524   5.306   3.088
 8095SOL     OW25183   0.791   5.285   5.274
 8095SOL    HW125184   0.795   5.287   5.374
 8095SOL    HW225185   0.743   5.203   5.244
 8096SOL     OW25186   1.066   4.924   0.260
 8096SOL    HW125187   1.055   4.945   0.163
 8096SOL    HW225188   1.002   4.980   0.314
 8097SOL     OW25189   4.826   0.834   6.769
 8097SOL    HW125190   4.834   0.742   6.731
 8097SOL    HW225191   4.764   0.832   6.848
 8098SOL     OW25192   2.885   6.422   5.563
 8098SOL    HW125193   2.962   6.387   5.510
 8098SOL    HW225194   2.855   6.353   5.628
 8099SOL     OW25195   2.243   4.488   3.403
 8099SOL    HW125196   2.183   4.563   3.372
 8099SOL    HW225197   2.271   4.434   3.324
 8100SOL     OW25198   6.959   6.459   0.384
 8100SOL    HW125199   6.882   6.488   0.441
 8100SOL    HW225200   0.024   6.465   0.436
 8101SOL     OW25201   2.997   4.845   6.412
 8101SOL    HW125202   3.047   4.796   6.484
 8101SOL    HW225203   2.905   4.866   6.444
 8102SOL     OW25204   1.161   4.645   3.770
 8102SOL    HW125205   1.157   4.548   3.795
 8102SOL    HW225206   1.138   4.656   3.673
 8103SOL     OW25207   5.306   0.518   1.661
 8103SOL    HW125208   5.218   0.534   1.706
 8103SOL    HW225209   5.380   0.536   1.725
 8104SOL     OW25210   1.743   6.834   0.242
 8104SOL    HW125211   1.815   6.781   0.285
 8104SOL    HW225212   1.784   6.900   0.179
 8105SOL     OW25213   0.040   6.994   2.790
 8105SOL    HW125214   6.994   6.996   2.865
 8105SOL    HW225215   7.013   7.016   2.704
 8106SOL     OW25216   3.730   6.313   0.140
 8106SOL    HW125217   3.724   6.357   0.230
 8106SOL    HW225218   3.759   6.380   0.072
 8107SOL     OW25219   0.552   6.231   0.176
 8107SOL    HW125220   0.483   6.162   0.199
 8107SOL    HW225221   0.521   6.321   0.208
 8108SOL     OW25222   1.901   1.249   1.179
 8108SOL    HW125223   1.966   1.270   1.253
 8108SOL    HW225224   1.936   1.286   1.093
 8109SOL     OW25225   0.356   4.073   2.039
 8109SOL    HW125226   0.382   4.170   2.045
 8109SOL    HW225227   0.257   4.065   2.036
 8110SOL     OW25228   5.013   3.957   6.661
 8110SOL    HW125229   4.993   3.985   6.567
 8110SOL    HW225230   5.057   3.867   6.660
 8111SOL     OW25231   5.187   1.950   2.501
 8111SOL    HW125232   5.174   2.048   2.486
 8111SOL    HW225233   5.234   1.910   2.422
 8112SOL     OW25234   2.025   4.363   6.490
 8112SOL    HW125235   2.084   4.327   6.417
 8112SOL    HW225236   1.930   4.335   6.473
 8113SOL     OW25237   5.934   5.124   6.846
 8113SOL    HW125238   5.867   5.163   6.783
 8113SOL    HW225239   5.990   5.057   6.797
 8114SOL     OW25240   1.972   2.722   3.156
 8114SOL    HW125241   1.992   2.713   3.253
 8114SOL    HW225242   2.055   2.751   3.107
 8115SOL     OW25243   2.586   2.080   6.380
 8115SOL    HW125244   2.560   2.005   6.442
 8115SOL    HW225245   2.548   2.062   6.289
 8116SOL     OW25246   4.127   3.186   1.961
 8116SOL    HW125247   4.141   3.266   2.020
 8116SOL    HW225248   4.040   3.143   1.984
 8117SOL     OW25249   1.289   0.791   3.091
 8117SOL    HW125250   1.274   0.885   3.123
 8117SOL    HW225251   1.212   0.734   3.120
 8118SOL     OW25252   6.079   2.094   6.795
 8118SOL    HW125253   6.025   2.102   6.878
 8118SOL    HW225254   6.160   2.038   6.813
 8119SOL     OW25255   5.619   4.782   6.651
 8119SOL    HW125256   5.683   4.747   6.583
 8119SOL    HW225257   5.526   4.755   6.627
 8120SOL     OW25258   1.975   6.913   2.335
 8120SOL    HW125259   2.027   6.828   2.345
 8120SOL    HW225260   1.918   6.908   2.254
 8121SOL     OW25261   1.561   2.233   2.940
 8121SOL    HW125262   1.647   2.268   2.903
 8121SOL    HW225263   1.504   2.198   2.865
 8122SOL     OW25264   0.158   5.322   1.333
 8122SOL    HW125265   0.235   5.373   1.372
 8122SOL    HW225266   0.122   5.372   1.254
 8123SOL     OW25267   6.492   0.591   6.074
 8123SOL    HW125268   6.416   0.591   6.008
 8123SOL    HW225269   6.468   0.535   6.153
 8124SOL     OW25270   6.061   5.813   5.941
 8124SOL    HW125271   5.982   5.802   6.002
 8124SOL    HW225272   6.030   5.815   5.846
 8125SOL     OW25273   0.778   6.296   1.531
 8125SOL    HW125274   0.865   6.335   1.499
 8125SOL    HW225275   0.711   6.369   1.542
 8126SOL     OW25276   3.302   5.792   4.807
 8126SOL    HW125277   3.205   5.796   4.831
 8126SOL    HW225278   3.354   5.753   4.882
 8127SOL     OW25279   4.424   1.841   5.773
 8127SOL    HW125280   4.360   1.846   5.696
 8127SOL    HW225281   4.422   1.749   5.811
 8128SOL     OW25282   4.113   2.687   0.844
 8128SOL    HW125283   4.099   2.707   0.941
 8128SOL    HW225284   4.050   2.615   0.814
 8129SOL     OW25285   6.641   2.796   3.371
 8129SOL    HW125286   6.670   2.891   3.370
 8129SOL    HW225287   6.658   2.755   3.281
 8130SOL     OW25288   6.955   6.180   6.913
 8130SOL    HW125289   6.972   6.277   6.932
 8130SOL    HW225290   7.017   6.124   6.968
 8131SOL     OW25291   2.936   2.171   0.752
 8131SOL    HW125292   2.910   2.241   0.818
 8131SOL    HW225293   2.933   2.081   0.796
 8132SOL     OW25294   6.025   1.688   4.730
 8132SOL    HW125295   6.081   1.696   4.648
 8132SOL    HW225296   6.060   1.615   4.788
 8133SOL     OW25297   4.103   5.486   1.401
 8133SOL    HW125298   4.137   5.416   1.338
 8133SOL    HW225299   4.099   5.448   1.494
 8134SOL     OW25300   6.382   1.573   6.875
 8134SOL    HW125301   6.352   1.633   6.949
 8134SOL    HW225302   6.432   1.627   6.807
 8135SOL     OW25303   2.801   5.811   1.729
 8135SOL    HW125304   2.729   5.858   1.780
 8135SOL    HW225305   2.865   5.877   1.691
 8136SOL     OW25306   4.226   4.715   2.384
 8136SOL    HW125307   4.222   4.767   2.469
 8136SOL    HW225308   4.321   4.709   2.353
 8137SOL     OW25309   3.752   1.492   5.879
 8137SOL    HW125310   3.788   1.499   5.972
 8137SOL    HW225311   3.711   1.579   5.853
 8138SOL     OW25312   6.651   0.808   2.457
 8138SOL    HW125313   6.689   0.892   2.418
 8138SOL    HW225314   6.715   0.732   2.441
 8139SOL     OW25315   1.222   1.799   5.125
 8139SOL    HW125316   1.289   1.768   5.058
 8139SOL    HW225317   1.130   1.776   5.093
 8140SOL     OW25318   4.615   2.633   3.112
 8140SOL    HW125319   4.714   2.634   3.099
 8140SOL    HW225320   4.569   2.632   3.023
 8141SOL     OW25321   6.306   3.903   3.921
 8141SOL    HW125322   6.311   3.900   3.822
 8141SOL    HW225323   6.262   3.820   3.955
 8142SOL     OW25324   0.359   6.066   0.260
 8142SOL    HW125325   0.275   6.108   0.227
 8142SOL    HW225326   0.345   6.035   0.355
 8143SOL     OW25327   6.944   2.590   6.537
 8143SOL    HW125328   6.921   2.635   6.623
 8143SOL    HW225329   6.901   2.640   6.461
 8144SOL     OW25330   4.527   6.044   0.395
 8144SOL    HW125331   4.622   6.075   0.399
 8144SOL    HW225332   4.468   6.120   0.370
 8145SOL     OW25333   4.542   6.906   4.512
 8145SOL    HW125334   4.596   6.851   4.575
 8145SOL    HW225335   4.543   7.002   4.541
 8146SOL     OW25336   3.161   1.550   3.125
 8146SOL    HW125337   3.111   1.584   3.045
 8146SOL    HW225338   3.120   1.588   3.208
 8147SOL     OW25339   4.704   1.801   3.568
 8147SOL    HW125340   4.711   1.838   3.475
 8147SOL    HW225341   4.726   1.703   3.566
 8148SOL     OW25342   0.910   3.312   3.588
 8148SOL    HW125343   0.854   3.295   3.507
 8148SOL    HW225344   0.952   3.226   3.617
 8149SOL     OW25345   3.975   5.670   4.222
 8149SOL    HW125346   4.021   5.746   4.268
 8149SOL    HW225347   3.954   5.599   4.289
 8150SOL     OW25348   1.589   5.516   0.444
 8150SOL    HW125349   1.493   5.542   0.442
 8150SOL    HW225350   1.646   5.598   0.433
 8151SOL     OW25351   0.727   1.820   5.015
 8151SOL    HW125352   0.791   1.867   4.955
 8151SOL    HW225353   0.642   1.874   5.021
 8152SOL     OW25354   0.281   1.211   3.327
 8152SOL    HW125355   0.322   1.254   3.247
 8152SOL    HW225356   0.254   1.117   3.305
 8153SOL     OW25357   1.850   6.406   0.061
 8153SOL    HW125358   1.771   6.414   0.002
 8153SOL    HW225359   1.934   6.407   0.006
 8154SOL     OW25360   1.815   6.797   3.838
 8154SOL    HW125361   1.887   6.731   3.858
 8154SOL    HW225362   1.778   6.779   3.746
 8155SOL     OW25363   3.983   3.937   4.672
 8155SOL    HW125364   3.891   3.957   4.705
 8155SOL    HW225365   4.002   3.992   4.590
 8156SOL     OW25366   0.894   6.295   5.395
 8156SOL    HW125367   0.815   6.346   5.359
 8156SOL    HW225368   0.931   6.236   5.324
 8157SOL     OW25369   5.780   2.578   6.600
 8157SOL    HW125370   5.772   2.598   6.698
 8157SOL    HW225371   5.839   2.645   6.557
 8158SOL     OW25372   1.257   5.478   2.787
 8158SOL    HW125373   1.160   5.463   2.808
 8158SOL    HW225374   1.265   5.548   2.716
 8159SOL     OW25375   0.176   6.449   0.544
 8159SOL    HW125376   0.162   6.366   0.600
 8159SOL    HW225377   0.269   6.448   0.507
 8160SOL     OW25378   5.932   2.236   1.175
 8160SOL    HW125379   5.900   2.168   1.242
 8160SOL    HW225380   5.884   2.322   1.190
 8161SOL     OW25381   3.823   3.842   1.527
 8161SOL    HW125382   3.884   3.800   1.595
 8161SOL    HW225383   3.870   3.918   1.482
 8162SOL     OW25384   5.803   0.737   1.021
 8162SOL    HW125385   5.858   0.749   0.938
 8162SOL    HW225386   5.813   0.817   1.079
 8163SOL     OW25387   2.607   2.966   5.437
 8163SOL    HW125388   2.538   2.940   5.505
 8163SOL    HW225389   2.563   2.972   5.347
 8164SOL     OW25390   5.781   4.031   1.756
 8164SOL    HW125391   5.877   4.053   1.743
 8164SOL    HW225392   5.726   4.114   1.748
 8165SOL     OW25393   1.516   3.402   1.768
 8165SOL    HW125394   1.590   3.378   1.704
 8165SOL    HW225395   1.436   3.345   1.750
 8166SOL     OW25396   2.551   6.991   2.969
 8166SOL    HW125397   2.566   6.893   2.958
 8166SOL    HW225398   2.624   0.022   2.922
 8167SOL     OW25399   5.272   3.180   4.452
 8167SOL    HW125400   5.206   3.113   4.417
 8167SOL    HW225401   5.248   3.271   4.419
 8168SOL     OW25402   3.098   1.693   2.183
 8168SOL    HW125403   3.038   1.694   2.102
 8168SOL    HW225404   3.073   1.769   2.243
 8169SOL     OW25405   5.409   4.057   5.692
 8169SOL    HW125406   5.494   4.091   5.733
 8169SOL    HW225407   5.343   4.038   5.764
 8170SOL     OW25408   0.516   5.383   4.220
 8170SOL    HW125409   0.428   5.341   4.195
 8170SOL    HW225410   0.569   5.403   4.138
 8171SOL     OW25411   2.101   0.571   6.916
 8171SOL    HW125412   2.073   0.663   6.888
 8171SOL    HW225413   2.073   0.504   6.848
 8172SOL     OW25414   6.963   5.829   2.321
 8172SOL    HW125415   6.963   5.917   2.367
 8172SOL    HW225416   6.995   5.758   2.384
 8173SOL     OW25417   6.633   3.020   6.555
 8173SOL    HW125418   6.669   3.089   6.493
 8173SOL    HW225419   6.698   3.006   6.630
 8174SOL     OW25420   4.896   6.796   2.783
 8174SOL    HW125421   4.932   6.810   2.691
 8174SOL    HW225422   4.796   6.795   2.780
 8175SOL     OW25423   1.270   2.262   3.300
 8175SOL    HW125424   1.289   2.311   3.385
 8175SOL    HW225425   1.219   2.321   3.237
 8176SOL     OW25426   4.597   4.720   3.142
 8176SOL    HW125427   4.666   4.745   3.074
 8176SOL    HW225428   4.559   4.630   3.118
 8177SOL     OW25429   2.142   6.914   6.054
 8177SOL    HW125430   2.071   6.917   6.124
 8177SOL    HW225431   2.154   6.820   6.022
 8178SOL     OW25432   1.844   5.921   6.945
 8178SOL    HW125433   1.821   5.891   0.018
 8178SOL    HW225434   1.879   6.015   6.948
 8179SOL     OW25435   4.271   6.796   5.475
 8179SOL    HW125436   4.209   6.829   5.404
 8179SOL    HW225437   4.219   6.746   5.544
 8180SOL     OW25438   4.805   4.070   4.709
 8180SOL    HW125439   4.756   4.045   4.792
 8180SOL    HW225440   4.832   3.987   4.660
 8181SOL     OW25441   2.147   1.812   2.746
 8181SOL    HW125442   2.088   1.782   2.671
 8181SOL    HW225443   2.123   1.762   2.830
 8182SOL     OW25444   5.441   3.055   5.298
 8182SOL    HW125445   5.366   2.990   5.286
 8182SOL    HW225446   5.519   3.007   5.338
 8183SOL     OW25447   2.002   4.248   3.718
 8183SOL    HW125448   2.028   4.294   3.633
 8183SOL    HW225449   2.017   4.309   3.795
 8184SOL     OW25450   6.240   6.259   4.964
 8184SOL    HW125451   6.178   6.294   5.034
 8184SOL    HW225452   6.306   6.197   5.006
 8185SOL     OW25453   0.712   2.463   3.481
 8185SOL    HW125454   0.625   2.489   3.522
 8185SOL    HW225455   0.731   2.523   3.403
 8186SOL     OW25456   4.242   2.996   6.711
 8186SOL    HW125457   4.235   3.053   6.629
 8186SOL    HW225458   4.156   2.948   6.726
 8187SOL     OW25459   2.540   1.697   6.011
 8187SOL    HW125460   2.489   1.706   5.926
 8187SOL    HW225461   2.476   1.680   6.086
 8188SOL     OW25462   4.893   3.684   3.055
 8188SOL    HW125463   4.890   3.659   2.958
 8188SOL    HW225464   4.854   3.775   3.067
 8189SOL     OW25465   6.707   5.787   3.043
 8189SOL    HW125466   6.749   5.871   3.078
 8189SOL    HW225467   6.711   5.787   2.943
 8190SOL     OW25468   5.324   3.471   3.112
 8190SOL    HW125469   5.252   3.418   3.069
 8190SOL    HW225470   5.295   3.566   3.121
 8191SOL     OW25471   6.112   4.354   1.112
 8191SOL    HW125472   6.111   4.348   1.212
 8191SOL    HW225473   6.057   4.279   1.074
 8192SOL     OW25474   2.166   1.524   0.772
 8192SOL    HW125475   2.256   1.479   0.771
 8192SOL    HW225476   2.176   1.618   0.804
 8193SOL     OW25477   3.871   6.368   6.067
 8193SOL    HW125478   3.889   6.280   6.023
 8193SOL    HW225479   3.830   6.430   6.001
 8194SOL     OW25480   1.086   1.047   2.536
 8194SOL    HW125481   1.083   1.030   2.438
 8194SOL    HW225482   1.128   0.968   2.582
 8195SOL     OW25483   6.154   0.830   1.079
 8195SOL    HW125484   6.184   0.914   1.033
 8195SOL    HW225485   6.141   0.758   1.011
 8196SOL     OW25486   2.668   0.586   1.114
 8196SOL    HW125487   2.583   0.613   1.068
 8196SOL    HW225488   2.652   0.502   1.166
 8197SOL     OW25489   0.442   6.669   0.744
 8197SOL    HW125490   0.372   6.740   0.756
 8197SOL    HW225491   0.457   6.623   0.832
 8198SOL     OW25492   2.458   0.706   2.930
 8198SOL    HW125493   2.460   0.796   2.974
 8198SOL    HW225494   2.408   0.642   2.989
 8199SOL     OW25495   6.166   4.463   0.853
 8199SOL    HW125496   6.146   4.409   0.934
 8199SOL    HW225497   6.084   4.471   0.797
 8200SOL     OW25498   3.950   4.521   1.281
 8200SOL    HW125499   3.882   4.575   1.230
 8200SOL    HW225500   4.014   4.582   1.327
 8201SOL     OW25501   0.838   1.039   4.395
 8201SOL    HW125502   0.870   1.052   4.489
 8201SOL    HW225503   0.851   1.123   4.343
 8202SOL     OW25504   1.444   3.752   4.308
 8202SOL    HW125505   1.519   3.755   4.241
 8202SOL    HW225506   1.375   3.820   4.283
 8203SOL     OW25507   6.626   4.374   6.397
 8203SOL    HW125508   6.643   4.467   6.428
 8203SOL    HW225509   6.712   4.324   6.391
 8204SOL     OW25510   3.034   6.668   1.803
 8204SOL    HW125511   3.132   6.688   1.799
 8204SOL    HW225512   2.985   6.737   1.750
 8205SOL     OW25513   3.588   6.965   2.865
 8205SOL    HW125514   3.489   6.965   2.881
 8205SOL    HW225515   3.624   0.039   2.874
 8206SOL     OW25516   3.897   2.122   4.234
 8206SOL    HW125517   3.955   2.156   4.161
 8206SOL    HW225518   3.820   2.071   4.195
 8207SOL     OW25519   2.273   6.364   0.045
 8207SOL    HW125520   2.247   6.370   6.968
 8207SOL    HW225521   2.227   6.437   0.097
 8208SOL     OW25522   0.963   5.734   0.731
 8208SOL    HW125523   1.014   5.662   0.684
 8208SOL    HW225524   1.024   5.782   0.795
 8209SOL     OW25525   0.917   6.205   4.236
 8209SOL    HW125526   0.870   6.197   4.148
 8209SOL    HW225527   0.856   6.176   4.309
 8210SOL     OW25528   2.631   0.371   1.275
 8210SOL    HW125529   2.625   0.318   1.191
 8210SOL    HW225530   2.610   0.312   1.353
 8211SOL     OW25531   3.381   3.948   4.394
 8211SOL    HW125532   3.389   4.004   4.311
 8211SOL    HW225533   3.412   3.855   4.374
 8212SOL     OW25534   3.688   5.422   6.872
 8212SOL    HW125535   3.624   5.403   6.797
 8212SOL    HW225536   3.637   5.436   6.957
 8213SOL     OW25537   4.885   4.099   1.988
 8213SOL    HW125538   4.859   4.108   1.892
 8213SOL    HW225539   4.878   4.188   2.033
 8214SOL     OW25540   3.787   4.952   3.606
 8214SOL    HW125541   3.817   5.047   3.612
 8214SOL    HW225542   3.865   4.891   3.621
 8215SOL     OW25543   2.766   6.495   5.345
 8215SOL    HW125544   2.774   6.426   5.273
 8215SOL    HW225545   2.790   6.455   5.433
 8216SOL     OW25546   6.436   4.794   0.067
 8216SOL    HW125547   6.407   4.733   0.140
 8216SOL    HW225548   6.526   4.766   0.034
 8217SOL     OW25549   3.517   6.444   3.819
 8217SOL    HW125550   3.441   6.407   3.764
 8217SOL    HW225551   3.603   6.406   3.786
 8218SOL     OW25552   2.385   5.982   3.918
 8218SOL    HW125553   2.330   5.915   3.967
 8218SOL    HW225554   2.481   5.974   3.947
 8219SOL     OW25555   3.640   4.109   4.708
 8219SOL    HW125556   3.620   4.125   4.805
 8219SOL    HW225557   3.580   4.166   4.652
 8220SOL     OW25558   4.482   3.919   5.962
 8220SOL    HW125559   4.495   3.848   5.893
 8220SOL    HW225560   4.392   3.961   5.950
 8221SOL     OW25561   6.453   3.666   4.064
 8221SOL    HW125562   6.508   3.700   3.987
 8221SOL    HW225563   6.506   3.598   4.115
 8222SOL     OW25564   5.314   2.069   6.036
 8222SOL    HW125565   5.387   2.038   6.097
 8222SOL    HW225566   5.347   2.147   5.982
 8223SOL     OW25567   1.105   6.469   5.249
 8223SOL    HW125568   1.146   6.419   5.172
 8223SOL    HW225569   1.038   6.411   5.295
 8224SOL     OW25570   5.025   1.429   4.938
 8224SOL    HW125571   5.049   1.372   4.860
 8224SOL    HW225572   5.063   1.521   4.926
 8225SOL     OW25573   6.218   1.728   0.009
 8225SOL    HW125574   6.176   1.818   0.001
 8225SOL    HW225575   6.147   1.658   0.003
 8226SOL     OW25576   3.996   0.540   6.718
 8226SOL    HW125577   4.056   0.619   6.705
 8226SOL    HW225578   3.958   0.512   6.629
 8227SOL     OW25579   5.769   3.510   2.490
 8227SOL    HW125580   5.752   3.416   2.461
 8227SOL    HW225581   5.796   3.565   2.411
 8228SOL     OW25582   2.706   1.571   4.793
 8228SOL    HW125583   2.729   1.652   4.846
 8228SOL    HW225584   2.613   1.541   4.815
 8229SOL     OW25585   4.471   3.619   0.697
 8229SOL    HW125586   4.496   3.681   0.771
 8229SOL    HW225587   4.554   3.585   0.653
 8230SOL     OW25588   6.054   1.441   6.486
 8230SOL    HW125589   6.014   1.363   6.533
 8230SOL    HW225590   6.150   1.450   6.513
 8231SOL     OW25591   3.275   1.302   1.619
 8231SOL    HW125592   3.310   1.244   1.692
 8231SOL    HW225593   3.340   1.376   1.601
 8232SOL     OW25594   3.853   6.267   4.252
 8232SOL    HW125595   3.938   6.301   4.211
 8232SOL    HW225596   3.815   6.194   4.195
 8233SOL     OW25597   3.163   0.314   6.900
 8233SOL    HW125598   3.178   0.215   6.900
 8233SOL    HW225599   3.092   0.337   6.834
 8234SOL     OW25600   0.221   2.522   6.431
 8234SOL    HW125601   0.242   2.527   6.528
 8234SOL    HW225602   0.180   2.609   6.401
 8235SOL     OW25603   1.239   6.185   6.774
 8235SOL    HW125604   1.288   6.272   6.764
 8235SOL    HW225605   1.298   6.110   6.742
 8236SOL     OW25606   0.981   0.579   0.375
 8236SOL    HW125607   0.991   0.590   0.474
 8236SOL    HW225608   0.929   0.496   0.356
 8237SOL     OW25609   4.567   4.233   5.966
 8237SOL    HW125610   4.658   4.268   5.941
 8237SOL    HW225611   4.577   4.162   6.035
 8238SOL     OW25612   6.918   5.368   6.690
 8238SOL    HW125613   6.914   5.404   6.596
 8238SOL    HW225614   6.828   5.333   6.716
 8239SOL     OW25615   4.707   2.801   3.999
 8239SOL    HW125616   4.691   2.709   4.034
 8239SOL    HW225617   4.691   2.801   3.900
 8240SOL     OW25618   3.652   3.518   4.934
 8240SOL    HW125619   3.622   3.520   4.839
 8240SOL    HW225620   3.582   3.559   4.992
 8241SOL     OW25621   0.307   2.717   5.543
 8241SOL    HW125622   0.250   2.783   5.592
 8241SOL    HW225623   0.400   2.720   5.579
 8242SOL     OW25624   0.644   4.024   3.552
 8242SOL    HW125625   0.550   4.028   3.586
 8242SOL    HW225626   0.662   3.932   3.516
 8243SOL     OW25627   2.275   5.545   3.965
 8243SOL    HW125628   2.249   5.642   3.966
 8243SOL    HW225629   2.200   5.491   3.926
 8244SOL     OW25630   5.469   0.016   4.641
 8244SOL    HW125631   5.440   6.940   4.645
 8244SOL    HW225632   5.563   0.021   4.607
 8245SOL     OW25633   5.591   3.759   2.058
 8245SOL    HW125634   5.558   3.827   1.993
 8245SOL    HW225635   5.518   3.734   2.121
 8246SOL     OW25636   2.216   4.236   0.104
 8246SOL    HW125637   2.276   4.168   0.061
 8246SOL    HW225638   2.150   4.190   0.162
 8247SOL     OW25639   2.157   4.802   3.651
 8247SOL    HW125640   2.228   4.809   3.580
 8247SOL    HW225641   2.198   4.814   3.741
 8248SOL     OW25642   6.201   0.512   2.740
 8248SOL    HW125643   6.173   0.587   2.681
 8248SOL    HW225644   6.233   0.547   2.828
 8249SOL     OW25645   3.372   6.748   5.373
 8249SOL    HW125646   3.292   6.755   5.312
 8249SOL    HW225647   3.431   6.827   5.360
 8250SOL     OW25648   2.042   1.085   6.437
 8250SOL    HW125649   2.141   1.098   6.439
 8250SOL    HW225650   2.016   1.034   6.355
 8251SOL     OW25651   2.008   1.348   6.425
 8251SOL    HW125652   2.045   1.256   6.437
 8251SOL    HW225653   1.933   1.363   6.490
 8252SOL     OW25654   0.564   0.988   6.336
 8252SOL    HW125655   0.651   0.995   6.287
 8252SOL    HW225656   0.499   1.055   6.301
 8253SOL     OW25657   0.022   3.534   4.558
 8253SOL    HW125658   7.009   3.616   4.511
 8253SOL    HW225659   6.974   3.508   4.627
 8254SOL     OW25660   4.750   4.104   7.018
 8254SOL    HW125661   4.749   4.179   6.952
 8254SOL    HW225662   4.762   4.017   6.970
 8255SOL     OW25663   1.669   6.044   5.954
 8255SOL    HW125664   1.575   6.071   5.931
 8255SOL    HW225665   1.681   5.946   5.937
 8256SOL     OW25666   2.012   5.768   2.722
 8256SOL    HW125667   2.024   5.853   2.671
 8256SOL    HW225668   2.045   5.780   2.816
 8257SOL     OW25669   4.908   4.630   3.798
 8257SOL    HW125670   4.812   4.645   3.773
 8257SOL    HW225671   4.940   4.707   3.855
 8258SOL     OW25672   0.485   2.834   4.184
 8258SOL    HW125673   0.568   2.884   4.161
 8258SOL    HW225674   0.500   2.780   4.267
 8259SOL     OW25675   5.380   3.801   4.000
 8259SOL    HW125676   5.314   3.860   4.047
 8259SOL    HW225677   5.393   3.834   3.907
 8260SOL     OW25678   4.833   2.308   6.460
 8260SOL    HW125679   4.846   2.249   6.380
 8260SOL    HW225680   4.821   2.251   6.542
 8261SOL     OW25681   5.147   2.250   2.862
 8261SOL    HW125682   5.162   2.299   2.948
 8261SOL    HW225683   5.121   2.315   2.791
 8262SOL     OW25684   5.209   4.120   2.304
 8262SOL    HW125685   5.267   4.061   2.361
 8262SOL    HW225686   5.191   4.075   2.217
 8263SOL     OW25687   6.784   0.887   6.980
 8263SOL    HW125688   6.873   0.860   7.017
 8263SOL    HW225689   6.791   0.979   6.941
 8264SOL     OW25690   3.552   1.624   1.937
 8264SOL    HW125691   3.601   1.539   1.956
 8264SOL    HW225692   3.617   1.697   1.919
 8265SOL     OW25693   5.949   5.175   0.365
 8265SOL    HW125694   5.858   5.160   0.326
 8265SOL    HW225695   5.946   5.252   0.429
 8266SOL     OW25696   4.086   2.264   3.019
 8266SOL    HW125697   4.133   2.302   3.099
 8266SOL    HW225698   4.148   2.265   2.940
 8267SOL     OW25699   2.048   3.830   2.650
 8267SOL    HW125700   2.077   3.749   2.701
 8267SOL    HW225701   2.115   3.904   2.663
 8268SOL     OW25702   2.261   5.478   1.334
 8268SOL    HW125703   2.307   5.430   1.409
 8268SOL    HW225704   2.291   5.441   1.246
 8269SOL     OW25705   6.211   1.809   3.164
 8269SOL    HW125706   6.252   1.739   3.222
 8269SOL    HW225707   6.268   1.822   3.082
 8270SOL     OW25708   4.454   5.490   0.346
 8270SOL    HW125709   4.515   5.468   0.270
 8270SOL    HW225710   4.406   5.408   0.376
 8271SOL     OW25711   2.308   0.399   5.992
 8271SOL    HW125712   2.212   0.415   5.970
 8271SOL    HW225713   2.320   0.397   6.092
 8272SOL     OW25714   0.271   1.118   1.747
 8272SOL    HW125715   0.317   1.141   1.833
 8272SOL    HW225716   0.268   1.019   1.735
 8273SOL     OW25717   5.398   0.283   6.328
 8273SOL    HW125718   5.302   0.296   6.349
 8273SOL    HW225719   5.419   0.185   6.326
 8274SOL     OW25720   5.468   6.693   3.787
 8274SOL    HW125721   5.439   6.775   3.836
 8274SOL    HW225722   5.431   6.696   3.694
 8275SOL     OW25723   4.621   0.961   4.451
 8275SOL    HW125724   4.633   0.910   4.366
 8275SOL    HW225725   4.524   0.970   4.472
 8276SOL     OW25726   4.989   2.431   0.329
 8276SOL    HW125727   4.919   2.406   0.396
 8276SOL    HW225728   5.005   2.354   0.267
 8277SOL     OW25729   1.196   0.144   1.493
 8277SOL    HW125730   1.157   0.136   1.584
 8277SOL    HW225731   1.294   0.126   1.497
 8278SOL     OW25732   1.679   1.296   1.585
 8278SOL    HW125733   1.622   1.375   1.609
 8278SOL    HW225734   1.733   1.316   1.504
 8279SOL     OW25735   5.796   4.430   6.105
 8279SOL    HW125736   5.740   4.365   6.157
 8279SOL    HW225737   5.844   4.381   6.032
 8280SOL     OW25738   6.985   4.720   0.439
 8280SOL    HW125739   6.892   4.731   0.405
 8280SOL    HW225740   6.991   4.756   0.532
 8281SOL     OW25741   2.399   4.402   0.235
 8281SOL    HW125742   2.373   4.452   0.317
 8281SOL    HW225743   2.332   4.331   0.216
 8282SOL     OW25744   4.533   2.534   0.687
 8282SOL    HW125745   4.609   2.543   0.623
 8282SOL    HW225746   4.465   2.604   0.668
 8283SOL     OW25747   0.698   2.091   3.136
 8283SOL    HW125748   0.787   2.048   3.150
 8283SOL    HW225749   0.656   2.056   3.052
 8284SOL     OW25750   4.556   2.555   0.950
 8284SOL    HW125751   4.546   2.548   0.850
 8284SOL    HW225752   4.626   2.623   0.971
 8285SOL     OW25753   0.590   4.755   0.348
 8285SOL    HW125754   0.631   4.811   0.277
 8285SOL    HW225755   0.659   4.731   0.416
 8286SOL     OW25756   0.036   1.936   0.427
 8286SOL    HW125757   6.963   1.952   0.461
 8286SOL    HW225758   0.067   2.016   0.376
 8287SOL     OW25759   1.056   1.979   2.987
 8287SOL    HW125760   1.088   1.929   2.906
 8287SOL    HW225761   1.026   2.070   2.961
 8288SOL     OW25762   2.132   6.772   2.655
 8288SOL    HW125763   2.053   6.757   2.714
 8288SOL    HW225764   2.150   6.870   2.647
 8289SOL     OW25765   5.730   6.509   0.389
 8289SOL    HW125766   5.720   6.598   0.345
 8289SOL    HW225767   5.825   6.495   0.416
 8290SOL     OW25768   4.591   2.995   1.614
 8290SOL    HW125769   4.508   3.042   1.586
 8290SOL    HW225770   4.603   3.003   1.713
 8291SOL     OW25771   5.957   5.539   5.143
 8291SOL    HW125772   5.919   5.605   5.077
 8291SOL    HW225773   5.890   5.467   5.160
 8292SOL     OW25774   0.437   4.001   5.707
 8292SOL    HW125775   0.535   4.019   5.699
 8292SOL    HW225776   0.410   3.931   5.641
 8293SOL     OW25777   3.057   5.270   4.063
 8293SOL    HW125778   3.116   5.348   4.041
 8293SOL    HW225779   3.064   5.250   4.160
 8294SOL     OW25780   6.336   3.286   5.918
 8294SOL    HW125781   6.311   3.267   5.823
 8294SOL    HW225782   6.404   3.220   5.949
 8295SOL     OW25783   4.103   4.696   1.403
 8295SOL    HW125784   4.182   4.697   1.465
 8295SOL    HW225785   4.113   4.770   1.336
 8296SOL     OW25786   3.127   0.127   1.982
 8296SOL    HW125787   3.055   0.175   1.933
 8296SOL    HW225788   3.120   0.029   1.964
 8297SOL     OW25789   5.807   4.525   1.959
 8297SOL    HW125790   5.902   4.531   1.930
 8297SOL    HW225791   5.761   4.612   1.942
 8298SOL     OW25792   0.127   5.990   0.608
 8298SOL    HW125793   0.072   5.910   0.631
 8298SOL    HW225794   0.222   5.963   0.592
 8299SOL     OW25795   1.186   1.512   6.862
 8299SOL    HW125796   1.094   1.478   6.878
 8299SOL    HW225797   1.182   1.607   6.831
 8300SOL     OW25798   4.236   6.290   4.854
 8300SOL    HW125799   4.190   6.290   4.942
 8300SOL    HW225800   4.258   6.384   4.828
 8301SOL     OW25801   5.905   4.445   6.860
 8301SOL    HW125802   5.866   4.537   6.853
 8301SOL    HW225803   5.876   4.403   6.946
 8302SOL     OW25804   3.647   6.352   6.246
 8302SOL    HW125805   3.728   6.367   6.189
 8302SOL    HW225806   3.649   6.416   6.323
 8303SOL     OW25807   6.727   4.371   4.405
 8303SOL    HW125808   6.823   4.377   4.433
 8303SOL    HW225809   6.709   4.437   4.332
 8304SOL     OW25810   5.632   2.856   3.926
 8304SOL    HW125811   5.621   2.820   3.833
 8304SOL    HW225812   5.667   2.950   3.922
 8305SOL     OW25813   4.189   6.586   5.849
 8305SOL    HW125814   4.155   6.618   5.938
 8305SOL    HW225815   4.133   6.625   5.776
 8306SOL     OW25816   4.693   0.861   3.645
 8306SOL    HW125817   4.595   0.851   3.628
 8306SOL    HW225818   4.708   0.882   3.741
 8307SOL     OW25819   0.696   5.131   4.636
 8307SOL    HW125820   0.791   5.102   4.627
 8307SOL    HW225821   0.640   5.055   4.669
 8308SOL     OW25822   1.685   4.409   0.557
 8308SOL    HW125823   1.678   4.493   0.612
 8308SOL    HW225824   1.765   4.357   0.586
 8309SOL     OW25825   5.495   5.582   2.324
 8309SOL    HW125826   5.583   5.625   2.344
 8309SOL    HW225827   5.491   5.560   2.226
 8310SOL     OW25828   2.389   5.948   2.725
 8310SOL    HW125829   2.447   5.866   2.726
 8310SOL    HW225830   2.331   5.947   2.644
 8311SOL     OW25831   4.923   6.905   2.540
 8311SOL    HW125832   4.836   6.888   2.495
 8311SOL    HW225833   4.923   6.997   2.580
 8312SOL     OW25834   6.419   6.740   0.781
 8312SOL    HW125835   6.418   6.735   0.681
 8312SOL    HW225836   6.492   6.681   0.817
 8313SOL     OW25837   4.908   2.050   5.522
 8313SOL    HW125838   4.929   2.040   5.620
 8313SOL    HW225839   4.857   2.135   5.508
 8314SOL     OW25840   5.523   6.038   5.440
 8314SOL    HW125841   5.463   5.993   5.375
 8314SOL    HW225842   5.510   5.999   5.531
 8315SOL     OW25843   3.560   1.586   6.642
 8315SOL    HW125844   3.559   1.497   6.597
 8315SOL    HW225845   3.467   1.624   6.642
 8316SOL     OW25846   1.405   1.090   4.811
 8316SOL    HW125847   1.336   1.024   4.841
 8316SOL    HW225848   1.411   1.165   4.877
 8317SOL     OW25849   2.764   1.775   6.652
 8317SOL    HW125850   2.856   1.738   6.654
 8317SOL    HW225851   2.729   1.774   6.558
 8318SOL     OW25852   4.746   6.084   5.203
 8318SOL    HW125853   4.655   6.066   5.164
 8318SOL    HW225854   4.815   6.079   5.131
 8319SOL     OW25855   2.943   6.035   6.448
 8319SOL    HW125856   2.916   6.023   6.353
 8319SOL    HW225857   2.866   6.070   6.501
 8320SOL     OW25858   4.050   4.986   5.310
 8320SOL    HW125859   4.031   5.058   5.377
 8320SOL    HW225860   4.146   4.959   5.318
 8321SOL     OW25861   0.448   0.184   0.172
 8321SOL    HW125862   0.542   0.217   0.174
 8321SOL    HW225863   0.397   0.230   0.099
 8322SOL     OW25864   2.573   6.937   2.125
 8322SOL    HW125865   2.617   6.898   2.044
 8322SOL    HW225866   2.642   6.951   2.197
 8323SOL     OW25867   6.447   5.448   6.768
 8323SOL    HW125868   6.499   5.366   6.741
 8323SOL    HW225869   6.350   5.432   6.752
 8324SOL     OW25870   6.929   6.013   5.087
 8324SOL    HW125871   6.936   6.097   5.141
 8324SOL    HW225872   6.880   5.944   5.139
 8325SOL     OW25873   1.868   5.447   5.280
 8325SOL    HW125874   1.800   5.438   5.208
 8325SOL    HW225875   1.850   5.379   5.352
 8326SOL     OW25876   3.139   1.007   6.855
 8326SOL    HW125877   3.128   0.960   6.768
 8326SOL    HW225878   3.236   1.007   6.881
 8327SOL     OW25879   0.342   6.146   5.539
 8327SOL    HW125880   0.313   6.052   5.523
 8327SOL    HW225881   0.271   6.195   5.588
 8328SOL     OW25882   1.028   0.168   0.643
 8328SOL    HW125883   0.940   0.173   0.689
 8328SOL    HW225884   1.048   0.074   0.617
 8329SOL     OW25885   1.625   1.515   6.121
 8329SOL    HW125886   1.632   1.610   6.153
 8329SOL    HW225887   1.708   1.491   6.071
 8330SOL     OW25888   3.265   6.832   0.260
 8330SOL    HW125889   3.220   6.908   0.214
 8330SOL    HW225890   3.210   6.749   0.250
 8331SOL     OW25891   1.680   2.598   5.951
 8331SOL    HW125892   1.741   2.647   5.889
 8331SOL    HW225893   1.631   2.527   5.901
 8332SOL     OW25894   5.280   4.076   0.948
 8332SOL    HW125895   5.238   4.163   0.921
 8332SOL    HW225896   5.286   4.015   0.869
 8333SOL     OW25897   1.981   4.508   5.735
 8333SOL    HW125898   1.977   4.608   5.723
 8333SOL    HW225899   1.999   4.487   5.831
 8334SOL     OW25900   2.985   2.759   5.339
 8334SOL    HW125901   2.892   2.774   5.373
 8334SOL    HW225902   2.994   2.665   5.306
 8335SOL     OW25903   6.250   2.937   0.137
 8335SOL    HW125904   6.217   2.980   0.221
 8335SOL    HW225905   6.200   2.973   0.059
 8336SOL     OW25906   0.486   4.691   3.914
 8336SOL    HW125907   0.519   4.667   4.005
 8336SOL    HW225908   0.532   4.774   3.883
 8337SOL     OW25909   6.313   6.906   4.461
 8337SOL    HW125910   6.301   6.958   4.376
 8337SOL    HW225911   6.224   6.878   4.496
 8338SOL     OW25912   2.512   4.758   1.005
 8338SOL    HW125913   2.414   4.768   1.020
 8338SOL    HW225914   2.538   4.661   1.009
 8339SOL     OW25915   6.505   0.254   1.660
 8339SOL    HW125916   6.408   0.272   1.674
 8339SOL    HW225917   6.546   0.222   1.745
 8340SOL     OW25918   6.093   2.438   6.372
 8340SOL    HW125919   6.148   2.384   6.435
 8340SOL    HW225920   6.036   2.376   6.317
 8341SOL     OW25921   3.435   0.039   1.221
 8341SOL    HW125922   3.517   7.004   1.236
 8341SOL    HW225923   3.460   0.128   1.184
 8342SOL     OW25924   4.013   0.959   1.527
 8342SOL    HW125925   4.043   1.009   1.446
 8342SOL    HW225926   4.053   0.868   1.526
 8343SOL     OW25927   4.474   6.022   3.269
 8343SOL    HW125928   4.537   5.944   3.264
 8343SOL    HW225929   4.499   6.080   3.347
 8344SOL     OW25930   2.362   4.271   4.686
 8344SOL    HW125931   2.316   4.348   4.730
 8344SOL    HW225932   2.337   4.186   4.733
 8345SOL     OW25933   6.867   6.955   4.144
 8345SOL    HW125934   6.777   6.940   4.185
 8345SOL    HW225935   6.862   0.011   4.079
 8346SOL     OW25936   5.339   3.929   2.783
 8346SOL    HW125937   5.280   3.892   2.855
 8346SOL    HW225938   5.419   3.871   2.772
 8347SOL     OW25939   1.627   1.448   6.805
 8347SOL    HW125940   1.534   1.415   6.788
 8347SOL    HW225941   1.622   1.530   6.863
 8348SOL     OW25942   2.521   6.856   0.935
 8348SOL    HW125943   2.563   6.901   0.856
 8348SOL    HW225944   2.580   6.782   0.967
 8349SOL     OW25945   4.641   6.114   1.102
 8349SOL    HW125946   4.577   6.146   1.032
 8349SOL    HW225947   4.676   6.024   1.077
 8350SOL     OW25948   2.561   0.616   6.604
 8350SOL    HW125949   2.596   0.660   6.522
 8350SOL    HW225950   2.491   0.548   6.578
 8351SOL     OW25951   0.320   4.570   3.227
 8351SOL    HW125952   0.366   4.612   3.305
 8351SOL    HW225953   0.386   4.554   3.154
 8352SOL     OW25954   2.300   6.610   6.533
 8352SOL    HW125955   2.301   6.544   6.458
 8352SOL    HW225956   2.290   6.702   6.496
 8353SOL     OW25957   1.222   5.827   2.679
 8353SOL    HW125958   1.265   5.774   2.751
 8353SOL    HW225959   1.127   5.846   2.704
 8354SOL     OW25960   5.386   3.105   3.844
 8354SOL    HW125961   5.417   3.123   3.750
 8354SOL    HW225962   5.446   3.153   3.908
 8355SOL     OW25963   3.398   3.905   5.591
 8355SOL    HW125964   3.371   3.873   5.682
 8355SOL    HW225965   3.423   3.826   5.535
 8356SOL     OW25966   3.312   3.321   2.523
 8356SOL    HW125967   3.321   3.420   2.510
 8356SOL    HW225968   3.298   3.277   2.435
 8357SOL     OW25969   3.011   6.613   5.289
 8357SOL    HW125970   3.059   6.536   5.331
 8357SOL    HW225971   2.917   6.615   5.322
 8358SOL     OW25972   0.447   0.530   4.690
 8358SOL    HW125973   0.503   0.448   4.680
 8358SOL    HW225974   0.385   0.519   4.768
 8359SOL     OW25975   5.315   2.761   5.198
 8359SOL    HW125976   5.407   2.762   5.158
 8359SOL    HW225977   5.266   2.844   5.171
 8360SOL     OW25978   3.359   0.292   2.391
 8360SOL    HW125979   3.323   0.361   2.328
 8360SOL    HW225980   3.316   0.203   2.372
 8361SOL     OW25981   4.933   1.620   6.924
 8361SOL    HW125982   5.028   1.626   6.957
 8361SOL    HW225983   4.910   1.705   6.876
 8362SOL     OW25984   0.613   4.688   2.118
 8362SOL    HW125985   0.571   4.658   2.203
 8362SOL    HW225986   0.713   4.688   2.129
 8363SOL     OW25987   3.586   2.501   1.273
 8363SOL    HW125988   3.611   2.592   1.240
 8363SOL    HW225989   3.556   2.507   1.368
 8364SOL     OW25990   0.463   1.692   3.446
 8364SOL    HW125991   0.532   1.761   3.426
 8364SOL    HW225992   0.508   1.609   3.479
 8365SOL     OW25993   2.532   2.618   1.026
 8365SOL    HW125994   2.523   2.641   1.123
 8365SOL    HW225995   2.600   2.678   0.984
 8366SOL     OW25996   4.929   6.006   1.441
 8366SOL    HW125997   4.873   6.089   1.431
 8366SOL    HW225998   5.024   6.028   1.418
 8367SOL     OW25999   0.803   4.889   4.062
 8367SOL    HW126000   0.892   4.924   4.091
 8367SOL    HW226001   0.733   4.958   4.078
 8368SOL     OW26002   0.329   3.117   5.880
 8368SOL    HW126003   0.351   3.160   5.792
 8368SOL    HW226004   0.262   3.173   5.929
 8369SOL     OW26005   1.292   0.999   0.610
 8369SOL    HW126006   1.320   0.932   0.540
 8369SOL    HW226007   1.225   0.957   0.671
 8370SOL     OW26008   2.678   3.210   1.451
 8370SOL    HW126009   2.656   3.307   1.450
 8370SOL    HW226010   2.679   3.177   1.546
 8371SOL     OW26011   2.949   4.527   5.581
 8371SOL    HW126012   2.967   4.430   5.595
 8371SOL    HW226013   3.034   4.573   5.555
 8372SOL     OW26014   1.531   0.015   3.464
 8372SOL    HW126015   1.623   0.010   3.424
 8372SOL    HW226016   1.463   7.006   3.397
 8373SOL     OW26017   6.135   0.380   4.611
 8373SOL    HW126018   6.152   0.414   4.704
 8373SOL    HW226019   6.220   0.346   4.571
 8374SOL     OW26020   0.873   2.218   3.532
 8374SOL    HW126021   0.798   2.152   3.530
 8374SOL    HW226022   0.847   2.300   3.481
 8375SOL     OW26023   1.650   2.358   5.525
 8375SOL    HW126024   1.665   2.301   5.606
 8375SOL    HW226025   1.654   2.455   5.551
 8376SOL     OW26026   0.697   1.188   3.646
 8376SOL    HW126027   0.632   1.117   3.620
 8376SOL    HW226028   0.780   1.147   3.682
 8377SOL     OW26029   4.741   6.026   1.839
 8377SOL    HW126030   4.675   6.095   1.810
 8377SOL    HW226031   4.750   6.029   1.939
 8378SOL     OW26032   4.313   5.991   6.217
 8378SOL    HW126033   4.244   6.037   6.162
 8378SOL    HW226034   4.268   5.928   6.280
 8379SOL     OW26035   6.006   2.934   1.902
 8379SOL    HW126036   5.911   2.919   1.876
 8379SOL    HW226037   6.056   2.847   1.894
 8380SOL     OW26038   1.649   5.280   2.696
 8380SOL    HW126039   1.580   5.209   2.702
 8380SOL    HW226040   1.687   5.298   2.787
 8381SOL     OW26041   0.449   2.649   2.838
 8381SOL    HW126042   0.453   2.730   2.779
 8381SOL    HW226043   0.364   2.650   2.891
 8382SOL     OW26044   1.262   0.387   2.189
 8382SOL    HW126045   1.263   0.371   2.091
 8382SOL    HW226046   1.196   0.459   2.211
 8383SOL     OW26047   1.801   6.814   4.821
 8383SOL    HW126048   1.752   6.890   4.779
 8383SOL    HW226049   1.899   6.835   4.824
 8384SOL     OW26050   0.564   4.224   3.957
 8384SOL    HW126051   0.570   4.161   4.035
 8384SOL    HW226052   0.533   4.314   3.990
 8385SOL     OW26053   4.496   2.456   1.875
 8385SOL    HW126054   4.559   2.510   1.818
 8385SOL    HW226055   4.462   2.513   1.949
 8386SOL     OW26056   6.556   5.675   2.100
 8386SOL    HW126057   6.649   5.691   2.132
 8386SOL    HW226058   6.530   5.580   2.115
 8387SOL     OW26059   0.489   2.571   3.638
 8387SOL    HW126060   0.419   2.504   3.662
 8387SOL    HW226061   0.447   2.651   3.596
 8388SOL     OW26062   3.102   6.439   1.368
 8388SOL    HW126063   3.152   6.519   1.334
 8388SOL    HW226064   3.167   6.368   1.394
 8389SOL     OW26065   1.312   2.661   4.367
 8389SOL    HW126066   1.272   2.626   4.451
 8389SOL    HW226067   1.273   2.612   4.289
 8390SOL     OW26068   1.086   6.442   6.472
 8390SOL    HW126069   1.022   6.392   6.531
 8390SOL    HW226070   1.176   6.444   6.514
 8391SOL     OW26071   4.912   6.165   1.084
 8391SOL    HW126072   4.816   6.143   1.101
 8391SOL    HW226073   4.925   6.187   0.987
 8392SOL     OW26074   3.308   5.829   0.520
 8392SOL    HW126075   3.249   5.886   0.464
 8392SOL    HW226076   3.261   5.745   0.544
 8393SOL     OW26077   1.438   6.675   1.866
 8393SOL    HW126078   1.449   6.579   1.891
 8393SOL    HW226079   1.404   6.726   1.945
 8394SOL     OW26080   1.707   1.198   4.011
 8394SOL    HW126081   1.630   1.155   3.964
 8394SOL    HW226082   1.685   1.209   4.108
 8395SOL     OW26083   1.925   6.112   6.540
 8395SOL    HW126084   1.981   6.031   6.555
 8395SOL    HW226085   1.953   6.184   6.603
 8396SOL     OW26086   4.983   1.725   0.214
 8396SOL    HW126087   4.995   1.706   0.311
 8396SOL    HW226088   4.977   1.638   0.163
 8397SOL     OW26089   0.636   4.465   3.468
 8397SOL    HW126090   0.565   4.495   3.532
 8397SOL    HW226091   0.611   4.377   3.429
 8398SOL     OW26092   5.748   1.854   6.358
 8398SOL    HW126093   5.769   1.781   6.292
 8398SOL    HW226094   5.685   1.818   6.428
 8399SOL     OW26095   5.345   6.948   5.217
 8399SOL    HW126096   5.278   6.901   5.160
 8399SOL    HW226097   5.307   0.016   5.248
 8400SOL     OW26098   5.767   5.755   3.014
 8400SOL    HW126099   5.739   5.850   3.022
 8400SOL    HW226100   5.854   5.742   3.060
 8401SOL     OW26101   2.225   3.426   5.245
 8401SOL    HW126102   2.224   3.428   5.145
 8401SOL    HW226103   2.194   3.336   5.276
 8402SOL     OW26104   4.636   1.234   4.548
 8402SOL    HW126105   4.565   1.294   4.513
 8402SOL    HW226106   4.640   1.150   4.492
 8403SOL     OW26107   0.842   1.679   6.351
 8403SOL    HW126108   0.822   1.714   6.442
 8403SOL    HW226109   0.756   1.665   6.301
 8404SOL     OW26110   4.950   5.382   5.068
 8404SOL    HW126111   4.881   5.364   4.998
 8404SOL    HW226112   4.905   5.403   5.155
 8405SOL     OW26113   0.700   2.655   6.247
 8405SOL    HW126114   0.636   2.632   6.175
 8405SOL    HW226115   0.776   2.709   6.209
 8406SOL     OW26116   6.006   3.655   1.789
 8406SOL    HW126117   6.083   3.706   1.827
 8406SOL    HW226118   6.040   3.588   1.722
 8407SOL     OW26119   5.316   3.341   2.433
 8407SOL    HW126120   5.267   3.332   2.519
 8407SOL    HW226121   5.411   3.312   2.445
 8408SOL     OW26122   5.301   4.304   4.321
 8408SOL    HW126123   5.208   4.341   4.315
 8408SOL    HW226124   5.364   4.368   4.276
 8409SOL     OW26125   1.090   1.934   3.890
 8409SOL    HW126126   1.168   1.872   3.896
 8409SOL    HW226127   1.122   2.028   3.880
 8410SOL     OW26128   1.960   5.532   2.350
 8410SOL    HW126129   1.887   5.582   2.305
 8410SOL    HW226130   2.047   5.553   2.305
 8411SOL     OW26131   2.131   3.604   2.973
 8411SOL    HW126132   2.034   3.604   2.995
 8411SOL    HW226133   2.144   3.575   2.878
 8412SOL     OW26134   5.618   2.341   2.675
 8412SOL    HW126135   5.697   2.363   2.732
 8412SOL    HW226136   5.641   2.360   2.579
 8413SOL     OW26137   1.390   5.450   2.115
 8413SOL    HW126138   1.332   5.394   2.056
 8413SOL    HW226139   1.452   5.392   2.167
 8414SOL     OW26140   6.356   0.236   4.555
 8414SOL    HW126141   6.333   0.148   4.596
 8414SOL    HW226142   6.422   0.221   4.481
 8415SOL     OW26143   0.459   4.667   0.767
 8415SOL    HW126144   0.415   4.604   0.830
 8415SOL    HW226145   0.463   4.758   0.808
 8416SOL     OW26146   4.231   4.784   2.933
 8416SOL    HW126147   4.297   4.804   3.005
 8416SOL    HW226148   4.267   4.714   2.872
 8417SOL     OW26149   0.882   5.385   6.787
 8417SOL    HW126150   0.800   5.367   6.841
 8417SOL    HW226151   0.916   5.477   6.807
 8418SOL     OW26152   5.543   6.425   2.629
 8418SOL    HW126153   5.631   6.383   2.650
 8418SOL    HW226154   5.476   6.354   2.609
 8419SOL     OW26155   2.215   1.562   3.104
 8419SOL    HW126156   2.164   1.480   3.079
 8419SOL    HW226157   2.157   1.643   3.093
 8420SOL     OW26158   4.809   1.808   5.424
 8420SOL    HW126159   4.750   1.780   5.500
 8420SOL    HW226160   4.837   1.904   5.437
 8421SOL     OW26161   0.252   1.055   0.741
 8421SOL    HW126162   0.291   1.032   0.652
 8421SOL    HW226163   0.152   1.057   0.734
 8422SOL     OW26164   2.884   0.881   1.456
 8422SOL    HW126165   2.788   0.855   1.446
 8422SOL    HW226166   2.900   0.970   1.414
 8423SOL     OW26167   2.077   4.827   1.393
 8423SOL    HW126168   2.059   4.736   1.429
 8423SOL    HW226169   2.051   4.896   1.462
 8424SOL     OW26170   2.694   2.273   2.192
 8424SOL    HW126171   2.773   2.290   2.132
 8424SOL    HW226172   2.631   2.351   2.188
 8425SOL     OW26173   0.073   5.372   5.456
 8425SOL    HW126174   0.016   5.447   5.490
 8425SOL    HW226175   0.044   5.348   5.363
 8426SOL     OW26176   3.510   4.077   2.728
 8426SOL    HW126177   3.531   4.100   2.823
 8426SOL    HW226178   3.585   4.110   2.669
 8427SOL     OW26179   2.295   1.132   6.756
 8427SOL    HW126180   2.346   1.047   6.746
 8427SOL    HW226181   2.284   1.153   6.853
 8428SOL     OW26182   6.708   3.484   2.054
 8428SOL    HW126183   6.656   3.569   2.063
 8428SOL    HW226184   6.652   3.416   2.006
 8429SOL     OW26185   1.453   6.721   3.038
 8429SOL    HW126186   1.512   6.708   3.118
 8429SOL    HW226187   1.424   6.631   3.003
 8430SOL     OW26188   3.536   6.541   3.377
 8430SOL    HW126189   3.580   6.455   3.351
 8430SOL    HW226190   3.606   6.607   3.403
 8431SOL     OW26191   3.083   3.485   2.776
 8431SOL    HW126192   3.099   3.392   2.743
 8431SOL    HW226193   3.157   3.545   2.746
 8432SOL     OW26194   4.326   5.744   0.914
 8432SOL    HW126195   4.275   5.759   0.830
 8432SOL    HW226196   4.423   5.734   0.893
 8433SOL     OW26197   6.475   1.450   3.544
 8433SOL    HW126198   6.380   1.471   3.568
 8433SOL    HW226199   6.508   1.517   3.478
 8434SOL     OW26200   5.209   6.426   0.229
 8434SOL    HW126201   5.204   6.414   0.328
 8434SOL    HW226202   5.148   6.360   0.184
 8435SOL     OW26203   5.611   3.600   0.662
 8435SOL    HW126204   5.639   3.509   0.693
 8435SOL    HW226205   5.521   3.622   0.700
 8436SOL     OW26206   3.484   4.205   1.646
 8436SOL    HW126207   3.450   4.133   1.587
 8436SOL    HW226208   3.410   4.269   1.668
 8437SOL     OW26209   0.406   2.930   0.743
 8437SOL    HW126210   0.397   2.836   0.776
 8437SOL    HW226211   0.432   2.990   0.819
 8438SOL     OW26212   2.899   5.540   1.730
 8438SOL    HW126213   2.897   5.520   1.827
 8438SOL    HW226214   2.879   5.637   1.715
 8439SOL     OW26215   5.228   0.342   2.344
 8439SOL    HW126216   5.234   0.284   2.263
 8439SOL    HW226217   5.320   0.359   2.380
 8440SOL     OW26218   1.286   3.912   3.511
 8440SOL    HW126219   1.336   3.825   3.522
 8440SOL    HW226220   1.298   3.944   3.417
 8441SOL     OW26221   4.087   5.743   1.517
 8441SOL    HW126222   4.156   5.764   1.586
 8441SOL    HW226223   4.103   5.652   1.480
 8442SOL     OW26224   3.016   3.211   0.589
 8442SOL    HW126225   2.975   3.126   0.623
 8442SOL    HW226226   2.944   3.278   0.573
 8443SOL     OW26227   6.967   2.798   0.665
 8443SOL    HW126228   6.975   2.822   0.762
 8443SOL    HW226229   6.927   2.875   0.615
 8444SOL     OW26230   5.064   2.492   3.188
 8444SOL    HW126231   5.098   2.568   3.243
 8444SOL    HW226232   4.995   2.525   3.124
 8445SOL     OW26233   3.402   5.442   2.964
 8445SOL    HW126234   3.488   5.402   2.931
 8445SOL    HW226235   3.364   5.384   3.036
 8446SOL     OW26236   6.281   3.969   3.373
 8446SOL    HW126237   6.301   4.025   3.292
 8446SOL    HW226238   6.210   4.013   3.427
 8447SOL     OW26239   5.565   5.023   1.083
 8447SOL    HW126240   5.580   4.936   1.130
 8447SOL    HW226241   5.536   5.006   0.989
 8448SOL     OW26242   1.543   4.517   5.394
 8448SOL    HW126243   1.500   4.552   5.311
 8448SOL    HW226244   1.547   4.417   5.389
 8449SOL     OW26245   2.041   0.814   5.637
 8449SOL    HW126246   2.026   0.908   5.668
 8449SOL    HW226247   1.957   0.761   5.646
 8450SOL     OW26248   1.490   5.690   1.183
 8450SOL    HW126249   1.550   5.655   1.111
 8450SOL    HW226250   1.512   5.786   1.201
 8451SOL     OW26251   2.698   4.145   1.491
 8451SOL    HW126252   2.791   4.109   1.488
 8451SOL    HW226253   2.695   4.226   1.550
 8452SOL     OW26254   6.596   5.888   2.379
 8452SOL    HW126255   6.515   5.859   2.430
 8452SOL    HW226256   6.637   5.810   2.333
 8453SOL     OW26257   0.835   4.364   5.293
 8453SOL    HW126258   0.912   4.418   5.260
 8453SOL    HW226259   0.787   4.415   5.365
 8454SOL     OW26260   1.865   6.969   5.669
 8454SOL    HW126261   1.853   6.916   5.753
 8454SOL    HW226262   1.958   6.955   5.634
 8455SOL     OW26263   6.366   2.148   0.306
 8455SOL    HW126264   6.356   2.172   0.209
 8455SOL    HW226265   6.461   2.164   0.334
 8456SOL     OW26266   5.944   4.745   3.748
 8456SOL    HW126267   5.996   4.726   3.831
 8456SOL    HW226268   5.850   4.770   3.771
 8457SOL     OW26269   5.519   6.145   6.204
 8457SOL    HW126270   5.613   6.179   6.203
 8457SOL    HW226271   5.464   6.201   6.265
 8458SOL     OW26272   1.221   1.461   1.486
 8458SOL    HW126273   1.270   1.483   1.402
 8458SOL    HW226274   1.221   1.362   1.499
 8459SOL     OW26275   2.341   4.930   2.688
 8459SOL    HW126276   2.415   4.978   2.736
 8459SOL    HW226277   2.264   4.916   2.750
 8460SOL     OW26278   3.460   1.211   0.998
 8460SOL    HW126279   3.511   1.144   0.944
 8460SOL    HW226280   3.472   1.302   0.958
 8461SOL     OW26281   5.586   4.674   3.087
 8461SOL    HW126282   5.512   4.613   3.117
 8461SOL    HW226283   5.616   4.647   2.996
 8462SOL     OW26284   2.030   3.645   0.562
 8462SOL    HW126285   2.100   3.716   0.552
 8462SOL    HW226286   2.070   3.565   0.606
 8463SOL     OW26287   0.388   6.482   1.911
 8463SOL    HW126288   0.381   6.540   1.992
 8463SOL    HW226289   0.485   6.468   1.889
 8464SOL     OW26290   6.925   3.227   0.036
 8464SOL    HW126291   6.953   3.279   6.974
 8464SOL    HW226292   6.829   3.200   0.027
 8465SOL     OW26293   6.143   4.082   0.761
 8465SOL    HW126294   6.052   4.123   0.755
 8465SOL    HW226295   6.139   3.986   0.734
 8466SOL     OW26296   0.278   1.332   4.797
 8466SOL    HW126297   0.283   1.432   4.792
 8466SOL    HW226298   0.362   1.292   4.760
 8467SOL     OW26299   3.116   1.217   0.579
 8467SOL    HW126300   3.206   1.238   0.541
 8467SOL    HW226301   3.119   1.223   0.679
 8468SOL     OW26302   6.558   3.712   2.083
 8468SOL    HW126303   6.474   3.667   2.054
 8468SOL    HW226304   6.548   3.743   2.177
 8469SOL     OW26305   3.390   2.902   5.539
 8469SOL    HW126306   3.417   2.861   5.626
 8469SOL    HW226307   3.300   2.869   5.513
 8470SOL     OW26308   1.612   5.602   0.939
 8470SOL    HW126309   1.704   5.621   0.904
 8470SOL    HW226310   1.574   5.524   0.890
 8471SOL     OW26311   3.872   1.833   3.783
 8471SOL    HW126312   3.870   1.755   3.846
 8471SOL    HW226313   3.933   1.904   3.819
 8472SOL     OW26314   6.289   1.495   6.634
 8472SOL    HW126315   6.264   1.589   6.613
 8472SOL    HW226316   6.334   1.491   6.723
 8473SOL     OW26317   5.048   5.160   5.591
 8473SOL    HW126318   5.126   5.164   5.529
 8473SOL    HW226319   4.998   5.246   5.587
 8474SOL     OW26320   3.487   4.117   6.485
 8474SOL    HW126321   3.522   4.026   6.508
 8474SOL    HW226322   3.461   4.119   6.389
 8475SOL     OW26323   0.771   1.999   2.794
 8475SOL    HW126324   0.758   1.933   2.868
 8475SOL    HW226325   0.852   1.974   2.740
 8476SOL     OW26326   6.825   0.599   2.422
 8476SOL    HW126327   6.867   0.599   2.513
 8476SOL    HW226328   6.886   0.644   2.357
 8477SOL     OW26329   5.849   6.543   0.816
 8477SOL    HW126330   5.844   6.581   0.908
 8477SOL    HW226331   5.811   6.607   0.750
 8478SOL     OW26332   2.092   6.713   6.694
 8478SOL    HW126333   2.008   6.662   6.682
 8478SOL    HW226334   2.164   6.673   6.637
 8479SOL     OW26335   1.695   2.235   6.870
 8479SOL    HW126336   1.704   2.136   6.877
 8479SOL    HW226337   1.598   2.260   6.871
 8480SOL     OW26338   3.273   4.378   1.642
 8480SOL    HW126339   3.336   4.455   1.654
 8480SOL    HW226340   3.214   4.395   1.563
 8481SOL     OW26341   5.567   3.427   2.061
 8481SOL    HW126342   5.501   3.448   1.990
 8481SOL    HW226343   5.653   3.475   2.042
 8482SOL     OW26344   5.007   7.002   5.787
 8482SOL    HW126345   5.013   0.081   5.773
 8482SOL    HW226346   5.091   6.958   5.755
 8483SOL     OW26347   4.742   5.363   4.012
 8483SOL    HW126348   4.806   5.360   4.089
 8483SOL    HW226349   4.704   5.271   3.998
 8484SOL     OW26350   5.505   6.736   5.607
 8484SOL    HW126351   5.518   6.657   5.547
 8484SOL    HW226352   5.432   6.793   5.571
 8485SOL     OW26353   3.353   0.361   5.640
 8485SOL    HW126354   3.333   0.393   5.732
 8485SOL    HW226355   3.268   0.353   5.588
 8486SOL     OW26356   4.742   2.952   4.901
 8486SOL    HW126357   4.785   2.927   4.988
 8486SOL    HW226358   4.649   2.986   4.917
 8487SOL     OW26359   0.724   1.521   5.405
 8487SOL    HW126360   0.746   1.581   5.482
 8487SOL    HW226361   0.797   1.454   5.393
 8488SOL     OW26362   4.220   5.659   3.006
 8488SOL    HW126363   4.243   5.679   2.911
 8488SOL    HW226364   4.193   5.563   3.014
 8489SOL     OW26365   6.257   2.186   1.772
 8489SOL    HW126366   6.178   2.200   1.712
 8489SOL    HW226367   6.240   2.228   1.861
 8490SOL     OW26368   4.291   0.331   6.799
 8490SOL    HW126369   4.251   0.317   6.890
 8490SOL    HW226370   4.344   0.416   6.799
 8491SOL     OW26371   2.931   6.208   1.782
 8491SOL    HW126372   2.942   6.116   1.745
 8491SOL    HW226373   2.970   6.274   1.718
 8492SOL     OW26374   5.887   6.519   3.886
 8492SOL    HW126375   5.912   6.583   3.813
 8492SOL    HW226376   5.970   6.475   3.921
 8493SOL     OW26377   5.038   0.127   5.439
 8493SOL    HW126378   4.942   0.111   5.416
 8493SOL    HW226379   5.045   0.157   5.534
 8494SOL     OW26380   0.394   3.778   2.346
 8494SOL    HW126381   0.429   3.858   2.298
 8494SOL    HW226382   0.430   3.695   2.304
 8495SOL     OW26383   4.287   5.882   4.542
 8495SOL    HW126384   4.270   5.843   4.632
 8495SOL    HW226385   4.290   5.982   4.549
 8496SOL     OW26386   3.831   1.970   2.270
 8496SOL    HW126387   3.757   1.992   2.207
 8496SOL    HW226388   3.801   1.988   2.364
 8497SOL     OW26389   6.448   0.977   3.166
 8497SOL    HW126390   6.515   0.903   3.172
 8497SOL    HW226391   6.478   1.044   3.098
 8498SOL     OW26392   5.789   6.128   5.431
 8498SOL    HW126393   5.697   6.090   5.440
 8498SOL    HW226394   5.843   6.104   5.511
 8499SOL     OW26395   6.410   0.202   5.996
 8499SOL    HW126396   6.485   0.260   5.966
 8499SOL    HW226397   6.323   0.240   5.964
 8500SOL     OW26398   0.284   0.627   5.654
 8500SOL    HW126399   0.288   0.655   5.558
 8500SOL    HW226400   0.189   0.619   5.683
 8501SOL     OW26401   3.659   6.737   4.995
 8501SOL    HW126402   3.590   6.666   4.997
 8501SOL    HW226403   3.725   6.718   4.922
 8502SOL     OW26404   6.570   2.767   0.590
 8502SOL    HW126405   6.610   2.692   0.536
 8502SOL    HW226406   6.638   2.840   0.601
 8503SOL     OW26407   4.873   2.566   5.900
 8503SOL    HW126408   4.840   2.482   5.858
 8503SOL    HW226409   4.918   2.623   5.831
 8504SOL     OW26410   1.411   1.007   3.332
 8504SOL    HW126411   1.368   1.024   3.421
 8504SOL    HW226412   1.344   1.023   3.259
 8505SOL     OW26413   6.182   1.234   2.749
 8505SOL    HW126414   6.278   1.207   2.743
 8505SOL    HW226415   6.164   1.275   2.838
 8506SOL     OW26416   2.052   1.116   4.267
 8506SOL    HW126417   1.981   1.140   4.333
 8506SOL    HW226418   2.010   1.084   4.182
 8507SOL     OW26419   4.097   5.735   0.245
 8507SOL    HW126420   4.166   5.752   0.314
 8507SOL    HW226421   4.119   5.651   0.195
 8508SOL     OW26422   3.445   0.967   5.741
 8508SOL    HW126423   3.387   0.886   5.743
 8508SOL    HW226424   3.408   1.036   5.803
 8509SOL     OW26425   3.928   2.086   2.052
 8509SOL    HW126426   3.856   2.150   2.028
 8509SOL    HW226427   3.898   2.028   2.127
 8510SOL     OW26428   0.497   2.224   5.036
 8510SOL    HW126429   0.556   2.292   4.993
 8510SOL    HW226430   0.531   2.132   5.016
 8511SOL     OW26431   5.765   2.016   4.133
 8511SOL    HW126432   5.804   1.973   4.051
 8511SOL    HW226433   5.668   1.992   4.140
 8512SOL     OW26434   2.899   6.652   6.352
 8512SOL    HW126435   2.916   6.689   6.260
 8512SOL    HW226436   2.984   6.620   6.392
 8513SOL     OW26437   3.966   5.415   0.000
 8513SOL    HW126438   3.895   5.417   0.071
 8513SOL    HW226439   3.926   5.440   6.931
 8514SOL     OW26440   4.553   5.572   4.522
 8514SOL    HW126441   4.476   5.618   4.566
 8514SOL    HW226442   4.639   5.606   4.562
 8515SOL     OW26443   5.412   2.867   2.148
 8515SOL    HW126444   5.457   2.882   2.060
 8515SOL    HW226445   5.313   2.879   2.138
 8516SOL     OW26446   0.022   2.669   1.189
 8516SOL    HW126447   7.003   2.595   1.133
 8516SOL    HW226448   0.117   2.648   1.212
 8517SOL     OW26449   0.692   3.493   4.629
 8517SOL    HW126450   0.700   3.394   4.643
 8517SOL    HW226451   0.747   3.540   4.698
 8518SOL     OW26452   3.624   5.598   1.556
 8518SOL    HW126453   3.546   5.551   1.515
 8518SOL    HW226454   3.612   5.599   1.655
 8519SOL     OW26455   3.043   5.536   3.363
 8519SOL    HW126456   3.083   5.579   3.444
 8519SOL    HW226457   3.038   5.603   3.289
 8520SOL     OW26458   3.806   5.464   0.234
 8520SOL    HW126459   3.778   5.541   0.291
 8520SOL    HW226460   3.798   5.379   0.286
 8521SOL     OW26461   0.400   1.414   3.644
 8521SOL    HW126462   0.413   1.318   3.618
 8521SOL    HW226463   0.304   1.439   3.634
 8522SOL     OW26464   2.217   5.948   4.508
 8522SOL    HW126465   2.285   5.940   4.435
 8522SOL    HW226466   2.254   5.909   4.592
 8523SOL     OW26467   2.178   5.136   6.748
 8523SOL    HW126468   2.179   5.219   6.803
 8523SOL    HW226469   2.271   5.112   6.720
 8524SOL     OW26470   2.334   1.135   6.405
 8524SOL    HW126471   2.358   1.226   6.438
 8524SOL    HW226472   2.318   1.138   6.307
 8525SOL     OW26473   5.908   4.268   4.686
 8525SOL    HW126474   5.888   4.365   4.704
 8525SOL    HW226475   5.838   4.230   4.627
 8526SOL     OW26476   6.616   3.253   1.943
 8526SOL    HW126477   6.590   3.230   1.849
 8526SOL    HW226478   6.688   3.191   1.974
 8527SOL     OW26479   4.849   1.349   5.157
 8527SOL    HW126480   4.929   1.314   5.204
 8527SOL    HW226481   4.878   1.390   5.070
 8528SOL     OW26482   5.713   6.853   6.974
 8528SOL    HW126483   5.811   6.839   6.961
 8528SOL    HW226484   5.664   6.769   6.951
 8529SOL     OW26485   6.706   0.985   4.544
 8529SOL    HW126486   6.607   0.990   4.528
 8529SOL    HW226487   6.727   1.017   4.636
 8530SOL     OW26488   1.530   5.378   5.775
 8530SOL    HW126489   1.603   5.373   5.844
 8530SOL    HW226490   1.486   5.468   5.779
 8531SOL     OW26491   3.094   5.523   2.762
 8531SOL    HW126492   3.078   5.425   2.776
 8531SOL    HW226493   3.097   5.569   2.851
 8532SOL     OW26494   1.245   3.316   6.488
 8532SOL    HW126495   1.256   3.327   6.389
 8532SOL    HW226496   1.272   3.223   6.514
 8533SOL     OW26497   3.414   0.483   6.345
 8533SOL    HW126498   3.388   0.464   6.439
 8533SOL    HW226499   3.403   0.399   6.290
 8534SOL     OW26500   3.465   2.513   0.930
 8534SOL    HW126501   3.538   2.574   0.901
 8534SOL    HW226502   3.503   2.439   0.986
 8535SOL     OW26503   0.301   2.361   5.756
 8535SOL    HW126504   0.230   2.418   5.798
 8535SOL    HW226505   0.367   2.334   5.826
 8536SOL     OW26506   6.884   0.208   6.421
 8536SOL    HW126507   6.815   0.194   6.492
 8536SOL    HW226508   6.878   0.302   6.387
 8537SOL     OW26509   3.489   6.787   3.207
 8537SOL    HW126510   3.447   6.866   3.252
 8537SOL    HW226511   3.505   6.715   3.274
 8538SOL     OW26512   4.000   1.939   5.183
 8538SOL    HW126513   3.925   1.889   5.138
 8538SOL    HW226514   4.011   2.028   5.139
 8539SOL     OW26515   0.644   3.264   3.139
 8539SOL    HW126516   0.691   3.301   3.219
 8539SOL    HW226517   0.655   3.164   3.137
 8540SOL     OW26518   4.465   5.777   6.040
 8540SOL    HW126519   4.411   5.795   5.958
 8540SOL    HW226520   4.406   5.739   6.111
 8541SOL     OW26521   3.746   5.918   6.122
 8541SOL    HW126522   3.710   5.959   6.205
 8541SOL    HW226523   3.690   5.945   6.044
 8542SOL     OW26524   1.034   5.177   4.648
 8542SOL    HW126525   1.002   5.091   4.686
 8542SOL    HW226526   1.122   5.201   4.688
 8543SOL     OW26527   3.359   1.997   5.665
 8543SOL    HW126528   3.345   1.951   5.753
 8543SOL    HW226529   3.455   1.986   5.637
 8544SOL     OW26530   4.940   3.747   5.206
 8544SOL    HW126531   4.884   3.687   5.148
 8544SOL    HW226532   5.010   3.693   5.252
 8545SOL     OW26533   1.959   0.897   6.251
 8545SOL    HW126534   1.998   0.808   6.276
 8545SOL    HW226535   1.863   0.900   6.278
 8546SOL     OW26536   2.835   1.478   4.191
 8546SOL    HW126537   2.759   1.413   4.195
 8546SOL    HW226538   2.805   1.566   4.227
 8547SOL     OW26539   5.409   4.272   5.987
 8547SOL    HW126540   5.353   4.316   5.918
 8547SOL    HW226541   5.402   4.321   6.074
 8548SOL     OW26542   1.595   4.620   3.945
 8548SOL    HW126543   1.590   4.590   4.040
 8548SOL    HW226544   1.685   4.599   3.907
 8549SOL     OW26545   2.722   0.257   3.738
 8549SOL    HW126546   2.797   0.323   3.733
 8549SOL    HW226547   2.651   0.282   3.672
 8550SOL     OW26548   0.513   3.450   5.402
 8550SOL    HW126549   0.424   3.492   5.382
 8550SOL    HW226550   0.510   3.353   5.377
 8551SOL     OW26551   3.422   2.080   4.031
 8551SOL    HW126552   3.462   2.060   3.942
 8551SOL    HW226553   3.496   2.090   4.098
 8552SOL     OW26554   4.163   1.518   2.257
 8552SOL    HW126555   4.086   1.539   2.318
 8552SOL    HW226556   4.210   1.436   2.289
 8553SOL     OW26557   6.086   2.787   0.804
 8553SOL    HW126558   6.152   2.800   0.730
 8553SOL    HW226559   6.101   2.698   0.848
 8554SOL     OW26560   0.231   0.900   6.246
 8554SOL    HW126561   0.295   0.861   6.312
 8554SOL    HW226562   0.201   0.829   6.182
 8555SOL     OW26563   3.721   1.991   4.070
 8555SOL    HW126564   3.686   2.005   3.977
 8555SOL    HW226565   3.706   1.896   4.097
 8556SOL     OW26566   1.174   3.912   5.912
 8556SOL    HW126567   1.243   3.847   5.943
 8556SOL    HW226568   1.201   3.951   5.824
 8557SOL     OW26569   6.320   0.104   0.586
 8557SOL    HW126570   6.366   0.090   0.674
 8557SOL    HW226571   6.265   0.187   0.590
 8558SOL     OW26572   2.446   6.151   3.704
 8558SOL    HW126573   2.362   6.180   3.658
 8558SOL    HW226574   2.426   6.074   3.765
 8559SOL     OW26575   1.848   2.859   2.789
 8559SOL    HW126576   1.822   2.870   2.885
 8559SOL    HW226577   1.782   2.906   2.731
 8560SOL     OW26578   3.381   4.634   1.656
 8560SOL    HW126579   3.454   4.634   1.724
 8560SOL    HW226580   3.308   4.696   1.685
 8561SOL     OW26581   3.358   0.962   2.393
 8561SOL    HW126582   3.383   1.054   2.424
 8561SOL    HW226583   3.286   0.969   2.324
 8562SOL     OW26584   5.460   3.689   5.949
 8562SOL    HW126585   5.531   3.746   5.907
 8562SOL    HW226586   5.378   3.690   5.892
 8563SOL     OW26587   6.910   4.135   3.716
 8563SOL    HW126588   6.963   4.214   3.685
 8563SOL    HW226589   6.967   4.053   3.714
 8564SOL     OW26590   3.625   6.457   6.835
 8564SOL    HW126591   3.639   6.543   6.785
 8564SOL    HW226592   3.650   6.380   6.777
 8565SOL     OW26593   0.868   5.118   0.942
 8565SOL    HW126594   0.945   5.181   0.929
 8565SOL    HW226595   0.867   5.087   1.037
 8566SOL     OW26596   2.514   0.750   3.671
 8566SOL    HW126597   2.529   0.791   3.580
 8566SOL    HW226598   2.421   0.769   3.700
 8567SOL     OW26599   1.756   3.135   6.948
 8567SOL    HW126600   1.788   3.056   7.000
 8567SOL    HW226601   1.676   3.175   6.993
 8568SOL     OW26602   5.522   7.005   6.315
 8568SOL    HW126603   5.608   6.953   6.307
 8568SOL    HW226604   5.475   7.005   6.227
 8569SOL     OW26605   4.294   1.859   6.203
 8569SOL    HW126606   4.388   1.880   6.231
 8569SOL    HW226607   4.232   1.873   6.280
 8570SOL     OW26608   1.658   2.251   4.048
 8570SOL    HW126609   1.593   2.320   4.017
 8570SOL    HW226610   1.739   2.251   3.989
 8571SOL     OW26611   1.649   0.803   3.925
 8571SOL    HW126612   1.611   0.726   3.978
 8571SOL    HW226613   1.588   0.882   3.934
 8572SOL     OW26614   2.756   3.149   6.283
 8572SOL    HW126615   2.756   3.100   6.196
 8572SOL    HW226616   2.727   3.244   6.268
 8573SOL     OW26617   1.456   6.308   5.438
 8573SOL    HW126618   1.362   6.290   5.465
 8573SOL    HW226619   1.472   6.270   5.347
 8574SOL     OW26620   6.419   2.646   5.587
 8574SOL    HW126621   6.381   2.564   5.547
 8574SOL    HW226622   6.353   2.685   5.652
 8575SOL     OW26623   1.458   6.591   4.112
 8575SOL    HW126624   1.394   6.526   4.153
 8575SOL    HW226625   1.495   6.553   4.027
 8576SOL     OW26626   1.476   4.099   4.262
 8576SOL    HW126627   1.386   4.057   4.268
 8576SOL    HW226628   1.519   4.073   4.175
 8577SOL     OW26629   1.999   1.329   1.423
 8577SOL    HW126630   1.983   1.427   1.413
 8577SOL    HW226631   2.039   1.310   1.512
 8578SOL     OW26632   1.874   0.697   6.033
 8578SOL    HW126633   1.837   0.743   5.952
 8578SOL    HW226634   1.929   0.762   6.086
 8579SOL     OW26635   2.684   6.753   3.044
 8579SOL    HW126636   2.726   6.738   3.134
 8579SOL    HW226637   2.751   6.794   2.982
 8580SOL     OW26638   1.111   7.016   2.498
 8580SOL    HW126639   1.042   6.977   2.437
 8580SOL    HW226640   1.170   0.060   2.446
 8581SOL     OW26641   4.045   3.188   3.795
 8581SOL    HW126642   4.109   3.215   3.866
 8581SOL    HW226643   3.959   3.159   3.836
 8582SOL     OW26644   5.320   5.410   0.035
 8582SOL    HW126645   5.418   5.423   0.020
 8582SOL    HW226646   5.278   5.368   6.974
 8583SOL     OW26647   3.613   6.737   2.071
 8583SOL    HW126648   3.695   6.701   2.026
 8583SOL    HW226649   3.535   6.728   2.009
 8584SOL     OW26650   5.405   2.874   6.142
 8584SOL    HW126651   5.312   2.864   6.178
 8584SOL    HW226652   5.470   2.859   6.216
 8585SOL     OW26653   4.879   2.626   3.043
 8585SOL    HW126654   4.905   2.721   3.027
 8585SOL    HW226655   4.889   2.575   2.957
 8586SOL     OW26656   5.942   6.691   5.885
 8586SOL    HW126657   5.881   6.770   5.894
 8586SOL    HW226658   5.988   6.675   5.972
 8587SOL     OW26659   6.553   6.690   1.276
 8587SOL    HW126660   6.614   6.759   1.236
 8587SOL    HW226661   6.570   6.602   1.232
 8588SOL     OW26662   1.638   2.640   5.584
 8588SOL    HW126663   1.720   2.675   5.630
 8588SOL    HW226664   1.561   2.700   5.605
 8589SOL     OW26665   6.335   3.385   6.337
 8589SOL    HW126666   6.280   3.310   6.374
 8589SOL    HW226667   6.373   3.439   6.413
 8590SOL     OW26668   1.114   1.562   2.828
 8590SOL    HW126669   1.191   1.521   2.780
 8590SOL    HW226670   1.110   1.660   2.808
 8591SOL     OW26671   0.544   4.644   6.285
 8591SOL    HW126672   0.529   4.608   6.377
 8591SOL    HW226673   0.503   4.582   6.218
 8592SOL     OW26674   0.251   2.014   4.654
 8592SOL    HW126675   0.176   2.063   4.610
 8592SOL    HW226676   0.336   2.065   4.643
 8593SOL     OW26677   6.899   0.638   0.380
 8593SOL    HW126678   6.987   0.654   0.335
 8593SOL    HW226679   6.914   0.624   0.477
 8594SOL     OW26680   6.384   2.108   0.028
 8594SOL    HW126681   6.476   2.087   7.014
 8594SOL    HW226682   6.348   2.186   6.997
 8595SOL     OW26683   5.654   6.561   1.343
 8595SOL    HW126684   5.684   6.573   1.437
 8595SOL    HW226685   5.702   6.625   1.283
 8596SOL     OW26686   0.758   2.568   5.841
 8596SOL    HW126687   0.849   2.559   5.881
 8596SOL    HW226688   0.746   2.661   5.806
 8597SOL     OW26689   6.593   2.513   5.736
 8597SOL    HW126690   6.523   2.578   5.708
 8597SOL    HW226691   6.600   2.512   5.836
 8598SOL     OW26692   6.386   0.118   5.617
 8598SOL    HW126693   6.437   0.058   5.679
 8598SOL    HW226694   6.342   0.063   5.547
 8599SOL     OW26695   6.225   4.302   5.527
 8599SOL    HW126696   6.313   4.276   5.489
 8599SOL    HW226697   6.173   4.220   5.550
 8600SOL     OW26698   3.570   3.210   1.806
 8600SOL    HW126699   3.529   3.249   1.723
 8600SOL    HW226700   3.508   3.142   1.845
 8601SOL     OW26701   4.789   4.262   1.390
 8601SOL    HW126702   4.840   4.278   1.306
 8601SOL    HW226703   4.825   4.320   1.463
 8602SOL     OW26704   2.087   6.031   5.232
 8602SOL    HW126705   2.007   6.050   5.175
 8602SOL    HW226706   2.084   6.089   5.313
 8603SOL     OW26707   0.478   1.238   6.763
 8603SOL    HW126708   0.554   1.212   6.703
 8603SOL    HW226709   0.512   1.294   6.838
 8604SOL     OW26710   1.942   5.737   6.126
 8604SOL    HW126711   1.861   5.682   6.106
 8604SOL    HW226712   1.913   5.827   6.159
 8605SOL     OW26713   6.810   5.318   3.980
 8605SOL    HW126714   6.778   5.382   4.050
 8605SOL    HW226715   6.808   5.225   4.016
 8606SOL     OW26716   0.535   0.484   6.399
 8606SOL    HW126717   0.589   0.425   6.339
 8606SOL    HW226718   0.592   0.517   6.475
 8607SOL     OW26719   3.396   2.522   1.706
 8607SOL    HW126720   3.459   2.461   1.656
 8607SOL    HW226721   3.309   2.475   1.721
 8608SOL     OW26722   1.287   5.677   2.251
 8608SOL    HW126723   1.190   5.672   2.229
 8608SOL    HW226724   1.337   5.608   2.198
 8609SOL     OW26725   5.372   2.602   4.264
 8609SOL    HW126726   5.334   2.684   4.221
 8609SOL    HW226727   5.466   2.588   4.231
 8610SOL     OW26728   6.756   5.636   2.286
 8610SOL    HW126729   6.729   5.556   2.339
 8610SOL    HW226730   6.843   5.671   2.319
 8611SOL     OW26731   1.797   1.732   5.630
 8611SOL    HW126732   1.727   1.678   5.676
 8611SOL    HW226733   1.779   1.829   5.644
 8612SOL     OW26734   3.424   3.231   6.235
 8612SOL    HW126735   3.371   3.146   6.235
 8612SOL    HW226736   3.432   3.266   6.142
 8613SOL     OW26737   3.557   3.265   3.453
 8613SOL    HW126738   3.626   3.276   3.526
 8613SOL    HW226739   3.493   3.193   3.479
 8614SOL     OW26740   0.023   3.602   3.515
 8614SOL    HW126741   0.005   3.614   3.417
 8614SOL    HW226742   0.113   3.559   3.527
 8615SOL     OW26743   4.135   0.441   5.162
 8615SOL    HW126744   4.099   0.446   5.069
 8615SOL    HW226745   4.188   0.523   5.182
 8616SOL     OW26746   6.243   3.734   5.502
 8616SOL    HW126747   6.303   3.668   5.456
 8616SOL    HW226748   6.152   3.730   5.462
 8617SOL     OW26749   0.680   6.812   4.216
 8617SOL    HW126750   0.667   6.722   4.176
 8617SOL    HW226751   0.744   6.865   4.161
 8618SOL     OW26752   6.979   4.496   0.624
 8618SOL    HW126753   6.924   4.519   0.704
 8618SOL    HW226754   6.958   4.559   0.550
 8619SOL     OW26755   5.907   4.155   6.433
 8619SOL    HW126756   5.827   4.135   6.491
 8619SOL    HW226757   5.957   4.233   6.471
 8620SOL     OW26758   0.835   6.391   4.019
 8620SOL    HW126759   0.781   6.472   3.998
 8620SOL    HW226760   0.932   6.413   4.017
 8621SOL     OW26761   6.390   3.221   2.118
 8621SOL    HW126762   6.473   3.254   2.071
 8621SOL    HW226763   6.310   3.239   2.060
 8622SOL     OW26764   0.795   5.986   1.820
 8622SOL    HW126765   0.831   5.907   1.771
 8622SOL    HW226766   0.843   6.068   1.791
 8623SOL     OW26767   1.620   2.460   3.655
 8623SOL    HW126768   1.603   2.552   3.620
 8623SOL    HW226769   1.593   2.393   3.586
 8624SOL     OW26770   3.097   3.839   6.185
 8624SOL    HW126771   3.138   3.816   6.096
 8624SOL    HW226772   3.114   3.935   6.205
 8625SOL     OW26773   4.311   3.202   5.890
 8625SOL    HW126774   4.260   3.146   5.824
 8625SOL    HW226775   4.350   3.142   5.960
 8626SOL     OW26776   5.731   1.172   6.999
 8626SOL    HW126777   5.655   1.230   6.971
 8626SOL    HW226778   5.817   1.224   6.995
 8627SOL     OW26779   6.910   0.035   2.494
 8627SOL    HW126780   6.855   0.111   2.528
 8627SOL    HW226781   6.859   7.007   2.422
 8628SOL     OW26782   1.199   6.191   0.399
 8628SOL    HW126783   1.139   6.259   0.358
 8628SOL    HW226784   1.159   6.100   0.389
 8629SOL     OW26785   6.687   1.299   4.675
 8629SOL    HW126786   6.677   1.388   4.720
 8629SOL    HW226787   6.695   1.313   4.576
 8630SOL     OW26788   5.546   3.160   2.109
 8630SOL    HW126789   5.561   3.258   2.095
 8630SOL    HW226790   5.448   3.140   2.107
 8631SOL     OW26791   1.329   5.569   0.403
 8631SOL    HW126792   1.308   5.661   0.436
 8631SOL    HW226793   1.243   5.518   0.390
 8632SOL     OW26794   6.098   5.874   3.130
 8632SOL    HW126795   6.130   5.934   3.203
 8632SOL    HW226796   6.031   5.810   3.167
 8633SOL     OW26797   6.744   3.800   5.979
 8633SOL    HW126798   6.666   3.855   5.951
 8633SOL    HW226799   6.764   3.818   6.076
 8634SOL     OW26800   4.775   4.441   0.066
 8634SOL    HW126801   4.769   4.372   7.013
 8634SOL    HW226802   4.686   4.454   0.108
 8635SOL     OW26803   5.626   1.564   6.853
 8635SOL    HW126804   5.618   1.661   6.876
 8635SOL    HW226805   5.722   1.541   6.837
 8636SOL     OW26806   4.822   6.014   0.404
 8636SOL    HW126807   4.804   5.992   0.308
 8636SOL    HW226808   4.856   5.932   0.450
 8637SOL     OW26809   2.980   2.890   0.955
 8637SOL    HW126810   3.006   2.985   0.939
 8637SOL    HW226811   3.058   2.831   0.936
 8638SOL     OW26812   4.824   2.121   4.618
 8638SOL    HW126813   4.783   2.188   4.556
 8638SOL    HW226814   4.773   2.035   4.613
 8639SOL     OW26815   4.215   4.065   0.310
 8639SOL    HW126816   4.171   4.031   0.227
 8639SOL    HW226817   4.260   3.989   0.357
 8640SOL     OW26818   3.140   2.851   6.976
 8640SOL    HW126819   3.109   2.779   0.019
 8640SOL    HW226820   3.229   2.885   7.006
 8641SOL     OW26821   3.188   4.863   3.200
 8641SOL    HW126822   3.103   4.871   3.148
 8641SOL    HW226823   3.171   4.884   3.296
 8642SOL     OW26824   2.660   6.427   3.130
 8642SOL    HW126825   2.663   6.375   3.045
 8642SOL    HW226826   2.569   6.417   3.172
 8643SOL     OW26827   3.515   6.473   1.158
 8643SOL    HW126828   3.509   6.544   1.228
 8643SOL    HW226829   3.610   6.443   1.148
 8644SOL     OW26830   5.326   2.467   6.954
 8644SOL    HW126831   5.342   2.537   0.005
 8644SOL    HW226832   5.381   2.487   6.873
 8645SOL     OW26833   4.579   5.278   2.812
 8645SOL    HW126834   4.490   5.305   2.850
 8645SOL    HW226835   4.624   5.215   2.874
 8646SOL     OW26836   5.783   1.890   3.897
 8646SOL    HW126837   5.696   1.916   3.856
 8646SOL    HW226838   5.857   1.940   3.852
 8647SOL     OW26839   1.921   4.911   1.986
 8647SOL    HW126840   1.896   4.835   1.926
 8647SOL    HW226841   1.893   4.891   2.079
 8648SOL     OW26842   5.788   5.837   6.292
 8648SOL    HW126843   5.780   5.897   6.372
 8648SOL    HW226844   5.758   5.887   6.210
 8649SOL     OW26845   5.450   2.912   2.417
 8649SOL    HW126846   5.525   2.976   2.432
 8649SOL    HW226847   5.457   2.874   2.325
 8650SOL     OW26848   1.136   1.300   4.829
 8650SOL    HW126849   1.118   1.221   4.770
 8650SOL    HW226850   1.209   1.356   4.789
 8651SOL     OW26851   4.770   1.205   1.250
 8651SOL    HW126852   4.680   1.207   1.292
 8651SOL    HW226853   4.773   1.134   1.179
 8652SOL     OW26854   6.356   3.155   4.959
 8652SOL    HW126855   6.366   3.062   4.993
 8652SOL    HW226856   6.265   3.168   4.921
 8653SOL     OW26857   4.589   1.065   6.504
 8653SOL    HW126858   4.684   1.086   6.483
 8653SOL    HW226859   4.529   1.108   6.437
 8654SOL     OW26860   6.477   4.681   3.672
 8654SOL    HW126861   6.545   4.717   3.608
 8654SOL    HW226862   6.388   4.676   3.627
 8655SOL     OW26863   1.662   6.975   4.676
 8655SOL    HW126864   1.646   0.046   4.715
 8655SOL    HW226865   1.689   6.984   4.581
 8656SOL     OW26866   3.624   6.650   0.158
 8656SOL    HW126867   3.638   6.654   0.059
 8656SOL    HW226868   3.709   6.672   0.205
 8657SOL     OW26869   2.902   1.675   2.681
 8657SOL    HW126870   2.811   1.648   2.651
 8657SOL    HW226871   2.922   1.767   2.647
 8658SOL     OW26872   5.933   3.883   0.897
 8658SOL    HW126873   5.851   3.905   0.844
 8658SOL    HW226874   5.999   3.834   0.839
 8659SOL     OW26875   3.029   6.568   3.408
 8659SOL    HW126876   3.025   6.510   3.327
 8659SOL    HW226877   3.122   6.604   3.419
 8660SOL     OW26878   6.598   4.233   0.966
 8660SOL    HW126879   6.596   4.332   0.980
 8660SOL    HW226880   6.602   4.214   0.868
 8661SOL     OW26881   6.213   2.931   1.267
 8661SOL    HW126882   6.185   2.926   1.171
 8661SOL    HW226883   6.142   2.979   1.320
 8662SOL     OW26884   1.741   2.969   2.155
 8662SOL    HW126885   1.780   2.930   2.239
 8662SOL    HW226886   1.739   3.069   2.163
 8663SOL     OW26887   3.290   5.902   1.737
 8663SOL    HW126888   3.270   5.854   1.822
 8663SOL    HW226889   3.290   5.836   1.661
 8664SOL     OW26890   3.305   5.881   4.554
 8664SOL    HW126891   3.302   5.864   4.652
 8664SOL    HW226892   3.259   5.968   4.534
 8665SOL     OW26893   0.727   2.995   6.062
 8665SOL    HW126894   0.685   3.025   5.976
 8665SOL    HW226895   0.699   3.056   6.136
 8666SOL     OW26896   3.958   6.950   2.323
 8666SOL    HW126897   3.865   6.913   2.326
 8666SOL    HW226898   3.990   6.966   2.417
 8667SOL     OW26899   4.534   1.993   1.845
 8667SOL    HW126900   4.464   2.065   1.844
 8667SOL    HW226901   4.497   1.911   1.801
 8668SOL     OW26902   3.539   1.871   3.482
 8668SOL    HW126903   3.575   1.803   3.546
 8668SOL    HW226904   3.490   1.942   3.534
 8669SOL     OW26905   0.038   6.196   6.272
 8669SOL    HW126906   7.011   6.118   6.314
 8669SOL    HW226907   0.014   6.279   6.322
 8670SOL     OW26908   6.748   4.949   5.133
 8670SOL    HW126909   6.684   4.886   5.177
 8670SOL    HW226910   6.842   4.918   5.148
 8671SOL     OW26911   0.014   3.687   3.216
 8671SOL    HW126912   7.018   3.773   3.263
 8671SOL    HW226913   6.996   3.692   3.123
 8672SOL     OW26914   6.450   1.107   2.094
 8672SOL    HW126915   6.432   1.144   2.185
 8672SOL    HW226916   6.509   1.171   2.044
 8673SOL     OW26917   0.154   0.885   1.957
 8673SOL    HW126918   0.081   0.880   1.889
 8673SOL    HW226919   0.187   0.793   1.976
 8674SOL     OW26920   0.339   2.492   4.247
 8674SOL    HW126921   0.305   2.558   4.180
 8674SOL    HW226922   0.286   2.407   4.240
 8675SOL     OW26923   5.551   2.338   4.381
 8675SOL    HW126924   5.555   2.334   4.481
 8675SOL    HW226925   5.474   2.283   4.349
 8676SOL     OW26926   5.382   2.508   0.758
 8676SOL    HW126927   5.318   2.468   0.692
 8676SOL    HW226928   5.427   2.435   0.809
 8677SOL     OW26929   3.112   1.685   6.919
 8677SOL    HW126930   3.098   1.595   6.959
 8677SOL    HW226931   3.061   1.753   6.972
 8678SOL     OW26932   2.452   2.058   0.322
 8678SOL    HW126933   2.363   2.079   0.280
 8678SOL    HW226934   2.505   2.001   0.260
 8679SOL     OW26935   2.005   1.904   6.556
 8679SOL    HW126936   2.101   1.916   6.530
 8679SOL    HW226937   1.970   1.988   6.597
 8680SOL     OW26938   6.916   0.299   1.220
 8680SOL    HW126939   6.915   0.204   1.252
 8680SOL    HW226940   6.845   0.311   1.151
 8681SOL     OW26941   5.417   5.777   1.069
 8681SOL    HW126942   5.428   5.853   1.133
 8681SOL    HW226943   5.342   5.797   1.006
 8682SOL     OW26944   1.615   2.109   1.609
 8682SOL    HW126945   1.585   2.204   1.620
 8682SOL    HW226946   1.713   2.103   1.628
 8683SOL     OW26947   2.664   5.311   4.242
 8683SOL    HW126948   2.738   5.247   4.262
 8683SOL    HW226949   2.593   5.302   4.313
 8684SOL     OW26950   2.360   4.439   3.909
 8684SOL    HW126951   2.326   4.350   3.939
 8684SOL    HW226952   2.374   4.438   3.810
 8685SOL     OW26953   4.270   3.220   5.269
 8685SOL    HW126954   4.176   3.237   5.299
 8685SOL    HW226955   4.288   3.121   5.272
 8686SOL     OW26956   0.491   4.781   2.395
 8686SOL    HW126957   0.541   4.836   2.462
 8686SOL    HW226958   0.397   4.815   2.387
 8687SOL     OW26959   5.446   3.401   5.792
 8687SOL    HW126960   5.457   3.351   5.706
 8687SOL    HW226961   5.534   3.441   5.818
 8688SOL     OW26962   1.356   3.185   4.161
 8688SOL    HW126963   1.447   3.152   4.185
 8688SOL    HW226964   1.291   3.157   4.232
 8689SOL     OW26965   5.014   3.563   1.095
 8689SOL    HW126966   5.092   3.598   1.043
 8689SOL    HW226967   5.045   3.494   1.159
 8690SOL     OW26968   1.221   2.659   2.170
 8690SOL    HW126969   1.318   2.635   2.176
 8690SOL    HW226970   1.208   2.750   2.209
 8691SOL     OW26971   3.945   1.161   6.892
 8691SOL    HW126972   4.023   1.216   6.862
 8691SOL    HW226973   3.977   1.089   6.954
 8692SOL     OW26974   5.389   2.336   4.661
 8692SOL    HW126975   5.342   2.247   4.662
 8692SOL    HW226976   5.483   2.324   4.691
 8693SOL     OW26977   1.031   0.551   5.116
 8693SOL    HW126978   0.947   0.501   5.138
 8693SOL    HW226979   1.046   0.622   5.184
 8694SOL     OW26980   3.367   3.523   6.244
 8694SOL    HW126981   3.423   3.486   6.169
 8694SOL    HW226982   3.339   3.616   6.221
 8695SOL     OW26983   4.170   4.113   1.177
 8695SOL    HW126984   4.265   4.082   1.178
 8695SOL    HW226985   4.135   4.109   1.083
 8696SOL     OW26986   2.712   4.256   6.363
 8696SOL    HW126987   2.712   4.213   6.454
 8696SOL    HW226988   2.706   4.355   6.373
 8697SOL     OW26989   1.136   3.018   4.629
 8697SOL    HW126990   1.227   2.988   4.658
 8697SOL    HW226991   1.144   3.071   4.545
 8698SOL     OW26992   5.361   4.442   6.655
 8698SOL    HW126993   5.354   4.540   6.641
 8698SOL    HW226994   5.281   4.397   6.614
 8699SOL     OW26995   2.215   1.854   1.804
 8699SOL    HW126996   2.249   1.854   1.710
 8699SOL    HW226997   2.201   1.948   1.834
 8700SOL     OW26998   0.455   2.587   5.034
 8700SOL    HW126999   0.506   2.570   5.119
 8700SOL    HW227000   0.445   2.685   5.019
 8701SOL     OW27001   2.643   3.204   0.252
 8701SOL    HW127002   2.671   3.109   0.241
 8701SOL    HW227003   2.589   3.213   0.335
 8702SOL     OW27004   5.188   4.371   0.669
 8702SOL    HW127005   5.124   4.348   0.595
 8702SOL    HW227006   5.156   4.329   0.754
 8703SOL     OW27007   2.364   5.797   0.767
 8703SOL    HW127008   2.317   5.836   0.847
 8703SOL    HW227009   2.298   5.752   0.708
 8704SOL     OW27010   6.407   1.777   3.887
 8704SOL    HW127011   6.439   1.782   3.982
 8704SOL    HW227012   6.370   1.686   3.869
 8705SOL     OW27013   3.801   2.295   0.621
 8705SOL    HW127014   3.880   2.261   0.570
 8705SOL    HW227015   3.722   2.302   0.561
 8706SOL     OW27016   5.202   3.020   5.104
 8706SOL    HW127017   5.127   3.077   5.070
 8706SOL    HW227018   5.275   3.016   5.036
 8707SOL     OW27019   1.803   0.624   3.522
 8707SOL    HW127020   1.715   0.585   3.497
 8707SOL    HW227021   1.866   0.614   3.444
 8708SOL     OW27022   5.250   2.175   0.444
 8708SOL    HW127023   5.221   2.254   0.497
 8708SOL    HW227024   5.206   2.177   0.354
 8709SOL     OW27025   5.920   5.672   4.141
 8709SOL    HW127026   5.987   5.695   4.211
 8709SOL    HW227027   5.880   5.582   4.162
 8710SOL     OW27028   2.313   2.756   3.436
 8710SOL    HW127029   2.217   2.729   3.433
 8710SOL    HW227030   2.370   2.680   3.405
 8711SOL     OW27031   0.761   2.557   2.246
 8711SOL    HW127032   0.712   2.501   2.311
 8711SOL    HW227033   0.838   2.505   2.209
 8712SOL     OW27034   1.249   3.929   4.258
 8712SOL    HW127035   1.205   3.988   4.190
 8712SOL    HW227036   1.193   3.926   4.341
 8713SOL     OW27037   0.491   4.647   4.365
 8713SOL    HW127038   0.463   4.643   4.461
 8713SOL    HW227039   0.415   4.679   4.309
 8714SOL     OW27040   1.285   3.916   6.351
 8714SOL    HW127041   1.286   3.960   6.261
 8714SOL    HW227042   1.331   3.827   6.345
 8715SOL     OW27043   2.278   5.052   1.193
 8715SOL    HW127044   2.278   5.032   1.291
 8715SOL    HW227045   2.200   5.110   1.171
 8716SOL     OW27046   5.212   6.904   2.887
 8716SOL    HW127047   5.206   6.926   2.789
 8716SOL    HW227048   5.208   6.805   2.899
 8717SOL     OW27049   4.533   1.645   6.699
 8717SOL    HW127050   4.593   1.570   6.672
 8717SOL    HW227051   4.517   1.704   6.620
 8718SOL     OW27052   2.607   5.391   6.166
 8718SOL    HW127053   2.549   5.466   6.134
 8718SOL    HW227054   2.688   5.428   6.212
 8719SOL     OW27055   3.066   2.046   4.377
 8719SOL    HW127056   2.971   2.076   4.381
 8719SOL    HW227057   3.077   1.978   4.304
 8720SOL     OW27058   0.091   6.890   5.325
 8720SOL    HW127059   0.036   6.963   5.364
 8720SOL    HW227060   0.121   6.916   5.233
 8721SOL     OW27061   0.324   0.650   1.898
 8721SOL    HW127062   0.389   0.673   1.971
 8721SOL    HW227063   0.363   0.578   1.841
 8722SOL     OW27064   3.874   1.077   0.384
 8722SOL    HW127065   3.824   0.997   0.418
 8722SOL    HW227066   3.815   1.157   0.386
 8723SOL     OW27067   3.039   6.179   3.307
 8723SOL    HW127068   3.056   6.175   3.406
 8723SOL    HW227069   3.026   6.274   3.280
 8724SOL     OW27070   5.800   7.008   5.095
 8724SOL    HW127071   5.709   0.004   5.057
 8724SOL    HW227072   5.796   6.938   5.165
 8725SOL     OW27073   6.921   0.648   2.663
 8725SOL    HW127074   6.856   0.661   2.738
 8725SOL    HW227075   6.986   0.576   2.687
 8726SOL     OW27076   6.706   0.216   1.037
 8726SOL    HW127077   6.781   0.162   0.999
 8726SOL    HW227078   6.646   0.157   1.091
 8727SOL     OW27079   5.004   4.976   6.142
 8727SOL    HW127080   4.934   5.036   6.180
 8727SOL    HW227081   4.974   4.880   6.151
 8728SOL     OW27082   5.085   6.899   4.049
 8728SOL    HW127083   5.077   6.880   4.146
 8728SOL    HW227084   5.158   6.965   4.034
 8729SOL     OW27085   5.412   5.692   6.025
 8729SOL    HW127086   5.404   5.620   6.094
 8729SOL    HW227087   5.427   5.651   5.935
 8730SOL     OW27088   4.018   4.684   1.855
 8730SOL    HW127089   4.103   4.643   1.823
 8730SOL    HW227090   4.005   4.664   1.952
 8731SOL     OW27091   0.227   2.642   4.013
 8731SOL    HW127092   0.212   2.572   3.943
 8731SOL    HW227093   0.296   2.707   3.981
 8732SOL     OW27094   5.163   6.521   5.663
 8732SOL    HW127095   5.185   6.425   5.647
 8732SOL    HW227096   5.110   6.530   5.748
 8733SOL     OW27097   5.881   3.933   2.031
 8733SOL    HW127098   5.852   3.937   1.936
 8733SOL    HW227099   5.933   4.016   2.053
 8734SOL     OW27100   0.092   6.506   1.367
 8734SOL    HW127101   0.015   6.563   1.397
 8734SOL    HW227102   0.178   6.547   1.398
 8735SOL     OW27103   1.729   1.971   6.846
 8735SOL    HW127104   1.638   1.932   6.859
 8735SOL    HW227105   1.793   1.927   6.909
 8736SOL     OW27106   0.567   6.014   3.556
 8736SOL    HW127107   0.563   5.982   3.461
 8736SOL    HW227108   0.650   5.979   3.600
 8737SOL     OW27109   0.646   5.561   6.377
 8737SOL    HW127110   0.597   5.481   6.340
 8737SOL    HW227111   0.594   5.644   6.357
 8738SOL     OW27112   1.499   2.273   2.213
 8738SOL    HW127113   1.460   2.183   2.191
 8738SOL    HW227114   1.591   2.279   2.173
 8739SOL     OW27115   4.664   4.961   3.435
 8739SOL    HW127116   4.612   4.990   3.515
 8739SOL    HW227117   4.758   4.941   3.462
 8740SOL     OW27118   1.985   0.628   3.317
 8740SOL    HW127119   1.961   0.554   3.255
 8740SOL    HW227120   2.061   0.681   3.278
 8741SOL     OW27121   1.907   2.661   2.606
 8741SOL    HW127122   1.939   2.576   2.646
 8741SOL    HW227123   1.869   2.720   2.678
 8742SOL     OW27124   1.786   3.434   0.620
 8742SOL    HW127125   1.691   3.424   0.649
 8742SOL    HW227126   1.789   3.485   0.533
 8743SOL     OW27127   2.036   2.901   0.454
 8743SOL    HW127128   2.092   2.822   0.477
 8743SOL    HW227129   1.979   2.926   0.533
 8744SOL     OW27130   2.997   4.076   5.563
 8744SOL    HW127131   3.015   4.151   5.628
 8744SOL    HW227132   3.034   3.991   5.600
 8745SOL     OW27133   5.510   0.987   6.932
 8745SOL    HW127134   5.589   1.047   6.946
 8745SOL    HW227135   5.443   1.033   6.873
 8746SOL     OW27136   4.397   4.657   4.420
 8746SOL    HW127137   4.396   4.587   4.492
 8746SOL    HW227138   4.461   4.729   4.444
 8747SOL     OW27139   7.004   6.809   1.196
 8747SOL    HW127140   0.053   6.867   1.241
 8747SOL    HW227141   6.961   6.750   1.264
 8748SOL     OW27142   5.865   1.894   4.947
 8748SOL    HW127143   5.799   1.862   5.016
 8748SOL    HW227144   5.955   1.854   4.966
 8749SOL     OW27145   2.025   1.550   4.210
 8749SOL    HW127146   2.022   1.623   4.142
 8749SOL    HW227147   2.114   1.506   4.207
 8750SOL     OW27148   3.919   3.798   2.409
 8750SOL    HW127149   3.885   3.846   2.328
 8750SOL    HW227150   3.938   3.865   2.481
 8751SOL     OW27151   1.413   6.728   6.902
 8751SOL    HW127152   1.465   6.705   6.984
 8751SOL    HW227153   1.453   6.808   6.858
 8752SOL     OW27154   1.778   2.559   6.445
 8752SOL    HW127155   1.725   2.641   6.468
 8752SOL    HW227156   1.789   2.502   6.527
 8753SOL     OW27157   2.368   1.920   0.952
 8753SOL    HW127158   2.347   1.965   1.039
 8753SOL    HW227159   2.391   1.988   0.883
 8754SOL     OW27160   1.707   6.359   6.832
 8754SOL    HW127161   1.692   6.270   6.789
 8754SOL    HW227162   1.659   6.362   6.920
 8755SOL     OW27163   6.475   1.508   1.781
 8755SOL    HW127164   6.376   1.515   1.792
 8755SOL    HW227165   6.502   1.412   1.777
 8756SOL     OW27166   1.742   1.371   2.549
 8756SOL    HW127167   1.832   1.366   2.507
 8756SOL    HW227168   1.671   1.373   2.478
 8757SOL     OW27169   5.444   5.559   5.787
 8757SOL    HW127170   5.395   5.642   5.758
 8757SOL    HW227171   5.402   5.479   5.744
 8758SOL     OW27172   3.844   4.940   6.292
 8758SOL    HW127173   3.869   4.886   6.372
 8758SOL    HW227174   3.766   4.999   6.314
 8759SOL     OW27175   6.621   1.053   1.467
 8759SOL    HW127176   6.616   1.032   1.370
 8759SOL    HW227177   6.695   1.119   1.484
 8760SOL     OW27178   1.481   2.139   4.269
 8760SOL    HW127179   1.523   2.197   4.199
 8760SOL    HW227180   1.408   2.190   4.315
 8761SOL     OW27181   5.085   2.494   4.468
 8761SOL    HW127182   5.179   2.521   4.487
 8761SOL    HW227183   5.062   2.414   4.523
 8762SOL     OW27184   3.924   6.305   2.344
 8762SOL    HW127185   3.893   6.355   2.263
 8762SOL    HW227186   3.933   6.368   2.421
 8763SOL     OW27187   6.818   1.834   5.552
 8763SOL    HW127188   6.837   1.766   5.623
 8763SOL    HW227189   6.878   1.913   5.564
 8764SOL     OW27190   2.220   5.438   5.951
 8764SOL    HW127191   2.223   5.348   5.907
 8764SOL    HW227192   2.138   5.487   5.921
 8765SOL     OW27193   4.720   0.393   3.326
 8765SOL    HW127194   4.662   0.374   3.404
 8765SOL    HW227195   4.727   0.311   3.269
 8766SOL     OW27196   6.440   0.531   5.146
 8766SOL    HW127197   6.460   0.624   5.115
 8766SOL    HW227198   6.484   0.465   5.085
 8767SOL     OW27199   1.969   1.186   4.853
 8767SOL    HW127200   1.996   1.276   4.887
 8767SOL    HW227201   2.024   1.115   4.898
 8768SOL     OW27202   0.190   2.283   0.619
 8768SOL    HW127203   0.229   2.193   0.598
 8768SOL    HW227204   0.192   2.297   0.718
 8769SOL     OW27205   0.082   0.541   6.830
 8769SOL    HW127206   0.077   0.607   6.905
 8769SOL    HW227207   0.173   0.498   6.830
 8770SOL     OW27208   4.206   1.694   0.928
 8770SOL    HW127209   4.293   1.681   0.973
 8770SOL    HW227210   4.185   1.792   0.924
 8771SOL     OW27211   1.324   2.529   6.782
 8771SOL    HW127212   1.388   2.606   6.780
 8771SOL    HW227213   1.370   2.448   6.817
 8772SOL     OW27214   6.750   0.000   3.676
 8772SOL    HW127215   6.788   6.927   3.676
 8772SOL    HW227216   6.773   0.045   3.762
 8773SOL     OW27217   6.169   1.582   4.133
 8773SOL    HW127218   6.096   1.559   4.068
 8773SOL    HW227219   6.131   1.631   4.211
 8774SOL     OW27220   0.942   1.972   6.619
 8774SOL    HW127221   1.037   1.965   6.589
 8774SOL    HW227222   0.902   1.881   6.625
 8775SOL     OW27223   4.349   1.939   2.470
 8775SOL    HW127224   4.353   2.002   2.548
 8775SOL    HW227225   4.258   1.941   2.429
 8776SOL     OW27226   5.894   3.140   0.835
 8776SOL    HW127227   5.952   3.220   0.852
 8776SOL    HW227228   5.845   3.152   0.748
 8777SOL     OW27229   6.568   2.414   4.107
 8777SOL    HW127230   6.595   2.324   4.073
 8777SOL    HW227231   6.628   2.484   4.068
 8778SOL     OW27232   1.648   4.616   5.640
 8778SOL    HW127233   1.612   4.603   5.548
 8778SOL    HW227234   1.745   4.642   5.634
 8779SOL     OW27235   3.304   6.573   3.526
 8779SOL    HW127236   3.303   6.482   3.568
 8779SOL    HW227237   3.387   6.584   3.472
 8780SOL     OW27238   1.154   3.126   4.367
 8780SOL    HW127239   1.126   3.032   4.349
 8780SOL    HW227240   1.072   3.183   4.377
 8781SOL     OW27241   3.823   0.968   2.333
 8781SOL    HW127242   3.800   0.913   2.253
 8781SOL    HW227243   3.756   0.952   2.405
 8782SOL     OW27244   0.607   2.709   0.194
 8782SOL    HW127245   0.605   2.805   0.167
 8782SOL    HW227246   0.693   2.690   0.242
 8783SOL     OW27247   3.386   4.247   6.701
 8783SOL    HW127248   3.458   4.234   6.769
 8783SOL    HW227249   3.408   4.194   6.619
 8784SOL     OW27250   4.498   2.053   5.927
 8784SOL    HW127251   4.423   2.118   5.938
 8784SOL    HW227252   4.464   1.969   5.883
 8785SOL     OW27253   6.528   6.984   6.089
 8785SOL    HW127254   6.479   0.049   6.064
 8785SOL    HW227255   6.620   7.007   6.120
 8786SOL     OW27256   4.795   2.083   3.062
 8786SOL    HW127257   4.781   2.047   2.969
 8786SOL    HW227258   4.710   2.126   3.093
 8787SOL     OW27259   3.034   5.947   2.402
 8787SOL    HW127260   3.085   5.886   2.343
 8787SOL    HW227261   2.991   5.895   2.476
 8788SOL     OW27262   6.873   0.440   3.495
 8788SOL    HW127263   6.824   0.402   3.574
 8788SOL    HW227264   6.888   0.368   3.427
 8789SOL     OW27265   2.175   3.668   0.069
 8789SOL    HW127266   2.272   3.651   0.053
 8789SOL    HW227267   2.164   3.729   0.147
 8790SOL     OW27268   5.144   3.424   5.184
 8790SOL    HW127269   5.229   3.372   5.195
 8790SOL    HW227270   5.105   3.443   5.275
 8791SOL     OW27271   3.631   6.969   5.351
 8791SOL    HW127272   3.625   7.015   5.262
 8791SOL    HW227273   3.722   6.928   5.361
 8792SOL     OW27274   5.047   4.223   0.835
 8792SOL    HW127275   4.959   4.263   0.809
 8792SOL    HW227276   5.034   4.127   0.859
 8793SOL     OW27277   6.408   0.809   4.994
 8793SOL    HW127278   6.483   0.866   4.962
 8793SOL    HW227279   6.357   0.858   5.065
 8794SOL     OW27280   1.212   3.468   3.001
 8794SOL    HW127281   1.238   3.486   2.907
 8794SOL    HW227282   1.122   3.506   3.019
 8795SOL     OW27283   1.742   0.338   6.473
 8795SOL    HW127284   1.695   0.257   6.507
 8795SOL    HW227285   1.690   0.379   6.398
 8796SOL     OW27286   6.140   5.126   3.797
 8796SOL    HW127287   6.153   5.211   3.746
 8796SOL    HW227288   6.081   5.065   3.744
 8797SOL     OW27289   5.835   5.403   6.086
 8797SOL    HW127290   5.806   5.307   6.094
 8797SOL    HW227291   5.857   5.439   6.177
 8798SOL     OW27292   2.193   4.860   0.288
 8798SOL    HW127293   2.185   4.959   0.276
 8798SOL    HW227294   2.149   4.813   0.212
 8799SOL     OW27295   0.636   6.029   2.296
 8799SOL    HW127296   0.614   5.941   2.339
 8799SOL    HW227297   0.557   6.060   2.243
 8800SOL     OW27298   6.866   6.700   4.784
 8800SOL    HW127299   6.943   6.678   4.724
 8800SOL    HW227300   6.884   6.786   4.832
 8801SOL     OW27301   5.811   2.759   5.917
 8801SOL    HW127302   5.867   2.842   5.921
 8801SOL    HW227303   5.715   2.784   5.917
 8802SOL     OW27304   1.212   6.612   6.779
 8802SOL    HW127305   1.291   6.656   6.822
 8802SOL    HW227306   1.194   6.655   6.691
 8803SOL     OW27307   4.486   5.313   5.061
 8803SOL    HW127308   4.453   5.246   4.994
 8803SOL    HW227309   4.536   5.385   5.014
 8804SOL     OW27310   2.266   6.104   1.495
 8804SOL    HW127311   2.225   6.015   1.476
 8804SOL    HW227312   2.277   6.154   1.409
 8805SOL     OW27313   5.012   5.270   1.099
 8805SOL    HW127314   4.977   5.179   1.075
 8805SOL    HW227315   5.043   5.270   1.193
 8806SOL     OW27316   1.935   1.122   1.994
 8806SOL    HW127317   1.892   1.040   2.034
 8806SOL    HW227318   1.877   1.156   1.920
 8807SOL     OW27319   5.098   1.175   1.701
 8807SOL    HW127320   5.190   1.214   1.695
 8807SOL    HW227321   5.047   1.197   1.618
 8808SOL     OW27322   1.670   1.519   0.882
 8808SOL    HW127323   1.737   1.503   0.810
 8808SOL    HW227324   1.685   1.610   0.922
 8809SOL     OW27325   1.493   3.556   2.702
 8809SOL    HW127326   1.545   3.634   2.735
 8809SOL    HW227327   1.546   3.472   2.715
 8810SOL     OW27328   6.522   2.495   3.442
 8810SOL    HW127329   6.493   2.590   3.430
 8810SOL    HW227330   6.606   2.492   3.495
 8811SOL     OW27331   3.650   6.137   2.559
 8811SOL    HW127332   3.597   6.053   2.551
 8811SOL    HW227333   3.718   6.141   2.486
 8812SOL     OW27334   5.607   0.458   0.168
 8812SOL    HW127335   5.571   0.550   0.151
 8812SOL    HW227336   5.534   0.400   0.204
 8813SOL     OW27337   1.549   2.399   1.040
 8813SOL    HW127338   1.603   2.404   0.956
 8813SOL    HW227339   1.525   2.304   1.059
 8814SOL     OW27340   5.970   0.577   4.543
 8814SOL    HW127341   5.910   0.564   4.621
 8814SOL    HW227342   6.055   0.525   4.558
 8815SOL     OW27343   4.852   0.743   1.151
 8815SOL    HW127344   4.876   0.687   1.071
 8815SOL    HW227345   4.753   0.755   1.155
 8816SOL     OW27346   0.032   1.408   2.682
 8816SOL    HW127347   7.017   1.499   2.708
 8816SOL    HW227348   0.120   1.417   2.636
 8817SOL     OW27349   0.997   2.065   4.208
 8817SOL    HW127350   0.927   2.064   4.136
 8817SOL    HW227351   0.953   2.086   4.296
 8818SOL     OW27352   1.322   5.652   6.603
 8818SOL    HW127353   1.351   5.558   6.618
 8818SOL    HW227354   1.373   5.713   6.663
 8819SOL     OW27355   5.737   5.968   6.998
 8819SOL    HW127356   5.735   6.041   6.930
 8819SOL    HW227357   5.678   5.992   0.056
 8820SOL     OW27358   3.819   6.789   5.628
 8820SOL    HW127359   3.723   6.771   5.647
 8820SOL    HW227360   3.835   6.789   5.530
 8821SOL     OW27361   1.613   5.183   5.597
 8821SOL    HW127362   1.571   5.248   5.659
 8821SOL    HW227363   1.712   5.194   5.598
 8822SOL     OW27364   0.131   1.078   5.204
 8822SOL    HW127365   0.174   1.025   5.277
 8822SOL    HW227366   0.048   1.031   5.173
 8823SOL     OW27367   4.489   2.468   3.294
 8823SOL    HW127368   4.517   2.537   3.227
 8823SOL    HW227369   4.500   2.506   3.386
 8824SOL     OW27370   1.240   0.651   3.447
 8824SOL    HW127371   1.239   0.661   3.347
 8824SOL    HW227372   1.154   0.687   3.484
 8825SOL     OW27373   1.407   6.405   6.832
 8825SOL    HW127374   1.477   6.394   6.903
 8825SOL    HW227375   1.375   6.499   6.831
 8826SOL     OW27376   1.086   2.674   6.729
 8826SOL    HW127377   1.022   2.619   6.675
 8826SOL    HW227378   1.175   2.629   6.731
 8827SOL     OW27379   5.273   6.001   4.219
 8827SOL    HW127380   5.329   6.000   4.136
 8827SOL    HW227381   5.287   6.088   4.266
 8828SOL     OW27382   5.342   2.577   5.912
 8828SOL    HW127383   5.274   2.648   5.931
 8828SOL    HW227384   5.300   2.502   5.862
 8829SOL     OW27385   6.242   0.596   2.989
 8829SOL    HW127386   6.193   0.670   3.035
 8829SOL    HW227387   6.327   0.577   3.038
 8830SOL     OW27388   2.660   1.920   2.712
 8830SOL    HW127389   2.640   1.868   2.795
 8830SOL    HW227390   2.605   1.884   2.636
 8831SOL     OW27391   0.685   2.619   2.563
 8831SOL    HW127392   0.759   2.680   2.535
 8831SOL    HW227393   0.605   2.635   2.505
 8832SOL     OW27394   6.303   6.891   5.170
 8832SOL    HW127395   6.259   6.835   5.240
 8832SOL    HW227396   6.401   6.899   5.191
 8833SOL     OW27397   4.943   2.573   1.333
 8833SOL    HW127398   5.037   2.589   1.365
 8833SOL    HW227399   4.946   2.539   1.239
 8834SOL     OW27400   6.448   3.990   5.679
 8834SOL    HW127401   6.499   4.075   5.692
 8834SOL    HW227402   6.432   3.976   5.581
 8835SOL     OW27403   6.339   1.422   5.317
 8835SOL    HW127404   6.327   1.519   5.337
 8835SOL    HW227405   6.324   1.406   5.219
 8836SOL     OW27406   4.404   1.302   6.986
 8836SOL    HW127407   4.436   1.371   0.032
 8836SOL    HW227408   4.439   1.324   6.895
 8837SOL     OW27409   5.562   5.351   1.125
 8837SOL    HW127410   5.633   5.381   1.060
 8837SOL    HW227411   5.558   5.251   1.126
 8838SOL     OW27412   1.107   2.872   1.814
 8838SOL    HW127413   1.060   2.784   1.801
 8838SOL    HW227414   1.106   2.922   1.728
 8839SOL     OW27415   4.871   4.645   2.003
 8839SOL    HW127416   4.816   4.573   1.961
 8839SOL    HW227417   4.817   4.728   2.011
 8840SOL     OW27418   0.312   6.711   1.281
 8840SOL    HW127419   0.230   6.762   1.307
 8840SOL    HW227420   0.337   6.647   1.355
 8841SOL     OW27421   5.131   1.932   0.559
 8841SOL    HW127422   5.062   1.983   0.610
 8841SOL    HW227423   5.154   1.983   0.476
 8842SOL     OW27424   3.189   3.149   3.285
 8842SOL    HW127425   3.256   3.146   3.359
 8842SOL    HW227426   3.223   3.207   3.212
 8843SOL     OW27427   2.556   6.041   5.125
 8843SOL    HW127428   2.567   6.000   5.216
 8843SOL    HW227429   2.646   6.050   5.082
 8844SOL     OW27430   3.924   2.635   5.318
 8844SOL    HW127431   4.005   2.600   5.271
 8844SOL    HW227432   3.874   2.559   5.359
 8845SOL     OW27433   0.404   3.644   2.618
 8845SOL    HW127434   0.370   3.679   2.531
 8845SOL    HW227435   0.440   3.719   2.673
 8846SOL     OW27436   5.348   5.284   3.906
 8846SOL    HW127437   5.373   5.187   3.901
 8846SOL    HW227438   5.281   5.298   3.979
 8847SOL     OW27439   1.106   3.432   3.733
 8847SOL    HW127440   1.029   3.374   3.703
 8847SOL    HW227441   1.083   3.475   3.820
 8848SOL     OW27442   6.143   2.478   1.721
 8848SOL    HW127443   6.165   2.452   1.815
 8848SOL    HW227444   6.087   2.408   1.679
 8849SOL     OW27445   3.702   5.328   4.597
 8849SOL    HW127446   3.712   5.347   4.695
 8849SOL    HW227447   3.610   5.353   4.568
 8850SOL     OW27448   4.871   1.609   0.975
 8850SOL    HW127449   4.968   1.627   0.962
 8850SOL    HW227450   4.819   1.694   0.967
 8851SOL     OW27451   6.628   5.207   3.398
 8851SOL    HW127452   6.628   5.159   3.486
 8851SOL    HW227453   6.609   5.304   3.413
 8852SOL     OW27454   5.895   4.550   4.673
 8852SOL    HW127455   5.812   4.594   4.639
 8852SOL    HW227456   5.963   4.620   4.696
 8853SOL     OW27457   4.556   1.693   4.315
 8853SOL    HW127458   4.587   1.733   4.401
 8853SOL    HW227459   4.628   1.699   4.247
 8854SOL     OW27460   2.600   0.306   6.550
 8854SOL    HW127461   2.617   0.211   6.523
 8854SOL    HW227462   2.537   0.309   6.627
 8855SOL     OW27463   6.610   4.488   6.067
 8855SOL    HW127464   6.564   4.529   6.145
 8855SOL    HW227465   6.626   4.391   6.084
 8856SOL     OW27466   5.138   1.884   5.904
 8856SOL    HW127467   5.167   1.788   5.894
 8856SOL    HW227468   5.218   1.941   5.922
 8857SOL     OW27469   1.715   3.477   4.248
 8857SOL    HW127470   1.618   3.456   4.239
 8857SOL    HW227471   1.743   3.469   4.344
 8858SOL     OW27472   1.411   3.478   5.585
 8858SOL    HW127473   1.511   3.478   5.590
 8858SOL    HW227474   1.375   3.401   5.637
 8859SOL     OW27475   2.890   5.184   4.714
 8859SOL    HW127476   2.823   5.168   4.786
 8859SOL    HW227477   2.846   5.231   4.637
 8860SOL     OW27478   2.428   0.900   1.719
 8860SOL    HW127479   2.401   0.813   1.762
 8860SOL    HW227480   2.477   0.955   1.786
 8861SOL     OW27481   2.311   1.165   0.002
 8861SOL    HW127482   2.392   1.141   0.055
 8861SOL    HW227483   2.279   1.256   0.028
 8862SOL     OW27484   0.337   3.675   3.916
 8862SOL    HW127485   0.408   3.643   3.853
 8862SOL    HW227486   0.330   3.775   3.911
 8863SOL     OW27487   1.728   5.705   5.392
 8863SOL    HW127488   1.640   5.665   5.367
 8863SOL    HW227489   1.802   5.646   5.361
 8864SOL     OW27490   2.064   3.890   5.133
 8864SOL    HW127491   2.030   3.829   5.062
 8864SOL    HW227492   2.148   3.935   5.101
 8865SOL     OW27493   2.928   2.110   5.754
 8865SOL    HW127494   2.988   2.174   5.707
 8865SOL    HW227495   2.879   2.157   5.827
 8866SOL     OW27496   5.663   0.075   5.445
 8866SOL    HW127497   5.746   0.114   5.485
 8866SOL    HW227498   5.639   0.126   5.362
 8867SOL     OW27499   5.235   0.802   2.833
 8867SOL    HW127500   5.327   0.794   2.794
 8867SOL    HW227501   5.167   0.780   2.763
 8868SOL     OW27502   6.300   2.704   0.622
 8868SOL    HW127503   6.397   2.728   0.618
 8868SOL    HW227504   6.283   2.621   0.569
 8869SOL     OW27505   1.573   1.724   4.062
 8869SOL    HW127506   1.572   1.725   4.162
 8869SOL    HW227507   1.622   1.805   4.029
 8870SOL     OW27508   3.377   6.279   1.616
 8870SOL    HW127509   3.377   6.245   1.710
 8870SOL    HW227510   3.414   6.208   1.556
 8871SOL     OW27511   0.827   2.407   3.952
 8871SOL    HW127512   0.779   2.384   4.037
 8871SOL    HW227513   0.767   2.461   3.893
 8872SOL     OW27514   1.220   1.276   2.798
 8872SOL    HW127515   1.130   1.239   2.774
 8872SOL    HW227516   1.220   1.302   2.895
 8873SOL     OW27517   0.262   6.060   4.806
 8873SOL    HW127518   0.166   6.080   4.784
 8873SOL    HW227519   0.266   5.986   4.873
 8874SOL     OW27520   0.878   0.863   6.020
 8874SOL    HW127521   0.815   0.798   6.063
 8874SOL    HW227522   0.849   0.956   6.041
 8875SOL     OW27523   1.165   1.045   4.114
 8875SOL    HW127524   1.237   0.976   4.105
 8875SOL    HW227525   1.077   1.005   4.086
 8876SOL     OW27526   3.278   1.072   4.447
 8876SOL    HW127527   3.208   1.143   4.435
 8876SOL    HW227528   3.309   1.041   4.357
 8877SOL     OW27529   2.471   6.591   5.829
 8877SOL    HW127530   2.528   6.521   5.872
 8877SOL    HW227531   2.378   6.557   5.819
 8878SOL     OW27532   5.655   4.407   5.667
 8878SOL    HW127533   5.712   4.473   5.618
 8878SOL    HW227534   5.601   4.354   5.602
 8879SOL     OW27535   6.034   5.831   4.398
 8879SOL    HW127536   5.999   5.824   4.491
 8879SOL    HW227537   6.134   5.826   4.399
 8880SOL     OW27538   1.332   0.044   4.935
 8880SOL    HW127539   1.252   0.012   4.987
 8880SOL    HW227540   1.329   0.144   4.928
 8881SOL     OW27541   6.189   1.577   1.758
 8881SOL    HW127542   6.111   1.516   1.773
 8881SOL    HW227543   6.161   1.671   1.774
 8882SOL     OW27544   5.423   1.801   0.090
 8882SOL    HW127545   5.387   1.809   0.182
 8882SOL    HW227546   5.522   1.812   0.091
 8883SOL     OW27547   6.141   1.315   5.724
 8883SOL    HW127548   6.094   1.332   5.811
 8883SOL    HW227549   6.075   1.312   5.650
 8884SOL     OW27550   0.770   1.445   6.671
 8884SOL    HW127551   0.762   1.377   6.599
 8884SOL    HW227552   0.754   1.401   6.760
 8885SOL     OW27553   5.682   3.888   1.550
 8885SOL    HW127554   5.707   3.791   1.544
 8885SOL    HW227555   5.730   3.930   1.626
 8886SOL     OW27556   3.357   6.256   6.114
 8886SOL    HW127557   3.410   6.335   6.145
 8886SOL    HW227558   3.279   6.241   6.175
 8887SOL     OW27559   1.867   1.238   0.443
 8887SOL    HW127560   1.962   1.228   0.474
 8887SOL    HW227561   1.815   1.157   0.469
 8888SOL     OW27562   1.742   1.983   3.198
 8888SOL    HW127563   1.686   2.066   3.203
 8888SOL    HW227564   1.711   1.926   3.122
 8889SOL     OW27565   3.257   0.776   5.730
 8889SOL    HW127566   3.272   0.769   5.631
 8889SOL    HW227567   3.161   0.796   5.748
 8890SOL     OW27568   6.339   5.676   3.117
 8890SOL    HW127569   6.317   5.645   3.210
 8890SOL    HW227570   6.282   5.628   3.051
 8891SOL     OW27571   3.577   1.912   6.233
 8891SOL    HW127572   3.514   1.959   6.295
 8891SOL    HW227573   3.587   1.967   6.149
 8892SOL     OW27574   0.985   0.715   3.570
 8892SOL    HW127575   1.010   0.710   3.667
 8892SOL    HW227576   0.938   0.632   3.543
 8893SOL     OW27577   0.098   0.468   0.834
 8893SOL    HW127578   0.127   0.423   0.750
 8893SOL    HW227579   0.108   0.567   0.824
 8894SOL     OW27580   5.110   3.007   5.375
 8894SOL    HW127581   5.073   2.914   5.380
 8894SOL    HW227582   5.151   3.022   5.286
 8895SOL     OW27583   1.249   1.276   3.700
 8895SOL    HW127584   1.194   1.317   3.627
 8895SOL    HW227585   1.194   1.272   3.784
 8896SOL     OW27586   1.699   3.821   4.478
 8896SOL    HW127587   1.760   3.857   4.408
 8896SOL    HW227588   1.612   3.795   4.436
 8897SOL     OW27589   0.796   2.113   1.954
 8897SOL    HW127590   0.796   2.180   1.879
 8897SOL    HW227591   0.732   2.040   1.933
 8898SOL     OW27592   0.803   2.223   5.237
 8898SOL    HW127593   0.821   2.249   5.142
 8898SOL    HW227594   0.714   2.258   5.265
 8899SOL     OW27595   4.264   6.955   3.172
 8899SOL    HW127596   4.364   6.956   3.179
 8899SOL    HW227597   4.230   6.869   3.210
 8900SOL     OW27598   6.196   1.542   3.571
 8900SOL    HW127599   6.124   1.486   3.611
 8900SOL    HW227600   6.178   1.638   3.592
 8901SOL     OW27601   0.924   6.967   2.285
 8901SOL    HW127602   0.981   6.887   2.269
 8901SOL    HW227603   0.828   6.942   2.278
 8902SOL     OW27604   4.073   6.677   5.614
 8902SOL    HW127605   3.997   6.740   5.630
 8902SOL    HW227606   4.050   6.615   5.539
 8903SOL     OW27607   6.620   1.390   2.781
 8903SOL    HW127608   6.555   1.439   2.839
 8903SOL    HW227609   6.711   1.393   2.823
 8904SOL     OW27610   2.217   4.308   4.123
 8904SOL    HW127611   2.230   4.209   4.116
 8904SOL    HW227612   2.286   4.347   4.184
 8905SOL     OW27613   2.005   4.296   4.911
 8905SOL    HW127614   2.058   4.345   4.841
 8905SOL    HW227615   2.062   4.283   4.992
 8906SOL     OW27616   1.492   4.982   4.215
 8906SOL    HW127617   1.506   5.056   4.149
 8906SOL    HW227618   1.408   4.932   4.193
 8907SOL     OW27619   3.918   3.035   6.579
 8907SOL    HW127620   3.944   3.126   6.612
 8907SOL    HW227621   3.838   3.043   6.519
 8908SOL     OW27622   0.932   3.446   3.017
 8908SOL    HW127623   0.951   3.504   2.937
 8908SOL    HW227624   0.948   3.350   2.993
 8909SOL     OW27625   3.527   6.842   4.591
 8909SOL    HW127626   3.470   6.786   4.531
 8909SOL    HW227627   3.484   6.851   4.680
 8910SOL     OW27628   4.301   2.839   0.078
 8910SOL    HW127629   4.270   2.756   0.124
 8910SOL    HW227630   4.334   2.816   7.005
 8911SOL     OW27631   5.242   3.709   4.544
 8911SOL    HW127632   5.305   3.755   4.481
 8911SOL    HW227633   5.148   3.735   4.522
 8912SOL     OW27634   3.811   0.648   0.161
 8912SOL    HW127635   3.816   0.568   0.221
 8912SOL    HW227636   3.896   0.655   0.109
 8913SOL     OW27637   4.029   3.788   1.281
 8913SOL    HW127638   4.055   3.745   1.368
 8913SOL    HW227639   4.104   3.781   1.216
 8914SOL     OW27640   5.603   4.092   3.244
 8914SOL    HW127641   5.687   4.058   3.285
 8914SOL    HW227642   5.573   4.175   3.292
 8915SOL     OW27643   1.241   5.702   1.764
 8915SOL    HW127644   1.255   5.798   1.788
 8915SOL    HW227645   1.310   5.645   1.808
 8916SOL     OW27646   5.469   2.531   1.337
 8916SOL    HW127647   5.455   2.551   1.241
 8916SOL    HW227648   5.429   2.442   1.359
 8917SOL     OW27649   5.830   3.864   6.102
 8917SOL    HW127650   5.902   3.931   6.120
 8917SOL    HW227651   5.770   3.898   6.030
 8918SOL     OW27652   5.133   4.713   5.424
 8918SOL    HW127653   5.232   4.703   5.436
 8918SOL    HW227654   5.115   4.791   5.364
 8919SOL     OW27655   1.937   3.157   0.992
 8919SOL    HW127656   1.890   3.073   0.965
 8919SOL    HW227657   1.872   3.219   1.037
 8920SOL     OW27658   5.657   5.736   5.486
 8920SOL    HW127659   5.671   5.657   5.546
 8920SOL    HW227660   5.619   5.812   5.538
 8921SOL     OW27661   0.444   5.519   3.253
 8921SOL    HW127662   0.528   5.497   3.302
 8921SOL    HW227663   0.466   5.559   3.164
 8922SOL     OW27664   1.173   2.909   0.398
 8922SOL    HW127665   1.151   2.846   0.324
 8922SOL    HW227666   1.122   2.994   0.386
 8923SOL     OW27667   2.097   5.367   3.806
 8923SOL    HW127668   2.074   5.311   3.726
 8923SOL    HW227669   2.013   5.390   3.855
 8924SOL     OW27670   2.134   6.216   4.535
 8924SOL    HW127671   2.039   6.223   4.566
 8924SOL    HW227672   2.148   6.127   4.491
 8925SOL     OW27673   4.407   5.479   1.244
 8925SOL    HW127674   4.386   5.558   1.187
 8925SOL    HW227675   4.334   5.412   1.236
 8926SOL     OW27676   5.062   6.671   0.375
 8926SOL    HW127677   5.084   6.592   0.433
 8926SOL    HW227678   4.989   6.645   0.311
 8927SOL     OW27679   2.961   2.067   4.902
 8927SOL    HW127680   3.055   2.039   4.922
 8927SOL    HW227681   2.932   2.137   4.968
 8928SOL     OW27682   2.108   0.206   5.569
 8928SOL    HW127683   2.202   0.190   5.601
 8928SOL    HW227684   2.052   0.239   5.645
 8929SOL     OW27685   4.755   4.232   2.941
 8929SOL    HW127686   4.719   4.216   3.033
 8929SOL    HW227687   4.847   4.192   2.934
 8930SOL     OW27688   0.405   5.853   5.411
 8930SOL    HW127689   0.322   5.908   5.411
 8930SOL    HW227690   0.412   5.804   5.324
 8931SOL     OW27691   5.412   0.910   2.073
 8931SOL    HW127692   5.352   0.918   1.994
 8931SOL    HW227693   5.505   0.936   2.048
 8932SOL     OW27694   3.846   0.810   6.243
 8932SOL    HW127695   3.814   0.891   6.293
 8932SOL    HW227696   3.945   0.814   6.233
 8933SOL     OW27697   1.724   0.403   5.485
 8933SOL    HW127698   1.726   0.444   5.576
 8933SOL    HW227699   1.765   0.466   5.419
 8934SOL     OW27700   2.746   6.225   3.771
 8934SOL    HW127701   2.732   6.233   3.869
 8934SOL    HW227702   2.670   6.267   3.722
 8935SOL     OW27703   5.609   2.250   2.243
 8935SOL    HW127704   5.610   2.299   2.331
 8935SOL    HW227705   5.573   2.310   2.172
 8936SOL     OW27706   0.887   3.985   2.599
 8936SOL    HW127707   0.839   3.975   2.686
 8936SOL    HW227708   0.941   3.903   2.581
 8937SOL     OW27709   3.612   6.098   5.206
 8937SOL    HW127710   3.598   6.182   5.153
 8937SOL    HW227711   3.577   6.111   5.299
 8938SOL     OW27712   4.558   6.446   2.561
 8938SOL    HW127713   4.472   6.394   2.556
 8938SOL    HW227714   4.634   6.388   2.534
 8939SOL     OW27715   6.888   3.063   5.629
 8939SOL    HW127716   6.935   3.065   5.717
 8939SOL    HW227717   6.794   3.032   5.642
 8940SOL     OW27718   6.342   3.640   2.741
 8940SOL    HW127719   6.375   3.575   2.810
 8940SOL    HW227720   6.294   3.590   2.669
 8941SOL     OW27721   5.766   2.351   3.726
 8941SOL    HW127722   5.852   2.347   3.776
 8941SOL    HW227723   5.778   2.406   3.642
 8942SOL     OW27724   5.077   6.229   4.421
 8942SOL    HW127725   5.055   6.326   4.412
 8942SOL    HW227726   5.173   6.220   4.448
 8943SOL     OW27727   4.441   3.334   0.672
 8943SOL    HW127728   4.448   3.432   0.692
 8943SOL    HW227729   4.432   3.320   0.574
 8944SOL     OW27730   4.979   5.728   5.653
 8944SOL    HW127731   4.916   5.759   5.582
 8944SOL    HW227732   4.935   5.734   5.742
 8945SOL     OW27733   6.868   4.202   2.325
 8945SOL    HW127734   6.949   4.152   2.355
 8945SOL    HW227735   6.789   4.175   2.380
 8946SOL     OW27736   4.018   2.049   3.847
 8946SOL    HW127737   4.108   2.022   3.814
 8946SOL    HW227738   4.027   2.118   3.920
 8947SOL     OW27739   3.297   5.217   0.881
 8947SOL    HW127740   3.248   5.162   0.949
 8947SOL    HW227741   3.340   5.295   0.927
 8948SOL     OW27742   5.511   6.783   2.911
 8948SOL    HW127743   5.448   6.857   2.934
 8948SOL    HW227744   5.485   6.743   2.823
 8949SOL     OW27745   4.049   6.351   0.794
 8949SOL    HW127746   4.103   6.291   0.736
 8949SOL    HW227747   3.963   6.306   0.819
 8950SOL     OW27748   3.460   3.385   3.831
 8950SOL    HW127749   3.377   3.437   3.850
 8950SOL    HW227750   3.511   3.429   3.757
 8951SOL     OW27751   0.511   0.954   3.696
 8951SOL    HW127752   0.444   1.027   3.709
 8951SOL    HW227753   0.570   0.948   3.777
 8952SOL     OW27754   1.608   4.173   4.486
 8952SOL    HW127755   1.562   4.133   4.407
 8952SOL    HW227756   1.639   4.100   4.548
 8953SOL     OW27757   1.780   5.251   0.402
 8953SOL    HW127758   1.683   5.263   0.422
 8953SOL    HW227759   1.806   5.156   0.418
 8954SOL     OW27760   2.017   4.098   5.323
 8954SOL    HW127761   1.932   4.150   5.327
 8954SOL    HW227762   2.012   4.031   5.249
 8955SOL     OW27763   6.516   2.598   6.497
 8955SOL    HW127764   6.469   2.681   6.468
 8955SOL    HW227765   6.610   2.599   6.462
 8956SOL     OW27766   0.713   6.299   0.811
 8956SOL    HW127767   0.771   6.221   0.834
 8956SOL    HW227768   0.740   6.336   0.721
 8957SOL     OW27769   0.634   0.301   4.037
 8957SOL    HW127770   0.585   0.366   3.979
 8957SOL    HW227771   0.576   0.221   4.053
 8958SOL     OW27772   0.143   2.820   4.484
 8958SOL    HW127773   0.234   2.854   4.508
 8958SOL    HW227774   0.148   2.766   4.400
 8959SOL     OW27775   5.731   0.850   3.499
 8959SOL    HW127776   5.807   0.841   3.435
 8959SOL    HW227777   5.659   0.906   3.458
 8960SOL     OW27778   3.611   6.417   1.905
 8960SOL    HW127779   3.686   6.419   1.839
 8960SOL    HW227780   3.624   6.339   1.967
 8961SOL     OW27781   2.482   2.509   5.539
 8961SOL    HW127782   2.440   2.493   5.450
 8961SOL    HW227783   2.581   2.499   5.531
 8962SOL     OW27784   6.818   5.655   0.831
 8962SOL    HW127785   6.777   5.617   0.749
 8962SOL    HW227786   6.754   5.720   0.874
 8963SOL     OW27787   2.373   5.238   5.583
 8963SOL    HW127788   2.370   5.333   5.552
 8963SOL    HW227789   2.393   5.179   5.505
 8964SOL     OW27790   1.164   3.531   4.050
 8964SOL    HW127791   1.134   3.440   4.078
 8964SOL    HW227792   1.257   3.527   4.015
 8965SOL     OW27793   3.014   0.057   6.316
 8965SOL    HW127794   2.916   0.078   6.311
 8965SOL    HW227795   3.055   0.105   6.394
 8966SOL     OW27796   4.306   6.454   5.132
 8966SOL    HW127797   4.209   6.434   5.145
 8966SOL    HW227798   4.317   6.518   5.056
 8967SOL     OW27799   1.700   6.858   3.182
 8967SOL    HW127800   1.685   6.887   3.087
 8967SOL    HW227801   1.709   6.759   3.185
 8968SOL     OW27802   2.541   5.693   2.743
 8968SOL    HW127803   2.582   5.633   2.675
 8968SOL    HW227804   2.472   5.642   2.796
 8969SOL     OW27805   6.567   0.948   1.202
 8969SOL    HW127806   6.614   0.990   1.124
 8969SOL    HW227807   6.476   0.918   1.173
 8970SOL     OW27808   2.841   2.273   4.741
 8970SOL    HW127809   2.893   2.198   4.782
 8970SOL    HW227810   2.771   2.304   4.806
 8971SOL     OW27811   3.139   5.912   1.049
 8971SOL    HW127812   3.079   5.922   1.129
 8971SOL    HW227813   3.231   5.888   1.079
 8972SOL     OW27814   6.901   4.202   6.934
 8972SOL    HW127815   6.888   4.200   0.014
 8972SOL    HW227816   6.815   4.226   6.890
 8973SOL     OW27817   2.744   2.046   3.362
 8973SOL    HW127818   2.770   2.002   3.276
 8973SOL    HW227819   2.646   2.034   3.378
 8974SOL     OW27820   0.951   4.792   5.402
 8974SOL    HW127821   0.862   4.788   5.356
 8974SOL    HW227822   0.986   4.886   5.398
 8975SOL     OW27823   0.940   3.929   6.352
 8975SOL    HW127824   0.878   3.977   6.414
 8975SOL    HW227825   1.035   3.945   6.380
 8976SOL     OW27826   5.302   6.919   1.380
 8976SOL    HW127827   5.383   6.932   1.323
 8976SOL    HW227828   5.230   6.982   1.351
 8977SOL     OW27829   0.697   4.999   6.366
 8977SOL    HW127830   0.784   5.020   6.322
 8977SOL    HW227831   0.705   5.012   6.465
 8978SOL     OW27832   6.917   5.037   4.889
 8978SOL    HW127833   6.827   5.071   4.915
 8978SOL    HW227834   6.950   4.973   4.958
 8979SOL     OW27835   1.924   4.758   2.933
 8979SOL    HW127836   1.830   4.723   2.931
 8979SOL    HW227837   1.980   4.698   2.991
 8980SOL     OW27838   5.077   1.481   6.603
 8980SOL    HW127839   5.174   1.464   6.619
 8980SOL    HW227840   5.023   1.411   6.649
 8981SOL     OW27841   3.755   2.362   6.786
 8981SOL    HW127842   3.755   2.424   6.864
 8981SOL    HW227843   3.666   2.316   6.780
 8982SOL     OW27844   0.187   0.847   3.563
 8982SOL    HW127845   0.217   0.754   3.584
 8982SOL    HW227846   0.188   0.902   3.647
 8983SOL     OW27847   1.317   6.400   2.111
 8983SOL    HW127848   1.283   6.410   2.204
 8983SOL    HW227849   1.401   6.346   2.112
 8984SOL     OW27850   6.178   1.003   3.459
 8984SOL    HW127851   6.264   1.054   3.452
 8984SOL    HW227852   6.131   1.029   3.543
 8985SOL     OW27853   4.774   0.549   0.499
 8985SOL    HW127854   4.793   0.583   0.407
 8985SOL    HW227855   4.716   0.468   0.493
 8986SOL     OW27856   1.125   0.048   6.274
 8986SOL    HW127857   1.110   7.016   6.189
 8986SOL    HW227858   1.118   0.146   6.256
 8987SOL     OW27859   3.368   6.588   3.079
 8987SOL    HW127860   3.408   6.667   3.124
 8987SOL    HW227861   3.413   6.572   2.991
 8988SOL     OW27862   1.716   6.506   1.218
 8988SOL    HW127863   1.749   6.412   1.219
 8988SOL    HW227864   1.735   6.548   1.129
 8989SOL     OW27865   6.376   1.443   2.463
 8989SOL    HW127866   6.317   1.427   2.541
 8989SOL    HW227867   6.472   1.432   2.490
 8990SOL     OW27868   3.869   1.941   3.039
 8990SOL    HW127869   3.799   1.940   3.110
 8990SOL    HW227870   3.854   2.021   2.980
 8991SOL     OW27871   1.881   1.750   1.019
 8991SOL    HW127872   1.953   1.694   1.060
 8991SOL    HW227873   1.886   1.743   0.919
 8992SOL     OW27874   0.973   5.678   5.184
 8992SOL    HW127875   0.916   5.656   5.105
 8992SOL    HW227876   1.043   5.745   5.157
 8993SOL     OW27877   5.618   4.405   3.741
 8993SOL    HW127878   5.697   4.382   3.684
 8993SOL    HW227879   5.538   4.417   3.684
 8994SOL     OW27880   1.481   6.189   2.873
 8994SOL    HW127881   1.466   6.182   2.972
 8994SOL    HW227882   1.394   6.177   2.825
 8995SOL     OW27883   1.736   4.138   3.637
 8995SOL    HW127884   1.690   4.162   3.552
 8995SOL    HW227885   1.830   4.173   3.635
 8996SOL     OW27886   2.961   4.088   1.537
 8996SOL    HW127887   3.019   4.107   1.458
 8996SOL    HW227888   2.975   4.158   1.607
 8997SOL     OW27889   4.322   1.283   4.936
 8997SOL    HW127890   4.343   1.248   5.027
 8997SOL    HW227891   4.342   1.213   4.868
 8998SOL     OW27892   1.057   1.497   6.354
 8998SOL    HW127893   0.967   1.541   6.355
 8998SOL    HW227894   1.128   1.565   6.371
 8999SOL     OW27895   6.534   2.920   5.010
 8999SOL    HW127896   6.593   2.965   4.943
 8999SOL    HW227897   6.506   2.831   4.974
 9000SOL     OW27898   3.980   5.154   1.541
 9000SOL    HW127899   3.905   5.180   1.481
 9000SOL    HW227900   4.003   5.231   1.601
 9001SOL     OW27901   1.060   3.235   4.004
 9001SOL    HW127902   1.099   3.223   3.913
 9001SOL    HW227903   1.066   3.149   4.055
 9002SOL     OW27904   4.787   2.811   6.564
 9002SOL    HW127905   4.812   2.719   6.595
 9002SOL    HW227906   4.867   2.870   6.565
 9003SOL     OW27907   0.698   3.587   0.327
 9003SOL    HW127908   0.705   3.502   0.380
 9003SOL    HW227909   0.660   3.659   0.386
 9004SOL     OW27910   5.157   5.590   0.754
 9004SOL    HW127911   5.085   5.585   0.823
 9004SOL    HW227912   5.231   5.648   0.787
 9005SOL     OW27913   4.748   4.154   4.171
 9005SOL    HW127914   4.772   4.106   4.087
 9005SOL    HW227915   4.745   4.088   4.247
 9006SOL     OW27916   3.380   6.487   2.745
 9006SOL    HW127917   3.286   6.507   2.773
 9006SOL    HW227918   3.385   6.480   2.646
 9007SOL     OW27919   1.817   0.141   5.402
 9007SOL    HW127920   1.917   0.144   5.410
 9007SOL    HW227921   1.779   0.229   5.429
 9008SOL     OW27922   6.995   4.552   1.590
 9008SOL    HW127923   6.930   4.480   1.566
 9008SOL    HW227924   6.958   4.608   1.664
 9009SOL     OW27925   3.949   6.946   6.785
 9009SOL    HW127926   3.963   6.902   6.873
 9009SOL    HW227927   4.023   6.923   6.723
 9010SOL     OW27928   6.851   6.350   4.753
 9010SOL    HW127929   6.795   6.301   4.686
 9010SOL    HW227930   6.947   6.327   4.738
 9011SOL     OW27931   4.429   2.481   2.390
 9011SOL    HW127932   4.424   2.403   2.328
 9011SOL    HW227933   4.361   2.549   2.363
 9012SOL     OW27934   3.947   4.818   2.188
 9012SOL    HW127935   3.946   4.773   2.277
 9012SOL    HW227936   4.038   4.810   2.148
 9013SOL     OW27937   3.127   6.463   0.957
 9013SOL    HW127938   3.191   6.390   0.932
 9013SOL    HW227939   3.172   6.526   1.019
 9014SOL     OW27940   1.725   1.675   2.426
 9014SOL    HW127941   1.744   1.659   2.330
 9014SOL    HW227942   1.730   1.589   2.477
 9015SOL     OW27943   6.442   2.099   4.542
 9015SOL    HW127944   6.385   2.034   4.592
 9015SOL    HW227945   6.457   2.181   4.598
 9016SOL     OW27946   0.186   4.741   6.933
 9016SOL    HW127947   0.118   4.669   6.944
 9016SOL    HW227948   0.144   4.819   6.886
 9017SOL     OW27949   6.318   2.898   2.197
 9017SOL    HW127950   6.352   2.983   2.238
 9017SOL    HW227951   6.242   2.863   2.252
 9018SOL     OW27952   5.364   2.322   6.390
 9018SOL    HW127953   5.321   2.256   6.451
 9018SOL    HW227954   5.444   2.362   6.434
 9019SOL     OW27955   1.798   5.871   0.440
 9019SOL    HW127956   1.768   5.800   0.503
 9019SOL    HW227957   1.895   5.891   0.456
 9020SOL     OW27958   0.595   5.420   5.062
 9020SOL    HW127959   0.648   5.501   5.037
 9020SOL    HW227960   0.655   5.340   5.066
 9021SOL     OW27961   6.989   5.286   4.788
 9021SOL    HW127962   6.965   5.189   4.789
 9021SOL    HW227963   6.909   5.340   4.815
 9022SOL     OW27964   0.935   6.764   5.991
 9022SOL    HW127965   0.909   6.798   6.081
 9022SOL    HW227966   0.869   6.696   5.960
 9023SOL     OW27967   4.049   3.604   3.900
 9023SOL    HW127968   3.967   3.549   3.881
 9023SOL    HW227969   4.088   3.578   3.988
 9024SOL     OW27970   1.667   0.034   0.463
 9024SOL    HW127971   1.594   6.987   0.447
 9024SOL    HW227972   1.709   0.059   0.376
 9025SOL     OW27973   0.412   2.649   0.812
 9025SOL    HW127974   0.339   2.648   0.744
 9025SOL    HW227975   0.428   2.556   0.846
 9026SOL     OW27976   2.883   4.697   5.930
 9026SOL    HW127977   2.812   4.745   5.982
 9026SOL    HW227978   2.850   4.679   5.838
 9027SOL     OW27979   0.924   3.515   1.792
 9027SOL    HW127980   1.024   3.520   1.783
 9027SOL    HW227981   0.882   3.569   1.720
 9028SOL     OW27982   1.780   3.896   4.984
 9028SOL    HW127983   1.831   3.972   4.943
 9028SOL    HW227984   1.832   3.811   4.973
 9029SOL     OW27985   5.082   5.192   3.227
 9029SOL    HW127986   5.086   5.096   3.198
 9029SOL    HW227987   4.998   5.234   3.191
 9030SOL     OW27988   5.057   2.843   2.353
 9030SOL    HW127989   4.995   2.917   2.328
 9030SOL    HW227990   5.088   2.855   2.447
 9031SOL     OW27991   2.459   0.732   2.645
 9031SOL    HW127992   2.380   0.788   2.618
 9031SOL    HW227993   2.439   0.685   2.731
 9032SOL     OW27994   0.479   4.141   2.883
 9032SOL    HW127995   0.466   4.094   2.796
 9032SOL    HW227996   0.504   4.073   2.953
 9033SOL     OW27997   0.838   3.032   2.641
 9033SOL    HW127998   0.758   3.082   2.674
 9033SOL    HW227999   0.812   2.971   2.566
 9034SOL     OW28000   1.134   6.610   0.650
 9034SOL    HW128001   1.080   6.593   0.568
 9034SOL    HW228002   1.150   6.525   0.699
 9035SOL     OW28003   6.019   1.323   4.402
 9035SOL    HW128004   5.941   1.309   4.463
 9035SOL    HW228005   6.000   1.280   4.314
 9036SOL     OW28006   0.012   1.858   4.184
 9036SOL    HW128007   6.990   1.777   4.225
 9036SOL    HW228008   6.989   1.941   4.223
 9037SOL     OW28009   2.894   4.437   6.042
 9037SOL    HW128010   2.869   4.448   6.138
 9037SOL    HW228011   2.921   4.525   6.004
 9038SOL     OW28012   3.901   5.990   5.666
 9038SOL    HW128013   3.926   6.042   5.747
 9038SOL    HW228014   3.984   5.962   5.617
 9039SOL     OW28015   2.887   4.916   0.400
 9039SOL    HW128016   2.906   4.897   0.304
 9039SOL    HW228017   2.815   4.854   0.433
 9040SOL     OW28018   3.338   1.497   2.742
 9040SOL    HW128019   3.255   1.523   2.692
 9040SOL    HW228020   3.316   1.431   2.813
 9041SOL     OW28021   2.317   2.772   5.188
 9041SOL    HW128022   2.219   2.790   5.183
 9041SOL    HW228023   2.367   2.858   5.193
 9042SOL     OW28024   1.373   5.198   2.765
 9042SOL    HW128025   1.355   5.291   2.734
 9042SOL    HW228026   1.313   5.176   2.843
 9043SOL     OW28027   0.433   1.670   6.781
 9043SOL    HW128028   0.386   1.583   6.800
 9043SOL    HW228029   0.489   1.696   6.860
 9044SOL     OW28030   0.595   4.232   1.286
 9044SOL    HW128031   0.562   4.255   1.194
 9044SOL    HW228032   0.563   4.141   1.311
 9045SOL     OW28033   1.669   4.654   4.794
 9045SOL    HW128034   1.673   4.557   4.768
 9045SOL    HW228035   1.582   4.693   4.763
 9046SOL     OW28036   4.025   4.502   5.981
 9046SOL    HW128037   4.052   4.451   6.062
 9046SOL    HW228038   3.979   4.587   6.009
 9047SOL     OW28039   0.761   5.217   4.023
 9047SOL    HW128040   0.843   5.257   4.064
 9047SOL    HW228041   0.717   5.157   4.090
 9048SOL     OW28042   1.218   2.213   5.616
 9048SOL    HW128043   1.270   2.230   5.699
 9048SOL    HW228044   1.270   2.245   5.536
 9049SOL     OW28045   4.627   5.524   5.599
 9049SOL    HW128046   4.583   5.605   5.561
 9049SOL    HW228047   4.633   5.534   5.699
 9050SOL     OW28048   0.265   3.660   7.005
 9050SOL    HW128049   0.268   3.629   0.081
 9050SOL    HW228050   0.180   3.710   6.989
 9051SOL     OW28051   0.016   5.803   6.195
 9051SOL    HW128052   0.041   5.796   6.098
 9051SOL    HW228053   6.989   5.890   6.211
 9052SOL     OW28054   2.235   4.860   4.464
 9052SOL    HW128055   2.267   4.810   4.544
 9052SOL    HW228056   2.309   4.917   4.429
 9053SOL     OW28057   0.995   0.534   2.693
 9053SOL    HW128058   1.033   0.450   2.653
 9053SOL    HW228059   0.908   0.555   2.649
 9054SOL     OW28060   1.159   6.953   2.060
 9054SOL    HW128061   1.123   0.021   2.027
 9054SOL    HW228062   1.198   6.965   2.151
 9055SOL     OW28063   1.242   3.099   5.395
 9055SOL    HW128064   1.206   3.178   5.445
 9055SOL    HW228065   1.304   3.047   5.454
 9056SOL     OW28066   5.404   2.331   2.018
 9056SOL    HW128067   5.461   2.290   1.947
 9056SOL    HW228068   5.322   2.275   2.031
 9057SOL     OW28069   3.637   0.209   6.018
 9057SOL    HW128070   3.654   0.112   6.006
 9057SOL    HW228071   3.723   0.256   6.036
 9058SOL     OW28072   2.204   2.690   4.132
 9058SOL    HW128073   2.179   2.694   4.035
 9058SOL    HW228074   2.293   2.646   4.142
 9059SOL     OW28075   0.355   0.414   2.184
 9059SOL    HW128076   0.353   0.391   2.281
 9059SOL    HW228077   0.293   0.354   2.134
 9060SOL     OW28078   0.361   4.941   0.390
 9060SOL    HW128079   0.316   4.991   0.316
 9060SOL    HW228080   0.430   4.879   0.351
 9061SOL     OW28081   3.803   4.899   2.753
 9061SOL    HW128082   3.851   4.891   2.665
 9061SOL    HW228083   3.846   4.839   2.820
 9062SOL     OW28084   0.060   6.243   2.611
 9062SOL    HW128085   0.154   6.228   2.642
 9062SOL    HW228086   0.041   6.341   2.608
 9063SOL     OW28087   6.038   6.679   0.626
 9063SOL    HW128088   6.055   6.677   0.725
 9063SOL    HW228089   5.984   6.599   0.599
 9064SOL     OW28090   1.385   6.160   3.155
 9064SOL    HW128091   1.439   6.103   3.217
 9064SOL    HW228092   1.289   6.133   3.160
 9065SOL     OW28093   3.223   4.142   6.903
 9065SOL    HW128094   3.127   4.171   6.902
 9065SOL    HW228095   3.272   4.186   6.828
 9066SOL     OW28096   5.378   5.114   3.527
 9066SOL    HW128097   5.396   5.213   3.526
 9066SOL    HW228098   5.281   5.099   3.548
 9067SOL     OW28099   1.792   0.171   4.001
 9067SOL    HW128100   1.723   0.145   3.933
 9067SOL    HW228101   1.866   0.220   3.955
 9068SOL     OW28102   5.414   0.625   4.952
 9068SOL    HW128103   5.423   0.706   5.010
 9068SOL    HW228104   5.319   0.592   4.955
 9069SOL     OW28105   4.806   2.822   1.290
 9069SOL    HW128106   4.885   2.770   1.319
 9069SOL    HW228107   4.830   2.919   1.284
 9070SOL     OW28108   0.850   0.805   6.343
 9070SOL    HW128109   0.904   0.744   6.285
 9070SOL    HW228110   0.802   0.751   6.412
 9071SOL     OW28111   5.924   2.857   0.176
 9071SOL    HW128112   5.941   2.833   0.080
 9071SOL    HW228113   6.009   2.845   0.228
 9072SOL     OW28114   6.071   0.875   1.621
 9072SOL    HW128115   6.095   0.781   1.645
 9072SOL    HW228116   6.096   0.893   1.526
 9073SOL     OW28117   4.857   2.869   6.121
 9073SOL    HW128118   4.946   2.910   6.141
 9073SOL    HW228119   4.869   2.772   6.098
 9074SOL     OW28120   2.200   0.372   3.336
 9074SOL    HW128121   2.182   0.274   3.336
 9074SOL    HW228122   2.133   0.418   3.278
 9075SOL     OW28123   4.821   5.762   1.331
 9075SOL    HW128124   4.807   5.669   1.365
 9075SOL    HW228125   4.854   5.820   1.405
 9076SOL     OW28126   0.906   6.717   2.654
 9076SOL    HW128127   0.900   6.816   2.639
 9076SOL    HW228128   0.894   6.669   2.567
 9077SOL     OW28129   6.333   0.879   6.685
 9077SOL    HW128130   6.236   0.856   6.677
 9077SOL    HW228131   6.342   0.963   6.739
 9078SOL     OW28132   5.312   6.202   6.897
 9078SOL    HW128133   5.269   6.163   6.979
 9078SOL    HW228134   5.313   6.133   6.824
 9079SOL     OW28135   2.936   1.499   6.359
 9079SOL    HW128136   3.013   1.510   6.296
 9079SOL    HW228137   2.948   1.561   6.437
 9080SOL     OW28138   6.873   5.096   0.716
 9080SOL    HW128139   6.947   5.034   0.691
 9080SOL    HW228140   6.785   5.050   0.701
 9081SOL     OW28141   4.966   1.860   6.126
 9081SOL    HW128142   5.043   1.854   6.063
 9081SOL    HW228143   4.897   1.923   6.090
 9082SOL     OW28144   2.837   4.513   6.547
 9082SOL    HW128145   2.788   4.575   6.486
 9082SOL    HW228146   2.797   4.517   6.638
 9083SOL     OW28147   3.660   0.446   0.915
 9083SOL    HW128148   3.586   0.508   0.941
 9083SOL    HW228149   3.689   0.465   0.821
 9084SOL     OW28150   6.952   4.313   4.590
 9084SOL    HW128151   0.021   4.298   4.634
 9084SOL    HW228152   6.920   4.228   4.549
 9085SOL     OW28153   3.353   4.917   2.077
 9085SOL    HW128154   3.432   4.856   2.078
 9085SOL    HW228155   3.269   4.862   2.080
 9086SOL     OW28156   0.387   1.494   0.333
 9086SOL    HW128157   0.327   1.432   0.383
 9086SOL    HW228158   0.340   1.528   0.252
 9087SOL     OW28159   4.799   1.459   0.097
 9087SOL    HW128160   4.716   1.411   0.070
 9087SOL    HW228161   4.837   1.509   0.019
 9088SOL     OW28162   5.413   6.716   0.558
 9088SOL    HW128163   5.461   6.715   0.470
 9088SOL    HW228164   5.412   6.809   0.595
 9089SOL     OW28165   4.515   5.417   3.158
 9089SOL    HW128166   4.507   5.332   3.210
 9089SOL    HW228167   4.521   5.495   3.221
 9090SOL     OW28168   6.522   4.926   4.707
 9090SOL    HW128169   6.473   4.940   4.793
 9090SOL    HW228170   6.552   4.831   4.701
 9091SOL     OW28171   1.713   2.008   2.085
 9091SOL    HW128172   1.625   1.983   2.125
 9091SOL    HW228173   1.745   2.093   2.125
 9092SOL     OW28174   3.312   1.706   5.213
 9092SOL    HW128175   3.355   1.688   5.125
 9092SOL    HW228176   3.371   1.674   5.287
 9093SOL     OW28177   1.677   4.056   0.971
 9093SOL    HW128178   1.649   4.073   1.065
 9093SOL    HW228179   1.649   3.964   0.944
 9094SOL     OW28180   0.450   2.769   6.618
 9094SOL    HW128181   0.526   2.754   6.555
 9094SOL    HW228182   0.440   2.867   6.636
 9095SOL     OW28183   2.747   1.991   0.909
 9095SOL    HW128184   2.830   1.938   0.893
 9095SOL    HW228185   2.756   2.043   0.993
 9096SOL     OW28186   7.008   4.135   3.229
 9096SOL    HW128187   6.981   4.123   3.134
 9096SOL    HW228188   0.019   4.229   3.244
 9097SOL     OW28189   6.538   5.873   5.829
 9097SOL    HW128190   6.492   5.959   5.808
 9097SOL    HW228191   6.470   5.799   5.829
 9098SOL     OW28192   3.508   3.608   5.530
 9098SOL    HW128193   3.574   3.560   5.588
 9098SOL    HW228194   3.427   3.550   5.517
 9099SOL     OW28195   2.176   2.242   6.025
 9099SOL    HW128196   2.225   2.303   6.086
 9099SOL    HW228197   2.215   2.150   6.032
 9100SOL     OW28198   1.735   2.062   0.784
 9100SOL    HW128199   1.828   2.026   0.771
 9100SOL    HW228200   1.738   2.140   0.847
 9101SOL     OW28201   2.498   2.251   0.521
 9101SOL    HW128202   2.417   2.309   0.535
 9101SOL    HW228203   2.477   2.182   0.452
 9102SOL     OW28204   4.363   6.275   2.550
 9102SOL    HW128205   4.399   6.213   2.620
 9102SOL    HW228206   4.268   6.297   2.571
 9103SOL     OW28207   1.727   4.030   6.431
 9103SOL    HW128208   1.660   4.033   6.357
 9103SOL    HW228209   1.817   4.006   6.394
 9104SOL     OW28210   4.854   6.524   3.176
 9104SOL    HW128211   4.885   6.533   3.081
 9104SOL    HW228212   4.759   6.557   3.183
 9105SOL     OW28213   3.128   2.381   5.968
 9105SOL    HW128214   3.029   2.385   5.984
 9105SOL    HW228215   3.146   2.347   5.876
 9106SOL     OW28216   6.695   5.304   1.330
 9106SOL    HW128217   6.663   5.398   1.317
 9106SOL    HW228218   6.765   5.303   1.402
 9107SOL     OW28219   4.369   6.728   6.568
 9107SOL    HW128220   4.411   6.655   6.623
 9107SOL    HW228221   4.440   6.777   6.519
 9108SOL     OW28222   3.367   5.619   0.749
 9108SOL    HW128223   3.273   5.639   0.721
 9108SOL    HW228224   3.430   5.669   0.690
 9109SOL     OW28225   3.389   1.836   4.542
 9109SOL    HW128226   3.473   1.783   4.538
 9109SOL    HW228227   3.346   1.824   4.632
 9110SOL     OW28228   0.242   4.205   3.519
 9110SOL    HW128229   0.216   4.302   3.523
 9110SOL    HW228230   0.289   4.180   3.603
 9111SOL     OW28231   3.732   4.571   1.612
 9111SOL    HW128232   3.689   4.591   1.700
 9111SOL    HW228233   3.678   4.613   1.539
 9112SOL     OW28234   1.002   6.719   2.220
 9112SOL    HW128235   1.090   6.677   2.244
 9112SOL    HW228236   0.994   6.723   2.120
 9113SOL     OW28237   2.349   6.454   1.091
 9113SOL    HW128238   2.435   6.500   1.111
 9113SOL    HW228239   2.344   6.434   0.993
 9114SOL     OW28240   2.905   3.876   1.764
 9114SOL    HW128241   2.934   3.971   1.778
 9114SOL    HW228242   2.968   3.832   1.700
 9115SOL     OW28243   1.298   4.822   4.129
 9115SOL    HW128244   1.236   4.762   4.180
 9115SOL    HW228245   1.348   4.770   4.061
 9116SOL     OW28246   3.667   2.564   0.010
 9116SOL    HW128247   3.743   2.613   6.988
 9116SOL    HW228248   3.582   2.591   6.984
 9117SOL     OW28249   1.410   2.399   0.128
 9117SOL    HW128250   1.445   2.350   0.208
 9117SOL    HW228251   1.363   2.334   0.068
 9118SOL     OW28252   0.696   6.912   1.978
 9118SOL    HW128253   0.602   6.944   1.987
 9118SOL    HW228254   0.741   6.961   1.904
 9119SOL     OW28255   6.166   0.323   0.571
 9119SOL    HW128256   6.088   0.377   0.539
 9119SOL    HW228257   6.238   0.384   0.603
 9120SOL     OW28258   6.164   7.001   6.628
 9120SOL    HW128259   6.077   6.954   6.643
 9120SOL    HW228260   6.231   6.968   6.695
 9121SOL     OW28261   1.450   0.650   6.350
 9121SOL    HW128262   1.399   0.736   6.355
 9121SOL    HW228263   1.521   0.649   6.421
 9122SOL     OW28264   0.493   3.265   1.405
 9122SOL    HW128265   0.492   3.309   1.494
 9122SOL    HW228266   0.399   3.249   1.375
 9123SOL     OW28267   1.546   6.696   5.787
 9123SOL    HW128268   1.610   6.660   5.854
 9123SOL    HW228269   1.595   6.754   5.722
 9124SOL     OW28270   0.570   4.290   4.888
 9124SOL    HW128271   0.498   4.284   4.957
 9124SOL    HW228272   0.528   4.294   4.797
 9125SOL     OW28273   5.007   6.249   1.308
 9125SOL    HW128274   4.923   6.268   1.358
 9125SOL    HW228275   4.986   6.201   1.223
 9126SOL     OW28276   5.657   0.460   3.333
 9126SOL    HW128277   5.666   0.532   3.264
 9126SOL    HW228278   5.708   0.486   3.415
 9127SOL     OW28279   6.030   4.772   6.224
 9127SOL    HW128280   6.058   4.868   6.226
 9127SOL    HW228281   5.933   4.767   6.202
 9128SOL     OW28282   4.688   3.047   5.243
 9128SOL    HW128283   4.740   3.129   5.224
 9128SOL    HW228284   4.611   3.069   5.304
 9129SOL     OW28285   3.303   0.940   0.491
 9129SOL    HW128286   3.245   0.863   0.463
 9129SOL    HW228287   3.257   0.992   0.563
 9130SOL     OW28288   5.879   5.361   1.550
 9130SOL    HW128289   5.930   5.277   1.532
 9130SOL    HW228290   5.790   5.357   1.504
 9131SOL     OW28291   0.574   4.956   3.840
 9131SOL    HW128292   0.599   5.048   3.812
 9131SOL    HW228293   0.644   4.891   3.807
 9132SOL     OW28294   1.421   2.864   4.201
 9132SOL    HW128295   1.451   2.837   4.110
 9132SOL    HW228296   1.370   2.790   4.243
 9133SOL     OW28297   1.275   4.965   0.935
 9133SOL    HW128298   1.201   4.938   0.996
 9133SOL    HW228299   1.257   4.930   0.843
 9134SOL     OW28300   3.172   5.221   6.452
 9134SOL    HW128301   3.180   5.130   6.494
 9134SOL    HW228302   3.122   5.213   6.365
 9135SOL     OW28303   1.369   0.353   2.737
 9135SOL    HW128304   1.459   0.345   2.694
 9135SOL    HW228305   1.299   0.369   2.666
 9136SOL     OW28306   3.660   5.161   6.047
 9136SOL    HW128307   3.580   5.218   6.066
 9136SOL    HW228308   3.671   5.094   6.120
 9137SOL     OW28309   3.429   0.482   2.882
 9137SOL    HW128310   3.375   0.466   2.799
 9137SOL    HW228311   3.507   0.420   2.884
 9138SOL     OW28312   3.730   4.642   1.127
 9138SOL    HW128313   3.666   4.571   1.099
 9138SOL    HW228314   3.687   4.732   1.118
 9139SOL     OW28315   4.284   0.792   5.462
 9139SOL    HW128316   4.326   0.741   5.536
 9139SOL    HW228317   4.297   0.890   5.478
 9140SOL     OW28318   6.372   2.250   3.831
 9140SOL    HW128319   6.327   2.332   3.865
 9140SOL    HW228320   6.341   2.231   3.737
 9141SOL     OW28321   5.082   1.155   5.489
 9141SOL    HW128322   5.099   1.172   5.586
 9141SOL    HW228323   5.002   1.208   5.460
 9142SOL     OW28324   2.133   2.780   6.936
 9142SOL    HW128325   2.098   2.768   6.843
 9142SOL    HW228326   2.141   2.878   6.956
 9143SOL     OW28327   6.781   3.923   0.562
 9143SOL    HW128328   6.837   3.851   0.603
 9143SOL    HW228329   6.827   3.957   0.480
 9144SOL     OW28330   1.076   6.045   3.976
 9144SOL    HW128331   1.029   6.014   4.059
 9144SOL    HW228332   1.115   5.966   3.928
 9145SOL     OW28333   1.824   3.100   6.683
 9145SOL    HW128334   1.818   3.110   6.782
 9145SOL    HW228335   1.749   3.150   6.640
 9146SOL     OW28336   0.867   1.889   1.745
 9146SOL    HW128337   0.961   1.867   1.769
 9146SOL    HW228338   0.838   1.972   1.794
 9147SOL     OW28339   4.353   5.534   6.737
 9147SOL    HW128340   4.306   5.450   6.710
 9147SOL    HW228341   4.435   5.546   6.682
 9148SOL     OW28342   3.635   4.949   2.994
 9148SOL    HW128343   3.541   4.921   2.971
 9148SOL    HW228344   3.695   4.930   2.917
 9149SOL     OW28345   6.348   3.441   5.080
 9149SOL    HW128346   6.258   3.450   5.038
 9149SOL    HW228347   6.378   3.346   5.076
 9150SOL     OW28348   3.531   1.342   3.049
 9150SOL    HW128349   3.552   1.280   3.125
 9150SOL    HW228350   3.436   1.327   3.019
 9151SOL     OW28351   6.036   3.479   2.085
 9151SOL    HW128352   5.963   3.539   2.054
 9151SOL    HW228353   6.043   3.400   2.023
 9152SOL     OW28354   1.844   4.885   2.608
 9152SOL    HW128355   1.806   4.950   2.543
 9152SOL    HW228356   1.769   4.843   2.660
 9153SOL     OW28357   2.411   2.919   0.720
 9153SOL    HW128358   2.488   2.863   0.751
 9153SOL    HW228359   2.431   3.015   0.737
 9154SOL     OW28360   0.810   5.049   0.434
 9154SOL    HW128361   0.744   5.112   0.476
 9154SOL    HW228362   0.878   5.023   0.502
 9155SOL     OW28363   2.114   4.767   0.041
 9155SOL    HW128364   2.065   4.830   6.999
 9155SOL    HW228365   2.101   4.673   0.009
 9156SOL     OW28366   4.708   2.557   2.151
 9156SOL    HW128367   4.671   2.633   2.204
 9156SOL    HW228368   4.770   2.592   2.080
 9157SOL     OW28369   5.468   3.962   5.456
 9157SOL    HW128370   5.398   3.991   5.391
 9157SOL    HW228371   5.444   3.995   5.548
 9158SOL     OW28372   0.769   4.485   3.750
 9158SOL    HW128373   0.672   4.495   3.729
 9158SOL    HW228374   0.815   4.440   3.673
 9159SOL     OW28375   6.995   5.782   1.683
 9159SOL    HW128376   0.049   5.817   1.626
 9159SOL    HW228377   6.952   5.857   1.734
 9160SOL     OW28378   0.762   6.414   0.579
 9160SOL    HW128379   0.679   6.458   0.545
 9160SOL    HW228380   0.842   6.455   0.536
 9161SOL     OW28381   5.043   2.748   2.095
 9161SOL    HW128382   4.946   2.753   2.072
 9161SOL    HW228383   5.057   2.782   2.188
 9162SOL     OW28384   5.747   2.665   3.747
 9162SOL    HW128385   5.794   2.723   3.680
 9162SOL    HW228386   5.811   2.639   3.819
 9163SOL     OW28387   3.764   0.626   4.958
 9163SOL    HW128388   3.666   0.647   4.954
 9163SOL    HW228389   3.811   0.698   5.010
 9164SOL     OW28390   2.892   0.721   1.009
 9164SOL    HW128391   2.923   0.686   0.921
 9164SOL    HW228392   2.832   0.654   1.053
 9165SOL     OW28393   5.107   5.997   1.100
 9165SOL    HW128394   5.033   6.064   1.108
 9165SOL    HW228395   5.143   5.976   1.191
 9166SOL     OW28396   3.388   4.927   1.090
 9166SOL    HW128397   3.451   5.004   1.101
 9166SOL    HW228398   3.333   4.916   1.173
 9167SOL     OW28399   0.778   3.487   4.370
 9167SOL    HW128400   0.862   3.540   4.381
 9167SOL    HW228401   0.716   3.506   4.446
 9168SOL     OW28402   4.083   0.876   0.341
 9168SOL    HW128403   4.034   0.960   0.364
 9168SOL    HW228404   4.045   0.800   0.395
 9169SOL     OW28405   0.818   7.011   3.604
 9169SOL    HW128406   0.891   6.965   3.654
 9169SOL    HW228407   0.754   0.033   3.668
 9170SOL     OW28408   6.246   5.605   0.620
 9170SOL    HW128409   6.235   5.518   0.669
 9170SOL    HW228410   6.307   5.665   0.672
 9171SOL     OW28411   4.107   5.898   4.311
 9171SOL    HW128412   4.176   5.873   4.380
 9171SOL    HW228413   4.028   5.938   4.356
 9172SOL     OW28414   2.249   1.891   3.951
 9172SOL    HW128415   2.182   1.911   3.879
 9172SOL    HW228416   2.338   1.927   3.926
 9173SOL     OW28417   6.697   5.197   5.222
 9173SOL    HW128418   6.707   5.118   5.163
 9173SOL    HW228419   6.624   5.181   5.288
 9174SOL     OW28420   0.279   5.246   6.466
 9174SOL    HW128421   0.202   5.273   6.408
 9174SOL    HW228422   0.343   5.189   6.414
 9175SOL     OW28423   1.802   5.965   6.171
 9175SOL    HW128424   1.789   6.034   6.243
 9175SOL    HW228425   1.738   5.983   6.097
 9176SOL     OW28426   1.505   2.815   5.980
 9176SOL    HW128427   1.564   2.736   5.963
 9176SOL    HW228428   1.418   2.783   6.018
 9177SOL     OW28429   1.935   4.141   2.796
 9177SOL    HW128430   1.927   4.046   2.828
 9177SOL    HW228431   1.881   4.153   2.713
 9178SOL     OW28432   1.591   3.833   0.175
 9178SOL    HW128433   1.575   3.848   0.078
 9178SOL    HW228434   1.614   3.736   0.191
 9179SOL     OW28435   3.092   4.309   5.269
 9179SOL    HW128436   3.010   4.261   5.298
 9179SOL    HW228437   3.071   4.405   5.251
 9180SOL     OW28438   5.078   1.316   1.939
 9180SOL    HW128439   5.164   1.299   1.988
 9180SOL    HW228440   5.069   1.250   1.864
 9181SOL     OW28441   3.660   1.186   2.581
 9181SOL    HW128442   3.663   1.189   2.481
 9181SOL    HW228443   3.660   1.279   2.617
 9182SOL     OW28444   2.351   6.826   1.530
 9182SOL    HW128445   2.365   6.917   1.491
 9182SOL    HW228446   2.276   6.829   1.596
 9183SOL     OW28447   5.087   4.876   5.182
 9183SOL    HW128448   5.107   4.880   5.084
 9183SOL    HW228449   5.049   4.963   5.212
 9184SOL     OW28450   4.954   0.130   0.035
 9184SOL    HW128451   4.861   0.164   0.020
 9184SOL    HW228452   4.957   0.033   0.013
 9185SOL     OW28453   5.412   1.437   4.977
 9185SOL    HW128454   5.478   1.426   4.903
 9185SOL    HW228455   5.350   1.512   4.956
 9186SOL     OW28456   4.894   0.923   6.126
 9186SOL    HW128457   4.986   0.959   6.138
 9186SOL    HW228458   4.873   0.858   6.200
 9187SOL     OW28459   2.098   6.349   2.987
 9187SOL    HW128460   2.000   6.332   2.984
 9187SOL    HW228461   2.143   6.279   3.042
 9188SOL     OW28462   3.150   5.210   0.641
 9188SOL    HW128463   3.056   5.198   0.671
 9188SOL    HW228464   3.210   5.214   0.720
 9189SOL     OW28465   5.306   4.353   1.842
 9189SOL    HW128466   5.391   4.327   1.797
 9189SOL    HW228467   5.296   4.301   1.928
 9190SOL     OW28468   1.350   5.767   6.868
 9190SOL    HW128469   1.269   5.745   6.923
 9190SOL    HW228470   1.432   5.744   6.921
 9191SOL     OW28471   6.265   0.713   6.230
 9191SOL    HW128472   6.237   0.641   6.293
 9191SOL    HW228473   6.197   0.722   6.158
 9192SOL     OW28474   1.221   3.368   4.818
 9192SOL    HW128475   1.256   3.358   4.725
 9192SOL    HW228476   1.294   3.351   4.883
 9193SOL     OW28477   4.337   3.832   0.470
 9193SOL    HW128478   4.335   3.734   0.490
 9193SOL    HW228479   4.296   3.882   0.546
 9194SOL     OW28480   3.076   0.392   4.416
 9194SOL    HW128481   3.113   0.299   4.417
 9194SOL    HW228482   3.069   0.424   4.321
 9195SOL     OW28483   1.558   1.606   3.817
 9195SOL    HW128484   1.647   1.612   3.772
 9195SOL    HW228485   1.569   1.623   3.915
 9196SOL     OW28486   5.199   0.939   5.775
 9196SOL    HW128487   5.200   0.952   5.874
 9196SOL    HW228488   5.169   1.024   5.731
 9197SOL     OW28489   3.058   3.568   0.396
 9197SOL    HW128490   3.097   3.640   0.338
 9197SOL    HW228491   3.055   3.482   0.344
 9198SOL     OW28492   1.139   4.089   4.981
 9198SOL    HW128493   1.233   4.064   5.004
 9198SOL    HW228494   1.086   4.006   4.964
 9199SOL     OW28495   6.353   4.953   4.907
 9199SOL    HW128496   6.277   5.014   4.886
 9199SOL    HW228497   6.376   4.962   5.004
 9200SOL     OW28498   3.103   6.539   0.696
 9200SOL    HW128499   3.121   6.516   0.792
 9200SOL    HW228500   3.049   6.467   0.654
 9201SOL     OW28501   2.251   4.831   1.039
 9201SOL    HW128502   2.238   4.763   1.111
 9201SOL    HW228503   2.249   4.923   1.078
 9202SOL     OW28504   2.734   1.226   3.711
 9202SOL    HW128505   2.814   1.277   3.741
 9202SOL    HW228506   2.677   1.202   3.789
 9203SOL     OW28507   6.844   6.369   1.088
 9203SOL    HW128508   6.899   6.442   1.046
 9203SOL    HW228509   6.871   6.281   1.049
 9204SOL     OW28510   5.557   0.269   5.273
 9204SOL    HW128511   5.539   0.202   5.201
 9204SOL    HW228512   5.504   0.352   5.255
 9205SOL     OW28513   6.887   5.459   2.680
 9205SOL    HW128514   6.970   5.403   2.682
 9205SOL    HW228515   6.807   5.400   2.692
 9206SOL     OW28516   4.044   0.471   6.972
 9206SOL    HW128517   4.121   0.529   6.999
 9206SOL    HW228518   4.023   0.486   6.876
 9207SOL     OW28519   5.381   5.487   6.247
 9207SOL    HW128520   5.296   5.436   6.263
 9207SOL    HW228521   5.445   5.468   6.322
 9208SOL     OW28522   1.266   3.606   2.154
 9208SOL    HW128523   1.255   3.566   2.245
 9208SOL    HW228524   1.330   3.549   2.101
 9209SOL     OW28525   2.335   6.040   6.574
 9209SOL    HW128526   2.411   6.103   6.556
 9209SOL    HW228527   2.280   6.077   6.649
 9210SOL     OW28528   6.587   0.194   3.926
 9210SOL    HW128529   6.649   0.267   3.955
 9210SOL    HW228530   6.498   0.234   3.903
 9211SOL     OW28531   1.061   1.393   3.258
 9211SOL    HW128532   1.029   1.303   3.287
 9211SOL    HW228533   1.107   1.438   3.334
 9212SOL     OW28534   4.698   4.671   4.846
 9212SOL    HW128535   4.605   4.642   4.822
 9212SOL    HW228536   4.712   4.660   4.945
 9213SOL     OW28537   6.140   3.843   0.659
 9213SOL    HW128538   6.218   3.819   0.601
 9213SOL    HW228539   6.117   3.765   0.717
 9214SOL     OW28540   0.127   5.450   0.950
 9214SOL    HW128541   0.168   5.528   0.903
 9214SOL    HW228542   0.065   5.482   1.022
 9215SOL     OW28543   0.946   1.397   0.950
 9215SOL    HW128544   0.847   1.414   0.951
 9215SOL    HW228545   0.967   1.323   1.014
 9216SOL     OW28546   1.647   6.739   4.212
 9216SOL    HW128547   1.570   6.678   4.197
 9216SOL    HW228548   1.643   6.815   4.148
 9217SOL     OW28549   0.439   2.087   0.801
 9217SOL    HW128550   0.521   2.032   0.785
 9217SOL    HW228551   0.365   2.055   0.741
 9218SOL     OW28552   2.642   1.065   1.205
 9218SOL    HW128553   2.685   1.041   1.118
 9218SOL    HW228554   2.696   1.136   1.250
 9219SOL     OW28555   6.154   1.325   0.870
 9219SOL    HW128556   6.189   1.402   0.817
 9219SOL    HW228557   6.072   1.289   0.825
 9220SOL     OW28558   3.821   6.410   0.383
 9220SOL    HW128559   3.869   6.494   0.360
 9220SOL    HW228560   3.746   6.430   0.445
 9221SOL     OW28561   2.696   4.711   4.822
 9221SOL    HW128562   2.759   4.663   4.882
 9221SOL    HW228563   2.602   4.688   4.847
 9222SOL     OW28564   3.026   2.325   0.360
 9222SOL    HW128565   2.988   2.391   0.296
 9222SOL    HW228566   2.956   2.299   0.427
 9223SOL     OW28567   2.831   3.128   5.390
 9223SOL    HW128568   2.796   3.200   5.330
 9223SOL    HW228569   2.755   3.073   5.425
 9224SOL     OW28570   2.288   4.501   5.082
 9224SOL    HW128571   2.257   4.409   5.105
 9224SOL    HW228572   2.383   4.512   5.111
 9225SOL     OW28573   1.379   5.949   6.677
 9225SOL    HW128574   1.366   5.892   6.757
 9225SOL    HW228575   1.304   5.934   6.612
 9226SOL     OW28576   4.779   6.371   0.740
 9226SOL    HW128577   4.811   6.289   0.788
 9226SOL    HW228578   4.754   6.347   0.646
 9227SOL     OW28579   0.887   6.304   1.789
 9227SOL    HW128580   0.979   6.282   1.820
 9227SOL    HW228581   0.873   6.269   1.696
 9228SOL     OW28582   1.100   5.892   6.613
 9228SOL    HW128583   1.050   5.812   6.581
 9228SOL    HW228584   1.049   5.975   6.588
 9229SOL     OW28585   1.079   5.931   5.044
 9229SOL    HW128586   1.125   5.998   4.986
 9229SOL    HW228587   1.145   5.886   5.103
 9230SOL     OW28588   4.833   1.377   3.300
 9230SOL    HW128589   4.733   1.378   3.299
 9230SOL    HW228590   4.867   1.292   3.260
 9231SOL     OW28591   2.151   3.171   3.391
 9231SOL    HW128592   2.212   3.098   3.357
 9231SOL    HW228593   2.175   3.257   3.345
 9232SOL     OW28594   4.000   5.644   1.207
 9232SOL    HW128595   4.019   5.590   1.289
 9232SOL    HW228596   3.914   5.612   1.166
 9233SOL     OW28597   6.376   4.128   0.633
 9233SOL    HW128598   6.390   4.227   0.632
 9233SOL    HW228599   6.288   4.108   0.678
 9234SOL     OW28600   1.290   6.250   3.679
 9234SOL    HW128601   1.271   6.170   3.623
 9234SOL    HW228602   1.389   6.257   3.694
 9235SOL     OW28603   1.067   2.959   3.298
 9235SOL    HW128604   1.018   2.919   3.221
 9235SOL    HW228605   1.015   2.943   3.382
 9236SOL     OW28606   3.432   2.518   6.592
 9236SOL    HW128607   3.390   2.569   6.517
 9236SOL    HW228608   3.435   2.577   6.674
 9237SOL     OW28609   1.521   3.955   2.988
 9237SOL    HW128610   1.544   3.978   2.893
 9237SOL    HW228611   1.450   3.885   2.988
 9238SOL     OW28612   4.338   4.008   6.664
 9238SOL    HW128613   4.334   4.038   6.760
 9238SOL    HW228614   4.319   4.086   6.604
 9239SOL     OW28615   2.065   3.200   6.672
 9239SOL    HW128616   2.109   3.219   6.760
 9239SOL    HW228617   1.978   3.154   6.687
 9240SOL     OW28618   4.535   0.716   2.257
 9240SOL    HW128619   4.436   0.715   2.275
 9240SOL    HW228620   4.584   0.685   2.338
 9241SOL     OW28621   0.643   6.008   5.333
 9241SOL    HW128622   0.552   5.971   5.352
 9241SOL    HW228623   0.683   6.044   5.417
 9242SOL     OW28624   5.350   6.776   1.621
 9242SOL    HW128625   5.341   6.803   1.526
 9242SOL    HW228626   5.288   6.699   1.640
 9243SOL     OW28627   5.459   0.284   4.589
 9243SOL    HW128628   5.398   0.310   4.514
 9243SOL    HW228629   5.454   0.185   4.603
 9244SOL     OW28630   3.620   6.467   0.590
 9244SOL    HW128631   3.530   6.467   0.635
 9244SOL    HW228632   3.673   6.546   0.621
 9245SOL     OW28633   0.286   6.811   2.094
 9245SOL    HW128634   0.225   6.772   2.025
 9245SOL    HW228635   0.321   6.738   2.153
 9246SOL     OW28636   6.477   5.740   3.822
 9246SOL    HW128637   6.395   5.708   3.775
 9246SOL    HW228638   6.546   5.669   3.822
 9247SOL     OW28639   0.704   0.705   2.743
 9247SOL    HW128640   0.794   0.727   2.781
 9247SOL    HW228641   0.634   0.759   2.791
 9248SOL     OW28642   4.538   1.579   6.344
 9248SOL    HW128643   4.449   1.546   6.376
 9248SOL    HW228644   4.588   1.504   6.301
 9249SOL     OW28645   4.037   6.500   4.117
 9249SOL    HW128646   4.013   6.483   4.021
 9249SOL    HW228647   4.129   6.466   4.134
 9250SOL     OW28648   4.821   3.951   3.110
 9250SOL    HW128649   4.914   3.952   3.075
 9250SOL    HW228650   4.757   3.973   3.036
 9251SOL     OW28651   4.108   1.890   2.352
 9251SOL    HW128652   4.019   1.906   2.311
 9251SOL    HW228653   4.102   1.818   2.420
 9252SOL     OW28654   1.450   6.849   4.802
 9252SOL    HW128655   1.399   6.924   4.845
 9252SOL    HW228656   1.529   6.887   4.752
 9253SOL     OW28657   1.193   6.669   6.049
 9253SOL    HW128658   1.103   6.708   6.066
 9253SOL    HW228659   1.231   6.709   5.965
 9254SOL     OW28660   4.555   2.255   0.639
 9254SOL    HW128661   4.653   2.255   0.657
 9254SOL    HW228662   4.520   2.348   0.646
 9255SOL     OW28663   6.973   4.975   0.257
 9255SOL    HW128664   6.894   4.990   0.316
 9255SOL    HW228665   0.002   4.893   0.286
 9256SOL     OW28666   3.950   5.661   2.773
 9256SOL    HW128667   3.963   5.749   2.820
 9256SOL    HW228668   4.034   5.637   2.726
 9257SOL     OW28669   0.767   3.702   0.705
 9257SOL    HW128670   0.743   3.769   0.775
 9257SOL    HW228671   0.831   3.743   0.641
 9258SOL     OW28672   3.219   2.937   4.918
 9258SOL    HW128673   3.232   2.937   5.017
 9258SOL    HW228674   3.162   2.859   4.892
 9259SOL     OW28675   1.985   2.715   0.751
 9259SOL    HW128676   2.071   2.700   0.702
 9259SOL    HW228677   1.971   2.813   0.765
 9260SOL     OW28678   6.539   3.830   0.440
 9260SOL    HW128679   6.613   3.870   0.494
 9260SOL    HW228680   6.506   3.897   0.373
 9261SOL     OW28681   2.204   6.636   5.402
 9261SOL    HW128682   2.208   6.683   5.314
 9261SOL    HW228683   2.164   6.697   5.471
 9262SOL     OW28684   5.949   6.745   6.875
 9262SOL    HW128685   5.981   6.651   6.875
 9262SOL    HW228686   5.939   6.777   6.780
 9263SOL     OW28687   5.522   3.653   2.529
 9263SOL    HW128688   5.486   3.646   2.622
 9263SOL    HW228689   5.613   3.613   2.526
 9264SOL     OW28690   5.676   2.142   0.072
 9264SOL    HW128691   5.587   2.117   0.108
 9264SOL    HW228692   5.670   2.231   0.026
 9265SOL     OW28693   1.809   1.353   5.661
 9265SOL    HW128694   1.858   1.322   5.742
 9265SOL    HW228695   1.849   1.438   5.627
 9266SOL     OW28696   2.887   6.876   2.909
 9266SOL    HW128697   2.868   6.959   2.858
 9266SOL    HW228698   2.966   6.829   2.869
 9267SOL     OW28699   3.081   5.050   6.109
 9267SOL    HW128700   3.069   5.134   6.162
 9267SOL    HW228701   3.039   4.974   6.157
 9268SOL     OW28702   1.168   1.053   3.141
 9268SOL    HW128703   1.134   1.047   3.047
 9268SOL    HW228704   1.093   1.080   3.202
 9269SOL     OW28705   4.064   1.536   5.050
 9269SOL    HW128706   4.063   1.449   5.002
 9269SOL    HW228707   4.123   1.529   5.131
 9270SOL     OW28708   2.056   0.351   5.335
 9270SOL    HW128709   2.070   0.311   5.426
 9270SOL    HW228710   2.016   0.442   5.344
 9271SOL     OW28711   0.330   5.408   5.528
 9271SOL    HW128712   0.393   5.330   5.523
 9271SOL    HW228713   0.242   5.382   5.488
 9272SOL     OW28714   2.228   5.093   0.055
 9272SOL    HW128715   2.201   5.060   6.984
 9272SOL    HW228716   2.318   5.136   0.049
 9273SOL     OW28717   3.458   5.349   6.113
 9273SOL    HW128718   3.498   5.422   6.168
 9273SOL    HW228719   3.396   5.389   6.045
 9274SOL     OW28720   4.852   1.406   1.669
 9274SOL    HW128721   4.819   1.372   1.757
 9274SOL    HW228722   4.804   1.490   1.646
 9275SOL     OW28723   6.479   0.478   6.307
 9275SOL    HW128724   6.427   0.396   6.283
 9275SOL    HW228725   6.487   0.483   6.407
 9276SOL     OW28726   4.867   0.308   4.072
 9276SOL    HW128727   4.885   0.382   4.008
 9276SOL    HW228728   4.822   0.345   4.153
 9277SOL     OW28729   5.309   2.785   6.785
 9277SOL    HW128730   5.305   2.739   6.874
 9277SOL    HW228731   5.221   2.778   6.739
 9278SOL     OW28732   1.529   2.131   1.145
 9278SOL    HW128733   1.530   2.073   1.064
 9278SOL    HW228734   1.506   2.076   1.225
 9279SOL     OW28735   2.256   0.215   0.769
 9279SOL    HW128736   2.244   0.144   0.838
 9279SOL    HW228737   2.169   0.230   0.721
 9280SOL     OW28738   1.746   0.637   2.037
 9280SOL    HW128739   1.790   0.627   2.127
 9280SOL    HW228740   1.657   0.589   2.039
 9281SOL     OW28741   1.780   2.559   0.202
 9281SOL    HW128742   1.874   2.582   0.230
 9281SOL    HW228743   1.774   2.461   0.185
 9282SOL     OW28744   3.997   0.796   5.955
 9282SOL    HW128745   3.918   0.740   5.981
 9282SOL    HW228746   3.995   0.813   5.857
 9283SOL     OW28747   5.598   2.569   3.392
 9283SOL    HW128748   5.679   2.625   3.376
 9283SOL    HW228749   5.566   2.583   3.486
 9284SOL     OW28750   3.730   3.831   1.906
 9284SOL    HW128751   3.824   3.846   1.936
 9284SOL    HW228752   3.689   3.917   1.878
 9285SOL     OW28753   6.491   2.689   6.911
 9285SOL    HW128754   6.520   2.780   6.881
 9285SOL    HW228755   6.562   2.622   6.887
 9286SOL     OW28756   5.487   5.394   4.381
 9286SOL    HW128757   5.543   5.429   4.307
 9286SOL    HW228758   5.390   5.406   4.359
 9287SOL     OW28759   3.133   0.035   2.428
 9287SOL    HW128760   3.181   0.033   2.340
 9287SOL    HW228761   3.105   6.962   2.453
 9288SOL     OW28762   4.211   1.840   6.935
 9288SOL    HW128763   4.153   1.921   6.942
 9288SOL    HW228764   4.155   1.758   6.949
 9289SOL     OW28765   5.199   3.587   3.439
 9289SOL    HW128766   5.293   3.620   3.431
 9289SOL    HW228767   5.136   3.661   3.419
 9290SOL     OW28768   4.215   2.262   4.287
 9290SOL    HW128769   4.203   2.291   4.382
 9290SOL    HW228770   4.290   2.315   4.245
 9291SOL     OW28771   0.852   2.819   4.941
 9291SOL    HW128772   0.893   2.862   5.021
 9291SOL    HW228773   0.785   2.881   4.900
 9292SOL     OW28774   1.363   4.307   6.931
 9292SOL    HW128775   1.286   4.243   6.936
 9292SOL    HW228776   1.443   4.260   6.894
 9293SOL     OW28777   5.177   3.638   6.087
 9293SOL    HW128778   5.186   3.551   6.135
 9293SOL    HW228779   5.193   3.624   5.989
 9294SOL     OW28780   5.591   5.453   6.930
 9294SOL    HW128781   5.652   5.400   6.990
 9294SOL    HW228782   5.619   5.549   6.931
 9295SOL     OW28783   4.928   2.891   3.321
 9295SOL    HW128784   4.957   2.979   3.358
 9295SOL    HW228785   4.853   2.854   3.377
 9296SOL     OW28786   5.710   0.557   5.012
 9296SOL    HW128787   5.610   0.564   5.014
 9296SOL    HW228788   5.750   0.633   5.063
 9297SOL     OW28789   0.397   0.205   1.886
 9297SOL    HW128790   0.299   0.186   1.889
 9297SOL    HW228791   0.412   0.297   1.849
 9298SOL     OW28792   0.144   6.673   4.132
 9298SOL    HW128793   0.184   6.593   4.088
 9298SOL    HW228794   0.054   6.691   4.093
 9299SOL     OW28795   1.641   2.557   4.806
 9299SOL    HW128796   1.596   2.579   4.719
 9299SOL    HW228797   1.648   2.639   4.862
 9300SOL     OW28798   5.684   4.770   4.105
 9300SOL    HW128799   5.764   4.805   4.154
 9300SOL    HW228800   5.689   4.798   4.009
 9301SOL     OW28801   6.729   4.756   1.561
 9301SOL    HW128802   6.632   4.732   1.552
 9301SOL    HW228803   6.738   4.830   1.628
 9302SOL     OW28804   1.225   2.296   2.516
 9302SOL    HW128805   1.208   2.207   2.473
 9302SOL    HW228806   1.164   2.365   2.477
 9303SOL     OW28807   4.620   4.189   0.525
 9303SOL    HW128808   4.553   4.263   0.523
 9303SOL    HW228809   4.644   4.164   0.431
 9304SOL     OW28810   4.746   3.755   0.493
 9304SOL    HW128811   4.774   3.660   0.477
 9304SOL    HW228812   4.681   3.783   0.423
 9305SOL     OW28813   4.551   4.073   1.664
 9305SOL    HW128814   4.531   4.102   1.571
 9305SOL    HW228815   4.473   4.095   1.724
 9306SOL     OW28816   0.566   6.221   2.952
 9306SOL    HW128817   0.663   6.210   2.973
 9306SOL    HW228818   0.554   6.298   2.889
 9307SOL     OW28819   2.266   0.787   6.262
 9307SOL    HW128820   2.320   0.815   6.341
 9307SOL    HW228821   2.179   0.748   6.293
 9308SOL     OW28822   0.408   2.363   0.466
 9308SOL    HW128823   0.329   2.346   0.524
 9308SOL    HW228824   0.401   2.454   0.425
 9309SOL     OW28825   4.388   2.775   6.820
 9309SOL    HW128826   4.331   2.851   6.788
 9309SOL    HW228827   4.484   2.796   6.806
 9310SOL     OW28828   3.847   6.619   1.130
 9310SOL    HW128829   3.932   6.568   1.147
 9310SOL    HW228830   3.848   6.703   1.184
 9311SOL     OW28831   0.119   3.242   1.694
 9311SOL    HW128832   0.182   3.315   1.718
 9311SOL    HW228833   0.145   3.202   1.606
 9312SOL     OW28834   1.667   3.991   4.680
 9312SOL    HW128835   1.696   3.924   4.612
 9312SOL    HW228836   1.584   3.959   4.725
 9313SOL     OW28837   6.490   0.504   3.078
 9313SOL    HW128838   6.509   0.408   3.102
 9313SOL    HW228839   6.566   0.561   3.108
 9314SOL     OW28840   6.967   3.759   0.384
 9314SOL    HW128841   6.982   3.727   0.478
 9314SOL    HW228842   6.992   3.686   0.320
 9315SOL     OW28843   0.284   5.711   6.208
 9315SOL    HW128844   0.198   5.755   6.235
 9315SOL    HW228845   0.361   5.759   6.250
 9316SOL     OW28846   2.753   4.849   4.593
 9316SOL    HW128847   2.726   4.807   4.680
 9316SOL    HW228848   2.846   4.885   4.601
 9317SOL     OW28849   3.694   4.074   5.473
 9317SOL    HW128850   3.712   3.992   5.527
 9317SOL    HW228851   3.627   4.054   5.402
 9318SOL     OW28852   0.080   6.759   6.336
 9318SOL    HW128853   0.042   6.786   6.424
 9318SOL    HW228854   0.056   6.829   6.267
 9319SOL     OW28855   6.470   3.825   4.284
 9319SOL    HW128856   6.446   3.763   4.209
 9319SOL    HW228857   6.534   3.779   4.345
 9320SOL     OW28858   3.867   2.997   5.592
 9320SOL    HW128859   3.791   2.933   5.594
 9320SOL    HW228860   3.835   3.088   5.565
 9321SOL     OW28861   5.343   0.351   4.056
 9321SOL    HW128862   5.350   0.434   4.002
 9321SOL    HW228863   5.256   0.305   4.037
 9322SOL     OW28864   0.830   6.042   1.241
 9322SOL    HW128865   0.842   6.140   1.257
 9322SOL    HW228866   0.773   6.027   1.160
 9323SOL     OW28867   0.846   1.240   6.013
 9323SOL    HW128868   0.776   1.294   6.060
 9323SOL    HW228869   0.936   1.262   6.051
 9324SOL     OW28870   1.460   5.221   6.814
 9324SOL    HW128871   1.484   5.308   6.857
 9324SOL    HW228872   1.438   5.154   6.885
 9325SOL     OW28873   0.620   3.032   6.599
 9325SOL    HW128874   0.549   3.022   6.529
 9325SOL    HW228875   0.596   3.107   6.661
 9326SOL     OW28876   2.604   5.989   1.847
 9326SOL    HW128877   2.689   6.025   1.885
 9326SOL    HW228878   2.573   6.049   1.773
 9327SOL     OW28879   1.972   2.227   4.392
 9327SOL    HW128880   1.952   2.212   4.295
 9327SOL    HW228881   2.068   2.208   4.409
 9328SOL     OW28882   2.235   1.578   1.866
 9328SOL    HW128883   2.248   1.675   1.844
 9328SOL    HW228884   2.302   1.550   1.935
 9329SOL     OW28885   1.087   3.676   1.325
 9329SOL    HW128886   1.168   3.735   1.325
 9329SOL    HW228887   1.080   3.629   1.238
 9330SOL     OW28888   5.154   5.895   6.704
 9330SOL    HW128889   5.209   5.972   6.673
 9330SOL    HW228890   5.182   5.869   6.796
 9331SOL     OW28891   1.104   1.296   0.315
 9331SOL    HW128892   1.117   1.266   0.409
 9331SOL    HW228893   1.062   1.387   0.315
 9332SOL     OW28894   3.709   3.989   5.132
 9332SOL    HW128895   3.758   3.940   5.060
 9332SOL    HW228896   3.775   4.026   5.199
 9333SOL     OW28897   5.277   6.229   1.204
 9333SOL    HW128898   5.185   6.217   1.241
 9333SOL    HW228899   5.282   6.314   1.152
 9334SOL     OW28900   2.134   6.538   4.873
 9334SOL    HW128901   2.118   6.450   4.828
 9334SOL    HW228902   2.047   6.573   4.909
 9335SOL     OW28903   0.757   1.566   2.554
 9335SOL    HW128904   0.783   1.582   2.649
 9335SOL    HW228905   0.729   1.470   2.543
 9336SOL     OW28906   3.225   0.221   5.122
 9336SOL    HW128907   3.138   0.200   5.077
 9336SOL    HW228908   3.275   0.136   5.137
 9337SOL     OW28909   5.024   6.624   3.353
 9337SOL    HW128910   5.008   6.598   3.448
 9337SOL    HW228911   4.967   6.567   3.293
 9338SOL     OW28912   2.143   6.658   2.394
 9338SOL    HW128913   2.136   6.707   2.481
 9338SOL    HW228914   2.238   6.661   2.362
 9339SOL     OW28915   3.658   5.471   2.074
 9339SOL    HW128916   3.573   5.521   2.091
 9339SOL    HW228917   3.713   5.521   2.006
 9340SOL     OW28918   6.922   2.727   6.779
 9340SOL    HW128919   7.004   2.707   6.833
 9340SOL    HW228920   6.863   2.646   6.777
 9341SOL     OW28921   0.704   4.035   5.709
 9341SOL    HW128922   0.783   4.095   5.703
 9341SOL    HW228923   0.729   3.952   5.760
 9342SOL     OW28924   1.785   0.408   0.175
 9342SOL    HW128925   1.785   0.446   0.267
 9342SOL    HW228926   1.737   0.470   0.113
 9343SOL     OW28927   6.169   6.727   3.030
 9343SOL    HW128928   6.078   6.726   3.071
 9343SOL    HW228929   6.236   6.756   3.098
 9344SOL     OW28930   5.207   6.296   0.802
 9344SOL    HW128931   5.172   6.377   0.756
 9344SOL    HW228932   5.286   6.321   0.858
 9345SOL     OW28933   0.809   2.184   0.556
 9345SOL    HW128934   0.898   2.193   0.601
 9345SOL    HW228935   0.795   2.260   0.493
 9346SOL     OW28936   6.135   0.355   0.854
 9346SOL    HW128937   6.093   0.264   0.853
 9346SOL    HW228938   6.153   0.383   0.948
 9347SOL     OW28939   1.997   6.362   2.506
 9347SOL    HW128940   1.898   6.369   2.488
 9347SOL    HW228941   2.040   6.450   2.487
 9348SOL     OW28942   2.756   5.254   0.365
 9348SOL    HW128943   2.811   5.174   0.390
 9348SOL    HW228944   2.783   5.287   0.275
 9349SOL     OW28945   1.179   6.645   2.799
 9349SOL    HW128946   1.101   6.670   2.742
 9349SOL    HW228947   1.255   6.706   2.780
 9350SOL     OW28948   0.310   3.218   5.631
 9350SOL    HW128949   0.401   3.205   5.591
 9350SOL    HW228950   0.242   3.170   5.574
 9351SOL     OW28951   3.078   6.479   0.099
 9351SOL    HW128952   3.162   6.531   0.085
 9351SOL    HW228953   3.009   6.536   0.143
 9352SOL     OW28954   2.735   4.923   6.055
 9352SOL    HW128955   2.772   5.012   6.084
 9352SOL    HW228956   2.748   4.911   5.957
 9353SOL     OW28957   6.836   0.424   0.785
 9353SOL    HW128958   6.822   0.349   0.720
 9353SOL    HW228959   6.932   0.427   0.812
 9354SOL     OW28960   1.058   1.228   5.603
 9354SOL    HW128961   1.129   1.157   5.607
 9354SOL    HW228962   1.098   1.316   5.627
 9355SOL     OW28963   1.058   1.519   5.568
 9355SOL    HW128964   1.076   1.579   5.490
 9355SOL    HW228965   1.102   1.556   5.650
 9356SOL     OW28966   3.936   0.752   3.389
 9356SOL    HW128967   3.994   0.830   3.411
 9356SOL    HW228968   3.984   0.667   3.413
 9357SOL     OW28969   2.227   2.750   0.594
 9357SOL    HW128970   2.269   2.831   0.635
 9357SOL    HW228971   2.298   2.696   0.549
 9358SOL     OW28972   1.286   1.876   0.594
 9358SOL    HW128973   1.370   1.916   0.629
 9358SOL    HW228974   1.291   1.776   0.602
 9359SOL     OW28975   0.786   0.639   5.690
 9359SOL    HW128976   0.706   0.682   5.731
 9359SOL    HW228977   0.807   0.685   5.603
 9360SOL     OW28978   6.504   6.965   5.773
 9360SOL    HW128979   6.503   6.944   5.871
 9360SOL    HW228980   6.489   6.881   5.720
 9361SOL     OW28981   2.234   5.557   5.061
 9361SOL    HW128982   2.200   5.498   5.134
 9361SOL    HW228983   2.311   5.611   5.095
 9362SOL     OW28984   1.841   0.609   2.352
 9362SOL    HW128985   1.925   0.608   2.407
 9362SOL    HW228986   1.818   0.515   2.326
 9363SOL     OW28987   1.568   2.717   2.390
 9363SOL    HW128988   1.597   2.730   2.296
 9363SOL    HW228989   1.521   2.629   2.398
 9364SOL     OW28990   0.556   1.931   6.596
 9364SOL    HW128991   0.511   1.961   6.511
 9364SOL    HW228992   0.604   1.845   6.580
 9365SOL     OW28993   2.808   0.894   4.959
 9365SOL    HW128994   2.803   0.962   5.032
 9365SOL    HW228995   2.720   0.889   4.912
 9366SOL     OW28996   3.365   6.197   2.402
 9366SOL    HW128997   3.313   6.148   2.473
 9366SOL    HW228998   3.384   6.290   2.434
 9367SOL     OW28999   7.011   0.027   1.334
 9367SOL    HW129000   6.970   6.997   1.411
 9367SOL    HW229001   0.063   0.088   1.367
 9368SOL     OW29002   2.453   0.626   3.350
 9368SOL    HW129003   2.390   0.621   3.428
 9368SOL    HW229004   2.401   0.626   3.265
 9369SOL     OW29005   3.748   4.996   0.933
 9369SOL    HW129006   3.810   5.068   0.903
 9369SOL    HW229007   3.783   4.954   1.016
 9370SOL     OW29008   4.711   2.363   5.091
 9370SOL    HW129009   4.752   2.325   5.174
 9370SOL    HW229010   4.766   2.338   5.012
 9371SOL     OW29011   4.014   4.663   0.567
 9371SOL    HW129012   4.097   4.607   0.576
 9371SOL    HW229013   3.975   4.651   0.476
 9372SOL     OW29014   5.408   7.003   0.610
 9372SOL    HW129015   5.378   0.059   0.668
 9372SOL    HW229016   5.494   0.008   0.565
 9373SOL     OW29017   0.323   1.654   1.337
 9373SOL    HW129018   0.365   1.622   1.422
 9373SOL    HW229019   0.226   1.630   1.337
 9374SOL     OW29020   6.797   5.299   6.036
 9374SOL    HW129021   6.858   5.298   5.957
 9374SOL    HW229022   6.753   5.389   6.043
 9375SOL     OW29023   1.843   1.383   6.620
 9375SOL    HW129024   1.902   1.349   6.693
 9375SOL    HW229025   1.757   1.415   6.659
 9376SOL     OW29026   3.411   3.943   0.648
 9376SOL    HW129027   3.336   3.887   0.615
 9376SOL    HW229028   3.487   3.884   0.676
 9377SOL     OW29029   0.570   1.180   3.340
 9377SOL    HW129030   0.479   1.174   3.382
 9377SOL    HW229031   0.611   1.269   3.362
 9378SOL     OW29032   4.070   1.172   5.245
 9378SOL    HW129033   4.094   1.075   5.244
 9378SOL    HW229034   3.993   1.187   5.307
 9379SOL     OW29035   3.676   6.950   4.374
 9379SOL    HW129036   3.644   6.906   4.458
 9379SOL    HW229037   3.694   6.880   4.304
 9380SOL     OW29038   5.157   6.439   1.453
 9380SOL    HW129039   5.104   6.387   1.386
 9380SOL    HW229040   5.250   6.404   1.457
 9381SOL     OW29041   4.488   1.503   4.905
 9381SOL    HW129042   4.582   1.472   4.888
 9381SOL    HW229043   4.428   1.424   4.914
 9382SOL     OW29044   2.981   5.607   6.320
 9382SOL    HW129045   2.981   5.517   6.363
 9382SOL    HW229046   3.074   5.629   6.289
 9383SOL     OW29047   5.641   3.941   1.009
 9383SOL    HW129048   5.672   3.886   1.087
 9383SOL    HW229049   5.659   3.892   0.924
 9384SOL     OW29050   4.317   0.368   0.559
 9384SOL    HW129051   4.390   0.391   0.622
 9384SOL    HW229052   4.253   0.305   0.602
 9385SOL     OW29053   4.443   2.360   4.169
 9385SOL    HW129054   4.414   2.327   4.080
 9385SOL    HW229055   4.538   2.389   4.165
 9386SOL     OW29056   5.611   0.352   0.810
 9386SOL    HW129057   5.607   0.451   0.821
 9386SOL    HW229058   5.696   0.317   0.851
 9387SOL     OW29059   3.288   2.312   6.647
 9387SOL    HW129060   3.258   2.271   6.561
 9387SOL    HW229061   3.334   2.399   6.628
 9388SOL     OW29062   2.224   6.164   5.447
 9388SOL    HW129063   2.309   6.217   5.444
 9388SOL    HW229064   2.244   6.071   5.478
 9389SOL     OW29065   2.154   3.759   1.824
 9389SOL    HW129066   2.195   3.686   1.878
 9389SOL    HW229067   2.147   3.842   1.878
 9390SOL     OW29068   5.641   5.286   4.026
 9390SOL    HW129069   5.697   5.212   4.064
 9390SOL    HW229070   5.546   5.255   4.017
 9391SOL     OW29071   0.357   5.118   4.358
 9391SOL    HW129072   0.403   5.164   4.433
 9391SOL    HW229073   0.303   5.042   4.393
 9392SOL     OW29074   3.192   5.221   2.797
 9392SOL    HW129075   3.146   5.132   2.801
 9392SOL    HW229076   3.291   5.207   2.803
 9393SOL     OW29077   1.928   5.016   0.373
 9393SOL    HW129078   1.888   4.925   0.366
 9393SOL    HW229079   1.930   5.058   0.282
 9394SOL     OW29080   4.533   0.055   0.016
 9394SOL    HW129081   4.472   0.063   6.957
 9394SOL    HW229082   4.570   6.982   0.020
 9395SOL     OW29083   0.635   0.734   1.159
 9395SOL    HW129084   0.732   0.748   1.140
 9395SOL    HW229085   0.607   0.795   1.234
 9396SOL     OW29086   1.302   0.869   6.361
 9396SOL    HW129087   1.342   0.899   6.447
 9396SOL    HW229088   1.360   0.898   6.285
 9397SOL     OW29089   3.385   1.873   5.898
 9397SOL    HW129090   3.450   1.797   5.908
 9397SOL    HW229091   3.353   1.902   5.989
 9398SOL     OW29092   6.825   2.974   6.759
 9398SOL    HW129093   6.887   3.037   6.805
 9398SOL    HW229094   6.864   2.882   6.759
 9399SOL     OW29095   1.458   2.697   4.657
 9399SOL    HW129096   1.439   2.790   4.688
 9399SOL    HW229097   1.374   2.643   4.659
 9400SOL     OW29098   5.498   1.251   0.902
 9400SOL    HW129099   5.588   1.280   0.870
 9400SOL    HW229100   5.428   1.285   0.840
 9401SOL     OW29101   6.467   1.821   3.563
 9401SOL    HW129102   6.446   1.833   3.660
 9401SOL    HW229103   6.563   1.792   3.554
 9402SOL     OW29104   3.713   5.524   5.472
 9402SOL    HW129105   3.652   5.602   5.459
 9402SOL    HW229106   3.800   5.556   5.509
 9403SOL     OW29107   5.688   2.156   0.964
 9403SOL    HW129108   5.730   2.068   0.987
 9403SOL    HW229109   5.755   2.214   0.918
 9404SOL     OW29110   2.713   2.566   0.724
 9404SOL    HW129111   2.811   2.558   0.706
 9404SOL    HW229112   2.685   2.495   0.789
 9405SOL     OW29113   5.803   5.659   4.931
 9405SOL    HW129114   5.769   5.753   4.922
 9405SOL    HW229115   5.736   5.596   4.891
 9406SOL     OW29116   1.720   1.032   0.886
 9406SOL    HW129117   1.686   0.940   0.864
 9406SOL    HW229118   1.819   1.030   0.894
 9407SOL     OW29119   1.773   4.378   4.792
 9407SOL    HW129120   1.848   4.371   4.858
 9407SOL    HW229121   1.811   4.380   4.699
 9408SOL     OW29122   5.791   5.232   3.780
 9408SOL    HW129123   5.724   5.247   3.853
 9408SOL    HW229124   5.883   5.240   3.818
 9409SOL     OW29125   5.820   4.835   1.566
 9409SOL    HW129126   5.763   4.916   1.552
 9409SOL    HW229127   5.881   4.824   1.487
 9410SOL     OW29128   4.555   0.426   0.732
 9410SOL    HW129129   4.644   0.381   0.722
 9410SOL    HW229130   4.570   0.524   0.749
 9411SOL     OW29131   3.794   3.764   4.934
 9411SOL    HW129132   3.709   3.800   4.897
 9411SOL    HW229133   3.789   3.665   4.941
 9412SOL     OW29134   3.847   6.721   1.908
 9412SOL    HW129135   3.920   6.658   1.936
 9412SOL    HW229136   3.876   6.770   1.825
 9413SOL     OW29137   4.241   5.005   3.312
 9413SOL    HW129138   4.144   4.983   3.316
 9413SOL    HW229139   4.289   4.935   3.258
 9414SOL     OW29140   2.222   0.855   2.585
 9414SOL    HW129141   2.170   0.878   2.667
 9414SOL    HW229142   2.200   0.921   2.512
 9415SOL     OW29143   4.636   1.120   0.643
 9415SOL    HW129144   4.604   1.041   0.695
 9415SOL    HW229145   4.661   1.193   0.707
 9416SOL     OW29146   6.651   4.942   6.040
 9416SOL    HW129147   6.628   4.957   5.944
 9416SOL    HW229148   6.735   4.993   6.062
 9417SOL     OW29149   3.993   6.271   3.186
 9417SOL    HW129150   4.055   6.217   3.242
 9417SOL    HW229151   4.002   6.244   3.090
 9418SOL     OW29152   2.507   2.105   4.988
 9418SOL    HW129153   2.450   2.070   5.063
 9418SOL    HW229154   2.522   2.033   4.921
 9419SOL     OW29155   2.829   2.339   5.965
 9419SOL    HW129156   2.758   2.408   5.950
 9419SOL    HW229157   2.805   2.281   6.042
 9420SOL     OW29158   5.045   3.508   5.668
 9420SOL    HW129159   5.026   3.605   5.662
 9420SOL    HW229160   5.108   3.481   5.595
 9421SOL     OW29161   3.702   6.835   6.975
 9421SOL    HW129162   3.797   6.814   6.999
 9421SOL    HW229163   3.662   6.893   0.026
 9422SOL     OW29164   1.854   6.160   5.797
 9422SOL    HW129165   1.815   6.246   5.762
 9422SOL    HW229166   1.785   6.112   5.851
 9423SOL     OW29167   5.291   4.671   1.107
 9423SOL    HW129168   5.347   4.589   1.094
 9423SOL    HW229169   5.195   4.646   1.111
 9424SOL     OW29170   6.039   6.640   3.696
 9424SOL    HW129171   6.083   6.720   3.737
 9424SOL    HW229172   6.099   6.560   3.706
 9425SOL     OW29173   0.241   5.788   1.086
 9425SOL    HW129174   0.260   5.748   1.175
 9425SOL    HW229175   0.306   5.752   1.019
 9426SOL     OW29176   5.006   1.521   6.092
 9426SOL    HW129177   5.086   1.461   6.092
 9426SOL    HW229178   4.974   1.534   6.186
 9427SOL     OW29179   3.220   5.849   2.013
 9427SOL    HW129180   3.261   5.917   2.073
 9427SOL    HW229181   3.250   5.757   2.039
 9428SOL     OW29182   6.842   6.533   4.392
 9428SOL    HW129183   6.908   6.588   4.444
 9428SOL    HW229184   6.892   6.473   4.329
 9429SOL     OW29185   3.191   2.181   4.142
 9429SOL    HW129186   3.284   2.157   4.115
 9429SOL    HW229187   3.174   2.152   4.236
 9430SOL     OW29188   1.288   0.291   3.774
 9430SOL    HW129189   1.294   0.324   3.680
 9430SOL    HW229190   1.217   0.221   3.781
 9431SOL     OW29191   1.253   4.876   5.274
 9431SOL    HW129192   1.297   4.919   5.194
 9431SOL    HW229193   1.187   4.808   5.243
 9432SOL     OW29194   6.739   2.168   2.938
 9432SOL    HW129195   6.793   2.100   2.890
 9432SOL    HW229196   6.759   2.259   2.902
 9433SOL     OW29197   4.028   5.382   1.719
 9433SOL    HW129198   3.978   5.467   1.701
 9433SOL    HW229199   4.095   5.398   1.791
 9434SOL     OW29200   4.952   6.039   4.583
 9434SOL    HW129201   4.967   6.087   4.497
 9434SOL    HW229202   5.033   6.047   4.641
 9435SOL     OW29203   6.936   3.925   6.875
 9435SOL    HW129204   6.947   4.015   6.917
 9435SOL    HW229205   6.842   3.915   6.842
 9436SOL     OW29206   2.932   1.950   2.621
 9436SOL    HW129207   2.981   2.037   2.615
 9436SOL    HW229208   2.838   1.967   2.653
 9437SOL     OW29209   4.511   1.437   3.775
 9437SOL    HW129210   4.439   1.459   3.841
 9437SOL    HW229211   4.596   1.482   3.803
 9438SOL     OW29212   4.724   0.066   2.977
 9438SOL    HW129213   4.804   0.115   2.941
 9438SOL    HW229214   4.709   0.092   3.072
 9439SOL     OW29215   1.143   5.238   1.042
 9439SOL    HW129216   1.243   5.224   1.040
 9439SOL    HW229217   1.114   5.278   0.955
 9440SOL     OW29218   1.764   5.245   4.203
 9440SOL    HW129219   1.824   5.167   4.186
 9440SOL    HW229220   1.783   5.283   4.294
 9441SOL     OW29221   6.706   6.192   4.389
 9441SOL    HW129222   6.636   6.133   4.348
 9441SOL    HW229223   6.697   6.284   4.352
 9442SOL     OW29224   6.631   2.713   1.163
 9442SOL    HW129225   6.547   2.731   1.214
 9442SOL    HW229226   6.630   2.764   1.078
 9443SOL     OW29227   1.102   4.875   1.207
 9443SOL    HW129228   1.079   4.971   1.216
 9443SOL    HW229229   1.048   4.821   1.271
 9444SOL     OW29230   2.262   6.058   5.965
 9444SOL    HW129231   2.208   6.016   5.891
 9444SOL    HW229232   2.296   5.987   6.026
 9445SOL     OW29233   1.120   1.305   4.166
 9445SOL    HW129234   1.090   1.312   4.261
 9445SOL    HW229235   1.147   1.210   4.146
 9446SOL     OW29236   5.095   5.699   3.436
 9446SOL    HW129237   5.074   5.619   3.493
 9446SOL    HW229238   5.027   5.707   3.363
 9447SOL     OW29239   5.975   5.094   2.193
 9447SOL    HW129240   5.952   5.021   2.257
 9447SOL    HW229241   5.985   5.180   2.244
 9448SOL     OW29242   5.078   2.882   0.117
 9448SOL    HW129243   5.057   2.905   0.022
 9448SOL    HW229244   5.014   2.812   0.149
 9449SOL     OW29245   4.140   0.174   3.249
 9449SOL    HW129246   4.055   0.178   3.301
 9449SOL    HW229247   4.159   0.079   3.223
 9450SOL     OW29248   0.814   0.608   2.070
 9450SOL    HW129249   0.740   0.588   2.134
 9450SOL    HW229250   0.815   0.540   1.997
 9451SOL     OW29251   4.140   4.960   0.153
 9451SOL    HW129252   4.068   5.007   0.101
 9451SOL    HW229253   4.106   4.938   0.244
 9452SOL     OW29254   6.095   2.718   5.683
 9452SOL    HW129255   6.053   2.794   5.735
 9452SOL    HW229256   6.131   2.651   5.747
 9453SOL     OW29257   6.198   4.955   2.991
 9453SOL    HW129258   6.258   4.886   3.029
 9453SOL    HW229259   6.249   5.040   2.977
 9454SOL     OW29260   5.405   5.536   1.242
 9454SOL    HW129261   5.424   5.620   1.190
 9454SOL    HW229262   5.443   5.457   1.193
 9455SOL     OW29263   4.495   0.835   1.417
 9455SOL    HW129264   4.544   0.904   1.471
 9455SOL    HW229265   4.415   0.804   1.469
 9456SOL     OW29266   6.758   2.640   1.939
 9456SOL    HW129267   6.816   2.618   1.860
 9456SOL    HW229268   6.760   2.564   2.004
 9457SOL     OW29269   6.574   6.533   4.369
 9457SOL    HW129270   6.672   6.537   4.384
 9457SOL    HW229271   6.550   6.444   4.331
 9458SOL     OW29272   0.166   4.183   6.950
 9458SOL    HW129273   0.066   4.187   6.942
 9458SOL    HW229274   0.192   4.195   0.026
 9459SOL     OW29275   6.553   4.790   5.301
 9459SOL    HW129276   6.557   4.769   5.399
 9459SOL    HW229277   6.512   4.713   5.252
 9460SOL     OW29278   2.046   3.116   3.008
 9460SOL    HW129279   2.082   3.204   3.036
 9460SOL    HW229280   2.121   3.051   2.998
 9461SOL     OW29281   1.240   1.280   1.139
 9461SOL    HW129282   1.148   1.243   1.135
 9461SOL    HW229283   1.237   1.374   1.174
 9462SOL     OW29284   0.018   0.865   5.480
 9462SOL    HW129285   0.113   0.834   5.472
 9462SOL    HW229286   6.982   0.791   5.520
 9463SOL     OW29287   0.496   4.921   0.863
 9463SOL    HW129288   0.534   4.973   0.940
 9463SOL    HW229289   0.506   4.974   0.779
 9464SOL     OW29290   1.177   0.878   2.012
 9464SOL    HW129291   1.267   0.847   1.983
 9464SOL    HW229292   1.170   0.977   1.998
 9465SOL     OW29293   1.259   5.432   0.026
 9465SOL    HW129294   1.199   5.353   0.037
 9465SOL    HW229295   1.350   5.410   0.061
 9466SOL     OW29296   3.791   4.384   5.498
 9466SOL    HW129297   3.740   4.321   5.439
 9466SOL    HW229298   3.818   4.465   5.446
 9467SOL     OW29299   1.379   3.900   1.696
 9467SOL    HW129300   1.469   3.858   1.691
 9467SOL    HW229301   1.309   3.836   1.663
 9468SOL     OW29302   6.660   2.179   1.014
 9468SOL    HW129303   6.620   2.270   1.000
 9468SOL    HW229304   6.701   2.175   1.105
 9469SOL     OW29305   5.686   6.313   2.080
 9469SOL    HW129306   5.652   6.407   2.076
 9469SOL    HW229307   5.782   6.314   2.108
 9470SOL     OW29308   3.466   3.516   0.997
 9470SOL    HW129309   3.548   3.559   1.036
 9470SOL    HW229310   3.490   3.468   0.913
 9471SOL     OW29311   0.079   3.177   4.948
 9471SOL    HW129312   0.127   3.257   4.912
 9471SOL    HW229313   0.108   3.095   4.899
 9472SOL     OW29314   2.392   4.610   5.983
 9472SOL    HW129315   2.470   4.555   5.954
 9472SOL    HW229316   2.420   4.672   6.057
 9473SOL     OW29317   2.850   3.478   1.800
 9473SOL    HW129318   2.879   3.558   1.853
 9473SOL    HW229319   2.760   3.495   1.760
 9474SOL     OW29320   5.963   4.125   1.056
 9474SOL    HW129321   5.897   4.136   1.130
 9474SOL    HW229322   5.953   4.034   1.016
 9475SOL     OW29323   6.080   3.502   6.784
 9475SOL    HW129324   6.164   3.454   6.807
 9475SOL    HW229325   6.064   3.495   6.685
 9476SOL     OW29326   3.938   3.471   1.059
 9476SOL    HW129327   4.010   3.518   1.111
 9476SOL    HW229328   3.965   3.376   1.044
 9477SOL     OW29329   0.816   5.773   1.319
 9477SOL    HW129330   0.747   5.770   1.391
 9477SOL    HW229331   0.832   5.869   1.292
 9478SOL     OW29332   0.605   3.727   5.505
 9478SOL    HW129333   0.578   3.653   5.442
 9478SOL    HW229334   0.701   3.718   5.528
 9479SOL     OW29335   4.141   0.963   2.373
 9479SOL    HW129336   4.164   1.044   2.427
 9479SOL    HW229337   4.042   0.946   2.379
 9480SOL     OW29338   5.530   1.032   1.271
 9480SOL    HW129339   5.445   0.993   1.235
 9480SOL    HW229340   5.534   1.129   1.250
 9481SOL     OW29341   5.083   0.135   3.784
 9481SOL    HW129342   5.050   0.050   3.743
 9481SOL    HW229343   5.113   0.198   3.711
 9482SOL     OW29344   5.536   4.058   6.380
 9482SOL    HW129345   5.564   3.979   6.325
 9482SOL    HW229346   5.436   4.064   6.382
 9483SOL     OW29347   5.482   4.945   0.390
 9483SOL    HW129348   5.489   4.845   0.395
 9483SOL    HW229349   5.453   4.972   0.299
 9484SOL     OW29350   1.388   5.701   4.018
 9484SOL    HW129351   1.456   5.768   3.987
 9484SOL    HW229352   1.420   5.609   3.996
 9485SOL     OW29353   6.553   1.330   5.766
 9485SOL    HW129354   6.499   1.400   5.718
 9485SOL    HW229355   6.577   1.257   5.702
 9486SOL     OW29356   6.156   5.348   6.216
 9486SOL    HW129357   6.129   5.414   6.146
 9486SOL    HW229358   6.233   5.385   6.268
 9487SOL     OW29359   3.034   3.580   4.109
 9487SOL    HW129360   2.974   3.555   4.185
 9487SOL    HW229361   2.982   3.585   4.024
 9488SOL     OW29362   0.949   1.187   2.721
 9488SOL    HW129363   0.895   1.262   2.682
 9488SOL    HW229364   0.985   1.129   2.647
 9489SOL     OW29365   0.215   4.417   6.795
 9489SOL    HW129366   0.298   4.470   6.812
 9489SOL    HW229367   0.213   4.338   6.856
 9490SOL     OW29368   5.498   4.200   4.923
 9490SOL    HW129369   5.566   4.274   4.924
 9490SOL    HW229370   5.486   4.165   5.016
 9491SOL     OW29371   5.177   0.147   2.133
 9491SOL    HW129372   5.091   0.161   2.181
 9491SOL    HW229373   5.166   0.172   2.036
 9492SOL     OW29374   4.788   2.873   4.264
 9492SOL    HW129375   4.756   2.866   4.170
 9492SOL    HW229376   4.841   2.792   4.287
 9493SOL     OW29377   2.361   6.724   3.269
 9493SOL    HW129378   2.451   6.753   3.301
 9493SOL    HW229379   2.364   6.627   3.245
 9494SOL     OW29380   4.825   2.366   2.432
 9494SOL    HW129381   4.808   2.460   2.464
 9494SOL    HW229382   4.802   2.359   2.335
 9495SOL     OW29383   6.172   2.547   0.869
 9495SOL    HW129384   6.174   2.455   0.908
 9495SOL    HW229385   6.261   2.569   0.830
 9496SOL     OW29386   6.398   3.130   0.611
 9496SOL    HW129387   6.473   3.064   0.601
 9496SOL    HW229388   6.407   3.202   0.542
 9497SOL     OW29389   6.059   4.609   4.944
 9497SOL    HW129390   6.135   4.642   4.888
 9497SOL    HW229391   6.090   4.533   5.001
 9498SOL     OW29392   0.988   6.089   5.928
 9498SOL    HW129393   0.909   6.037   5.961
 9498SOL    HW229394   0.972   6.187   5.940
 9499SOL     OW29395   5.693   6.158   3.194
 9499SOL    HW129396   5.729   6.119   3.279
 9499SOL    HW229397   5.599   6.187   3.208
 9500SOL     OW29398   2.346   1.895   0.577
 9500SOL    HW129399   2.412   1.946   0.632
 9500SOL    HW229400   2.394   1.823   0.526
 9501SOL     OW29401   1.584   3.140   4.794
 9501SOL    HW129402   1.531   3.202   4.851
 9501SOL    HW229403   1.682   3.158   4.807
 9502SOL     OW29404   5.486   4.672   3.753
 9502SOL    HW129405   5.497   4.586   3.704
 9502SOL    HW229406   5.417   4.662   3.825
 9503SOL     OW29407   6.787   0.572   0.121
 9503SOL    HW129408   6.830   0.593   0.208
 9503SOL    HW229409   6.695   0.613   0.118
 9504SOL     OW29410   6.254   4.675   2.746
 9504SOL    HW129411   6.307   4.759   2.760
 9504SOL    HW229412   6.181   4.670   2.814
 9505SOL     OW29413   4.950   2.647   0.145
 9505SOL    HW129414   4.946   2.561   0.197
 9505SOL    HW229415   4.905   2.634   0.056
 9506SOL     OW29416   3.916   1.136   1.746
 9506SOL    HW129417   3.909   1.096   1.838
 9506SOL    HW229418   3.946   1.067   1.681
 9507SOL     OW29419   6.997   6.099   1.346
 9507SOL    HW129420   6.977   6.097   1.444
 9507SOL    HW229421   0.065   6.146   1.331
 9508SOL     OW29422   4.786   1.489   2.238
 9508SOL    HW129423   4.884   1.507   2.245
 9508SOL    HW229424   4.756   1.439   2.320
 9509SOL     OW29425   5.372   1.617   3.873
 9509SOL    HW129426   5.350   1.525   3.907
 9509SOL    HW229427   5.296   1.650   3.817
 9510SOL     OW29428   1.722   3.730   2.312
 9510SOL    HW129429   1.754   3.787   2.388
 9510SOL    HW229430   1.623   3.723   2.314
 9511SOL     OW29431   0.868   1.175   0.689
 9511SOL    HW129432   0.950   1.189   0.634
 9511SOL    HW229433   0.828   1.264   0.713
 9512SOL     OW29434   6.293   2.493   1.485
 9512SOL    HW129435   6.242   2.491   1.571
 9512SOL    HW229436   6.331   2.402   1.467
 9513SOL     OW29437   4.936   3.555   4.482
 9513SOL    HW129438   4.917   3.489   4.554
 9513SOL    HW229439   4.921   3.513   4.392
 9514SOL     OW29440   3.619   3.381   1.207
 9514SOL    HW129441   3.694   3.430   1.249
 9514SOL    HW229442   3.581   3.315   1.272
 9515SOL     OW29443   6.158   6.728   2.757
 9515SOL    HW129444   6.144   6.760   2.851
 9515SOL    HW229445   6.255   6.730   2.735
 9516SOL     OW29446   1.516   2.795   6.762
 9516SOL    HW129447   1.568   2.793   6.848
 9516SOL    HW229448   1.453   2.873   6.764
 9517SOL     OW29449   0.395   6.549   2.168
 9517SOL    HW129450   0.488   6.528   2.201
 9517SOL    HW229451   0.328   6.504   2.228
 9518SOL     OW29452   6.032   6.909   1.032
 9518SOL    HW129453   6.085   6.839   0.985
 9518SOL    HW229454   6.067   6.921   1.125
 9519SOL     OW29455   1.470   2.826   5.663
 9519SOL    HW129456   1.409   2.806   5.586
 9519SOL    HW229457   1.416   2.856   5.742
 9520SOL     OW29458   3.847   6.454   2.144
 9520SOL    HW129459   3.768   6.427   2.089
 9520SOL    HW229460   3.911   6.507   2.087
 9521SOL     OW29461   5.479   5.092   2.980
 9521SOL    HW129462   5.537   5.173   2.974
 9521SOL    HW229463   5.469   5.064   3.076
 9522SOL     OW29464   3.815   5.110   5.527
 9522SOL    HW129465   3.894   5.101   5.588
 9522SOL    HW229466   3.766   5.023   5.523
 9523SOL     OW29467   1.028   6.842   4.610
 9523SOL    HW129468   1.079   6.762   4.578
 9523SOL    HW229469   1.091   6.905   4.656
 9524SOL     OW29470   5.970   3.260   0.423
 9524SOL    HW129471   5.897   3.289   0.485
 9524SOL    HW229472   5.931   3.232   0.336
 9525SOL     OW29473   4.191   0.379   4.313
 9525SOL    HW129474   4.158   0.358   4.221
 9525SOL    HW229475   4.289   0.396   4.310
 9526SOL     OW29476   4.705   5.203   0.693
 9526SOL    HW129477   4.755   5.129   0.739
 9526SOL    HW229478   4.724   5.290   0.739
 9527SOL     OW29479   6.988   1.045   0.317
 9527SOL    HW129480   6.903   0.992   0.321
 9527SOL    HW229481   6.968   1.141   0.337
 9528SOL     OW29482   5.657   1.224   2.256
 9528SOL    HW129483   5.657   1.235   2.157
 9528SOL    HW229484   5.630   1.130   2.279
 9529SOL     OW29485   1.341   2.716   5.424
 9529SOL    HW129486   1.397   2.714   5.341
 9529SOL    HW229487   1.258   2.662   5.410
 9530SOL     OW29488   2.488   1.202   3.588
 9530SOL    HW129489   2.577   1.228   3.625
 9530SOL    HW229490   2.416   1.235   3.649
 9531SOL     OW29491   2.539   6.424   3.844
 9531SOL    HW129492   2.454   6.463   3.878
 9531SOL    HW229493   2.578   6.362   3.912
 9532SOL     OW29494   3.556   1.138   1.492
 9532SOL    HW129495   3.568   1.192   1.575
 9532SOL    HW229496   3.585   1.192   1.412
 9533SOL     OW29497   0.245   1.598   4.221
 9533SOL    HW129498   0.261   1.506   4.185
 9533SOL    HW229499   0.206   1.655   4.149
 9534SOL     OW29500   5.259   1.272   4.117
 9534SOL    HW129501   5.326   1.281   4.043
 9534SOL    HW229502   5.169   1.256   4.077
 9535SOL     OW29503   2.956   1.623   4.644
 9535SOL    HW129504   2.868   1.670   4.636
 9535SOL    HW229505   3.027   1.690   4.667
 9536SOL     OW29506   2.051   5.603   6.697
 9536SOL    HW129507   2.065   5.701   6.706
 9536SOL    HW229508   2.023   5.582   6.603
 9537SOL     OW29509   2.303   0.598   0.061
 9537SOL    HW129510   2.383   0.568   0.009
 9537SOL    HW229511   2.221   0.590   0.005
 9538SOL     OW29512   5.585   3.671   3.264
 9538SOL    HW129513   5.677   3.684   3.303
 9538SOL    HW229514   5.575   3.576   3.234
 9539SOL     OW29515   1.323   2.702   0.479
 9539SOL    HW129516   1.419   2.692   0.452
 9539SOL    HW229517   1.290   2.792   0.452
 9540SOL     OW29518   6.227   3.371   5.474
 9540SOL    HW129519   6.284   3.451   5.456
 9540SOL    HW229520   6.248   3.300   5.408
 9541SOL     OW29521   6.369   2.372   2.853
 9541SOL    HW129522   6.383   2.299   2.786
 9541SOL    HW229523   6.304   2.341   2.922
 9542SOL     OW29524   5.128   3.654   4.054
 9542SOL    HW129525   5.083   3.580   4.004
 9542SOL    HW229526   5.226   3.637   4.057
 9543SOL     OW29527   4.003   2.237   0.161
 9543SOL    HW129528   3.974   2.313   0.103
 9543SOL    HW229529   4.017   2.270   0.254
 9544SOL     OW29530   4.764   0.029   1.035
 9544SOL    HW129531   4.775   6.980   1.107
 9544SOL    HW229532   4.848   0.036   0.982
 9545SOL     OW29533   0.955   0.418   4.247
 9545SOL    HW129534   1.023   0.453   4.182
 9545SOL    HW229535   0.881   0.484   4.257
 9546SOL     OW29536   3.040   4.290   1.751
 9546SOL    HW129537   3.134   4.309   1.723
 9546SOL    HW229538   2.998   4.373   1.787
 9547SOL     OW29539   5.588   6.855   2.436
 9547SOL    HW129540   5.683   6.862   2.466
 9547SOL    HW229541   5.541   6.942   2.452
 9548SOL     OW29542   6.461   6.911   1.808
 9548SOL    HW129543   6.489   6.843   1.741
 9548SOL    HW229544   6.448   6.868   1.897
 9549SOL     OW29545   2.081   5.959   0.378
 9549SOL    HW129546   2.068   6.041   0.322
 9549SOL    HW229547   2.176   5.953   0.407
 9550SOL     OW29548   1.722   0.987   0.477
 9550SOL    HW129549   1.652   1.045   0.518
 9550SOL    HW229550   1.679   0.922   0.415
 9551SOL     OW29551   1.264   5.421   4.431
 9551SOL    HW129552   1.274   5.501   4.372
 9551SOL    HW229553   1.343   5.416   4.493
 9552SOL     OW29554   6.553   5.459   3.038
 9552SOL    HW129555   6.608   5.518   3.098
 9552SOL    HW229556   6.496   5.399   3.094
 9553SOL     OW29557   5.351   4.744   6.683
 9553SOL    HW129558   5.348   4.755   6.783
 9553SOL    HW229559   5.277   4.797   6.642
 9554SOL     OW29560   1.688   2.734   1.589
 9554SOL    HW129561   1.754   2.703   1.520
 9554SOL    HW229562   1.710   2.692   1.677
 9555SOL     OW29563   0.916   2.225   6.467
 9555SOL    HW129564   0.829   2.252   6.426
 9555SOL    HW229565   0.910   2.131   6.500
 9556SOL     OW29566   5.592   1.697   1.469
 9556SOL    HW129567   5.595   1.630   1.396
 9556SOL    HW229568   5.528   1.668   1.540
 9557SOL     OW29569   5.101   1.799   1.231
 9557SOL    HW129570   5.177   1.800   1.296
 9557SOL    HW229571   5.127   1.745   1.151
 9558SOL     OW29572   6.834   4.152   1.935
 9558SOL    HW129573   6.893   4.115   2.007
 9558SOL    HW229574   6.748   4.101   1.932
 9559SOL     OW29575   0.002   4.864   3.485
 9559SOL    HW129576   0.024   4.930   3.412
 9559SOL    HW229577   6.943   4.809   3.457
 9560SOL     OW29578   3.788   2.355   5.664
 9560SOL    HW129579   3.736   2.321   5.585
 9560SOL    HW229580   3.884   2.362   5.639
 9561SOL     OW29581   3.350   5.192   6.785
 9561SOL    HW129582   3.250   5.190   6.791
 9561SOL    HW229583   3.388   5.105   6.817
 9562SOL     OW29584   6.165   5.597   3.922
 9562SOL    HW129585   6.136   5.663   3.991
 9562SOL    HW229586   6.245   5.547   3.954
 9563SOL     OW29587   0.848   1.129   5.773
 9563SOL    HW129588   0.846   1.168   5.865
 9563SOL    HW229589   0.938   1.146   5.732
 9564SOL     OW29590   6.858   0.510   5.957
 9564SOL    HW129591   6.845   0.463   6.045
 9564SOL    HW229592   6.890   0.603   5.974
 9565SOL     OW29593   3.012   5.636   5.431
 9565SOL    HW129594   2.944   5.675   5.493
 9565SOL    HW229595   2.982   5.545   5.401
 9566SOL     OW29596   2.505   5.992   5.420
 9566SOL    HW129597   2.424   5.950   5.460
 9566SOL    HW229598   2.494   6.091   5.420
 9567SOL     OW29599   5.420   5.849   3.191
 9567SOL    HW129600   5.370   5.764   3.173
 9567SOL    HW229601   5.479   5.870   3.112
 9568SOL     OW29602   6.371   3.537   4.687
 9568SOL    HW129603   6.337   3.458   4.636
 9568SOL    HW229604   6.468   3.525   4.705
 9569SOL     OW29605   5.109   0.332   0.812
 9569SOL    HW129606   5.090   0.352   0.716
 9569SOL    HW229607   5.158   0.410   0.852
 9570SOL     OW29608   0.343   3.695   6.120
 9570SOL    HW129609   0.372   3.735   6.033
 9570SOL    HW229610   0.424   3.675   6.176
 9571SOL     OW29611   3.456   1.882   1.037
 9571SOL    HW129612   3.512   1.910   1.116
 9571SOL    HW229613   3.432   1.962   0.983
 9572SOL     OW29614   0.850   3.558   0.918
 9572SOL    HW129615   0.823   3.599   1.005
 9572SOL    HW229616   0.808   3.608   0.843
 9573SOL     OW29617   4.345   2.028   1.511
 9573SOL    HW129618   4.436   1.990   1.496
 9573SOL    HW229619   4.337   2.056   1.607
 9574SOL     OW29620   1.758   1.568   3.613
 9574SOL    HW129621   1.829   1.635   3.593
 9574SOL    HW229622   1.728   1.524   3.529
 9575SOL     OW29623   3.046   1.662   2.917
 9575SOL    HW129624   3.137   1.688   2.885
 9575SOL    HW229625   2.980   1.675   2.843
 9576SOL     OW29626   4.556   2.837   5.768
 9576SOL    HW129627   4.629   2.838   5.699
 9576SOL    HW229628   4.541   2.743   5.799
 9577SOL     OW29629   0.759   5.826   3.459
 9577SOL    HW129630   0.806   5.880   3.529
 9577SOL    HW229631   0.693   5.766   3.503
 9578SOL     OW29632   6.713   4.285   1.735
 9578SOL    HW129633   6.751   4.247   1.819
 9578SOL    HW229634   6.786   4.299   1.669
 9579SOL     OW29635   1.613   4.735   2.653
 9579SOL    HW129636   1.628   4.724   2.555
 9579SOL    HW229637   1.548   4.810   2.668
 9580SOL     OW29638   4.049   3.837   4.942
 9580SOL    HW129639   4.070   3.890   4.859
 9580SOL    HW229640   3.951   3.817   4.945
 9581SOL     OW29641   0.505   0.127   6.656
 9581SOL    HW129642   0.436   0.187   6.616
 9581SOL    HW229643   0.540   0.168   6.740
 9582SOL     OW29644   4.349   5.363   2.933
 9582SOL    HW129645   4.396   5.386   3.018
 9582SOL    HW229646   4.254   5.338   2.952
 9583SOL     OW29647   1.440   4.937   2.754
 9583SOL    HW129648   1.412   5.029   2.727
 9583SOL    HW229649   1.415   4.921   2.849
 9584SOL     OW29650   5.200   4.810   0.226
 9584SOL    HW129651   5.275   4.874   0.206
 9584SOL    HW229652   5.195   4.796   0.325
 9585SOL     OW29653   5.751   1.383   2.444
 9585SOL    HW129654   5.841   1.351   2.474
 9585SOL    HW229655   5.711   1.318   2.380
 9586SOL     OW29656   3.900   4.845   2.505
 9586SOL    HW129657   3.974   4.908   2.479
 9586SOL    HW229658   3.938   4.771   2.561
 9587SOL     OW29659   4.076   6.405   1.734
 9587SOL    HW129660   4.122   6.429   1.648
 9587SOL    HW229661   4.144   6.375   1.801
 9588SOL     OW29662   5.860   1.156   3.410
 9588SOL    HW129663   5.825   1.107   3.490
 9588SOL    HW229664   5.888   1.248   3.436
 9589SOL     OW29665   4.293   2.250   4.839
 9589SOL    HW129666   4.223   2.311   4.876
 9589SOL    HW229667   4.262   2.155   4.846
 9590SOL     OW29668   6.909   4.790   5.374
 9590SOL    HW129669   6.935   4.786   5.277
 9590SOL    HW229670   6.961   4.722   5.425
 9591SOL     OW29671   0.122   4.485   2.177
 9591SOL    HW129672   0.083   4.444   2.094
 9591SOL    HW229673   0.127   4.584   2.166
 9592SOL     OW29674   3.913   5.192   1.168
 9592SOL    HW129675   3.893   5.207   1.265
 9592SOL    HW229676   3.902   5.095   1.147
 9593SOL     OW29677   2.216   3.070   3.656
 9593SOL    HW129678   2.228   3.099   3.561
 9593SOL    HW229679   2.270   2.987   3.672
 9594SOL     OW29680   5.547   0.332   0.510
 9594SOL    HW129681   5.542   0.326   0.609
 9594SOL    HW229682   5.635   0.373   0.484
 9595SOL     OW29683   2.070   4.565   5.263
 9595SOL    HW129684   2.071   4.540   5.360
 9595SOL    HW229685   2.164   4.572   5.230
 9596SOL     OW29686   5.259   4.687   2.336
 9596SOL    HW129687   5.250   4.744   2.418
 9596SOL    HW229688   5.345   4.710   2.289
 9597SOL     OW29689   1.562   4.176   1.926
 9597SOL    HW129690   1.645   4.126   1.952
 9597SOL    HW229691   1.581   4.275   1.929
 9598SOL     OW29692   0.694   6.414   5.293
 9598SOL    HW129693   0.619   6.373   5.345
 9598SOL    HW229694   0.723   6.498   5.339
 9599SOL     OW29695   4.254   2.204   5.693
 9599SOL    HW129696   4.245   2.174   5.788
 9599SOL    HW229697   4.336   2.163   5.653
 9600SOL     OW29698   1.768   5.299   6.755
 9600SOL    HW129699   1.863   5.288   6.783
 9600SOL    HW229700   1.715   5.218   6.781
 9601SOL     OW29701   1.160   0.070   5.234
 9601SOL    HW129702   1.154   7.007   5.290
 9601SOL    HW229703   1.072   0.117   5.233
 9602SOL     OW29704   0.907   5.628   6.029
 9602SOL    HW129705   0.958   5.692   6.085
 9602SOL    HW229706   0.814   5.662   6.015
 9603SOL     OW29707   1.376   5.136   1.802
 9603SOL    HW129708   1.366   5.042   1.769
 9603SOL    HW229709   1.425   5.191   1.735
 9604SOL     OW29710   6.191   0.238   5.828
 9604SOL    HW129711   6.110   0.296   5.818
 9604SOL    HW229712   6.247   0.244   5.745
 9605SOL     OW29713   3.528   4.939   0.536
 9605SOL    HW129714   3.522   5.020   0.478
 9605SOL    HW229715   3.489   4.960   0.626
 9606SOL     OW29716   6.680   1.584   4.706
 9606SOL    HW129717   6.716   1.633   4.626
 9606SOL    HW229718   6.625   1.646   4.761
 9607SOL     OW29719   6.462   3.486   3.703
 9607SOL    HW129720   6.473   3.448   3.795
 9607SOL    HW229721   6.553   3.502   3.663
 9608SOL     OW29722   6.016   0.798   1.329
 9608SOL    HW129723   6.070   0.810   1.245
 9608SOL    HW229724   5.921   0.824   1.311
 9609SOL     OW29725   1.087   2.085   3.431
 9609SOL    HW129726   1.019   2.130   3.489
 9609SOL    HW229727   1.136   2.155   3.378
 9610SOL     OW29728   5.248   1.392   6.066
 9610SOL    HW129729   5.326   1.392   6.129
 9610SOL    HW229730   5.261   1.321   5.997
 9611SOL     OW29731   5.304   5.285   1.862
 9611SOL    HW129732   5.342   5.203   1.819
 9611SOL    HW229733   5.232   5.260   1.926
 9612SOL     OW29734   4.735   4.058   3.637
 9612SOL    HW129735   4.642   4.021   3.641
 9612SOL    HW229736   4.743   4.134   3.702
 9613SOL     OW29737   4.275   1.476   4.710
 9613SOL    HW129738   4.188   1.518   4.683
 9613SOL    HW229739   4.268   1.442   4.803
 9614SOL     OW29740   3.441   2.342   6.953
 9614SOL    HW129741   3.384   2.387   6.885
 9614SOL    HW229742   3.470   2.253   6.919
 9615SOL     OW29743   6.285   6.353   3.264
 9615SOL    HW129744   6.324   6.332   3.353
 9615SOL    HW229745   6.242   6.443   3.266
 9616SOL     OW29746   0.406   2.235   1.042
 9616SOL    HW129747   0.425   2.201   0.950
 9616SOL    HW229748   0.431   2.166   1.109
 9617SOL     OW29749   1.383   3.452   3.728
 9617SOL    HW129750   1.405   3.441   3.825
 9617SOL    HW229751   1.284   3.462   3.718
 9618SOL     OW29752   5.358   4.032   1.630
 9618SOL    HW129753   5.265   4.068   1.626
 9618SOL    HW229754   5.381   3.990   1.542
 9619SOL     OW29755   1.574   1.269   0.830
 9619SOL    HW129756   1.638   1.199   0.863
 9619SOL    HW229757   1.607   1.360   0.856
 9620SOL     OW29758   3.521   1.230   6.107
 9620SOL    HW129759   3.541   1.265   6.015
 9620SOL    HW229760   3.426   1.251   6.131
 9621SOL     OW29761   6.954   0.129   0.305
 9621SOL    HW129762   6.949   0.033   0.276
 9621SOL    HW229763   6.870   0.176   0.280
 9622SOL     OW29764   6.556   0.380   4.686
 9622SOL    HW129765   6.611   0.447   4.636
 9622SOL    HW229766   6.481   0.348   4.629
 9623SOL     OW29767   2.396   5.556   6.113
 9623SOL    HW129768   2.340   5.571   6.194
 9623SOL    HW229769   2.341   5.513   6.041
 9624SOL     OW29770   4.438   5.005   6.494
 9624SOL    HW129771   4.359   4.945   6.506
 9624SOL    HW229772   4.461   5.047   6.581
 9625SOL     OW29773   4.955   3.915   6.123
 9625SOL    HW129774   4.858   3.893   6.126
 9625SOL    HW229775   5.009   3.831   6.125
 9626SOL     OW29776   2.947   2.741   0.248
 9626SOL    HW129777   2.907   2.699   0.330
 9626SOL    HW229778   3.046   2.744   0.258
 9627SOL     OW29779   6.935   5.222   0.405
 9627SOL    HW129780   6.876   5.141   0.394
 9627SOL    HW229781   0.010   5.192   0.422
 9628SOL     OW29782   6.168   1.743   5.588
 9628SOL    HW129783   6.077   1.780   5.606
 9628SOL    HW229784   6.237   1.815   5.603
 9629SOL     OW29785   0.528   5.933   4.022
 9629SOL    HW129786   0.541   6.032   4.018
 9629SOL    HW229787   0.588   5.889   3.956
 9630SOL     OW29788   6.031   0.414   5.374
 9630SOL    HW129789   5.934   0.434   5.391
 9630SOL    HW229790   6.081   0.498   5.357
 9631SOL     OW29791   4.451   6.036   0.109
 9631SOL    HW129792   4.515   6.039   0.186
 9631SOL    HW229793   4.444   6.126   0.067
 9632SOL     OW29794   2.622   5.869   2.934
 9632SOL    HW129795   2.627   5.824   2.845
 9632SOL    HW229796   2.561   5.818   2.995
 9633SOL     OW29797   2.059   3.252   5.805
 9633SOL    HW129798   2.101   3.188   5.869
 9633SOL    HW229799   2.101   3.242   5.715
 9634SOL     OW29800   5.637   4.791   3.333
 9634SOL    HW129801   5.732   4.816   3.348
 9634SOL    HW229802   5.626   4.750   3.243
 9635SOL     OW29803   1.001   5.521   3.967
 9635SOL    HW129804   1.057   5.548   4.045
 9635SOL    HW229805   1.032   5.432   3.932
 9636SOL     OW29806   4.897   3.661   3.637
 9636SOL    HW129807   4.992   3.651   3.663
 9636SOL    HW229808   4.887   3.741   3.577
 9637SOL     OW29809   3.394   2.288   6.197
 9637SOL    HW129810   3.438   2.219   6.140
 9637SOL    HW229811   3.457   2.365   6.211
 9638SOL     OW29812   1.390   4.233   6.241
 9638SOL    HW129813   1.364   4.234   6.337
 9638SOL    HW229814   1.313   4.203   6.185
 9639SOL     OW29815   5.729   2.971   1.479
 9639SOL    HW129816   5.715   2.873   1.465
 9639SOL    HW229817   5.669   3.003   1.553
 9640SOL     OW29818   2.921   6.081   3.575
 9640SOL    HW129819   2.830   6.100   3.613
 9640SOL    HW229820   2.936   5.982   3.575
 9641SOL     OW29821   0.876   2.620   4.385
 9641SOL    HW129822   0.777   2.611   4.379
 9641SOL    HW229823   0.912   2.548   4.444
 9642SOL     OW29824   0.870   3.025   4.556
 9642SOL    HW129825   0.951   2.967   4.548
 9642SOL    HW229826   0.876   3.098   4.488
 9643SOL     OW29827   6.395   5.621   4.633
 9643SOL    HW129828   6.434   5.713   4.626
 9643SOL    HW229829   6.334   5.605   4.556
 9644SOL     OW29830   1.076   4.910   3.785
 9644SOL    HW129831   1.118   4.819   3.778
 9644SOL    HW229832   1.009   4.910   3.860
 9645SOL     OW29833   0.281   4.849   0.633
 9645SOL    HW129834   0.323   4.765   0.668
 9645SOL    HW229835   0.319   4.870   0.543
 9646SOL     OW29836   2.313   5.109   0.723
 9646SOL    HW129837   2.233   5.054   0.750
 9646SOL    HW229838   2.285   5.204   0.713
 9647SOL     OW29839   4.987   0.109   2.674
 9647SOL    HW129840   4.965   0.134   2.769
 9647SOL    HW229841   4.981   0.189   2.616
 9648SOL     OW29842   4.132   1.979   0.901
 9648SOL    HW129843   4.040   1.960   0.867
 9648SOL    HW229844   4.138   1.950   0.997
 9649SOL     OW29845   0.239   5.359   0.242
 9649SOL    HW129846   0.254   5.262   0.226
 9649SOL    HW229847   0.175   5.394   0.174
 9650SOL     OW29848   0.037   5.028   5.440
 9650SOL    HW129849   0.034   5.127   5.424
 9650SOL    HW229850   6.969   4.987   5.412
 9651SOL     OW29851   3.894   1.024   0.965
 9651SOL    HW129852   3.958   1.091   0.929
 9651SOL    HW229853   3.801   1.047   0.935
 9652SOL     OW29854   0.520   3.967   0.153
 9652SOL    HW129855   0.440   3.948   0.096
 9652SOL    HW229856   0.532   4.065   0.163
 9653SOL     OW29857   6.017   3.705   5.087
 9653SOL    HW129858   6.080   3.677   5.014
 9653SOL    HW229859   5.925   3.672   5.066
 9654SOL     OW29860   3.790   3.322   4.293
 9654SOL    HW129861   3.717   3.320   4.224
 9654SOL    HW229862   3.848   3.402   4.279
 9655SOL     OW29863   4.336   0.960   0.368
 9655SOL    HW129864   4.251   0.913   0.345
 9655SOL    HW229865   4.321   1.018   0.448
 9656SOL     OW29866   5.065   4.867   4.894
 9656SOL    HW129867   5.063   4.813   4.810
 9656SOL    HW229868   5.143   4.930   4.890
 9657SOL     OW29869   4.960   4.660   2.404
 9657SOL    HW129870   4.948   4.602   2.485
 9657SOL    HW229871   5.043   4.633   2.356
 9658SOL     OW29872   5.223   1.309   2.645
 9658SOL    HW129873   5.233   1.228   2.703
 9658SOL    HW229874   5.190   1.281   2.555
 9659SOL     OW29875   4.373   3.026   0.554
 9659SOL    HW129876   4.295   3.088   0.566
 9659SOL    HW229877   4.356   2.940   0.601
 9660SOL     OW29878   2.638   0.230   1.578
 9660SOL    HW129879   2.676   0.322   1.579
 9660SOL    HW229880   2.542   0.233   1.605
 9661SOL     OW29881   3.562   3.705   2.165
 9661SOL    HW129882   3.596   3.618   2.201
 9661SOL    HW229883   3.636   3.751   2.116
 9662SOL     OW29884   4.024   0.656   4.777
 9662SOL    HW129885   3.949   0.611   4.827
 9662SOL    HW229886   4.064   0.591   4.712
 9663SOL     OW29887   1.071   5.845   1.974
 9663SOL    HW129888   1.105   5.875   2.063
 9663SOL    HW229889   1.015   5.763   1.984
 9664SOL     OW29890   1.676   4.746   2.380
 9664SOL    HW129891   1.580   4.751   2.352
 9664SOL    HW229892   1.725   4.826   2.344
 9665SOL     OW29893   6.185   3.741   6.901
 9665SOL    HW129894   6.108   3.796   6.934
 9665SOL    HW229895   6.152   3.652   6.869
 9666SOL     OW29896   5.088   4.153   1.358
 9666SOL    HW129897   5.027   4.178   1.283
 9666SOL    HW229898   5.130   4.236   1.395
 9667SOL     OW29899   5.914   6.143   0.407
 9667SOL    HW129900   5.877   6.084   0.336
 9667SOL    HW229901   5.953   6.087   0.480
 9668SOL     OW29902   2.323   0.588   0.699
 9668SOL    HW129903   2.236   0.563   0.656
 9668SOL    HW229904   2.307   0.665   0.762
 9669SOL     OW29905   3.405   0.208   0.699
 9669SOL    HW129906   3.497   0.226   0.733
 9669SOL    HW229907   3.397   0.238   0.604
 9670SOL     OW29908   0.580   0.311   2.652
 9670SOL    HW129909   0.538   0.337   2.739
 9670SOL    HW229910   0.519   0.247   2.604
 9671SOL     OW29911   0.938   5.746   6.922
 9671SOL    HW129912   0.998   5.760   7.001
 9671SOL    HW229913   0.986   5.695   6.851
 9672SOL     OW29914   0.467   3.929   4.455
 9672SOL    HW129915   0.392   3.875   4.492
 9672SOL    HW229916   0.516   3.875   4.386
 9673SOL     OW29917   2.083   2.773   5.500
 9673SOL    HW129918   1.995   2.808   5.532
 9673SOL    HW229919   2.071   2.680   5.465
 9674SOL     OW29920   1.772   0.598   3.796
 9674SOL    HW129921   1.814   0.612   3.706
 9674SOL    HW229922   1.733   0.684   3.828
 9675SOL     OW29923   6.842   3.872   6.224
 9675SOL    HW129924   6.927   3.854   6.175
 9675SOL    HW229925   6.852   3.955   6.279
 9676SOL     OW29926   0.904   2.799   6.125
 9676SOL    HW129927   0.974   2.848   6.178
 9676SOL    HW229928   0.836   2.865   6.093
 9677SOL     OW29929   0.553   5.034   3.278
 9677SOL    HW129930   0.625   5.077   3.223
 9677SOL    HW229931   0.587   4.947   3.314
 9678SOL     OW29932   4.998   2.957   6.898
 9678SOL    HW129933   4.931   3.023   6.931
 9678SOL    HW229934   5.068   3.004   6.845
 9679SOL     OW29935   1.795   1.311   4.269
 9679SOL    HW129936   1.735   1.384   4.303
 9679SOL    HW229937   1.842   1.343   4.187
 9680SOL     OW29938   4.336   6.374   2.918
 9680SOL    HW129939   4.273   6.402   2.845
 9680SOL    HW229940   4.352   6.275   2.912
 9681SOL     OW29941   0.874   2.692   0.990
 9681SOL    HW129942   0.871   2.631   0.910
 9681SOL    HW229943   0.802   2.665   1.054
 9682SOL     OW29944   3.925   6.520   5.419
 9682SOL    HW129945   4.013   6.473   5.430
 9682SOL    HW229946   3.852   6.452   5.412
 9683SOL     OW29947   2.893   6.026   3.917
 9683SOL    HW129948   2.890   5.939   3.868
 9683SOL    HW229949   2.849   6.097   3.862
 9684SOL     OW29950   1.720   2.670   6.201
 9684SOL    HW129951   1.735   2.638   6.107
 9684SOL    HW229952   1.775   2.615   6.264
 9685SOL     OW29953   3.851   4.892   1.845
 9685SOL    HW129954   3.913   4.813   1.842
 9685SOL    HW229955   3.757   4.860   1.837
 9686SOL     OW29956   1.057   2.237   5.934
 9686SOL    HW129957   0.992   2.234   6.010
 9686SOL    HW229958   1.146   2.268   5.967
 9687SOL     OW29959   5.884   0.510   4.012
 9687SOL    HW129960   5.901   0.499   4.110
 9687SOL    HW229961   5.803   0.455   3.986
 9688SOL     OW29962   0.706   5.009   2.480
 9688SOL    HW129963   0.753   5.011   2.568
 9688SOL    HW229964   0.770   4.981   2.408
 9689SOL     OW29965   1.788   5.832   0.849
 9689SOL    HW129966   1.855   5.799   0.915
 9689SOL    HW229967   1.752   5.921   0.877
 9690SOL     OW29968   5.997   4.481   3.947
 9690SOL    HW129969   5.909   4.469   3.992
 9690SOL    HW229970   6.020   4.578   3.944
 9691SOL     OW29971   3.965   3.898   2.019
 9691SOL    HW129972   4.035   3.955   1.975
 9691SOL    HW229973   4.006   3.812   2.049
 9692SOL     OW29974   6.565   5.501   0.351
 9692SOL    HW129975   6.480   5.553   0.336
 9692SOL    HW229976   6.543   5.405   0.367
 9693SOL     OW29977   4.333   3.730   6.746
 9693SOL    HW129978   4.341   3.829   6.736
 9693SOL    HW229979   4.346   3.686   6.658
 9694SOL     OW29980   2.566   6.031   1.285
 9694SOL    HW129981   2.646   6.071   1.329
 9694SOL    HW229982   2.512   5.980   1.352
 9695SOL     OW29983   1.566   2.694   3.543
 9695SOL    HW129984   1.576   2.744   3.629
 9695SOL    HW229985   1.478   2.716   3.501
 9696SOL     OW29986   4.644   4.308   3.486
 9696SOL    HW129987   4.631   4.364   3.568
 9696SOL    HW229988   4.664   4.214   3.512
 9697SOL     OW29989   6.898   6.995   3.007
 9697SOL    HW129990   6.971   7.004   3.075
 9697SOL    HW229991   6.841   0.057   3.008
 9698SOL     OW29992   0.328   2.569   1.114
 9698SOL    HW129993   0.336   2.567   1.214
 9698SOL    HW229994   0.321   2.476   1.079
 9699SOL     OW29995   1.786   0.324   2.303
 9699SOL    HW129996   1.751   0.271   2.225
 9699SOL    HW229997   1.764   0.276   2.388
 9700SOL     OW29998   6.111   0.729   6.005
 9700SOL    HW129999   6.188   0.690   5.954
 9700SOL    HW230000   6.077   0.810   5.958
 9701SOL     OW30001   5.884   3.752   6.647
 9701SOL    HW130002   5.887   3.733   6.745
 9701SOL    HW230003   5.919   3.845   6.631
 9702SOL     OW30004   2.947   3.685   1.972
 9702SOL    HW130005   2.973   3.727   2.058
 9702SOL    HW230006   2.944   3.755   1.900
 9703SOL     OW30007   6.261   4.604   3.510
 9703SOL    HW130008   6.190   4.594   3.440
 9703SOL    HW230009   6.244   4.540   3.585
 9704SOL     OW30010   0.931   4.982   1.966
 9704SOL    HW130011   0.833   4.968   1.952
 9704SOL    HW230012   0.946   5.072   2.008
 9705SOL     OW30013   0.091   4.236   5.213
 9705SOL    HW130014   0.018   4.181   5.171
 9705SOL    HW230015   0.127   4.187   5.293
 9706SOL     OW30016   0.117   6.760   2.504
 9706SOL    HW130017   0.127   6.860   2.507
 9706SOL    HW230018   0.200   6.717   2.540
 9707SOL     OW30019   0.962   4.392   1.386
 9707SOL    HW130020   0.918   4.349   1.307
 9707SOL    HW230021   0.895   4.403   1.459
 9708SOL     OW30022   3.030   0.638   1.838
 9708SOL    HW130023   3.063   0.641   1.743
 9708SOL    HW230024   3.007   0.730   1.868
 9709SOL     OW30025   3.555   1.720   2.280
 9709SOL    HW130026   3.517   1.802   2.323
 9709SOL    HW230027   3.612   1.746   2.202
 9710SOL     OW30028   5.075   4.835   4.355
 9710SOL    HW130029   5.140   4.758   4.358
 9710SOL    HW230030   5.095   4.892   4.276
 9711SOL     OW30031   3.336   0.371   6.607
 9711SOL    HW130032   3.307   0.465   6.622
 9711SOL    HW230033   3.372   0.333   6.692
 9712SOL     OW30034   4.853   6.657   5.623
 9712SOL    HW130035   4.817   6.576   5.668
 9712SOL    HW230036   4.877   6.726   5.693
 9713SOL     OW30037   0.469   0.630   3.093
 9713SOL    HW130038   0.559   0.589   3.105
 9713SOL    HW230039   0.435   0.608   3.002
 9714SOL     OW30040   2.326   2.820   3.691
 9714SOL    HW130041   2.314   2.806   3.592
 9714SOL    HW230042   2.364   2.737   3.731
 9715SOL     OW30043   0.453   1.894   6.349
 9715SOL    HW130044   0.497   1.805   6.334
 9715SOL    HW230045   0.461   1.949   6.267
 9716SOL     OW30046   1.287   6.134   0.985
 9716SOL    HW130047   1.235   6.215   1.011
 9716SOL    HW230048   1.307   6.080   1.067
 9717SOL     OW30049   4.563   1.949   6.286
 9717SOL    HW130050   4.650   1.984   6.251
 9717SOL    HW230051   4.578   1.904   6.374
 9718SOL     OW30052   3.079   2.789   6.529
 9718SOL    HW130053   3.034   2.746   6.451
 9718SOL    HW230054   3.033   2.875   6.550
 9719SOL     OW30055   5.166   0.305   6.104
 9719SOL    HW130056   5.169   0.310   6.203
 9719SOL    HW230057   5.094   0.240   6.077
 9720SOL     OW30058   2.525   2.466   2.224
 9720SOL    HW130059   2.506   2.521   2.305
 9720SOL    HW230060   2.440   2.452   2.173
 9721SOL     OW30061   0.439   1.790   1.138
 9721SOL    HW130062   0.389   1.734   1.204
 9721SOL    HW230063   0.456   1.881   1.177
 9722SOL     OW30064   3.416   2.741   5.774
 9722SOL    HW130065   3.491   2.677   5.793
 9722SOL    HW230066   3.337   2.718   5.832
 9723SOL     OW30067   5.780   1.299   4.529
 9723SOL    HW130068   5.703   1.358   4.503
 9723SOL    HW230069   5.759   1.204   4.505
 9724SOL     OW30070   1.520   5.488   1.658
 9724SOL    HW130071   1.538   5.546   1.737
 9724SOL    HW230072   1.605   5.442   1.630
 9725SOL     OW30073   5.739   5.303   5.016
 9725SOL    HW130074   5.691   5.386   4.988
 9725SOL    HW230075   5.808   5.279   4.947
 9726SOL     OW30076   6.735   0.243   2.980
 9726SOL    HW130077   6.683   0.254   2.895
 9726SOL    HW230078   6.796   0.321   2.991
 9727SOL     OW30079   6.943   3.284   0.917
 9727SOL    HW130080   6.909   3.377   0.901
 9727SOL    HW230081   0.020   3.279   0.891
 9728SOL     OW30082   5.107   2.302   5.269
 9728SOL    HW130083   5.120   2.390   5.223
 9728SOL    HW230084   5.014   2.297   5.306
 9729SOL     OW30085   6.846   3.455   2.645
 9729SOL    HW130086   6.785   3.510   2.587
 9729SOL    HW230087   6.934   3.501   2.654
 9730SOL     OW30088   0.444   6.456   3.162
 9730SOL    HW130089   0.501   6.374   3.156
 9730SOL    HW230090   0.389   6.452   3.246
 9731SOL     OW30091   6.353   0.881   1.468
 9731SOL    HW130092   6.368   0.792   1.425
 9731SOL    HW230093   6.440   0.929   1.475
 9732SOL     OW30094   6.806   2.771   2.981
 9732SOL    HW130095   6.826   2.758   2.884
 9732SOL    HW230096   6.891   2.787   3.031
 9733SOL     OW30097   4.864   5.780   0.525
 9733SOL    HW130098   4.952   5.737   0.502
 9733SOL    HW230099   4.794   5.709   0.536
 9734SOL     OW30100   3.877   3.742   0.288
 9734SOL    HW130101   3.824   3.677   0.235
 9734SOL    HW230102   3.968   3.704   0.306
 9735SOL     OW30103   1.107   1.973   0.221
 9735SOL    HW130104   1.031   1.978   0.157
 9735SOL    HW230105   1.072   1.967   0.315
 9736SOL     OW30106   5.865   2.565   6.104
 9736SOL    HW130107   5.924   2.598   6.178
 9736SOL    HW230108   5.851   2.639   6.037
 9737SOL     OW30109   5.249   3.702   5.191
 9737SOL    HW130110   5.176   3.695   5.124
 9737SOL    HW230111   5.332   3.736   5.146
 9738SOL     OW30112   2.561   6.175   1.659
 9738SOL    HW130113   2.609   6.261   1.675
 9738SOL    HW230114   2.506   6.183   1.576
 9739SOL     OW30115   5.358   6.059   0.954
 9739SOL    HW130116   5.418   6.136   0.932
 9739SOL    HW230117   5.317   6.073   1.044
 9740SOL     OW30118   6.864   0.175   0.637
 9740SOL    HW130119   6.784   0.126   0.601
 9740SOL    HW230120   6.928   0.193   0.563
 9741SOL     OW30121   2.313   2.623   3.092
 9741SOL    HW130122   2.288   2.529   3.066
 9741SOL    HW230123   2.408   2.626   3.122
 9742SOL     OW30124   5.100   6.822   6.781
 9742SOL    HW130125   5.186   6.785   6.817
 9742SOL    HW230126   5.091   6.918   6.806
 9743SOL     OW30127   5.835   3.863   4.558
 9743SOL    HW130128   5.886   3.920   4.495
 9743SOL    HW230129   5.888   3.781   4.580
 9744SOL     OW30130   1.567   2.746   2.079
 9744SOL    HW130131   1.630   2.823   2.089
 9744SOL    HW230132   1.478   2.780   2.050
 9745SOL     OW30133   1.375   6.916   5.806
 9745SOL    HW130134   1.445   6.844   5.808
 9745SOL    HW230135   1.392   6.977   5.729
 9746SOL     OW30136   3.923   5.578   5.751
 9746SOL    HW130137   4.004   5.520   5.762
 9746SOL    HW230138   3.907   5.629   5.836
 9747SOL     OW30139   4.451   1.493   3.486
 9747SOL    HW130140   4.435   1.592   3.483
 9747SOL    HW230141   4.477   1.467   3.578
 9748SOL     OW30142   0.709   1.636   1.787
 9748SOL    HW130143   0.619   1.663   1.753
 9748SOL    HW230144   0.774   1.711   1.774
 9749SOL     OW30145   6.607   0.106   1.870
 9749SOL    HW130146   6.535   0.047   1.835
 9749SOL    HW230147   6.666   0.054   1.932
 9750SOL     OW30148   5.444   3.048   4.647
 9750SOL    HW130149   5.471   2.966   4.597
 9750SOL    HW230150   5.381   3.102   4.592
 9751SOL     OW30151   2.828   4.957   0.689
 9751SOL    HW130152   2.729   4.968   0.681
 9751SOL    HW230153   2.871   4.972   0.600
 9752SOL     OW30154   4.609   4.142   1.001
 9752SOL    HW130155   4.650   4.115   1.088
 9752SOL    HW230156   4.533   4.206   1.018
 9753SOL     OW30157   5.764   6.284   2.681
 9753SOL    HW130158   5.781   6.189   2.655
 9753SOL    HW230159   5.837   6.316   2.741
 9754SOL     OW30160   3.601   1.051   2.040
 9754SOL    HW130161   3.613   0.964   2.089
 9754SOL    HW230162   3.690   1.094   2.027
 9755SOL     OW30163   3.856   4.193   1.288
 9755SOL    HW130164   3.774   4.231   1.331
 9755SOL    HW230165   3.829   4.124   1.221
 9756SOL     OW30166   4.666   0.629   6.943
 9756SOL    HW130167   4.657   0.557   7.012
 9756SOL    HW230168   4.734   0.602   6.875
 9757SOL     OW30169   5.370   4.198   3.992
 9757SOL    HW130170   5.296   4.262   3.973
 9757SOL    HW230171   5.449   4.248   4.029
 9758SOL     OW30172   3.032   0.872   0.705
 9758SOL    HW130173   2.984   0.944   0.654
 9758SOL    HW230174   2.981   0.786   0.697
 9759SOL     OW30175   6.208   1.094   0.667
 9759SOL    HW130176   6.242   1.112   0.759
 9759SOL    HW230177   6.126   1.149   0.651
 9760SOL     OW30178   4.748   0.619   5.654
 9760SOL    HW130179   4.817   0.690   5.641
 9760SOL    HW230180   4.777   0.557   5.726
 9761SOL     OW30181   0.927   2.508   1.355
 9761SOL    HW130182   0.974   2.536   1.272
 9761SOL    HW230183   0.982   2.438   1.402
 9762SOL     OW30184   3.766   1.392   5.244
 9762SOL    HW130185   3.777   1.491   5.258
 9762SOL    HW230186   3.673   1.373   5.212
 9763SOL     OW30187   6.356   2.162   0.745
 9763SOL    HW130188   6.298   2.150   0.826
 9763SOL    HW230189   6.359   2.259   0.720
 9764SOL     OW30190   6.945   2.742   3.384
 9764SOL    HW130191   6.931   2.794   3.299
 9764SOL    HW230192   6.903   2.652   3.374
 9765SOL     OW30193   0.067   2.053   0.913
 9765SOL    HW130194   0.126   1.973   0.928
 9765SOL    HW230195   6.991   2.024   0.913
 9766SOL     OW30196   1.002   3.185   2.973
 9766SOL    HW130197   1.094   3.171   2.939
 9766SOL    HW230198   0.968   3.100   3.014
 9767SOL     OW30199   3.821   1.635   4.751
 9767SOL    HW130200   3.896   1.608   4.690
 9767SOL    HW230201   3.775   1.552   4.785
 9768SOL     OW30202   4.513   3.395   6.834
 9768SOL    HW130203   4.549   3.433   6.749
 9768SOL    HW230204   4.517   3.295   6.830
 9769SOL     OW30205   2.988   0.810   5.800
 9769SOL    HW130206   2.947   0.788   5.889
 9769SOL    HW230207   2.921   0.794   5.727
 9770SOL     OW30208   1.872   3.437   4.845
 9770SOL    HW130209   1.854   3.339   4.851
 9770SOL    HW230210   1.793   3.484   4.806
 9771SOL     OW30211   3.801   0.131   1.685
 9771SOL    HW130212   3.874   0.197   1.669
 9771SOL    HW230213   3.807   0.098   1.779
 9772SOL     OW30214   0.571   0.633   1.563
 9772SOL    HW130215   0.562   0.732   1.573
 9772SOL    HW230216   0.490   0.596   1.517
 9773SOL     OW30217   4.128   6.326   2.661
 9773SOL    HW130218   4.082   6.398   2.609
 9773SOL    HW230219   4.062   6.254   2.684
 9774SOL     OW30220   1.096   5.082   5.405
 9774SOL    HW130221   1.096   5.172   5.363
 9774SOL    HW230222   1.143   5.017   5.346
 9775SOL     OW30223   1.191   1.460   3.499
 9775SOL    HW130224   1.282   1.495   3.523
 9775SOL    HW230225   1.122   1.527   3.526
 9776SOL     OW30226   0.628   5.652   1.535
 9776SOL    HW130227   0.533   5.676   1.552
 9776SOL    HW230228   0.636   5.552   1.528
 9777SOL     OW30229   5.134   2.536   5.136
 9777SOL    HW130230   5.186   2.619   5.156
 9777SOL    HW230231   5.167   2.496   5.050
 9778SOL     OW30232   1.953   3.332   2.752
 9778SOL    HW130233   1.964   3.245   2.801
 9778SOL    HW230234   1.869   3.329   2.698
 9779SOL     OW30235   1.854   0.985   2.741
 9779SOL    HW130236   1.845   0.886   2.748
 9779SOL    HW230237   1.948   1.011   2.764
 9780SOL     OW30238   1.747   1.800   1.478
 9780SOL    HW130239   1.710   1.809   1.385
 9780SOL    HW230240   1.685   1.844   1.543
 9781SOL     OW30241   1.586   1.130   1.977
 9781SOL    HW130242   1.517   1.103   2.044
 9781SOL    HW230243   1.551   1.205   1.922
 9782SOL     OW30244   0.643   2.511   6.936
 9782SOL    HW130245   0.556   2.464   6.923
 9782SOL    HW230246   0.630   2.589   6.997
 9783SOL     OW30247   5.334   1.348   2.045
 9783SOL    HW130248   5.429   1.331   2.019
 9783SOL    HW230249   5.326   1.348   2.145
 9784SOL     OW30250   2.443   1.158   0.276
 9784SOL    HW130251   2.348   1.153   0.304
 9784SOL    HW230252   2.470   1.254   0.265
 9785SOL     OW30253   1.886   3.897   4.264
 9785SOL    HW130254   1.973   3.855   4.292
 9785SOL    HW230255   1.882   3.991   4.296
 9786SOL     OW30256   2.941   4.335   0.091
 9786SOL    HW130257   2.960   4.313   7.015
 9786SOL    HW230258   2.842   4.348   0.103
 9787SOL     OW30259   2.703   3.449   1.113
 9787SOL    HW130260   2.673   3.537   1.075
 9787SOL    HW230261   2.624   3.400   1.150
 9788SOL     OW30262   2.642   0.084   3.932
 9788SOL    HW130263   2.675   0.157   3.872
 9788SOL    HW230264   2.629   0.001   3.879
 9789SOL     OW30265   4.213   1.521   0.249
 9789SOL    HW130266   4.161   1.542   0.332
 9789SOL    HW230267   4.195   1.427   0.221
 9790SOL     OW30268   4.546   5.845   5.138
 9790SOL    HW130269   4.638   5.846   5.175
 9790SOL    HW230270   4.513   5.751   5.132
 9791SOL     OW30271   0.500   0.580   0.964
 9791SOL    HW130272   0.541   0.630   1.041
 9791SOL    HW230273   0.546   0.606   0.879
 9792SOL     OW30274   2.890   3.460   0.091
 9792SOL    HW130275   2.914   3.403   0.169
 9792SOL    HW230276   2.833   3.408   0.027
 9793SOL     OW30277   5.442   0.786   1.719
 9793SOL    HW130278   5.475   0.700   1.758
 9793SOL    HW230279   5.355   0.810   1.761
 9794SOL     OW30280   4.096   5.902   5.545
 9794SOL    HW130281   4.142   5.982   5.507
 9794SOL    HW230282   4.164   5.837   5.577
 9795SOL     OW30283   2.077   4.278   3.453
 9795SOL    HW130284   2.137   4.210   3.412
 9795SOL    HW230285   2.128   4.363   3.467
 9796SOL     OW30286   4.018   3.449   4.953
 9796SOL    HW130287   4.023   3.532   5.008
 9796SOL    HW230288   4.103   3.438   4.902
 9797SOL     OW30289   4.031   4.911   0.403
 9797SOL    HW130290   4.039   4.830   0.462
 9797SOL    HW230291   3.983   4.983   0.452
 9798SOL     OW30292   0.817   4.161   6.019
 9798SOL    HW130293   0.883   4.163   5.944
 9798SOL    HW230294   0.788   4.255   6.039
 9799SOL     OW30295   3.407   0.262   6.192
 9799SOL    HW130296   3.318   0.243   6.151
 9799SOL    HW230297   3.479   0.233   6.130
 9800SOL     OW30298   0.410   4.367   4.662
 9800SOL    HW130299   0.367   4.295   4.608
 9800SOL    HW230300   0.486   4.407   4.611
 9801SOL     OW30301   3.916   6.825   1.314
 9801SOL    HW130302   3.889   6.921   1.319
 9801SOL    HW230303   4.011   6.816   1.345
 9802SOL     OW30304   4.055   2.316   0.403
 9802SOL    HW130305   4.152   2.319   0.427
 9802SOL    HW230306   4.013   2.404   0.425
 9803SOL     OW30307   2.456   3.617   0.054
 9803SOL    HW130308   2.521   3.636   0.127
 9803SOL    HW230309   2.455   3.519   0.035
 9804SOL     OW30310   1.062   3.893   2.944
 9804SOL    HW130311   1.095   3.982   2.913
 9804SOL    HW230312   1.096   3.875   3.036
 9805SOL     OW30313   6.816   4.514   5.425
 9805SOL    HW130314   6.792   4.535   5.520
 9805SOL    HW230315   6.733   4.496   5.373
 9806SOL     OW30316   3.545   1.244   0.153
 9806SOL    HW130317   3.528   1.146   0.142
 9806SOL    HW230318   3.583   1.280   0.068
 9807SOL     OW30319   4.007   3.678   4.589
 9807SOL    HW130320   4.010   3.761   4.645
 9807SOL    HW230321   3.911   3.650   4.576
 9808SOL     OW30322   2.580   6.744   2.738
 9808SOL    HW130323   2.513   6.722   2.808
 9808SOL    HW230324   2.660   6.684   2.749
 9809SOL     OW30325   6.895   3.555   0.930
 9809SOL    HW130326   6.849   3.569   1.018
 9809SOL    HW230327   6.974   3.617   0.924
 9810SOL     OW30328   4.022   3.020   1.489
 9810SOL    HW130329   4.065   3.108   1.510
 9810SOL    HW230330   3.967   2.991   1.567
 9811SOL     OW30331   5.347   3.488   3.744
 9811SOL    HW130332   5.282   3.435   3.689
 9811SOL    HW230333   5.328   3.474   3.841
 9812SOL     OW30334   3.246   5.425   6.628
 9812SOL    HW130335   3.255   5.376   6.714
 9812SOL    HW230336   3.217   5.361   6.556
 9813SOL     OW30337   4.540   0.223   2.131
 9813SOL    HW130338   4.475   0.165   2.081
 9813SOL    HW230339   4.495   0.307   2.159
 9814SOL     OW30340   6.659   1.459   6.763
 9814SOL    HW130341   6.698   1.514   6.690
 9814SOL    HW230342   6.617   1.377   6.724
 9815SOL     OW30343   5.269   2.532   4.829
 9815SOL    HW130344   5.322   2.479   4.764
 9815SOL    HW230345   5.281   2.630   4.810
 9816SOL     OW30346   3.961   0.984   0.105
 9816SOL    HW130347   3.995   0.892   0.084
 9816SOL    HW230348   3.911   0.982   0.192
 9817SOL     OW30349   6.250   0.046   1.382
 9817SOL    HW130350   6.275   6.974   1.413
 9817SOL    HW230351   6.288   0.061   1.290
 9818SOL     OW30352   3.977   2.192   5.038
 9818SOL    HW130353   3.951   2.188   4.941
 9818SOL    HW230354   4.016   2.282   5.058
 9819SOL     OW30355   2.538   0.177   2.015
 9819SOL    HW130356   2.463   0.239   2.038
 9819SOL    HW230357   2.540   0.102   2.081
 9820SOL     OW30358   4.164   2.603   0.151
 9820SOL    HW130359   4.097   2.677   0.146
 9820SOL    HW230360   4.143   2.534   0.082
 9821SOL     OW30361   0.637   6.450   6.869
 9821SOL    HW130362   0.712   6.388   6.848
 9821SOL    HW230363   0.668   6.519   6.935
 9822SOL     OW30364   0.101   1.953   2.365
 9822SOL    HW130365   0.194   1.989   2.357
 9822SOL    HW230366   0.092   1.908   2.454
 9823SOL     OW30367   3.040   6.334   2.493
 9823SOL    HW130368   2.973   6.403   2.519
 9823SOL    HW230369   3.035   6.318   2.394
 9824SOL     OW30370   2.241   3.973   5.394
 9824SOL    HW130371   2.162   4.019   5.354
 9824SOL    HW230372   2.317   3.975   5.330
 9825SOL     OW30373   4.507   4.442   5.382
 9825SOL    HW130374   4.456   4.472   5.462
 9825SOL    HW230375   4.558   4.358   5.403
 9826SOL     OW30376   6.192   0.301   5.157
 9826SOL    HW130377   6.131   0.234   5.114
 9826SOL    HW230378   6.159   0.321   5.250
 9827SOL     OW30379   1.017   5.513   4.860
 9827SOL    HW130380   0.937   5.565   4.890
 9827SOL    HW230381   1.028   5.523   4.762
 9828SOL     OW30382   2.534   1.420   0.212
 9828SOL    HW130383   2.617   1.437   0.160
 9828SOL    HW230384   2.454   1.446   0.156
 9829SOL     OW30385   3.152   4.357   1.388
 9829SOL    HW130386   3.056   4.356   1.364
 9829SOL    HW230387   3.197   4.434   1.341
 9830SOL     OW30388   5.957   1.167   1.198
 9830SOL    HW130389   6.055   1.148   1.208
 9830SOL    HW230390   5.930   1.237   1.264
 9831SOL     OW30391   6.967   5.849   1.066
 9831SOL    HW130392   0.009   5.778   1.031
 9831SOL    HW230393   6.933   5.823   1.157
 9832SOL     OW30394   3.093   3.802   1.602
 9832SOL    HW130395   3.169   3.754   1.559
 9832SOL    HW230396   3.078   3.889   1.557
 9833SOL     OW30397   5.104   4.203   0.437
 9833SOL    HW130398   5.027   4.215   0.374
 9833SOL    HW230399   5.180   4.261   0.408
 9834SOL     OW30400   2.029   3.140   3.821
 9834SOL    HW130401   2.043   3.128   3.919
 9834SOL    HW230402   2.112   3.117   3.772
 9835SOL     OW30403   5.111   2.339   4.893
 9835SOL    HW130404   5.158   2.255   4.866
 9835SOL    HW230405   5.169   2.418   4.873
 9836SOL     OW30406   5.283   4.948   1.454
 9836SOL    HW130407   5.293   4.848   1.447
 9836SOL    HW230408   5.281   4.988   1.362
 9837SOL     OW30409   2.285   5.046   5.161
 9837SOL    HW130410   2.344   5.087   5.092
 9837SOL    HW230411   2.316   4.953   5.181
 9838SOL     OW30412   6.834   6.570   5.095
 9838SOL    HW130413   6.846   6.665   5.124
 9838SOL    HW230414   6.860   6.509   5.170
 9839SOL     OW30415   5.786   2.978   3.144
 9839SOL    HW130416   5.731   3.039   3.087
 9839SOL    HW230417   5.778   3.007   3.240
 9840SOL     OW30418   5.982   0.089   0.549
 9840SOL    HW130419   6.056   0.153   0.571
 9840SOL    HW230420   5.952   0.104   0.455
 9841SOL     OW30421   1.727   2.873   4.082
 9841SOL    HW130422   1.658   2.801   4.090
 9841SOL    HW230423   1.774   2.884   4.170
 9842SOL     OW30424   2.976   3.242   4.132
 9842SOL    HW130425   2.949   3.321   4.187
 9842SOL    HW230426   2.957   3.259   4.036
 9843SOL     OW30427   5.916   4.421   3.640
 9843SOL    HW130428   5.937   4.474   3.722
 9843SOL    HW230429   5.874   4.480   3.572
 9844SOL     OW30430   4.042   0.175   1.957
 9844SOL    HW130431   4.024   0.263   2.000
 9844SOL    HW230432   4.084   0.190   1.867
 9845SOL     OW30433   1.483   1.728   4.376
 9845SOL    HW130434   1.389   1.697   4.378
 9845SOL    HW230435   1.489   1.820   4.415
 9846SOL     OW30436   2.916   3.456   4.316
 9846SOL    HW130437   2.981   3.514   4.366
 9846SOL    HW230438   2.881   3.385   4.376
 9847SOL     OW30439   2.435   4.484   4.216
 9847SOL    HW130440   2.465   4.507   4.123
 9847SOL    HW230441   2.461   4.557   4.279
 9848SOL     OW30442   0.091   4.448   0.203
 9848SOL    HW130443   0.132   4.533   0.234
 9848SOL    HW230444   0.162   4.378   0.194
 9849SOL     OW30445   6.730   6.023   5.390
 9849SOL    HW130446   6.787   6.027   5.472
 9849SOL    HW230447   6.739   5.933   5.347
 9850SOL     OW30448   5.337   6.800   3.512
 9850SOL    HW130449   5.251   6.848   3.528
 9850SOL    HW230450   5.376   6.829   3.425
 9851SOL     OW30451   5.836   2.540   5.071
 9851SOL    HW130452   5.909   2.600   5.102
 9851SOL    HW230453   5.797   2.492   5.150
 9852SOL     OW30454   5.175   2.059   3.830
 9852SOL    HW130455   5.134   2.082   3.918
 9852SOL    HW230456   5.157   2.133   3.765
 9853SOL     OW30457   6.956   5.093   1.182
 9853SOL    HW130458   6.959   5.170   1.246
 9853SOL    HW230459   0.001   5.022   1.213
 9854SOL     OW30460   3.147   6.843   4.101
 9854SOL    HW130461   3.077   6.898   4.055
 9854SOL    HW230462   3.146   6.863   4.199
 9855SOL     OW30463   2.451   4.341   1.166
 9855SOL    HW130464   2.476   4.245   1.177
 9855SOL    HW230465   2.381   4.365   1.232
 9856SOL     OW30466   3.694   3.272   0.966
 9856SOL    HW130467   3.658   3.298   1.055
 9856SOL    HW230468   3.632   3.304   0.894
 9857SOL     OW30469   5.871   4.765   3.088
 9857SOL    HW130470   5.783   4.719   3.076
 9857SOL    HW230471   5.856   4.859   3.118
 9858SOL     OW30472   3.389   1.041   1.224
 9858SOL    HW130473   3.387   1.111   1.152
 9858SOL    HW230474   3.366   1.083   1.312
 9859SOL     OW30475   0.372   6.506   1.457
 9859SOL    HW130476   0.412   6.431   1.404
 9859SOL    HW230477   0.343   6.472   1.546
 9860SOL     OW30478   0.994   1.010   2.940
 9860SOL    HW130479   0.927   0.999   3.013
 9860SOL    HW230480   0.957   1.071   2.869
 9861SOL     OW30481   2.050   6.054   3.629
 9861SOL    HW130482   2.121   6.112   3.668
 9861SOL    HW230483   2.010   6.099   3.549
 9862SOL     OW30484   0.308   2.030   0.540
 9862SOL    HW130485   0.307   1.935   0.507
 9862SOL    HW230486   0.396   2.072   0.518
 9863SOL     OW30487   4.707   0.663   0.742
 9863SOL    HW130488   4.673   0.756   0.730
 9863SOL    HW230489   4.737   0.626   0.654
 9864SOL     OW30490   3.675   5.410   3.795
 9864SOL    HW130491   3.734   5.350   3.850
 9864SOL    HW230492   3.580   5.399   3.823
 9865SOL     OW30493   1.873   3.621   3.728
 9865SOL    HW130494   1.892   3.648   3.823
 9865SOL    HW230495   1.885   3.522   3.719
 9866SOL     OW30496   2.863   4.941   3.327
 9866SOL    HW130497   2.949   4.953   3.377
 9866SOL    HW230498   2.801   5.017   3.348
 9867SOL     OW30499   3.696   6.571   5.907
 9867SOL    HW130500   3.697   6.613   5.998
 9867SOL    HW230501   3.628   6.617   5.850
 9868SOL     OW30502   1.213   5.189   6.056
 9868SOL    HW130503   1.133   5.133   6.035
 9868SOL    HW230504   1.183   5.282   6.081
 9869SOL     OW30505   0.795   5.099   3.174
 9869SOL    HW130506   0.851   5.132   3.251
 9869SOL    HW230507   0.853   5.093   3.092
 9870SOL     OW30508   4.461   5.441   1.744
 9870SOL    HW130509   4.461   5.443   1.844
 9870SOL    HW230510   4.424   5.527   1.709
 9871SOL     OW30511   2.298   2.812   5.858
 9871SOL    HW130512   2.352   2.829   5.775
 9871SOL    HW230513   2.292   2.713   5.874
 9872SOL     OW30514   1.373   3.724   3.006
 9872SOL    HW130515   1.292   3.734   3.063
 9872SOL    HW230516   1.415   3.634   3.023
 9873SOL     OW30517   2.051   2.377   1.557
 9873SOL    HW130518   2.122   2.444   1.580
 9873SOL    HW230519   2.093   2.287   1.547
 9874SOL     OW30520   1.105   3.868   4.502
 9874SOL    HW130521   1.033   3.928   4.535
 9874SOL    HW230522   1.108   3.785   4.558
 9875SOL     OW30523   1.424   1.573   3.047
 9875SOL    HW130524   1.405   1.475   3.044
 9875SOL    HW230525   1.357   1.619   3.105
 9876SOL     OW30526   6.426   5.985   2.171
 9876SOL    HW130527   6.499   5.930   2.212
 9876SOL    HW230528   6.362   6.015   2.243
 9877SOL     OW30529   4.112   0.532   0.958
 9877SOL    HW130530   4.159   0.451   0.992
 9877SOL    HW230531   4.167   0.574   0.886
 9878SOL     OW30532   6.461   1.550   4.961
 9878SOL    HW130533   6.377   1.554   5.015
 9878SOL    HW230534   6.450   1.609   4.880
 9879SOL     OW30535   5.242   5.236   5.404
 9879SOL    HW130536   5.217   5.332   5.389
 9879SOL    HW230537   5.218   5.183   5.322
 9880SOL     OW30538   1.018   2.573   3.638
 9880SOL    HW130539   1.029   2.479   3.606
 9880SOL    HW230540   0.921   2.590   3.660
 9881SOL     OW30541   0.214   1.474   5.953
 9881SOL    HW130542   0.279   1.454   5.879
 9881SOL    HW230543   0.249   1.548   6.009
 9882SOL     OW30544   1.749   2.582   3.375
 9882SOL    HW130545   1.685   2.635   3.432
 9882SOL    HW230546   1.709   2.567   3.285
 9883SOL     OW30547   2.920   1.399   2.336
 9883SOL    HW130548   2.913   1.334   2.411
 9883SOL    HW230549   2.921   1.350   2.249
 9884SOL     OW30550   2.923   0.479   3.621
 9884SOL    HW130551   2.886   0.563   3.580
 9884SOL    HW230552   3.002   0.448   3.567
 9885SOL     OW30553   6.825   2.899   4.664
 9885SOL    HW130554   6.830   2.883   4.566
 9885SOL    HW230555   6.885   2.975   4.689
 9886SOL     OW30556   0.150   2.785   2.104
 9886SOL    HW130557   0.237   2.751   2.067
 9886SOL    HW230558   0.117   2.723   2.175
 9887SOL     OW30559   4.172   6.061   5.988
 9887SOL    HW130560   4.230   5.989   5.950
 9887SOL    HW230561   4.177   6.142   5.929
 9888SOL     OW30562   6.643   5.454   5.092
 9888SOL    HW130563   6.546   5.467   5.071
 9888SOL    HW230564   6.655   5.368   5.142
 9889SOL     OW30565   0.656   5.729   0.703
 9889SOL    HW130566   0.623   5.822   0.685
 9889SOL    HW230567   0.756   5.729   0.703
 9890SOL     OW30568   0.825   3.073   1.074
 9890SOL    HW130569   0.746   3.072   1.137
 9890SOL    HW230570   0.819   3.153   1.015
 9891SOL     OW30571   5.074   1.231   2.391
 9891SOL    HW130572   5.015   1.159   2.354
 9891SOL    HW230573   5.034   1.320   2.369
 9892SOL     OW30574   1.097   0.355   6.661
 9892SOL    HW130575   1.155   0.436   6.650
 9892SOL    HW230576   1.003   0.377   6.633
 9893SOL     OW30577   2.255   1.438   0.096
 9893SOL    HW130578   2.187   1.434   0.169
 9893SOL    HW230579   2.232   1.513   0.033
 9894SOL     OW30580   2.426   1.105   1.543
 9894SOL    HW130581   2.372   1.177   1.586
 9894SOL    HW230582   2.443   1.032   1.609
 9895SOL     OW30583   4.244   2.574   5.626
 9895SOL    HW130584   4.287   2.605   5.542
 9895SOL    HW230585   4.220   2.653   5.682
 9896SOL     OW30586   6.380   6.562   5.908
 9896SOL    HW130587   6.347   6.468   5.916
 9896SOL    HW230588   6.328   6.621   5.969
 9897SOL     OW30589   5.939   4.997   5.179
 9897SOL    HW130590   5.993   5.080   5.165
 9897SOL    HW230591   5.872   5.013   5.251
 9898SOL     OW30592   2.687   0.022   6.797
 9898SOL    HW130593   2.782   0.051   6.788
 9898SOL    HW230594   2.668   6.968   6.731
 9899SOL     OW30595   0.193   4.693   0.296
 9899SOL    HW130596   0.125   4.746   0.345
 9899SOL    HW230597   0.251   4.754   0.242
 9900SOL     OW30598   2.449   4.763   3.501
 9900SOL    HW130599   2.467   4.754   3.403
 9900SOL    HW230600   2.454   4.674   3.545
 9901SOL     OW30601   2.040   3.452   5.523
 9901SOL    HW130602   2.049   3.457   5.622
 9901SOL    HW230603   2.111   3.508   5.480
 9902SOL     OW30604   3.047   4.562   1.163
 9902SOL    HW130605   2.992   4.643   1.139
 9902SOL    HW230606   3.002   4.511   1.236
 9903SOL     OW30607   5.500   1.297   5.192
 9903SOL    HW130608   5.437   1.295   5.270
 9903SOL    HW230609   5.458   1.345   5.116
 9904SOL     OW30610   6.265   1.599   0.468
 9904SOL    HW130611   6.272   1.558   0.559
 9904SOL    HW230612   6.331   1.674   0.460
 9905SOL     OW30613   4.846   0.196   0.358
 9905SOL    HW130614   4.861   0.223   0.263
 9905SOL    HW230615   4.864   0.098   0.368
 9906SOL     OW30616   3.074   3.492   5.417
 9906SOL    HW130617   2.988   3.478   5.369
 9906SOL    HW230618   3.057   3.501   5.515
 9907SOL     OW30619   1.555   6.139   1.534
 9907SOL    HW130620   1.496   6.161   1.456
 9907SOL    HW230621   1.516   6.063   1.585
 9908SOL     OW30622   5.395   3.502   1.850
 9908SOL    HW130623   5.321   3.541   1.905
 9908SOL    HW230624   5.433   3.572   1.790
 9909SOL     OW30625   1.742   7.002   4.424
 9909SOL    HW130626   1.666   0.048   4.424
 9909SOL    HW230627   1.787   7.003   4.335
 9910SOL     OW30628   0.239   4.511   4.213
 9910SOL    HW130629   0.212   4.479   4.122
 9910SOL    HW230630   0.276   4.603   4.206
 9911SOL     OW30631   2.633   6.608   2.247
 9911SOL    HW130632   2.667   6.514   2.257
 9911SOL    HW230633   2.639   6.636   2.152
 9912SOL     OW30634   4.711   0.892   5.530
 9912SOL    HW130635   4.641   0.858   5.593
 9912SOL    HW230636   4.802   0.870   5.565
 9913SOL     OW30637   5.096   2.868   0.590
 9913SOL    HW130638   5.046   2.913   0.516
 9913SOL    HW230639   5.187   2.843   0.557
 9914SOL     OW30640   0.345   3.201   4.476
 9914SOL    HW130641   0.255   3.242   4.460
 9914SOL    HW230642   0.405   3.269   4.519
 9915SOL     OW30643   4.360   1.217   3.714
 9915SOL    HW130644   4.299   1.297   3.713
 9915SOL    HW230645   4.453   1.247   3.736
 9916SOL     OW30646   1.529   2.935   1.490
 9916SOL    HW130647   1.571   2.872   1.555
 9916SOL    HW230648   1.495   2.883   1.411
 9917SOL     OW30649   6.250   4.682   5.703
 9917SOL    HW130650   6.182   4.614   5.729
 9917SOL    HW230651   6.220   4.729   5.620
 9918SOL     OW30652   5.017   3.083   2.535
 9918SOL    HW130653   5.106   3.040   2.551
 9918SOL    HW230654   4.996   3.080   2.437
 9919SOL     OW30655   5.042   5.588   0.468
 9919SOL    HW130656   5.006   5.496   0.448
 9919SOL    HW230657   5.091   5.586   0.555
 9920SOL     OW30658   4.462   0.987   2.507
 9920SOL    HW130659   4.436   0.894   2.484
 9920SOL    HW230660   4.533   1.019   2.445
 9921SOL     OW30661   4.335   5.064   6.237
 9921SOL    HW130662   4.246   5.095   6.273
 9921SOL    HW230663   4.399   5.052   6.313
 9922SOL     OW30664   0.215   6.267   1.357
 9922SOL    HW130665   0.271   6.271   1.274
 9922SOL    HW230666   0.171   6.356   1.371
 9923SOL     OW30667   6.340   4.131   0.136
 9923SOL    HW130668   6.268   4.191   0.104
 9923SOL    HW230669   6.313   4.090   0.224
 9924SOL     OW30670   1.398   4.657   4.547
 9924SOL    HW130671   1.456   4.582   4.579
 9924SOL    HW230672   1.454   4.726   4.501
 9925SOL     OW30673   4.685   2.571   4.134
 9925SOL    HW130674   4.746   2.500   4.170
 9925SOL    HW230675   4.662   2.635   4.208
 9926SOL     OW30676   3.570   5.161   1.436
 9926SOL    HW130677   3.546   5.064   1.441
 9926SOL    HW230678   3.492   5.216   1.468
 9927SOL     OW30679   5.308   0.599   3.930
 9927SOL    HW130680   5.239   0.670   3.922
 9927SOL    HW230681   5.383   0.617   3.867
 9928SOL     OW30682   5.091   4.361   2.354
 9928SOL    HW130683   5.108   4.427   2.280
 9928SOL    HW230684   5.142   4.276   2.334
 9929SOL     OW30685   0.986   4.157   3.410
 9929SOL    HW130686   1.069   4.155   3.355
 9929SOL    HW230687   0.942   4.067   3.408
 9930SOL     OW30688   5.485   0.774   2.711
 9930SOL    HW130689   5.511   0.707   2.780
 9930SOL    HW230690   5.444   0.726   2.632
 9931SOL     OW30691   1.524   5.514   5.347
 9931SOL    HW130692   1.499   5.428   5.390
 9931SOL    HW230693   1.454   5.583   5.367
 9932SOL     OW30694   0.225   5.788   4.459
 9932SOL    HW130695   0.259   5.803   4.366
 9932SOL    HW230696   0.184   5.697   4.466
 9933SOL     OW30697   6.588   6.880   2.667
 9933SOL    HW130698   6.528   6.800   2.667
 9933SOL    HW230699   6.682   6.852   2.686
 9934SOL     OW30700   0.154   2.564   4.635
 9934SOL    HW130701   0.110   2.610   4.712
 9934SOL    HW230702   0.161   2.627   4.558
 9935SOL     OW30703   1.893   0.213   5.755
 9935SOL    HW130704   1.861   0.126   5.718
 9935SOL    HW230705   1.843   0.288   5.711
 9936SOL     OW30706   1.703   4.626   3.593
 9936SOL    HW130707   1.641   4.550   3.612
 9936SOL    HW230708   1.790   4.611   3.639
 9937SOL     OW30709   6.743   2.778   5.851
 9937SOL    HW130710   6.713   2.684   5.869
 9937SOL    HW230711   6.832   2.776   5.805
 9938SOL     OW30712   6.583   6.276   2.677
 9938SOL    HW130713   6.632   6.328   2.746
 9938SOL    HW230714   6.485   6.298   2.681
 9939SOL     OW30715   3.350   3.088   3.503
 9939SOL    HW130716   3.404   3.017   3.458
 9939SOL    HW230717   3.313   3.053   3.589
 9940SOL     OW30718   0.311   1.106   0.989
 9940SOL    HW130719   0.408   1.099   1.008
 9940SOL    HW230720   0.295   1.090   0.891
 9941SOL     OW30721   3.557   5.804   5.176
 9941SOL    HW130722   3.631   5.759   5.127
 9941SOL    HW230723   3.583   5.898   5.197
 9942SOL     OW30724   2.646   6.244   4.037
 9942SOL    HW130725   2.557   6.204   4.055
 9942SOL    HW230726   2.694   6.259   4.124
 9943SOL     OW30727   0.477   6.489   4.830
 9943SOL    HW130728   0.514   6.532   4.911
 9943SOL    HW230729   0.518   6.530   4.748
 9944SOL     OW30730   1.660   4.699   5.908
 9944SOL    HW130731   1.759   4.699   5.918
 9944SOL    HW230732   1.635   4.666   5.817
 9945SOL     OW30733   0.254   5.577   6.511
 9945SOL    HW130734   0.175   5.585   6.449
 9945SOL    HW230735   0.304   5.663   6.512
 9946SOL     OW30736   5.525   0.647   3.769
 9946SOL    HW130737   5.506   0.635   3.671
 9946SOL    HW230738   5.585   0.726   3.781
 9947SOL     OW30739   6.144   4.203   3.946
 9947SOL    HW130740   6.085   4.277   3.978
 9947SOL    HW230741   6.089   4.119   3.935
 9948SOL     OW30742   5.381   4.419   3.611
 9948SOL    HW130743   5.371   4.334   3.560
 9948SOL    HW230744   5.291   4.456   3.632
 9949SOL     OW30745   6.077   4.654   1.938
 9949SOL    HW130746   6.123   4.665   2.026
 9949SOL    HW230747   6.004   4.721   1.930
 9950SOL     OW30748   4.107   6.295   0.158
 9950SOL    HW130749   4.037   6.250   0.214
 9950SOL    HW230750   4.172   6.342   0.217
 9951SOL     OW30751   5.875   2.986   2.746
 9951SOL    HW130752   5.838   2.911   2.801
 9951SOL    HW230753   5.974   2.975   2.737
 9952SOL     OW30754   0.822   4.630   6.201
 9952SOL    HW130755   0.723   4.646   6.197
 9952SOL    HW230756   0.870   4.715   6.176
 9953SOL     OW30757   5.482   3.182   3.581
 9953SOL    HW130758   5.495   3.281   3.576
 9953SOL    HW230759   5.393   3.157   3.542
 9954SOL     OW30760   5.248   0.972   5.127
 9954SOL    HW130761   5.247   1.051   5.066
 9954SOL    HW230762   5.154   0.939   5.140
 9955SOL     OW30763   0.870   5.241   4.918
 9955SOL    HW130764   0.909   5.265   5.006
 9955SOL    HW230765   0.919   5.288   4.845
 9956SOL     OW30766   0.761   5.830   0.137
 9956SOL    HW130767   0.674   5.855   0.094
 9956SOL    HW230768   0.834   5.887   0.099
 9957SOL     OW30769   5.748   5.683   2.372
 9957SOL    HW130770   5.797   5.755   2.322
 9957SOL    HW230771   5.811   5.635   2.432
 9958SOL     OW30772   3.009   4.535   0.514
 9958SOL    HW130773   3.094   4.505   0.469
 9958SOL    HW230774   3.020   4.529   0.613
 9959SOL     OW30775   3.735   4.094   1.037
 9959SOL    HW130776   3.782   4.007   1.057
 9959SOL    HW230777   3.780   4.139   0.959
 9960SOL     OW30778   0.675   1.024   2.087
 9960SOL    HW130779   0.760   0.980   2.061
 9960SOL    HW230780   0.670   1.030   2.187
 9961SOL     OW30781   1.873   4.417   4.551
 9961SOL    HW130782   1.837   4.447   4.462
 9961SOL    HW230783   1.973   4.409   4.545
 9962SOL     OW30784   6.167   6.540   4.555
 9962SOL    HW130785   6.220   6.582   4.481
 9962SOL    HW230786   6.227   6.522   4.633
 9963SOL     OW30787   3.291   2.287   0.430
 9963SOL    HW130788   3.203   2.258   0.394
 9963SOL    HW230789   3.359   2.284   0.356
 9964SOL     OW30790   5.530   6.282   4.579
 9964SOL    HW130791   5.629   6.282   4.593
 9964SOL    HW230792   5.488   6.349   4.639
 9965SOL     OW30793   4.815   0.193   1.883
 9965SOL    HW130794   4.858   0.138   1.954
 9965SOL    HW230795   4.809   0.140   1.799
 9966SOL     OW30796   6.788   1.233   2.583
 9966SOL    HW130797   6.767   1.222   2.680
 9966SOL    HW230798   6.749   1.319   2.550
 9967SOL     OW30799   0.882   5.348   0.529
 9967SOL    HW130800   0.792   5.388   0.510
 9967SOL    HW230801   0.887   5.257   0.488
 9968SOL     OW30802   3.453   2.997   2.877
 9968SOL    HW130803   3.432   2.948   2.792
 9968SOL    HW230804   3.368   3.016   2.926
 9969SOL     OW30805   1.518   3.085   1.004
 9969SOL    HW130806   1.485   3.094   1.098
 9969SOL    HW230807   1.441   3.073   0.942
 9970SOL     OW30808   6.974   4.442   2.891
 9970SOL    HW130809   6.990   4.460   2.794
 9970SOL    HW230810   0.025   4.486   2.946
 9971SOL     OW30811   2.775   6.832   7.008
 9971SOL    HW130812   2.715   6.866   6.935
 9971SOL    HW230813   2.732   6.846   0.077
 9972SOL     OW30814   6.944   4.962   1.846
 9972SOL    HW130815   6.865   4.911   1.880
 9972SOL    HW230816   6.938   5.057   1.876
 9973SOL     OW30817   5.127   6.627   3.996
 9973SOL    HW130818   5.138   6.727   3.997
 9973SOL    HW230819   5.211   6.584   4.027
 9974SOL     OW30820   2.750   1.106   4.047
 9974SOL    HW130821   2.656   1.141   4.047
 9974SOL    HW230822   2.753   1.020   3.997
 9975SOL     OW30823   6.403   3.853   1.673
 9975SOL    HW130824   6.460   3.918   1.623
 9975SOL    HW230825   6.345   3.803   1.609
 9976SOL     OW30826   2.912   6.169   4.645
 9976SOL    HW130827   2.823   6.126   4.658
 9976SOL    HW230828   2.952   6.191   4.734
 9977SOL     OW30829   6.508   4.872   4.061
 9977SOL    HW130830   6.542   4.953   4.013
 9977SOL    HW230831   6.586   4.814   4.088
 9978SOL     OW30832   0.253   3.019   4.171
 9978SOL    HW130833   0.170   2.989   4.125
 9978SOL    HW230834   0.309   2.939   4.194
 9979SOL     OW30835   0.864   3.335   5.427
 9979SOL    HW130836   0.963   3.332   5.436
 9979SOL    HW230837   0.839   3.391   5.348
 9980SOL     OW30838   3.021   6.639   5.658
 9980SOL    HW130839   2.985   6.732   5.651
 9980SOL    HW230840   2.951   6.574   5.629
 9981SOL     OW30841   3.320   1.751   3.253
 9981SOL    HW130842   3.374   1.684   3.304
 9981SOL    HW230843   3.255   1.703   3.194
 9982SOL     OW30844   6.126   0.052   2.740
 9982SOL    HW130845   6.138   0.009   2.651
 9982SOL    HW230846   6.051   0.117   2.736
 9983SOL     OW30847   6.707   0.483   1.055
 9983SOL    HW130848   6.781   0.520   1.000
 9983SOL    HW230849   6.691   0.387   1.029
 9984SOL     OW30850   3.277   0.569   6.873
 9984SOL    HW130851   3.257   0.476   6.904
 9984SOL    HW230852   3.207   0.631   6.907
 9985SOL     OW30853   1.613   1.885   0.589
 9985SOL    HW130854   1.643   1.942   0.666
 9985SOL    HW230855   1.693   1.859   0.534
 9986SOL     OW30856   5.347   4.050   5.220
 9986SOL    HW130857   5.328   4.142   5.186
 9986SOL    HW230858   5.327   3.983   5.149
 9987SOL     OW30859   0.325   4.517   4.865
 9987SOL    HW130860   0.363   4.471   4.785
 9987SOL    HW230861   0.319   4.452   4.941
 9988SOL     OW30862   6.175   1.243   3.954
 9988SOL    HW130863   6.131   1.215   3.869
 9988SOL    HW230864   6.114   1.226   4.031
 9989SOL     OW30865   1.553   2.678   5.247
 9989SOL    HW130866   1.570   2.584   5.216
 9989SOL    HW230867   1.530   2.736   5.169
 9990SOL     OW30868   0.849   4.388   1.127
 9990SOL    HW130869   0.754   4.368   1.103
 9990SOL    HW230870   0.879   4.469   1.076
 9991SOL     OW30871   3.936   2.177   3.614
 9991SOL    HW130872   3.937   2.129   3.702
 9991SOL    HW230873   3.855   2.150   3.562
 9992SOL     OW30874   6.598   4.829   6.319
 9992SOL    HW130875   6.607   4.854   6.222
 9992SOL    HW230876   6.678   4.861   6.369
 9993SOL     OW30877   1.296   1.153   1.778
 9993SOL    HW130878   1.213   1.115   1.817
 9993SOL    HW230879   1.320   1.102   1.695
 9994SOL     OW30880   5.797   4.554   3.408
 9994SOL    HW130881   5.699   4.532   3.405
 9994SOL    HW230882   5.843   4.514   3.329
 9995SOL     OW30883   5.247   1.736   4.529
 9995SOL    HW130884   5.224   1.639   4.524
 9995SOL    HW230885   5.346   1.747   4.523
 9996SOL     OW30886   3.411   2.884   1.185
 9996SOL    HW130887   3.324   2.848   1.218
 9996SOL    HW230888   3.402   2.911   1.089
 9997SOL     OW30889   2.652   0.854   4.568
 9997SOL    HW130890   2.571   0.911   4.553
 9997SOL    HW230891   2.625   0.766   4.606
 9998SOL     OW30892   6.295   6.165   5.430
 9998SOL    HW130893   6.222   6.223   5.466
 9998SOL    HW230894   6.363   6.222   5.384
 9999SOL     OW30895   0.515   0.790   5.225
 9999SOL    HW130896   0.456   0.716   5.192
 9999SOL    HW230897   0.461   0.873   5.238
10000SOL     OW30898   6.626   5.017   0.673
10000SOL    HW130899   6.536   5.061   0.673
10000SOL    HW230900   6.615   4.918   0.673
10001SOL     OW30901   3.662   0.532   3.917
10001SOL    HW130902   3.584   0.471   3.904
10001SOL    HW230903   3.702   0.516   4.008
10002SOL     OW30904   1.135   2.333   1.758
10002SOL    HW130905   1.151   2.242   1.797
10002SOL    HW230906   1.207   2.396   1.789
10003SOL     OW30907   5.399   3.342   1.313
10003SOL    HW130908   5.424   3.257   1.267
10003SOL    HW230909   5.323   3.385   1.264
10004SOL     OW30910   5.891   3.523   4.391
10004SOL    HW130911   5.966   3.484   4.338
10004SOL    HW230912   5.926   3.556   4.478
10005SOL     OW30913   4.582   6.597   3.213
10005SOL    HW130914   4.514   6.571   3.282
10005SOL    HW230915   4.593   6.696   3.214
10006SOL     OW30916   5.270   2.825   4.163
10006SOL    HW130917   5.297   2.867   4.076
10006SOL    HW230918   5.249   2.897   4.229
10007SOL     OW30919   5.086   5.701   3.822
10007SOL    HW130920   5.135   5.785   3.801
10007SOL    HW230921   5.143   5.622   3.802
10008SOL     OW30922   2.426   6.504   4.199
10008SOL    HW130923   2.521   6.472   4.208
10008SOL    HW230924   2.371   6.467   4.274
10009SOL     OW30925   2.516   4.311   1.780
10009SOL    HW130926   2.482   4.400   1.812
10009SOL    HW230927   2.602   4.324   1.732
10010SOL     OW30928   5.346   0.426   5.301
10010SOL    HW130929   5.321   0.518   5.271
10010SOL    HW230930   5.327   0.417   5.399
10011SOL     OW30931   6.148   6.817   3.405
10011SOL    HW130932   6.138   6.910   3.441
10011SOL    HW230933   6.187   6.758   3.476
10012SOL     OW30934   4.748   1.737   5.013
10012SOL    HW130935   4.804   1.736   5.096
10012SOL    HW230936   4.657   1.703   5.034
10013SOL     OW30937   1.857   0.834   1.216
10013SOL    HW130938   1.792   0.907   1.193
10013SOL    HW230939   1.911   0.862   1.296
10014SOL     OW30940   1.261   4.908   5.748
10014SOL    HW130941   1.259   5.007   5.758
10014SOL    HW230942   1.291   4.884   5.656
10015SOL     OW30943   2.581   5.945   6.323
10015SOL    HW130944   2.653   5.951   6.393
10015SOL    HW230945   2.501   5.900   6.362
10016SOL     OW30946   2.410   1.490   5.240
10016SOL    HW130947   2.326   1.540   5.258
10016SOL    HW230948   2.391   1.413   5.178
10017SOL     OW30949   6.264   2.001   2.869
10017SOL    HW130950   6.254   1.911   2.826
10017SOL    HW230951   6.312   2.063   2.807
10018SOL     OW30952   4.330   6.979   5.879
10018SOL    HW130953   4.339   6.961   5.781
10018SOL    HW230954   4.233   6.982   5.903
10019SOL     OW30955   0.680   0.699   3.660
10019SOL    HW130956   0.627   0.781   3.640
10019SOL    HW230957   0.714   0.659   3.575
10020SOL     OW30958   1.125   3.688   0.396
10020SOL    HW130959   1.040   3.722   0.436
10020SOL    HW230960   1.203   3.721   0.449
10021SOL     OW30961   5.116   2.724   1.013
10021SOL    HW130962   5.195   2.671   1.045
10021SOL    HW230963   5.147   2.794   0.949
10022SOL     OW30964   2.376   1.214   5.905
10022SOL    HW130965   2.423   1.259   5.829
10022SOL    HW230966   2.379   1.115   5.892
10023SOL     OW30967   0.961   3.442   0.422
10023SOL    HW130968   1.006   3.360   0.386
10023SOL    HW230969   1.022   3.521   0.412
10024SOL     OW30970   0.679   3.648   2.426
10024SOL    HW130971   0.682   3.748   2.421
10024SOL    HW230972   0.649   3.611   2.338
10025SOL     OW30973   1.766   1.469   0.589
10025SOL    HW130974   1.666   1.473   0.580
10025SOL    HW230975   1.800   1.389   0.540
10026SOL     OW30976   5.914   0.458   4.282
10026SOL    HW130977   5.920   0.523   4.357
10026SOL    HW230978   5.990   0.393   4.287
10027SOL     OW30979   6.039   2.906   5.907
10027SOL    HW130980   6.071   2.998   5.929
10027SOL    HW230981   6.089   2.839   5.962
10028SOL     OW30982   1.563   1.647   1.167
10028SOL    HW130983   1.510   1.660   1.083
10028SOL    HW230984   1.619   1.727   1.184
10029SOL     OW30985   3.701   1.385   4.837
10029SOL    HW130986   3.732   1.334   4.757
10029SOL    HW230987   3.683   1.321   4.913
10030SOL     OW30988   0.903   1.093   1.715
10030SOL    HW130989   0.907   0.993   1.716
10030SOL    HW230990   0.810   1.123   1.692
10031SOL     OW30991   0.341   5.295   3.072
10031SOL    HW130992   0.366   5.334   3.160
10031SOL    HW230993   0.242   5.295   3.062
10032SOL     OW30994   3.807   2.144   5.242
10032SOL    HW130995   3.863   2.158   5.161
10032SOL    HW230996   3.731   2.082   5.220
10033SOL     OW30997   6.153   3.108   4.338
10033SOL    HW130998   6.191   3.036   4.395
10033SOL    HW230999   6.060   3.084   4.310
10034SOL     OW31000   3.896   6.783   5.910
10034SOL    HW131001   3.906   6.713   5.981
10034SOL    HW231002   3.841   6.747   5.835
10035SOL     OW31003   0.212   6.018   3.973
10035SOL    HW131004   0.169   6.065   4.050
10035SOL    HW231005   0.300   6.060   3.952
10036SOL     OW31006   6.252   0.096   0.055
10036SOL    HW131007   6.182   0.025   0.059
10036SOL    HW231008   6.269   0.131   0.147
10037SOL     OW31009   7.012   0.399   1.536
10037SOL    HW131010   6.915   0.412   1.511
10037SOL    HW231011   0.041   0.486   1.525
10038SOL     OW31012   5.557   0.003   1.541
10038SOL    HW131013   5.491   6.963   1.496
10038SOL    HW231014   5.517   0.042   1.623
10039SOL     OW31015   3.592   0.756   3.022
10039SOL    HW131016   3.676   0.810   3.031
10039SOL    HW231017   3.612   0.659   3.036
10040SOL     OW31018   0.800   1.547   0.617
10040SOL    HW131019   0.774   1.507   0.705
10040SOL    HW231020   0.898   1.534   0.602
10041SOL     OW31021   0.490   6.708   0.173
10041SOL    HW131022   0.540   6.733   0.255
10041SOL    HW231023   0.426   6.781   0.149
10042SOL     OW31024   6.501   1.944   4.282
10042SOL    HW131025   6.540   1.995   4.205
10042SOL    HW231026   6.539   1.979   4.367
10043SOL     OW31027   2.375   3.142   5.406
10043SOL    HW131028   2.296   3.088   5.435
10043SOL    HW231029   2.409   3.106   5.319
10044SOL     OW31030   4.086   0.469   6.084
10044SOL    HW131031   4.084   0.527   6.002
10044SOL    HW231032   3.993   0.436   6.103
10045SOL     OW31033   2.611   0.023   1.115
10045SOL    HW131034   2.612   7.004   1.207
10045SOL    HW231035   2.574   6.974   1.051
10046SOL     OW31036   0.775   6.576   0.058
10046SOL    HW131037   0.854   6.622   0.016
10046SOL    HW231038   0.737   6.634   0.129
10047SOL     OW31039   1.679   3.997   1.287
10047SOL    HW131040   1.690   4.035   1.379
10047SOL    HW231041   1.584   4.009   1.257
10048SOL     OW31042   6.770   2.948   1.242
10048SOL    HW131043   6.700   2.995   1.189
10048SOL    HW231044   6.774   2.852   1.214
10049SOL     OW31045   6.741   2.091   4.447
10049SOL    HW131046   6.678   2.167   4.427
10049SOL    HW231047   6.813   2.088   4.378
10050SOL     OW31048   0.274   1.736   6.067
10050SOL    HW131049   0.362   1.782   6.079
10050SOL    HW231050   0.217   1.787   6.003
10051SOL     OW31051   1.452   0.474   2.416
10051SOL    HW131052   1.528   0.470   2.480
10051SOL    HW231053   1.453   0.393   2.357
10052SOL     OW31054   0.837   7.010   4.693
10052SOL    HW131055   0.901   6.954   4.640
10052SOL    HW231056   0.831   0.081   4.651
10053SOL     OW31057   5.839   5.609   1.997
10053SOL    HW131058   5.803   5.536   2.054
10053SOL    HW231059   5.865   5.572   1.908
10054SOL     OW31060   4.809   4.675   3.361
10054SOL    HW131061   4.722   4.700   3.319
10054SOL    HW231062   4.844   4.753   3.414
10055SOL     OW31063   1.966   1.651   6.746
10055SOL    HW131064   1.870   1.630   6.732
10055SOL    HW231065   1.994   1.724   6.684
10056SOL     OW31066   4.851   3.177   4.514
10056SOL    HW131067   4.862   3.214   4.421
10056SOL    HW231068   4.837   3.078   4.509
10057SOL     OW31069   5.918   4.221   4.984
10057SOL    HW131070   5.881   4.203   4.893
10057SOL    HW231071   5.959   4.138   5.021
10058SOL     OW31072   5.641   3.818   4.115
10058SOL    HW131073   5.676   3.725   4.125
10058SOL    HW231074   5.546   3.816   4.085
10059SOL     OW31075   5.336   6.467   6.118
10059SOL    HW131076   5.336   6.416   6.204
10059SOL    HW231077   5.424   6.454   6.072
10060SOL     OW31078   3.440   1.177   1.854
10060SOL    HW131079   3.417   1.273   1.870
10060SOL    HW231080   3.500   1.144   1.927
10061SOL     OW31081   3.842   0.141   3.043
10061SOL    HW131082   3.888   0.054   3.029
10061SOL    HW231083   3.856   0.171   3.137
10062SOL     OW31084   6.079   6.671   4.076
10062SOL    HW131085   6.029   6.695   4.160
10062SOL    HW231086   6.090   6.753   4.019
10063SOL     OW31087   4.218   2.199   2.762
10063SOL    HW131088   4.291   2.265   2.748
10063SOL    HW231089   4.257   2.108   2.778
10064SOL     OW31090   1.795   6.358   2.179
10064SOL    HW131091   1.869   6.291   2.178
10064SOL    HW231092   1.834   6.449   2.195
10065SOL     OW31093   6.671   1.768   1.208
10065SOL    HW131094   6.764   1.803   1.223
10065SOL    HW231095   6.607   1.844   1.204
10066SOL     OW31096   6.008   4.200   3.514
10066SOL    HW131097   5.984   4.277   3.574
10066SOL    HW231098   6.089   4.155   3.550
10067SOL     OW31099   5.576   3.537   5.222
10067SOL    HW131100   5.487   3.505   5.190
10067SOL    HW231101   5.567   3.575   5.314
10068SOL     OW31102   2.120   4.342   3.147
10068SOL    HW131103   2.116   4.422   3.086
10068SOL    HW231104   2.027   4.320   3.178
10069SOL     OW31105   3.127   5.498   1.072
10069SOL    HW131106   3.075   5.414   1.089
10069SOL    HW231107   3.220   5.474   1.047
10070SOL     OW31108   5.133   0.554   0.104
10070SOL    HW131109   5.107   0.491   0.177
10070SOL    HW231110   5.131   0.506   0.016
10071SOL     OW31111   5.392   1.178   4.697
10071SOL    HW131112   5.413   1.272   4.670
10071SOL    HW231113   5.411   1.116   4.621
10072SOL     OW31114   5.985   3.109   1.634
10072SOL    HW131115   6.043   3.088   1.714
10072SOL    HW231116   5.975   3.026   1.579
10073SOL     OW31117   5.566   5.403   5.425
10073SOL    HW131118   5.525   5.313   5.411
10073SOL    HW231119   5.545   5.462   5.347
10074SOL     OW31120   2.322   4.708   1.312
10074SOL    HW131121   2.274   4.790   1.345
10074SOL    HW231122   2.419   4.714   1.337
10075SOL     OW31123   0.610   3.639   1.492
10075SOL    HW131124   0.575   3.591   1.572
10075SOL    HW231125   0.631   3.573   1.420
10076SOL     OW31126   6.076   5.045   4.068
10076SOL    HW131127   6.147   5.071   4.133
10076SOL    HW231128   6.106   5.069   3.975
10077SOL     OW31129   4.312   4.108   6.943
10077SOL    HW131130   4.269   4.193   6.911
10077SOL    HW231131   4.359   4.125   0.010
10078SOL     OW31132   5.878   6.204   3.620
10078SOL    HW131133   5.816   6.179   3.546
10078SOL    HW231134   5.959   6.250   3.581
10079SOL     OW31135   6.016   5.040   3.527
10079SOL    HW131136   6.110   5.071   3.535
10079SOL    HW231137   6.014   4.945   3.496
10080SOL     OW31138   5.102   2.977   4.314
10080SOL    HW131139   5.033   3.032   4.267
10080SOL    HW231140   5.059   2.923   4.386
10081SOL     OW31141   1.404   5.192   0.958
10081SOL    HW131142   1.357   5.104   0.956
10081SOL    HW231143   1.442   5.212   0.868
10082SOL     OW31144   6.654   4.325   2.159
10082SOL    HW131145   6.701   4.273   2.230
10082SOL    HW231146   6.713   4.335   2.079
10083SOL     OW31147   3.155   5.629   2.507
10083SOL    HW131148   3.117   5.602   2.595
10083SOL    HW231149   3.222   5.703   2.521
10084SOL     OW31150   1.918   4.164   4.355
10084SOL    HW131151   1.838   4.212   4.392
10084SOL    HW231152   2.002   4.208   4.388
10085SOL     OW31153   3.289   6.545   1.665
10085SOL    HW131154   3.315   6.457   1.625
10085SOL    HW231155   3.279   6.536   1.764
10086SOL     OW31156   2.579   1.063   2.742
10086SOL    HW131157   2.543   1.107   2.824
10086SOL    HW231158   2.672   1.032   2.758
10087SOL     OW31159   1.479   5.342   0.119
10087SOL    HW131160   1.429   5.318   0.203
10087SOL    HW231161   1.559   5.397   0.143
10088SOL     OW31162   5.488   2.004   0.817
10088SOL    HW131163   5.496   2.047   0.727
10088SOL    HW231164   5.555   2.045   0.879
10089SOL     OW31165   3.347   0.088   3.541
10089SOL    HW131166   3.299   0.168   3.576
10089SOL    HW231167   3.311   0.006   3.584
10090SOL     OW31168   3.267   6.072   3.199
10090SOL    HW131169   3.182   6.072   3.251
10090SOL    HW231170   3.308   6.163   3.202
10091SOL     OW31171   4.547   6.204   3.455
10091SOL    HW131172   4.556   6.197   3.555
10091SOL    HW231173   4.486   6.280   3.433
10092SOL     OW31174   6.129   1.317   1.872
10092SOL    HW131175   6.176   1.257   1.807
10092SOL    HW231176   6.192   1.345   1.944
10093SOL     OW31177   4.307   4.347   6.024
10093SOL    HW131178   4.289   4.255   5.990
10093SOL    HW231179   4.401   4.373   6.001
10094SOL     OW31180   4.443   3.198   0.085
10094SOL    HW131181   4.345   3.179   0.098
10094SOL    HW231182   4.466   3.189   7.008
10095SOL     OW31183   4.344   2.693   5.341
10095SOL    HW131184   4.275   2.634   5.298
10095SOL    HW231185   4.424   2.699   5.282
10096SOL     OW31186   6.205   4.604   1.460
10096SOL    HW131187   6.165   4.520   1.424
10096SOL    HW231188   6.187   4.680   1.397
10097SOL     OW31189   0.637   0.448   0.688
10097SOL    HW131190   0.630   0.548   0.691
10097SOL    HW231191   0.667   0.415   0.778
10098SOL     OW31192   3.780   4.600   0.765
10098SOL    HW131193   3.699   4.613   0.823
10098SOL    HW231194   3.775   4.662   0.687
10099SOL     OW31195   0.346   6.184   2.717
10099SOL    HW131196   0.366   6.091   2.746
10099SOL    HW231197   0.346   6.245   2.796
10100SOL     OW31198   5.791   5.730   3.858
10100SOL    HW131199   5.795   5.730   3.958
10100SOL    HW231200   5.728   5.801   3.827
10101SOL     OW31201   6.987   2.350   6.360
10101SOL    HW131202   0.026   2.431   6.370
10101SOL    HW231203   6.980   2.303   6.448
10102SOL     OW31204   7.002   4.922   4.107
10102SOL    HW131205   0.036   4.964   4.034
10102SOL    HW231206   0.038   4.916   4.190
10103SOL     OW31207   0.738   0.620   6.510
10103SOL    HW131208   0.736   0.645   6.607
10103SOL    HW231209   0.770   0.526   6.501
10104SOL     OW31210   3.052   1.488   4.353
10104SOL    HW131211   2.972   1.492   4.293
10104SOL    HW231212   3.076   1.580   4.383
10105SOL     OW31213   3.454   1.439   4.389
10105SOL    HW131214   3.367   1.413   4.431
10105SOL    HW231215   3.501   1.505   4.448
10106SOL     OW31216   6.980   3.520   2.031
10106SOL    HW131217   0.014   3.437   2.014
10106SOL    HW231218   6.883   3.499   2.026
10107SOL     OW31219   4.656   5.843   4.888
10107SOL    HW131220   4.657   5.938   4.855
10107SOL    HW231221   4.603   5.839   4.973
10108SOL     OW31222   3.500   2.138   4.718
10108SOL    HW131223   3.412   2.138   4.670
10108SOL    HW231224   3.509   2.223   4.769
10109SOL     OW31225   1.215   2.908   0.689
10109SOL    HW131226   1.202   2.874   0.596
10109SOL    HW231227   1.136   2.882   0.745
10110SOL     OW31228   6.316   6.253   1.767
10110SOL    HW131229   6.342   6.332   1.711
10110SOL    HW231230   6.346   6.268   1.861
10111SOL     OW31231   6.423   2.240   1.276
10111SOL    HW131232   6.420   2.321   1.218
10111SOL    HW231233   6.518   2.219   1.300
10112SOL     OW31234   0.147   3.024   3.585
10112SOL    HW131235   0.067   3.080   3.567
10112SOL    HW231236   0.182   3.044   3.677
10113SOL     OW31237   6.844   6.644   5.993
10113SOL    HW131238   6.911   6.597   6.050
10113SOL    HW231239   6.757   6.651   6.042
10114SOL     OW31240   5.957   4.070   1.457
10114SOL    HW131241   6.020   4.069   1.535
10114SOL    HW231242   5.918   4.162   1.448
10115SOL     OW31243   2.510   1.765   6.783
10115SOL    HW131244   2.432   1.717   6.741
10115SOL    HW231245   2.579   1.783   6.713
10116SOL     OW31246   1.156   0.010   6.005
10116SOL    HW131247   1.075   0.058   5.970
10116SOL    HW231248   1.190   6.967   5.935
10117SOL     OW31249   0.932   4.606   1.011
10117SOL    HW131250   0.869   4.674   1.047
10117SOL    HW231251   0.953   4.627   0.915
10118SOL     OW31252   3.901   5.724   3.268
10118SOL    HW131253   3.853   5.644   3.232
10118SOL    HW231254   3.891   5.800   3.204
10119SOL     OW31255   5.992   5.523   6.832
10119SOL    HW131256   5.970   5.458   6.905
10119SOL    HW231257   5.988   5.616   6.868
10120SOL     OW31258   2.317   2.123   2.486
10120SOL    HW131259   2.375   2.058   2.438
10120SOL    HW231260   2.289   2.084   2.574
10121SOL     OW31261   6.664   6.171   1.904
10121SOL    HW131262   6.637   6.183   1.808
10121SOL    HW231263   6.583   6.182   1.963
10122SOL     OW31264   1.583   6.877   3.974
10122SOL    HW131265   1.675   6.846   3.948
10122SOL    HW231266   1.581   6.977   3.976
10123SOL     OW31267   6.169   6.141   6.700
10123SOL    HW131268   6.243   6.082   6.668
10123SOL    HW231269   6.153   6.213   6.633
10124SOL     OW31270   0.464   4.753   3.376
10124SOL    HW131271   0.375   4.760   3.421
10124SOL    HW231272   0.537   4.758   3.443
10125SOL     OW31273   2.445   2.621   3.814
10125SOL    HW131274   2.429   2.684   3.890
10125SOL    HW231275   2.510   2.551   3.843
10126SOL     OW31276   6.775   6.073   4.634
10126SOL    HW131277   6.761   6.141   4.562
10126SOL    HW231278   6.806   5.987   4.593
10127SOL     OW31279   2.358   0.583   5.224
10127SOL    HW131280   2.417   0.532   5.286
10127SOL    HW231281   2.289   0.632   5.278
10128SOL     OW31282   3.165   0.395   0.581
10128SOL    HW131283   3.131   0.335   0.653
10128SOL    HW231284   3.180   0.487   0.618
10129SOL     OW31285   6.873   2.454   5.646
10129SOL    HW131286   6.929   2.535   5.663
10129SOL    HW231287   6.776   2.477   5.661
10130SOL     OW31288   0.840   2.767   3.338
10130SOL    HW131289   0.874   2.813   3.421
10130SOL    HW231290   0.740   2.765   3.341
10131SOL     OW31291   2.465   0.722   4.798
10131SOL    HW131292   2.537   0.676   4.746
10131SOL    HW231293   2.396   0.655   4.825
10132SOL     OW31294   5.911   1.051   1.973
10132SOL    HW131295   5.934   1.038   1.877
10132SOL    HW231296   5.924   1.147   1.999
10133SOL     OW31297   4.801   5.384   1.234
10133SOL    HW131298   4.799   5.481   1.211
10133SOL    HW231299   4.881   5.341   1.192
10134SOL     OW31300   6.589   0.928   2.688
10134SOL    HW131301   6.548   0.855   2.742
10134SOL    HW231302   6.607   0.895   2.595
10135SOL     OW31303   5.903   6.718   3.136
10135SOL    HW131304   5.820   6.698   3.084
10135SOL    HW231305   5.893   6.806   3.182
10136SOL     OW31306   5.071   0.234   3.285
10136SOL    HW131307   5.167   0.263   3.288
10136SOL    HW231308   5.059   0.162   3.216
10137SOL     OW31309   6.031   5.796   2.017
10137SOL    HW131310   5.956   5.730   2.021
10137SOL    HW231311   6.092   5.773   1.941
10138SOL     OW31312   0.612   1.158   1.687
10138SOL    HW131313   0.636   1.253   1.669
10138SOL    HW231314   0.571   1.151   1.778
10139SOL     OW31315   4.322   2.098   0.419
10139SOL    HW131316   4.391   2.073   0.487
10139SOL    HW231317   4.311   2.197   0.417
10140SOL     OW31318   6.044   6.569   3.322
10140SOL    HW131319   5.989   6.582   3.240
10140SOL    HW231320   6.082   6.657   3.350
10141SOL     OW31321   0.612   1.759   5.683
10141SOL    HW131322   0.565   1.714   5.607
10141SOL    HW231323   0.658   1.841   5.649
10142SOL     OW31324   3.891   5.584   1.655
10142SOL    HW131325   3.945   5.659   1.617
10142SOL    HW231326   3.807   5.574   1.603
10143SOL     OW31327   0.644   3.408   6.354
10143SOL    HW131328   0.694   3.476   6.299
10143SOL    HW231329   0.604   3.453   6.434
10144SOL     OW31330   4.562   0.045   2.727
10144SOL    HW131331   4.545   0.143   2.723
10144SOL    HW231332   4.649   0.028   2.775
10145SOL     OW31333   6.004   1.181   5.319
10145SOL    HW131334   6.066   1.169   5.242
10145SOL    HW231335   5.916   1.215   5.286
10146SOL     OW31336   1.937   1.082   5.566
10146SOL    HW131337   1.840   1.066   5.548
10146SOL    HW231338   1.948   1.172   5.609
10147SOL     OW31339   4.011   4.733   6.846
10147SOL    HW131340   4.106   4.757   6.868
10147SOL    HW231341   4.009   4.645   6.798
10148SOL     OW31342   6.647   5.573   6.115
10148SOL    HW131343   6.549   5.552   6.108
10148SOL    HW231344   6.659   5.672   6.126
10149SOL     OW31345   3.447   2.924   4.556
10149SOL    HW131346   3.361   2.971   4.576
10149SOL    HW231347   3.507   2.929   4.636
10150SOL     OW31348   6.632   4.227   6.789
10150SOL    HW131349   6.590   4.189   6.706
10150SOL    HW231350   6.593   4.183   6.869
10151SOL     OW31351   0.356   0.462   6.955
10151SOL    HW131352   0.441   0.412   6.934
10151SOL    HW231353   0.369   0.559   6.934
10152SOL     OW31354   3.384   6.990   3.973
10152SOL    HW131355   3.296   0.005   4.004
10152SOL    HW231356   3.379   6.891   3.961
10153SOL     OW31357   3.973   4.632   0.298
10153SOL    HW131358   3.920   4.551   0.273
10153SOL    HW231359   4.044   4.648   0.229
10154SOL     OW31360   4.696   5.012   6.283
10154SOL    HW131361   4.621   5.079   6.289
10154SOL    HW231362   4.672   4.931   6.336
10155SOL     OW31363   4.782   2.920   4.539
10155SOL    HW131364   4.751   2.881   4.626
10155SOL    HW231365   4.746   2.866   4.463
10156SOL     OW31366   3.107   2.166   6.480
10156SOL    HW131367   3.020   2.118   6.467
10156SOL    HW231368   3.107   2.250   6.425
10157SOL     OW31369   0.359   5.576   2.776
10157SOL    HW131370   0.387   5.497   2.721
10157SOL    HW231371   0.366   5.659   2.721
10158SOL     OW31372   0.434   4.661   5.753
10158SOL    HW131373   0.488   4.730   5.802
10158SOL    HW231374   0.415   4.693   5.661
10159SOL     OW31375   4.248   3.153   1.724
10159SOL    HW131376   4.220   3.176   1.817
10159SOL    HW231377   4.247   3.053   1.712
10160SOL     OW31378   7.001   4.552   2.642
10160SOL    HW131379   6.990   4.651   2.645
10160SOL    HW231380   6.992   4.520   2.547
10161SOL     OW31381   6.507   2.730   0.184
10161SOL    HW131382   6.506   2.701   0.088
10161SOL    HW231383   6.422   2.779   0.205
10162SOL     OW31384   1.793   2.083   2.568
10162SOL    HW131385   1.880   2.104   2.524
10162SOL    HW231386   1.725   2.152   2.544
10163SOL     OW31387   4.295   5.229   4.435
10163SOL    HW131388   4.348   5.228   4.350
10163SOL    HW231389   4.219   5.293   4.426
10164SOL     OW31390   0.660   2.072   3.607
10164SOL    HW131391   0.667   1.972   3.599
10164SOL    HW231392   0.612   2.108   3.528
10165SOL     OW31393   1.963   2.875   3.651
10165SOL    HW131394   1.921   2.810   3.714
10165SOL    HW231395   1.976   2.963   3.698
10166SOL     OW31396   3.228   6.518   4.110
10166SOL    HW131397   3.190   6.456   4.179
10166SOL    HW231398   3.173   6.601   4.106
10167SOL     OW31399   3.738   2.154   0.230
10167SOL    HW131400   3.829   2.193   0.222
10167SOL    HW231401   3.739   2.078   0.296
10168SOL     OW31402   0.411   1.235   6.298
10168SOL    HW131403   0.339   1.236   6.367
10168SOL    HW231404   0.370   1.221   6.208
10169SOL     OW31405   4.732   4.846   2.434
10169SOL    HW131406   4.795   4.781   2.392
10169SOL    HW231407   4.784   4.912   2.488
10170SOL     OW31408   4.192   6.995   0.108
10170SOL    HW131409   4.280   7.010   0.154
10170SOL    HW231410   4.160   0.061   0.068
10171SOL     OW31411   1.040   4.966   3.035
10171SOL    HW131412   1.004   4.880   3.071
10171SOL    HW231413   1.043   4.962   2.936
10172SOL     OW31414   0.448   0.074   3.565
10172SOL    HW131415   0.421   0.138   3.636
10172SOL    HW231416   0.526   0.110   3.515
10173SOL     OW31417   4.652   2.710   3.662
10173SOL    HW131418   4.596   2.645   3.714
10173SOL    HW231419   4.748   2.684   3.668
10174SOL     OW31420   3.660   5.768   1.077
10174SOL    HW131421   3.730   5.834   1.048
10174SOL    HW231422   3.650   5.772   1.177
10175SOL     OW31423   6.942   6.907   4.948
10175SOL    HW131424   6.966   7.001   4.973
10175SOL    HW231425   6.898   6.863   5.026
10176SOL     OW31426   6.881   1.582   4.915
10176SOL    HW131427   6.813   1.583   4.842
10176SOL    HW231428   6.872   1.497   4.967
10177SOL     OW31429   3.097   0.624   4.688
10177SOL    HW131430   3.168   0.559   4.714
10177SOL    HW231431   3.138   0.701   4.640
10178SOL     OW31432   5.898   1.568   1.809
10178SOL    HW131433   5.903   1.641   1.740
10178SOL    HW231434   5.844   1.599   1.886
10179SOL     OW31435   6.670   5.848   1.010
10179SOL    HW131436   6.699   5.854   1.106
10179SOL    HW231437   6.571   5.832   1.006
10180SOL     OW31438   2.144   0.205   6.161
10180SOL    HW131439   2.173   0.250   6.076
10180SOL    HW231440   2.224   0.172   6.210
10181SOL     OW31441   0.085   4.206   2.652
10181SOL    HW131442   0.053   4.261   2.729
10181SOL    HW231443   0.107   4.265   2.575
10182SOL     OW31444   2.843   6.882   6.531
10182SOL    HW131445   2.762   6.865   6.587
10182SOL    HW231446   2.857   6.804   6.470
10183SOL     OW31447   3.635   6.258   6.628
10183SOL    HW131448   3.578   6.177   6.633
10183SOL    HW231449   3.725   6.234   6.592
10184SOL     OW31450   5.014   2.689   4.276
10184SOL    HW131451   5.066   2.629   4.338
10184SOL    HW231452   5.076   2.754   4.233
10185SOL     OW31453   2.773   4.855   1.934
10185SOL    HW131454   2.821   4.777   1.975
10185SOL    HW231455   2.715   4.899   2.002
10186SOL     OW31456   3.467   3.055   2.012
10186SOL    HW131457   3.378   3.020   2.041
10186SOL    HW231458   3.504   3.115   2.083
10187SOL     OW31459   1.711   3.409   4.530
10187SOL    HW131460   1.638   3.341   4.522
10187SOL    HW231461   1.697   3.464   4.613
10188SOL     OW31462   2.535   6.520   0.097
10188SOL    HW131463   2.562   6.517   0.001
10188SOL    HW231464   2.445   6.478   0.108
10189SOL     OW31465   1.412   1.719   5.657
10189SOL    HW131466   1.511   1.716   5.666
10189SOL    HW231467   1.385   1.800   5.605
10190SOL     OW31468   2.887   4.356   1.289
10190SOL    HW131469   2.789   4.365   1.305
10190SOL    HW231470   2.904   4.305   1.205
10191SOL     OW31471   6.674   0.416   6.713
10191SOL    HW131472   6.587   0.464   6.706
10191SOL    HW231473   6.712   0.429   6.805
10192SOL     OW31474   3.184   1.125   3.895
10192SOL    HW131475   3.108   1.161   3.949
10192SOL    HW231476   3.148   1.079   3.813
10193SOL     OW31477   3.470   2.904   4.281
10193SOL    HW131478   3.505   2.871   4.368
10193SOL    HW231479   3.421   2.990   4.295
10194SOL     OW31480   3.278   6.000   3.596
10194SOL    HW131481   3.211   6.051   3.542
10194SOL    HW231482   3.341   5.952   3.535
10195SOL     OW31483   5.599   6.635   1.611
10195SOL    HW131484   5.592   6.544   1.651
10195SOL    HW231485   5.510   6.681   1.616
10196SOL     OW31486   4.859   4.523   4.720
10196SOL    HW131487   4.791   4.466   4.674
10196SOL    HW231488   4.812   4.594   4.773
10197SOL     OW31489   5.941   2.007   2.646
10197SOL    HW131490   5.927   1.934   2.579
10197SOL    HW231491   5.877   1.994   2.722
10198SOL     OW31492   3.501   1.470   2.264
10198SOL    HW131493   3.535   1.564   2.254
10198SOL    HW231494   3.402   1.470   2.249
10199SOL     OW31495   1.500   1.766   6.754
10199SOL    HW131496   1.529   1.726   6.841
10199SOL    HW231497   1.544   1.717   6.679
10200SOL     OW31498   3.864   6.650   3.704
10200SOL    HW131499   3.894   6.732   3.654
10200SOL    HW231500   3.923   6.573   3.679
10201SOL     OW31501   0.138   4.981   2.670
10201SOL    HW131502   0.193   4.938   2.741
10201SOL    HW231503   0.155   5.079   2.669
10202SOL     OW31504   1.758   3.067   3.549
10202SOL    HW131505   1.850   3.029   3.559
10202SOL    HW231506   1.725   3.048   3.457
10203SOL     OW31507   6.382   2.463   1.161
10203SOL    HW131508   6.374   2.554   1.201
10203SOL    HW231509   6.295   2.436   1.120
10204SOL     OW31510   1.376   6.139   4.161
10204SOL    HW131511   1.332   6.164   4.075
10204SOL    HW231512   1.316   6.164   4.237
10205SOL     OW31513   3.667   6.456   1.575
10205SOL    HW131514   3.703   6.547   1.557
10205SOL    HW231515   3.587   6.439   1.517
10206SOL     OW31516   5.821   5.810   6.616
10206SOL    HW131517   5.831   5.848   6.708
10206SOL    HW231518   5.773   5.876   6.558
10207SOL     OW31519   2.715   1.276   1.798
10207SOL    HW131520   2.710   1.177   1.789
10207SOL    HW231521   2.804   1.301   1.836
10208SOL     OW31522   1.159   2.407   6.163
10208SOL    HW131523   1.239   2.348   6.154
10208SOL    HW231524   1.164   2.456   6.250
10209SOL     OW31525   4.017   6.587   0.691
10209SOL    HW131526   4.018   6.491   0.715
10209SOL    HW231527   4.108   6.615   0.659
10210SOL     OW31528   4.298   6.402   6.817
10210SOL    HW131529   4.248   6.477   6.858
10210SOL    HW231530   4.319   6.424   6.722
10211SOL     OW31531   3.706   4.940   4.763
10211SOL    HW131532   3.613   4.904   4.765
10211SOL    HW231533   3.710   5.027   4.812
10212SOL     OW31534   6.453   5.453   5.585
10212SOL    HW131535   6.492   5.363   5.567
10212SOL    HW231536   6.525   5.514   5.620
10213SOL     OW31537   3.226   0.380   4.745
10213SOL    HW131538   3.285   0.392   4.826
10213SOL    HW231539   3.283   0.384   4.662
10214SOL     OW31540   6.802   6.907   0.268
10214SOL    HW131541   6.708   6.930   0.241
10214SOL    HW231542   6.801   6.824   0.324
10215SOL     OW31543   4.673   2.132   6.953
10215SOL    HW131544   4.737   2.060   6.981
10215SOL    HW231545   4.596   2.136   7.017
10216SOL     OW31546   4.918   0.231   2.911
10216SOL    HW131547   4.929   0.322   2.950
10216SOL    HW231548   4.971   0.165   2.964
10217SOL     OW31549   2.523   1.974   6.115
10217SOL    HW131550   2.437   1.986   6.064
10217SOL    HW231551   2.551   1.878   6.112
10218SOL     OW31552   3.763   0.776   5.626
10218SOL    HW131553   3.854   0.753   5.660
10218SOL    HW231554   3.748   0.875   5.635
10219SOL     OW31555   6.584   5.208   1.084
10219SOL    HW131556   6.655   5.199   1.014
10219SOL    HW231557   6.619   5.261   1.161
10220SOL     OW31558   4.393   2.654   6.536
10220SOL    HW131559   4.423   2.742   6.500
10220SOL    HW231560   4.342   2.669   6.621
10221SOL     OW31561   1.972   0.165   4.533
10221SOL    HW131562   1.904   0.182   4.605
10221SOL    HW231563   1.939   0.092   4.473
10222SOL     OW31564   2.697   5.118   5.584
10222SOL    HW131565   2.608   5.076   5.563
10222SOL    HW231566   2.741   5.066   5.658
10223SOL     OW31567   2.582   5.752   5.734
10223SOL    HW131568   2.497   5.700   5.733
10223SOL    HW231569   2.597   5.790   5.825
10224SOL     OW31570   3.880   5.724   5.223
10224SOL    HW131571   3.847   5.640   5.180
10224SOL    HW231572   3.880   5.713   5.322
10225SOL     OW31573   4.977   0.715   5.309
10225SOL    HW131574   4.887   0.756   5.294
10225SOL    HW231575   5.038   0.782   5.352
10226SOL     OW31576   6.313   2.652   6.668
10226SOL    HW131577   6.358   2.741   6.663
10226SOL    HW231578   6.371   2.583   6.624
10227SOL     OW31579   4.870   5.056   5.402
10227SOL    HW131580   4.945   5.103   5.448
10227SOL    HW231581   4.878   4.957   5.418
10228SOL     OW31582   1.169   2.435   1.130
10228SOL    HW131583   1.187   2.530   1.108
10228SOL    HW231584   1.236   2.402   1.197
10229SOL     OW31585   2.579   0.517   1.941
10229SOL    HW131586   2.517   0.439   1.932
10229SOL    HW231587   2.664   0.497   1.892
10230SOL     OW31588   5.478   0.176   3.214
10230SOL    HW131589   5.428   0.159   3.129
10230SOL    HW231590   5.414   0.185   3.290
10231SOL     OW31591   5.143   0.532   4.955
10231SOL    HW131592   5.146   0.568   5.048
10231SOL    HW231593   5.146   0.432   4.958
10232SOL     OW31594   3.992   1.943   2.739
10232SOL    HW131595   3.961   1.854   2.773
10232SOL    HW231596   4.088   1.938   2.713
10233SOL     OW31597   4.999   6.796   4.819
10233SOL    HW131598   5.002   6.848   4.904
10233SOL    HW231599   4.987   6.858   4.742
10234SOL     OW31600   3.364   3.941   1.010
10234SOL    HW131601   3.270   3.921   0.982
10234SOL    HW231602   3.372   4.039   1.031
10235SOL     OW31603   4.976   6.440   6.990
10235SOL    HW131604   4.990   6.342   7.005
10235SOL    HW231605   5.065   6.485   6.987
10236SOL     OW31606   1.023   5.135   1.247
10236SOL    HW131607   1.004   5.192   1.327
10236SOL    HW231608   1.074   5.190   1.180
10237SOL     OW31609   5.992   2.218   2.220
10237SOL    HW131610   6.017   2.172   2.134
10237SOL    HW231611   6.059   2.195   2.291
10238SOL     OW31612   5.020   4.591   6.375
10238SOL    HW131613   5.012   4.640   6.462
10238SOL    HW231614   4.978   4.646   6.302
10239SOL     OW31615   5.845   4.036   3.354
10239SOL    HW131616   5.896   4.097   3.413
10239SOL    HW231617   5.893   4.024   3.267
10240SOL     OW31618   5.180   3.380   2.173
10240SOL    HW131619   5.185   3.443   2.096
10240SOL    HW231620   5.237   3.413   2.248
10241SOL     OW31621   1.049   2.426   2.748
10241SOL    HW131622   0.950   2.428   2.731
10241SOL    HW231623   1.096   2.390   2.668
10242SOL     OW31624   1.051   5.606   6.695
10242SOL    HW131625   1.052   5.512   6.661
10242SOL    HW231626   1.137   5.651   6.673
10243SOL     OW31627   6.726   5.976   3.400
10243SOL    HW131628   6.735   6.046   3.329
10243SOL    HW231629   6.766   6.010   3.485
10244SOL     OW31630   2.337   6.280   0.599
10244SOL    HW131631   2.413   6.323   0.551
10244SOL    HW231632   2.367   6.193   0.639
10245SOL     OW31633   3.945   3.197   0.649
10245SOL    HW131634   3.848   3.174   0.641
10245SOL    HW231635   3.967   3.213   0.746
10246SOL     OW31636   3.514   3.562   4.693
10246SOL    HW131637   3.483   3.506   4.616
10246SOL    HW231638   3.436   3.612   4.731
10247SOL     OW31639   1.140   5.353   6.539
10247SOL    HW131640   1.077   5.325   6.466
10247SOL    HW231641   1.177   5.271   6.584
10248SOL     OW31642   5.686   6.911   3.624
10248SOL    HW131643   5.729   6.820   3.628
10248SOL    HW231644   5.676   6.938   3.528
10249SOL     OW31645   4.460   1.597   5.906
10249SOL    HW131646   4.474   1.508   5.861
10249SOL    HW231647   4.522   1.605   5.984
10250SOL     OW31648   4.302   5.270   0.965
10250SOL    HW131649   4.297   5.257   1.064
10250SOL    HW231650   4.395   5.297   0.940
10251SOL     OW31651   4.222   4.463   1.122
10251SOL    HW131652   4.238   4.552   1.080
10251SOL    HW231653   4.310   4.422   1.147
10252SOL     OW31654   0.109   4.213   0.734
10252SOL    HW131655   0.150   4.277   0.669
10252SOL    HW231656   0.072   4.264   0.812
10253SOL     OW31657   5.359   3.707   0.237
10253SOL    HW131658   5.394   3.722   0.144
10253SOL    HW231659   5.299   3.782   0.262
10254SOL     OW31660   3.744   2.109   5.833
10254SOL    HW131661   3.763   2.195   5.785
10254SOL    HW231662   3.689   2.050   5.774
10255SOL     OW31663   2.756   4.740   3.859
10255SOL    HW131664   2.839   4.767   3.810
10255SOL    HW231665   2.762   4.770   3.954
10256SOL     OW31666   5.616   4.496   0.029
10256SOL    HW131667   5.618   4.484   6.950
10256SOL    HW231668   5.707   4.523   0.061
10257SOL     OW31669   1.515   4.225   4.852
10257SOL    HW131670   1.600   4.264   4.816
10257SOL    HW231671   1.448   4.218   4.779
10258SOL     OW31672   3.617   1.229   2.305
10258SOL    HW131673   3.562   1.313   2.305
10258SOL    HW231674   3.577   1.164   2.241
10259SOL     OW31675   5.722   3.073   3.587
10259SOL    HW131676   5.767   3.163   3.586
10259SOL    HW231677   5.623   3.086   3.580
10260SOL     OW31678   0.276   5.993   2.376
10260SOL    HW131679   0.198   6.029   2.426
10260SOL    HW231680   0.335   5.941   2.438
10261SOL     OW31681   1.703   0.194   2.546
10261SOL    HW131682   1.728   0.221   2.639
10261SOL    HW231683   1.616   0.144   2.548
10262SOL     OW31684   6.435   6.644   3.308
10262SOL    HW131685   6.398   6.719   3.253
10262SOL    HW231686   6.521   6.613   3.268
10263SOL     OW31687   6.848   3.900   4.886
10263SOL    HW131688   6.945   3.921   4.882
10263SOL    HW231689   6.798   3.955   4.819
10264SOL     OW31690   0.758   7.017   1.107
10264SOL    HW131691   0.695   0.076   1.102
10264SOL    HW231692   0.723   6.943   1.050
10265SOL     OW31693   5.374   2.564   4.526
10265SOL    HW131694   5.392   2.579   4.429
10265SOL    HW231695   5.385   2.467   4.547
10266SOL     OW31696   3.170   3.503   0.110
10266SOL    HW131697   3.070   3.497   0.119
10266SOL    HW231698   3.197   3.600   0.104
10267SOL     OW31699   6.812   0.474   6.231
10267SOL    HW131700   6.792   0.571   6.229
10267SOL    HW231701   6.735   0.424   6.272
10268SOL     OW31702   6.595   4.544   0.468
10268SOL    HW131703   6.658   4.601   0.416
10268SOL    HW231704   6.641   4.461   0.498
10269SOL     OW31705   3.750   1.641   5.552
10269SOL    HW131706   3.755   1.637   5.452
10269SOL    HW231707   3.832   1.602   5.592
10270SOL     OW31708   3.674   6.129   4.090
10270SOL    HW131709   3.612   6.052   4.105
10270SOL    HW231710   3.620   6.213   4.080
10271SOL     OW31711   0.983   4.892   0.834
10271SOL    HW131712   0.924   4.826   0.789
10271SOL    HW231713   0.929   4.971   0.863
10272SOL     OW31714   1.454   3.378   4.007
10272SOL    HW131715   1.425   3.310   4.075
10272SOL    HW231716   1.551   3.367   3.987
10273SOL     OW31717   4.454   0.481   4.413
10273SOL    HW131718   4.493   0.518   4.498
10273SOL    HW231719   4.456   0.552   4.342
10274SOL     OW31720   2.086   4.193   6.780
10274SOL    HW131721   2.040   4.131   6.844
10274SOL    HW231722   2.019   4.257   6.742
10275SOL     OW31723   6.850   5.804   2.074
10275SOL    HW131724   6.934   5.822   2.023
10275SOL    HW231725   6.868   5.812   2.172
10276SOL     OW31726   2.930   6.628   0.274
10276SOL    HW131727   2.842   6.668   0.250
10276SOL    HW231728   2.974   6.684   0.345
10277SOL     OW31729   6.007   6.034   2.132
10277SOL    HW131730   5.912   6.027   2.160
10277SOL    HW231731   6.027   5.963   2.064
10278SOL     OW31732   6.201   1.131   5.129
10278SOL    HW131733   6.279   1.191   5.108
10278SOL    HW231734   6.172   1.084   5.046
10279SOL     OW31735   3.693   6.823   3.839
10279SOL    HW131736   3.596   6.797   3.842
10279SOL    HW231737   3.749   6.742   3.825
10280SOL     OW31738   2.769   2.352   0.005
10280SOL    HW131739   2.820   2.393   6.949
10280SOL    HW231740   2.817   2.271   0.037
10281SOL     OW31741   4.072   1.190   4.330
10281SOL    HW131742   4.089   1.203   4.427
10281SOL    HW231743   4.036   1.098   4.314
10282SOL     OW31744   1.636   3.099   3.799
10282SOL    HW131745   1.652   3.099   3.701
10282SOL    HW231746   1.659   3.190   3.836
10283SOL     OW31747   2.048   5.719   0.218
10283SOL    HW131748   2.062   5.775   0.300
10283SOL    HW231749   2.089   5.764   0.139
10284SOL     OW31750   5.514   2.288   0.334
10284SOL    HW131751   5.469   2.200   0.349
10284SOL    HW231752   5.456   2.362   0.367
10285SOL     OW31753   5.184   1.415   0.329
10285SOL    HW131754   5.197   1.410   0.230
10285SOL    HW231755   5.255   1.473   0.369
10286SOL     OW31756   2.442   6.451   3.599
10286SOL    HW131757   2.514   6.435   3.531
10286SOL    HW231758   2.472   6.415   3.687
10287SOL     OW31759   2.128   4.763   2.220
10287SOL    HW131760   2.105   4.808   2.305
10287SOL    HW231761   2.185   4.824   2.164
10288SOL     OW31762   4.891   0.058   4.418
10288SOL    HW131763   4.845   0.147   4.416
10288SOL    HW231764   4.981   0.066   4.375
10289SOL     OW31765   2.676   1.534   2.669
10289SOL    HW131766   2.593   1.590   2.679
10289SOL    HW231767   2.652   1.448   2.624
10290SOL     OW31768   3.262   3.923   2.892
10290SOL    HW131769   3.277   3.842   2.835
10290SOL    HW231770   3.329   3.994   2.869
10291SOL     OW31771   4.058   0.539   3.518
10291SOL    HW131772   4.006   0.516   3.600
10291SOL    HW231773   4.149   0.499   3.525
10292SOL     OW31774   0.015   3.175   4.600
10292SOL    HW131775   7.000   3.264   4.629
10292SOL    HW231776   0.073   3.136   4.671
10293SOL     OW31777   1.662   5.161   3.427
10293SOL    HW131778   1.567   5.176   3.454
10293SOL    HW231779   1.687   5.066   3.447
10294SOL     OW31780   6.205   0.871   3.114
10294SOL    HW131781   6.262   0.936   3.163
10294SOL    HW231782   6.134   0.921   3.064
10295SOL     OW31783   1.527   4.358   3.469
10295SOL    HW131784   1.490   4.435   3.417
10295SOL    HW231785   1.615   4.331   3.429
10296SOL     OW31786   0.293   3.549   1.240
10296SOL    HW131787   0.321   3.453   1.242
10296SOL    HW231788   0.198   3.556   1.270
10297SOL     OW31789   3.725   4.453   5.928
10297SOL    HW131790   3.814   4.491   5.950
10297SOL    HW231791   3.736   4.369   5.875
10298SOL     OW31792   5.657   3.146   2.972
10298SOL    HW131793   5.720   3.122   2.898
10298SOL    HW231794   5.584   3.204   2.936
10299SOL     OW31795   3.813   5.181   2.884
10299SOL    HW131796   3.891   5.166   2.945
10299SOL    HW231797   3.798   5.099   2.829
10300SOL     OW31798   0.658   5.939   2.639
10300SOL    HW131799   0.623   5.913   2.729
10300SOL    HW231800   0.633   5.869   2.572
10301SOL     OW31801   4.341   0.818   1.889
10301SOL    HW131802   4.294   0.771   1.964
10301SOL    HW231803   4.432   0.845   1.919
10302SOL     OW31804   6.818   4.707   3.385
10302SOL    HW131805   6.734   4.665   3.351
10302SOL    HW231806   6.895   4.679   3.327
10303SOL     OW31807   4.745   3.483   0.744
10303SOL    HW131808   4.688   3.482   0.826
10303SOL    HW231809   4.805   3.563   0.746
10304SOL     OW31810   5.904   6.547   4.631
10304SOL    HW131811   5.854   6.526   4.547
10304SOL    HW231812   6.002   6.535   4.615
10305SOL     OW31813   0.683   5.380   1.143
10305SOL    HW131814   0.612   5.326   1.187
10305SOL    HW231815   0.673   5.374   1.044
10306SOL     OW31816   4.550   3.470   6.574
10306SOL    HW131817   4.462   3.456   6.528
10306SOL    HW231818   4.600   3.544   6.530
10307SOL     OW31819   2.306   2.500   5.904
10307SOL    HW131820   2.285   2.437   5.830
10307SOL    HW231821   2.283   2.458   5.992
10308SOL     OW31822   2.756   4.764   4.159
10308SOL    HW131823   2.695   4.702   4.210
10308SOL    HW231824   2.705   4.846   4.133
10309SOL     OW31825   6.501   6.404   3.881
10309SOL    HW131826   6.565   6.405   3.958
10309SOL    HW231827   6.497   6.312   3.843
10310SOL     OW31828   4.079   3.501   4.375
10310SOL    HW131829   4.037   3.565   4.440
10310SOL    HW231830   4.115   3.423   4.425
10311SOL     OW31831   1.941   0.851   0.602
10311SOL    HW131832   1.861   0.887   0.554
10311SOL    HW231833   1.916   0.769   0.653
10312SOL     OW31834   3.116   4.211   0.266
10312SOL    HW131835   3.053   4.253   0.200
10312SOL    HW231836   3.154   4.282   0.325
10313SOL     OW31837   6.416   5.905   3.016
10313SOL    HW131838   6.511   5.901   3.047
10313SOL    HW231839   6.371   5.817   3.035
10314SOL     OW31840   6.653   5.681   5.268
10314SOL    HW131841   6.673   5.611   5.200
10314SOL    HW231842   6.554   5.687   5.281
10315SOL     OW31843   4.420   5.602   5.126
10315SOL    HW131844   4.321   5.611   5.133
10315SOL    HW231845   4.446   5.507   5.137
10316SOL     OW31846   7.004   2.606   3.717
10316SOL    HW131847   0.041   2.536   3.762
10316SOL    HW231848   0.029   2.635   3.632
10317SOL     OW31849   6.278   3.953   6.128
10317SOL    HW131850   6.299   3.996   6.040
10317SOL    HW231851   6.285   3.854   6.119
10318SOL     OW31852   5.096   4.539   2.157
10318SOL    HW131853   5.029   4.595   2.109
10318SOL    HW231854   5.160   4.598   2.206
10319SOL     OW31855   6.229   6.424   3.689
10319SOL    HW131856   6.271   6.500   3.639
10319SOL    HW231857   6.157   6.383   3.634
10320SOL     OW31858   2.963   6.465   1.625
10320SOL    HW131859   3.014   6.523   1.689
10320SOL    HW231860   3.001   6.475   1.533
10321SOL     OW31861   4.981   6.243   5.284
10321SOL    HW131862   4.977   6.305   5.207
10321SOL    HW231863   4.901   6.183   5.284
10322SOL     OW31864   6.919   1.709   6.239
10322SOL    HW131865   6.862   1.752   6.169
10322SOL    HW231866   6.874   1.626   6.273
10323SOL     OW31867   0.037   1.984   5.546
10323SOL    HW131868   0.112   1.922   5.569
10323SOL    HW231869   0.068   2.078   5.553
10324SOL     OW31870   2.778   3.749   5.214
10324SOL    HW131871   2.690   3.782   5.247
10324SOL    HW231872   2.829   3.825   5.174
10325SOL     OW31873   0.505   2.898   3.772
10325SOL    HW131874   0.425   2.882   3.715
10325SOL    HW231875   0.526   2.995   3.775
10326SOL     OW31876   5.915   0.812   0.737
10326SOL    HW131877   5.826   0.823   0.694
10326SOL    HW231878   5.973   0.754   0.681
10327SOL     OW31879   6.629   2.087   3.636
10327SOL    HW131880   6.547   2.125   3.679
10327SOL    HW231881   6.611   2.070   3.539
10328SOL     OW31882   0.310   3.480   1.888
10328SOL    HW131883   0.402   3.509   1.914
10328SOL    HW231884   0.283   3.401   1.943
10329SOL     OW31885   2.401   5.726   2.341
10329SOL    HW131886   2.407   5.641   2.394
10329SOL    HW231887   2.362   5.798   2.398
10330SOL     OW31888   4.101   3.350   0.497
10330SOL    HW131889   4.038   3.305   0.560
10330SOL    HW231890   4.138   3.432   0.540
10331SOL     OW31891   4.739   1.783   4.134
10331SOL    HW131892   4.696   1.870   4.110
10331SOL    HW231893   4.786   1.747   4.053
10332SOL     OW31894   2.075   2.977   6.222
10332SOL    HW131895   1.988   2.946   6.183
10332SOL    HW231896   2.058   3.053   6.285
10333SOL     OW31897   6.935   4.266   5.531
10333SOL    HW131898   6.918   4.359   5.497
10333SOL    HW231899   6.878   4.202   5.481
10334SOL     OW31900   0.517   4.992   5.947
10334SOL    HW131901   0.464   5.075   5.966
10334SOL    HW231902   0.612   5.006   5.975
10335SOL     OW31903   2.840   5.171   2.991
10335SOL    HW131904   2.905   5.103   3.025
10335SOL    HW231905   2.825   5.157   2.893
10336SOL     OW31906   4.185   0.556   2.772
10336SOL    HW131907   4.112   0.496   2.803
10336SOL    HW231908   4.155   0.651   2.777
10337SOL     OW31909   2.074   3.312   6.130
10337SOL    HW131910   2.122   3.380   6.075
10337SOL    HW231911   2.127   3.227   6.132
10338SOL     OW31912   2.227   4.104   3.311
10338SOL    HW131913   2.251   4.012   3.343
10338SOL    HW231914   2.183   4.098   3.222
10339SOL     OW31915   3.451   6.776   6.531
10339SOL    HW131916   3.438   6.802   6.627
10339SOL    HW231917   3.496   6.687   6.527
10340SOL     OW31918   2.011   5.890   0.679
10340SOL    HW131919   2.059   5.977   0.692
10340SOL    HW231920   1.914   5.902   0.697
10341SOL     OW31921   0.350   2.527   1.827
10341SOL    HW131922   0.287   2.452   1.848
10341SOL    HW231923   0.444   2.494   1.834
10342SOL     OW31924   3.270   4.880   4.029
10342SOL    HW131925   3.172   4.903   4.030
10342SOL    HW231926   3.282   4.784   4.053
10343SOL     OW31927   2.635   2.312   4.488
10343SOL    HW131928   2.710   2.314   4.555
10343SOL    HW231929   2.560   2.370   4.520
10344SOL     OW31930   4.887   4.529   1.214
10344SOL    HW131931   4.925   4.539   1.122
10344SOL    HW231932   4.950   4.569   1.280
10345SOL     OW31933   2.737   2.172   6.165
10345SOL    HW131934   2.687   2.105   6.111
10345SOL    HW231935   2.700   2.176   6.257
10346SOL     OW31936   6.810   4.905   6.458
10346SOL    HW131937   6.839   4.985   6.406
10346SOL    HW231938   6.811   4.926   6.556
10347SOL     OW31939   3.418   6.497   2.483
10347SOL    HW131940   3.358   6.543   2.417
10347SOL    HW231941   3.509   6.485   2.442
10348SOL     OW31942   0.568   2.652   3.968
10348SOL    HW131943   0.542   2.691   4.056
10348SOL    HW231944   0.582   2.725   3.902
10349SOL     OW31945   6.518   1.182   0.231
10349SOL    HW131946   6.593   1.229   0.183
10349SOL    HW231947   6.448   1.248   0.257
10350SOL     OW31948   1.904   5.396   3.995
10350SOL    HW131949   1.867   5.352   4.077
10350SOL    HW231950   1.939   5.487   4.018
10351SOL     OW31951   3.932   5.684   5.502
10351SOL    HW131952   3.967   5.777   5.502
10351SOL    HW231953   3.931   5.648   5.595
10352SOL     OW31954   0.687   1.594   2.044
10352SOL    HW131955   0.739   1.511   2.064
10352SOL    HW231956   0.710   1.626   1.952
10353SOL     OW31957   5.220   2.684   3.616
10353SOL    HW131958   5.228   2.743   3.696
10353SOL    HW231959   5.282   2.606   3.626
10354SOL     OW31960   6.851   2.244   1.902
10354SOL    HW131961   6.819   2.241   1.808
10354SOL    HW231962   6.934   2.189   1.911
10355SOL     OW31963   6.729   1.662   0.421
10355SOL    HW131964   6.725   1.601   0.342
10355SOL    HW231965   6.688   1.750   0.398
10356SOL     OW31966   6.182   2.599   6.014
10356SOL    HW131967   6.134   2.512   6.008
10356SOL    HW231968   6.153   2.647   6.097
10357SOL     OW31969   0.582   6.505   6.373
10357SOL    HW131970   0.513   6.477   6.306
10357SOL    HW231971   0.536   6.539   6.455
10358SOL     OW31972   0.469   3.535   4.126
10358SOL    HW131973   0.435   3.575   4.041
10358SOL    HW231974   0.565   3.508   4.114
10359SOL     OW31975   0.507   2.988   1.869
10359SOL    HW131976   0.495   3.058   1.940
10359SOL    HW231977   0.601   2.990   1.836
10360SOL     OW31978   5.622   4.629   1.422
10360SOL    HW131979   5.680   4.690   1.368
10360SOL    HW231980   5.667   4.609   1.509
10361SOL     OW31981   5.497   2.043   4.157
10361SOL    HW131982   5.470   2.049   4.062
10361SOL    HW231983   5.428   2.087   4.215
10362SOL     OW31984   6.637   6.352   2.261
10362SOL    HW131985   6.658   6.268   2.311
10362SOL    HW231986   6.543   6.381   2.281
10363SOL     OW31987   5.039   5.159   6.579
10363SOL    HW131988   4.945   5.173   6.610
10363SOL    HW231989   5.047   5.186   6.482
10364SOL     OW31990   6.642   5.057   1.347
10364SOL    HW131991   6.735   5.024   1.331
10364SOL    HW231992   6.638   5.156   1.335
10365SOL     OW31993   6.271   5.933   6.537
10365SOL    HW131994   6.263   5.960   6.440
10365SOL    HW231995   6.216   5.851   6.553
10366SOL     OW31996   2.300   0.485   3.562
10366SOL    HW131997   2.279   0.445   3.472
10366SOL    HW231998   2.386   0.446   3.596
10367SOL     OW31999   3.798   6.283   2.736
10367SOL    HW132000   3.737   6.222   2.686
10367SOL    HW232001   3.763   6.376   2.732
10368SOL     OW32002   1.188   6.003   1.807
10368SOL    HW132003   1.279   6.028   1.839
10368SOL    HW232004   1.147   5.939   1.872
10369SOL     OW32005   2.898   1.378   5.288
10369SOL    HW132006   2.975   1.425   5.244
10369SOL    HW232007   2.928   1.342   5.377
10370SOL     OW32008   2.352   2.025   6.832
10370SOL    HW132009   2.413   1.952   6.800
10370SOL    HW232010   2.268   2.025   6.776
10371SOL     OW32011   3.581   5.694   2.447
10371SOL    HW132012   3.601   5.699   2.545
10371SOL    HW232013   3.660   5.727   2.395
10372SOL     OW32014   0.975   6.284   1.186
10372SOL    HW132015   1.030   6.306   1.266
10372SOL    HW232016   1.035   6.264   1.109
10373SOL     OW32017   6.742   0.782   5.263
10373SOL    HW132018   6.690   0.868   5.265
10373SOL    HW232019   6.685   0.708   5.300
10374SOL     OW32020   1.880   5.609   1.968
10374SOL    HW132021   1.804   5.615   2.033
10374SOL    HW232022   1.922   5.518   1.974
10375SOL     OW32023   2.430   5.054   6.625
10375SOL    HW132024   2.374   4.975   6.598
10375SOL    HW232025   2.438   5.116   6.547
10376SOL     OW32026   2.010   5.426   3.514
10376SOL    HW132027   2.058   5.508   3.543
10376SOL    HW232028   2.071   5.347   3.520
10377SOL     OW32029   3.333   1.204   4.110
10377SOL    HW132030   3.255   1.160   4.065
10377SOL    HW232031   3.317   1.302   4.115
10378SOL     OW32032   6.776   6.579   5.427
10378SOL    HW132033   6.780   6.612   5.521
10378SOL    HW232034   6.867   6.579   5.387
10379SOL     OW32035   0.449   5.128   3.508
10379SOL    HW132036   0.535   5.152   3.554
10379SOL    HW232037   0.468   5.100   3.414
10380SOL     OW32038   3.092   1.861   3.886
10380SOL    HW132039   2.999   1.831   3.907
10380SOL    HW232040   3.155   1.784   3.899
10381SOL     OW32041   2.059   6.731   3.967
10381SOL    HW132042   2.065   6.694   4.060
10381SOL    HW232043   2.087   6.827   3.968
10382SOL     OW32044   3.469   5.735   2.954
10382SOL    HW132045   3.441   5.639   2.960
10382SOL    HW232046   3.405   5.785   2.896
10383SOL     OW32047   0.315   6.946   0.137
10383SOL    HW132048   0.370   0.001   0.098
10383SOL    HW232049   0.287   6.971   0.230
10384SOL     OW32050   5.256   5.052   1.195
10384SOL    HW132051   5.169   5.018   1.160
10384SOL    HW232052   5.324   5.054   1.122
10385SOL     OW32053   3.635   4.244   6.806
10385SOL    HW132054   3.704   4.174   6.825
10385SOL    HW232055   3.673   4.314   6.746
10386SOL     OW32056   6.947   0.242   1.741
10386SOL    HW132057   6.913   0.294   1.820
10386SOL    HW232058   6.967   0.305   1.666
10387SOL     OW32059   5.202   0.964   2.252
10387SOL    HW132060   5.215   1.020   2.334
10387SOL    HW232061   5.291   0.946   2.210
10388SOL     OW32062   0.852   6.587   4.586
10388SOL    HW132063   0.906   6.668   4.609
10388SOL    HW232064   0.836   6.584   4.488
10389SOL     OW32065   0.718   3.842   0.936
10389SOL    HW132066   0.654   3.918   0.940
10389SOL    HW232067   0.757   3.826   1.026
10390SOL     OW32068   1.430   2.493   2.351
10390SOL    HW132069   1.353   2.490   2.414
10390SOL    HW232070   1.432   2.408   2.297
10391SOL     OW32071   6.259   0.346   3.316
10391SOL    HW132072   6.334   0.412   3.320
10391SOL    HW232073   6.241   0.322   3.221
10392SOL     OW32074   5.630   3.090   4.256
10392SOL    HW132075   5.658   3.106   4.351
10392SOL    HW232076   5.625   2.992   4.240
10393SOL     OW32077   1.846   2.455   1.184
10393SOL    HW132078   1.767   2.427   1.129
10393SOL    HW232079   1.930   2.418   1.143
10394SOL     OW32080   2.700   5.608   4.324
10394SOL    HW132081   2.704   5.511   4.301
10394SOL    HW232082   2.725   5.662   4.244
10395SOL     OW32083   0.590   1.130   1.244
10395SOL    HW132084   0.685   1.152   1.264
10395SOL    HW232085   0.531   1.203   1.279
10396SOL     OW32086   3.333   1.996   5.220
10396SOL    HW132087   3.328   1.899   5.241
10396SOL    HW232088   3.263   2.046   5.272
10397SOL     OW32089   4.480   1.000   3.894
10397SOL    HW132090   4.409   1.069   3.882
10397SOL    HW232091   4.484   0.942   3.812
10398SOL     OW32092   4.549   2.606   2.856
10398SOL    HW132093   4.543   2.677   2.786
10398SOL    HW232094   4.616   2.537   2.827
10399SOL     OW32095   0.832   2.682   1.547
10399SOL    HW132096   0.873   2.624   1.476
10399SOL    HW232097   0.733   2.678   1.541
10400SOL     OW32098   1.587   6.641   0.123
10400SOL    HW132099   1.654   6.713   0.137
10400SOL    HW232100   1.530   6.631   0.204
10401SOL     OW32101   6.278   0.903   5.257
10401SOL    HW132102   6.264   0.921   5.354
10401SOL    HW232103   6.236   0.977   5.203
10402SOL     OW32104   6.493   4.213   6.038
10402SOL    HW132105   6.417   4.183   5.982
10402SOL    HW232106   6.577   4.166   6.010
10403SOL     OW32107   3.378   6.944   1.863
10403SOL    HW132108   3.424   7.010   1.921
10403SOL    HW232109   3.441   6.871   1.838
10404SOL     OW32110   0.590   5.421   5.738
10404SOL    HW132111   0.513   5.482   5.721
10404SOL    HW232112   0.674   5.465   5.705
10405SOL     OW32113   0.273   1.199   0.000
10405SOL    HW132114   0.216   1.121   0.027
10405SOL    HW232115   0.255   1.223   6.925
10406SOL     OW32116   2.027   5.069   1.527
10406SOL    HW132117   2.119   5.076   1.487
10406SOL    HW232118   1.959   5.091   1.458
10407SOL     OW32119   1.953   6.428   0.645
10407SOL    HW132120   1.889   6.499   0.676
10407SOL    HW232121   1.993   6.456   0.557
10408SOL     OW32122   4.619   0.807   6.387
10408SOL    HW132123   4.610   0.891   6.440
10408SOL    HW232124   4.692   0.819   6.319
10409SOL     OW32125   6.398   3.738   0.691
10409SOL    HW132126   6.367   3.646   0.667
10409SOL    HW232127   6.471   3.766   0.630
10410SOL     OW32128   3.939   7.006   0.775
10410SOL    HW132129   3.967   6.943   0.847
10410SOL    HW232130   4.014   0.049   0.754
10411SOL     OW32131   1.562   5.184   4.033
10411SOL    HW132132   1.597   5.160   3.943
10411SOL    HW232133   1.638   5.199   4.096
10412SOL     OW32134   4.838   0.455   2.017
10412SOL    HW132135   4.755   0.450   1.961
10412SOL    HW232136   4.888   0.369   2.009
10413SOL     OW32137   6.294   3.646   2.088
10413SOL    HW132138   6.236   3.717   2.128
10413SOL    HW232139   6.241   3.562   2.079
10414SOL     OW32140   5.170   4.087   3.732
10414SOL    HW132141   5.205   4.133   3.813
10414SOL    HW232142   5.198   4.138   3.650
10415SOL     OW32143   0.628   0.882   6.831
10415SOL    HW132144   0.634   0.955   6.763
10415SOL    HW232145   0.533   0.852   6.840
10416SOL     OW32146   4.875   2.544   2.754
10416SOL    HW132147   4.808   2.606   2.713
10416SOL    HW232148   4.828   2.464   2.791
10417SOL     OW32149   1.908   4.040   2.253
10417SOL    HW132150   1.952   4.116   2.301
10417SOL    HW232151   1.970   3.962   2.250
10418SOL     OW32152   1.472   5.759   6.160
10418SOL    HW132153   1.562   5.783   6.195
10418SOL    HW232154   1.402   5.783   6.227
10419SOL     OW32155   1.192   0.777   6.030
10419SOL    HW132156   1.259   0.845   6.000
10419SOL    HW232157   1.100   0.817   6.025
10420SOL     OW32158   0.772   3.359   2.203
10420SOL    HW132159   0.826   3.432   2.161
10420SOL    HW232160   0.766   3.375   2.302
10421SOL     OW32161   0.779   2.383   2.651
10421SOL    HW132162   0.719   2.333   2.714
10421SOL    HW232163   0.734   2.466   2.620
10422SOL     OW32164   5.947   2.053   0.011
10422SOL    HW132165   5.996   2.072   0.096
10422SOL    HW232166   5.850   2.073   0.023
10423SOL     OW32167   4.309   5.731   2.768
10423SOL    HW132168   4.292   5.642   2.726
10423SOL    HW232169   4.274   5.804   2.709
10424SOL     OW32170   4.634   1.318   6.232
10424SOL    HW132171   4.705   1.326   6.161
10424SOL    HW232172   4.545   1.305   6.188
10425SOL     OW32173   1.641   6.935   1.865
10425SOL    HW132174   1.547   6.967   1.851
10425SOL    HW232175   1.658   6.856   1.806
10426SOL     OW32176   6.516   4.145   6.547
10426SOL    HW132177   6.544   4.221   6.488
10426SOL    HW232178   6.461   4.080   6.494
10427SOL     OW32179   4.545   0.822   0.224
10427SOL    HW132180   4.579   0.879   0.150
10427SOL    HW232181   4.456   0.856   0.255
10428SOL     OW32182   4.534   2.341   3.556
10428SOL    HW132183   4.629   2.329   3.585
10428SOL    HW232184   4.501   2.257   3.513
10429SOL     OW32185   5.735   5.423   2.161
10429SOL    HW132186   5.637   5.407   2.172
10429SOL    HW232187   5.785   5.364   2.225
10430SOL     OW32188   3.727   6.168   2.961
10430SOL    HW132189   3.753   6.216   2.877
10430SOL    HW232190   3.707   6.235   3.033
10431SOL     OW32191   3.154   1.898   5.492
10431SOL    HW132192   3.217   1.927   5.563
10431SOL    HW232193   3.108   1.979   5.453
10432SOL     OW32194   4.338   0.442   4.748
10432SOL    HW132195   4.254   0.417   4.796
10432SOL    HW232196   4.405   0.369   4.757
10433SOL     OW32197   1.981   5.775   1.026
10433SOL    HW132198   1.953   5.787   1.122
10433SOL    HW232199   2.077   5.803   1.016
10434SOL     OW32200   3.678   2.288   5.432
10434SOL    HW132201   3.716   2.233   5.358
10434SOL    HW232202   3.578   2.292   5.423
10435SOL     OW32203   5.854   4.742   6.832
10435SOL    HW132204   5.789   4.733   6.756
10435SOL    HW232205   5.823   4.814   6.894
10436SOL     OW32206   0.081   1.867   2.937
10436SOL    HW132207   0.085   1.873   3.036
10436SOL    HW232208   0.174   1.862   2.900
10437SOL     OW32209   1.437   3.054   0.727
10437SOL    HW132210   1.352   3.003   0.716
10437SOL    HW232211   1.504   3.022   0.659
10438SOL     OW32212   2.699   6.923   5.957
10438SOL    HW132213   2.780   6.972   5.925
10438SOL    HW232214   2.629   6.925   5.886
10439SOL     OW32215   3.597   0.310   5.531
10439SOL    HW132216   3.506   0.315   5.572
10439SOL    HW232217   3.659   0.373   5.579
10440SOL     OW32218   1.084   5.922   0.349
10440SOL    HW132219   1.070   5.967   0.261
10440SOL    HW232220   1.002   5.873   0.375
10441SOL     OW32221   4.664   6.660   0.934
10441SOL    HW132222   4.572   6.699   0.945
10441SOL    HW232223   4.680   6.642   0.837
10442SOL     OW32224   3.583   6.525   6.507
10442SOL    HW132225   3.665   6.469   6.522
10442SOL    HW232226   3.502   6.476   6.539
10443SOL     OW32227   0.640   2.893   4.642
10443SOL    HW132228   0.632   2.956   4.720
10443SOL    HW232229   0.715   2.922   4.583
10444SOL     OW32230   3.894   4.796   5.191
10444SOL    HW132231   3.953   4.814   5.112
10444SOL    HW232232   3.920   4.856   5.266
10445SOL     OW32233   6.357   6.237   2.032
10445SOL    HW132234   6.384   6.160   2.090
10445SOL    HW232235   6.323   6.312   2.090
10446SOL     OW32236   1.214   6.689   5.769
10446SOL    HW132237   1.248   6.783   5.767
10446SOL    HW232238   1.256   6.637   5.695
10447SOL     OW32239   5.418   2.707   6.542
10447SOL    HW132240   5.459   2.794   6.515
10447SOL    HW232241   5.355   2.721   6.619
10448SOL     OW32242   3.756   3.430   2.149
10448SOL    HW132243   3.725   3.406   2.241
10448SOL    HW232244   3.678   3.431   2.087
10449SOL     OW32245   1.235   5.342   5.267
10449SOL    HW132246   1.275   5.335   5.358
10449SOL    HW232247   1.140   5.373   5.274
10450SOL     OW32248   0.850   3.068   0.196
10450SOL    HW132249   0.882   3.022   0.279
10450SOL    HW232250   0.862   3.167   0.206
10451SOL     OW32251   2.061   4.275   2.422
10451SOL    HW132252   2.133   4.337   2.391
10451SOL    HW232253   2.097   4.217   2.495
10452SOL     OW32254   2.375   3.295   6.013
10452SOL    HW132255   2.393   3.389   5.987
10452SOL    HW232256   2.294   3.262   5.964
10453SOL     OW32257   5.152   0.513   2.079
10453SOL    HW132258   5.062   0.495   2.040
10453SOL    HW232259   5.150   0.499   2.178
10454SOL     OW32260   3.498   5.398   2.633
10454SOL    HW132261   3.538   5.489   2.645
10454SOL    HW232262   3.490   5.378   2.535
10455SOL     OW32263   1.406   5.199   3.478
10455SOL    HW132264   1.376   5.159   3.564
10455SOL    HW232265   1.334   5.187   3.409
10456SOL     OW32266   3.547   6.677   0.920
10456SOL    HW132267   3.621   6.682   0.852
10456SOL    HW232268   3.555   6.591   0.972
10457SOL     OW32269   3.408   2.895   3.318
10457SOL    HW132270   3.318   2.873   3.280
10457SOL    HW232271   3.464   2.938   3.246
10458SOL     OW32272   6.317   6.359   2.665
10458SOL    HW132273   6.268   6.363   2.752
10458SOL    HW232274   6.278   6.426   2.602
10459SOL     OW32275   6.893   5.429   2.099
10459SOL    HW132276   6.832   5.500   2.065
10459SOL    HW232277   6.863   5.400   2.190
10460SOL     OW32278   1.108   4.268   1.105
10460SOL    HW132279   1.154   4.352   1.135
10460SOL    HW232280   1.022   4.291   1.060
10461SOL     OW32281   3.883   0.495   6.479
10461SOL    HW132282   3.962   0.521   6.424
10461SOL    HW232283   3.799   0.512   6.427
10462SOL     OW32284   5.401   6.752   0.959
10462SOL    HW132285   5.457   6.688   0.906
10462SOL    HW232286   5.458   6.797   1.027
10463SOL     OW32287   4.497   2.922   0.308
10463SOL    HW132288   4.427   2.864   0.267
10463SOL    HW232289   4.464   3.016   0.311
10464SOL     OW32290   5.800   6.799   1.658
10464SOL    HW132291   5.767   6.889   1.632
10464SOL    HW232292   5.728   6.731   1.645
10465SOL     OW32293   6.970   4.482   5.868
10465SOL    HW132294   6.950   4.559   5.928
10465SOL    HW232295   0.025   4.506   5.806
10466SOL     OW32296   4.166   5.501   5.479
10466SOL    HW132297   4.080   5.550   5.471
10466SOL    HW232298   4.202   5.479   5.388
10467SOL     OW32299   4.361   1.762   4.102
10467SOL    HW132300   4.402   1.721   4.183
10467SOL    HW232301   4.395   1.855   4.089
10468SOL     OW32302   2.822   5.376   3.260
10468SOL    HW132303   2.876   5.322   3.195
10468SOL    HW232304   2.883   5.418   3.327
10469SOL     OW32305   0.991   4.887   5.688
10469SOL    HW132306   1.003   4.873   5.590
10469SOL    HW232307   1.078   4.868   5.735
10470SOL     OW32308   2.313   2.248   4.038
10470SOL    HW132309   2.285   2.153   4.049
10470SOL    HW232310   2.249   2.295   3.978
10471SOL     OW32311   4.610   3.708   6.805
10471SOL    HW132312   4.545   3.700   6.729
10471SOL    HW232313   4.562   3.742   6.886
10472SOL     OW32314   4.127   1.663   3.740
10472SOL    HW132315   4.203   1.727   3.732
10472SOL    HW232316   4.062   1.696   3.809
10473SOL     OW32317   4.882   4.720   0.634
10473SOL    HW132318   4.822   4.648   0.600
10473SOL    HW232319   4.836   4.773   0.704
10474SOL     OW32320   4.634   1.120   4.178
10474SOL    HW132321   4.587   1.038   4.209
10474SOL    HW232322   4.568   1.183   4.136
10475SOL     OW32323   4.051   6.433   1.086
10475SOL    HW132324   4.079   6.377   1.008
10475SOL    HW232325   4.092   6.397   1.170
10476SOL     OW32326   0.516   4.945   7.007
10476SOL    HW132327   0.544   4.872   6.944
10476SOL    HW232328   0.592   4.966   0.049
10477SOL     OW32329   5.315   4.575   4.353
10477SOL    HW132330   5.275   4.549   4.441
10477SOL    HW232331   5.369   4.658   4.365
10478SOL     OW32332   0.895   0.209   2.660
10478SOL    HW132333   0.819   0.254   2.707
10478SOL    HW232334   0.869   0.189   2.566
10479SOL     OW32335   0.803   3.917   2.843
10479SOL    HW132336   0.727   3.914   2.907
10479SOL    HW232337   0.890   3.919   2.893
10480SOL     OW32338   4.795   1.488   6.625
10480SOL    HW132339   4.806   1.514   6.721
10480SOL    HW232340   4.760   1.566   6.572
10481SOL     OW32341   3.693   1.288   3.569
10481SOL    HW132342   3.668   1.197   3.537
10481SOL    HW232343   3.702   1.350   3.492
10482SOL     OW32344   0.536   6.382   5.999
10482SOL    HW132345   0.563   6.323   5.922
10482SOL    HW232346   0.613   6.440   6.025
10483SOL     OW32347   0.715   6.147   0.485
10483SOL    HW132348   0.728   6.243   0.511
10483SOL    HW232349   0.697   6.142   0.387
10484SOL     OW32350   6.914   1.602   2.026
10484SOL    HW132351   6.857   1.520   2.036
10484SOL    HW232352   6.874   1.663   1.959
10485SOL     OW32353   3.556   3.875   4.837
10485SOL    HW132354   3.476   3.843   4.787
10485SOL    HW232355   3.602   3.947   4.785
10486SOL     OW32356   6.234   4.433   5.937
10486SOL    HW132357   6.242   4.527   5.971
10486SOL    HW232358   6.318   4.408   5.889
10487SOL     OW32359   5.237   3.941   2.539
10487SOL    HW132360   5.150   3.989   2.541
10487SOL    HW232361   5.279   3.944   2.629
10488SOL     OW32362   0.877   1.985   5.433
10488SOL    HW132363   0.831   2.047   5.369
10488SOL    HW232364   0.835   1.994   5.523
10489SOL     OW32365   5.862   4.720   2.801
10489SOL    HW132366   5.834   4.624   2.792
10489SOL    HW232367   5.923   4.730   2.879
10490SOL     OW32368   5.308   6.098   6.618
10490SOL    HW132369   5.376   6.171   6.626
10490SOL    HW232370   5.261   6.106   6.530
10491SOL     OW32371   2.071   1.721   5.650
10491SOL    HW132372   1.974   1.706   5.635
10491SOL    HW232373   2.124   1.664   5.587
10492SOL     OW32374   3.473   6.815   6.799
10492SOL    HW132375   3.412   6.881   6.843
10492SOL    HW232376   3.557   6.806   6.853
10493SOL     OW32377   3.925   6.641   0.324
10493SOL    HW132378   4.024   6.654   0.314
10493SOL    HW232379   3.880   6.730   0.325
10494SOL     OW32380   6.455   6.030   3.486
10494SOL    HW132381   6.438   6.116   3.535
10494SOL    HW232382   6.538   6.038   3.431
10495SOL     OW32383   6.258   6.474   0.186
10495SOL    HW132384   6.331   6.489   0.252
10495SOL    HW232385   6.294   6.483   0.093
10496SOL     OW32386   1.628   3.767   6.178
10496SOL    HW132387   1.720   3.756   6.141
10496SOL    HW232388   1.609   3.865   6.189
10497SOL     OW32389   4.035   0.181   7.006
10497SOL    HW132390   3.966   0.145   6.943
10497SOL    HW232391   4.024   0.280   7.014
10498SOL     OW32392   3.527   3.675   0.413
10498SOL    HW132393   3.507   3.676   0.315
10498SOL    HW232394   3.542   3.580   0.443
10499SOL     OW32395   4.067   4.849   4.069
10499SOL    HW132396   4.105   4.812   3.985
10499SOL    HW232397   4.101   4.796   4.147
10500SOL     OW32398   1.917   2.464   4.747
10500SOL    HW132399   1.920   2.478   4.648
10500SOL    HW232400   1.823   2.446   4.775
10501SOL     OW32401   3.958   4.810   2.977
10501SOL    HW132402   4.048   4.785   2.941
10501SOL    HW232403   3.959   4.803   3.077
10502SOL     OW32404   3.637   3.235   3.200
10502SOL    HW132405   3.593   3.288   3.128
10502SOL    HW232406   3.601   3.263   3.289
10503SOL     OW32407   0.063   6.255   0.697
10503SOL    HW132408   0.083   6.157   0.687
10503SOL    HW232409   6.988   6.267   0.728
10504SOL     OW32410   1.849   2.917   5.541
10504SOL    HW132411   1.812   2.996   5.493
10504SOL    HW232412   1.831   2.926   5.639
10505SOL     OW32413   5.001   6.692   1.432
10505SOL    HW132414   4.994   6.714   1.530
10505SOL    HW232415   5.053   6.608   1.421
10506SOL     OW32416   0.568   5.305   6.272
10506SOL    HW132417   0.569   5.208   6.296
10506SOL    HW232418   0.623   5.320   6.190
10507SOL     OW32419   2.162   6.495   5.757
10507SOL    HW132420   2.162   6.474   5.659
10507SOL    HW232421   2.113   6.423   5.806
10508SOL     OW32422   1.975   6.335   1.167
10508SOL    HW132423   2.008   6.344   1.073
10508SOL    HW232424   2.035   6.385   1.229
10509SOL     OW32425   4.917   3.551   1.944
10509SOL    HW132426   4.887   3.460   1.917
10509SOL    HW232427   4.884   3.618   1.878
10510SOL     OW32428   4.879   6.658   1.850
10510SOL    HW132429   4.942   6.705   1.913
10510SOL    HW232430   4.874   6.561   1.875
10511SOL     OW32431   3.838   1.705   0.687
10511SOL    HW132432   3.809   1.801   0.685
10511SOL    HW232433   3.881   1.681   0.600
10512SOL     OW32434   3.896   0.069   4.855
10512SOL    HW132435   3.982   0.117   4.875
10512SOL    HW232436   3.867   0.091   4.762
10513SOL     OW32437   4.061   3.820   0.562
10513SOL    HW132438   4.034   3.861   0.475
10513SOL    HW232439   4.081   3.892   0.628
10514SOL     OW32440   0.916   4.798   1.368
10514SOL    HW132441   0.845   4.857   1.329
10514SOL    HW232442   0.878   4.707   1.387
10515SOL     OW32443   2.112   3.358   4.713
10515SOL    HW132444   2.133   3.437   4.656
10515SOL    HW232445   2.014   3.354   4.729
10516SOL     OW32446   5.485   1.934   1.111
10516SOL    HW132447   5.478   1.864   1.040
10516SOL    HW232448   5.446   2.020   1.078
10517SOL     OW32449   6.725   1.938   2.149
10517SOL    HW132450   6.821   1.963   2.133
10517SOL    HW232451   6.668   1.977   2.077
10518SOL     OW32452   0.028   5.736   3.128
10518SOL    HW132453   6.984   5.661   3.113
10518SOL    HW232454   0.118   5.711   3.091
10519SOL     OW32455   1.565   6.478   0.485
10519SOL    HW132456   1.481   6.424   0.489
10519SOL    HW232457   1.629   6.434   0.422
10520SOL     OW32458   3.296   2.585   6.078
10520SOL    HW132459   3.382   2.536   6.062
10520SOL    HW232460   3.219   2.526   6.054
10521SOL     OW32461   5.896   2.081   1.718
10521SOL    HW132462   5.825   2.145   1.689
10521SOL    HW232463   5.854   1.994   1.744
10522SOL     OW32464   5.013   1.137   2.868
10522SOL    HW132465   4.945   1.116   2.798
10522SOL    HW232466   4.998   1.079   2.948
10523SOL     OW32467   0.212   3.928   1.716
10523SOL    HW132468   0.181   3.868   1.790
10523SOL    HW232469   0.278   3.879   1.660
10524SOL     OW32470   5.882   6.411   4.880
10524SOL    HW132471   5.901   6.474   4.805
10524SOL    HW232472   5.808   6.447   4.936
10525SOL     OW32473   4.943   2.355   3.850
10525SOL    HW132474   4.969   2.440   3.897
10525SOL    HW232475   4.973   2.277   3.904
10526SOL     OW32476   1.714   6.326   6.110
10526SOL    HW132477   1.619   6.301   6.091
10526SOL    HW232478   1.774   6.255   6.072
10527SOL     OW32479   0.552   6.305   5.708
10527SOL    HW132480   0.644   6.265   5.708
10527SOL    HW232481   0.485   6.237   5.679
10528SOL     OW32482   2.797   6.000   5.309
10528SOL    HW132483   2.850   5.917   5.291
10528SOL    HW232484   2.754   5.993   5.399
10529SOL     OW32485   0.015   5.573   6.362
10529SOL    HW132486   0.011   5.632   6.282
10529SOL    HW232487   6.942   5.542   6.386
10530SOL     OW32488   5.294   0.319   1.460
10530SOL    HW132489   5.375   0.270   1.428
10530SOL    HW232490   5.322   0.399   1.512
10531SOL     OW32491   3.516   0.762   6.226
10531SOL    HW132492   3.514   0.852   6.270
10531SOL    HW232493   3.424   0.735   6.201
10532SOL     OW32494   4.293   5.717   5.587
10532SOL    HW132495   4.382   5.713   5.542
10532SOL    HW232496   4.237   5.639   5.559
10533SOL     OW32497   4.299   6.362   4.149
10533SOL    HW132498   4.308   6.462   4.157
10533SOL    HW232499   4.366   6.327   4.084
10534SOL     OW32500   0.598   6.110   4.868
10534SOL    HW132501   0.540   6.181   4.827
10534SOL    HW232502   0.548   6.065   4.942
10535SOL     OW32503   3.826   1.512   2.385
10535SOL    HW132504   3.818   1.544   2.479
10535SOL    HW232505   3.775   1.573   2.325
10536SOL     OW32506   5.733   3.083   4.539
10536SOL    HW132507   5.787   3.044   4.614
10536SOL    HW232508   5.688   3.167   4.570
10537SOL     OW32509   2.531   1.251   2.309
10537SOL    HW132510   2.606   1.257   2.374
10537SOL    HW232511   2.446   1.280   2.354
10538SOL     OW32512   6.295   2.702   3.846
10538SOL    HW132513   6.325   2.655   3.763
10538SOL    HW232514   6.208   2.748   3.828
10539SOL     OW32515   6.733   0.396   1.580
10539SOL    HW132516   6.715   0.383   1.483
10539SOL    HW232517   6.658   0.357   1.634
10540SOL     OW32518   1.982   2.299   5.860
10540SOL    HW132519   1.894   2.289   5.908
10540SOL    HW232520   2.057   2.294   5.926
10541SOL     OW32521   3.981   2.682   6.966
10541SOL    HW132522   3.983   2.761   6.904
10541SOL    HW232523   4.049   2.615   6.937
10542SOL     OW32524   3.403   6.318   3.175
10542SOL    HW132525   3.501   6.312   3.158
10542SOL    HW232526   3.371   6.410   3.153
10543SOL     OW32527   0.906   2.861   3.908
10543SOL    HW132528   0.881   2.792   3.975
10543SOL    HW232529   1.006   2.864   3.898
10544SOL     OW32530   2.728   2.237   2.472
10544SOL    HW132531   2.664   2.245   2.396
10544SOL    HW232532   2.819   2.265   2.443
10545SOL     OW32533   1.156   2.979   1.567
10545SOL    HW132534   1.192   3.062   1.523
10545SOL    HW232535   1.211   2.900   1.538
10546SOL     OW32536   1.892   0.181   4.875
10546SOL    HW132537   1.950   0.100   4.883
10546SOL    HW232538   1.896   0.234   4.960
10547SOL     OW32539   3.140   5.829   6.417
10547SOL    HW132540   3.132   5.783   6.505
10547SOL    HW232541   3.085   5.912   6.417
10548SOL     OW32542   1.396   5.248   3.177
10548SOL    HW132543   1.494   5.260   3.166
10548SOL    HW232544   1.378   5.161   3.224
10549SOL     OW32545   6.853   1.564   2.314
10549SOL    HW132546   6.912   1.618   2.373
10549SOL    HW232547   6.886   1.569   2.220
10550SOL     OW32548   0.255   4.503   2.708
10550SOL    HW132549   0.167   4.518   2.662
10550SOL    HW232550   0.312   4.442   2.653
10551SOL     OW32551   4.625   0.829   4.755
10551SOL    HW132552   4.638   0.747   4.698
10551SOL    HW232553   4.667   0.907   4.710
10552SOL     OW32554   2.188   6.971   3.998
10552SOL    HW132555   2.225   6.984   4.090
10552SOL    HW232556   2.226   0.021   3.937
10553SOL     OW32557   5.701   5.065   1.501
10553SOL    HW132558   5.624   5.080   1.440
10553SOL    HW232559   5.696   5.129   1.578
10554SOL     OW32560   5.271   5.551   1.885
10554SOL    HW132561   5.198   5.594   1.832
10554SOL    HW232562   5.288   5.459   1.851
10555SOL     OW32563   3.137   2.970   2.515
10555SOL    HW132564   3.147   2.979   2.416
10555SOL    HW232565   3.042   2.945   2.536
10556SOL     OW32566   2.188   2.064   2.109
10556SOL    HW132567   2.184   2.089   2.012
10556SOL    HW232568   2.121   1.993   2.128
10557SOL     OW32569   1.165   4.520   3.183
10557SOL    HW132570   1.183   4.498   3.279
10557SOL    HW232571   1.247   4.505   3.129
10558SOL     OW32572   5.223   5.474   4.295
10558SOL    HW132573   5.246   5.552   4.238
10558SOL    HW232574   5.136   5.434   4.265
10559SOL     OW32575   3.832   5.636   1.924
10559SOL    HW132576   3.817   5.732   1.903
10559SOL    HW232577   3.839   5.584   1.839
10560SOL     OW32578   5.541   6.993   4.293
10560SOL    HW132579   5.611   6.948   4.350
10560SOL    HW232580   5.535   6.947   4.205
10561SOL     OW32581   0.763   5.591   5.621
10561SOL    HW132582   0.731   5.589   5.526
10561SOL    HW232583   0.860   5.614   5.623
10562SOL     OW32584   2.682   1.262   2.530
10562SOL    HW132585   2.781   1.249   2.537
10562SOL    HW232586   2.636   1.209   2.601
10563SOL     OW32587   1.626   5.346   2.245
10563SOL    HW132588   1.691   5.313   2.313
10563SOL    HW232589   1.645   5.303   2.156
10564SOL     OW32590   5.487   5.683   3.793
10564SOL    HW132591   5.484   5.746   3.715
10564SOL    HW232592   5.556   5.613   3.777
10565SOL     OW32593   0.076   1.142   4.344
10565SOL    HW132594   6.998   1.124   4.358
10565SOL    HW232595   0.109   1.202   4.417
10566SOL     OW32596   3.782   1.308   0.876
10566SOL    HW132597   3.751   1.399   0.903
10566SOL    HW232598   3.761   1.293   0.779
10567SOL     OW32599   3.250   1.762   6.286
10567SOL    HW132600   3.217   1.777   6.193
10567SOL    HW232601   3.345   1.792   6.294
10568SOL     OW32602   6.307   1.361   0.037
10568SOL    HW132603   6.400   1.327   0.050
10568SOL    HW232604   6.307   1.430   6.984
10569SOL     OW32605   3.929   0.370   1.612
10569SOL    HW132606   3.962   0.454   1.569
10569SOL    HW232607   3.847   0.390   1.665
10570SOL     OW32608   1.413   3.990   3.265
10570SOL    HW132609   1.476   3.969   3.340
10570SOL    HW232610   1.453   3.961   3.179
10571SOL     OW32611   1.058   3.840   4.873
10571SOL    HW132612   0.993   3.901   4.827
10571SOL    HW232613   1.119   3.799   4.805
10572SOL     OW32614   6.986   5.402   0.662
10572SOL    HW132615   6.948   5.312   0.640
10572SOL    HW232616   7.005   5.407   0.760
10573SOL     OW32617   5.694   1.861   2.966
10573SOL    HW132618   5.729   1.799   2.896
10573SOL    HW232619   5.767   1.883   3.030
10574SOL     OW32620   5.460   2.320   2.997
10574SOL    HW132621   5.432   2.357   2.908
10574SOL    HW232622   5.529   2.249   2.983
10575SOL     OW32623   4.706   6.797   3.066
10575SOL    HW132624   4.677   6.780   2.972
10575SOL    HW232625   4.674   6.887   3.095
10576SOL     OW32626   1.004   3.071   5.032
10576SOL    HW132627   1.013   3.093   4.935
10576SOL    HW232628   0.914   3.102   5.065
10577SOL     OW32629   4.418   4.671   6.642
10577SOL    HW132630   4.340   4.719   6.602
10577SOL    HW232631   4.483   4.649   6.569
10578SOL     OW32632   1.380   3.119   1.938
10578SOL    HW132633   1.351   3.024   1.925
10578SOL    HW232634   1.322   3.179   1.883
10579SOL     OW32635   0.486   2.965   0.417
10579SOL    HW132636   0.401   2.977   0.468
10579SOL    HW232637   0.555   2.925   0.477
10580SOL     OW32638   4.532   6.091   6.069
10580SOL    HW132639   4.536   6.190   6.057
10580SOL    HW232640   4.461   6.068   6.135
10581SOL     OW32641   3.544   0.575   2.577
10581SOL    HW132642   3.506   0.619   2.495
10581SOL    HW232643   3.566   0.480   2.556
10582SOL     OW32644   0.328   3.633   0.265
10582SOL    HW132645   0.417   3.670   0.290
10582SOL    HW232646   0.316   3.544   0.308
10583SOL     OW32647   3.976   2.037   5.985
10583SOL    HW132648   3.940   1.948   6.012
10583SOL    HW232649   3.902   2.092   5.945
10584SOL     OW32650   6.942   0.350   3.991
10584SOL    HW132651   7.006   0.426   4.002
10584SOL    HW232652   6.897   0.332   4.079
10585SOL     OW32653   1.697   0.987   4.610
10585SOL    HW132654   1.688   1.048   4.532
10585SOL    HW232655   1.684   0.892   4.581
10586SOL     OW32656   4.503   3.383   6.192
10586SOL    HW132657   4.415   3.401   6.237
10586SOL    HW232658   4.516   3.449   6.118
10587SOL     OW32659   1.925   4.963   6.109
10587SOL    HW132660   1.942   4.922   6.199
10587SOL    HW232661   1.929   4.892   6.039
10588SOL     OW32662   1.160   4.533   4.498
10588SOL    HW132663   1.256   4.553   4.521
10588SOL    HW232664   1.157   4.453   4.438
10589SOL     OW32665   6.457   0.828   3.410
10589SOL    HW132666   6.392   0.868   3.346
10589SOL    HW232667   6.408   0.775   3.479
10590SOL     OW32668   6.178   6.545   2.507
10590SOL    HW132669   6.102   6.501   2.459
10590SOL    HW232670   6.173   6.643   2.493
10591SOL     OW32671   6.304   4.351   2.786
10591SOL    HW132672   6.311   4.308   2.696
10591SOL    HW232673   6.237   4.424   2.783
10592SOL     OW32674   6.142   3.692   5.752
10592SOL    HW132675   6.089   3.773   5.776
10592SOL    HW232676   6.189   3.708   5.666
10593SOL     OW32677   3.472   5.915   3.161
10593SOL    HW132678   3.398   5.981   3.154
10593SOL    HW232679   3.482   5.866   3.075
10594SOL     OW32680   3.953   6.015   3.568
10594SOL    HW132681   3.872   6.037   3.514
10594SOL    HW232682   3.932   6.024   3.666
10595SOL     OW32683   6.160   5.494   1.309
10595SOL    HW132684   6.082   5.539   1.353
10595SOL    HW232685   6.133   5.403   1.277
10596SOL     OW32686   6.380   3.318   1.211
10596SOL    HW132687   6.296   3.306   1.264
10596SOL    HW232688   6.363   3.382   1.135
10597SOL     OW32689   0.853   6.501   4.955
10597SOL    HW132690   0.928   6.566   4.939
10597SOL    HW232691   0.884   6.409   4.932
10598SOL     OW32692   3.019   1.467   0.835
10598SOL    HW132693   3.080   1.408   0.887
10598SOL    HW232694   3.071   1.540   0.791
10599SOL     OW32695   0.970   1.621   1.118
10599SOL    HW132696   0.875   1.638   1.146
10599SOL    HW232697   0.971   1.559   1.040
10600SOL     OW32698   4.594   1.157   2.030
10600SOL    HW132699   4.662   1.229   2.016
10600SOL    HW232700   4.503   1.197   2.036
10601SOL     OW32701   1.724   2.020   5.158
10601SOL    HW132702   1.624   2.010   5.155
10601SOL    HW232703   1.750   2.105   5.113
10602SOL     OW32704   6.647   6.604   0.858
10602SOL    HW132705   6.743   6.625   0.841
10602SOL    HW232706   6.634   6.586   0.956
10603SOL     OW32707   5.702   0.266   3.069
10603SOL    HW132708   5.634   0.239   3.138
10603SOL    HW232709   5.761   0.188   3.048
10604SOL     OW32710   5.650   2.275   4.686
10604SOL    HW132711   5.678   2.310   4.775
10604SOL    HW232712   5.723   2.217   4.648
10605SOL     OW32713   4.973   1.647   1.432
10605SOL    HW132714   4.943   1.577   1.367
10605SOL    HW232715   5.023   1.718   1.383
10606SOL     OW32716   5.764   1.884   0.899
10606SOL    HW132717   5.848   1.938   0.905
10606SOL    HW232718   5.768   1.825   0.819
10607SOL     OW32719   1.683   4.910   1.503
10607SOL    HW132720   1.605   4.904   1.565
10607SOL    HW232721   1.766   4.924   1.556
10608SOL     OW32722   5.220   3.674   2.475
10608SOL    HW132723   5.312   3.634   2.478
10608SOL    HW232724   5.222   3.766   2.513
10609SOL     OW32725   5.683   5.710   6.921
10609SOL    HW132726   5.758   5.670   6.973
10609SOL    HW232727   5.674   5.807   6.944
10610SOL     OW32728   0.413   2.462   3.354
10610SOL    HW132729   0.466   2.463   3.269
10610SOL    HW232730   0.383   2.369   3.372
10611SOL     OW32731   4.121   5.727   6.804
10611SOL    HW132732   4.197   5.671   6.771
10611SOL    HW232733   4.043   5.669   6.825
10612SOL     OW32734   5.365   2.278   4.088
10612SOL    HW132735   5.381   2.230   4.002
10612SOL    HW232736   5.449   2.322   4.118
10613SOL     OW32737   4.863   4.725   6.162
10613SOL    HW132738   4.836   4.644   6.111
10613SOL    HW232739   4.789   4.753   6.223
10614SOL     OW32740   4.504   1.430   0.174
10614SOL    HW132741   4.549   1.372   0.242
10614SOL    HW232742   4.447   1.498   0.220
10615SOL     OW32743   4.299   2.819   6.009
10615SOL    HW132744   4.248   2.899   6.041
10615SOL    HW232745   4.338   2.771   6.088
10616SOL     OW32746   1.611   5.067   0.150
10616SOL    HW132747   1.687   5.131   0.139
10616SOL    HW232748   1.646   4.975   0.167
10617SOL     OW32749   2.315   3.377   0.312
10617SOL    HW132750   2.311   3.474   0.338
10617SOL    HW232751   2.354   3.324   0.387
10618SOL     OW32752   6.987   4.861   5.116
10618SOL    HW132753   6.973   4.774   5.069
10618SOL    HW232754   0.063   4.890   5.104
10619SOL     OW32755   1.559   1.941   0.960
10619SOL    HW132756   1.528   1.848   0.939
10619SOL    HW232757   1.632   1.966   0.897
10620SOL     OW32758   3.986   1.390   5.774
10620SOL    HW132759   4.035   1.469   5.737
10620SOL    HW232760   3.901   1.421   5.817
10621SOL     OW32761   0.854   5.605   4.377
10621SOL    HW132762   0.810   5.525   4.420
10621SOL    HW232763   0.787   5.652   4.319
10622SOL     OW32764   3.949   2.222   6.436
10622SOL    HW132765   3.941   2.282   6.357
10622SOL    HW232766   3.891   2.142   6.423
10623SOL     OW32767   5.605   4.972   5.031
10623SOL    HW132768   5.592   5.063   5.072
10623SOL    HW232769   5.694   4.936   5.057
10624SOL     OW32770   0.390   1.245   5.508
10624SOL    HW132771   0.465   1.262   5.444
10624SOL    HW232772   0.405   1.158   5.555
10625SOL     OW32773   6.456   5.035   6.628
10625SOL    HW132774   6.419   4.980   6.554
10625SOL    HW232775   6.419   5.004   6.715
10626SOL     OW32776   5.485   3.654   1.644
10626SOL    HW132777   5.407   3.673   1.585
10626SOL    HW232778   5.570   3.673   1.594
10627SOL     OW32779   5.187   5.530   5.644
10627SOL    HW132780   5.141   5.604   5.693
10627SOL    HW232781   5.206   5.558   5.550
10628SOL     OW32782   2.421   6.356   1.895
10628SOL    HW132783   2.324   6.337   1.877
10628SOL    HW232784   2.439   6.453   1.876
10629SOL     OW32785   4.380   5.645   4.056
10629SOL    HW132786   4.391   5.669   4.152
10629SOL    HW232787   4.315   5.708   4.013
10630SOL     OW32788   4.229   1.069   1.828
10630SOL    HW132789   4.250   1.125   1.748
10630SOL    HW232790   4.297   0.995   1.836
10631SOL     OW32791   3.844   5.904   1.908
10631SOL    HW132792   3.790   5.900   1.992
10631SOL    HW232793   3.793   5.951   1.836
10632SOL     OW32794   5.931   0.808   4.895
10632SOL    HW132795   5.961   0.755   4.975
10632SOL    HW232796   5.835   0.833   4.905
10633SOL     OW32797   2.702   3.636   0.224
10633SOL    HW132798   2.777   3.577   0.193
10633SOL    HW232799   2.738   3.725   0.250
10634SOL     OW32800   0.735   4.236   0.809
10634SOL    HW132801   0.750   4.238   0.908
10634SOL    HW232802   0.809   4.284   0.762
10635SOL     OW32803   3.202   5.014   0.456
10635SOL    HW132804   3.157   5.069   0.526
10635SOL    HW232805   3.134   4.980   0.391
10636SOL     OW32806   0.863   2.683   0.333
10636SOL    HW132807   0.944   2.631   0.308
10636SOL    HW232808   0.888   2.776   0.357
10637SOL     OW32809   1.641   6.394   5.247
10637SOL    HW132810   1.628   6.455   5.325
10637SOL    HW232811   1.575   6.417   5.175
10638SOL     OW32812   5.536   4.253   6.788
10638SOL    HW132813   5.489   4.341   6.787
10638SOL    HW232814   5.566   4.232   6.881
10639SOL     OW32815   6.825   5.197   6.405
10639SOL    HW132816   6.816   5.123   6.339
10639SOL    HW232817   6.735   5.222   6.440
10640SOL     OW32818   4.304   5.828   4.812
10640SOL    HW132819   4.365   5.750   4.828
10640SOL    HW232820   4.277   5.868   4.899
10641SOL     OW32821   0.956   1.121   3.277
10641SOL    HW132822   0.864   1.118   3.238
10641SOL    HW232823   0.956   1.075   3.366
10642SOL     OW32824   6.477   2.238   5.753
10642SOL    HW132825   6.559   2.288   5.726
10642SOL    HW232826   6.418   2.298   5.809
10643SOL     OW32827   3.640   5.530   4.855
10643SOL    HW132828   3.624   5.580   4.770
10643SOL    HW232829   3.554   5.521   4.905
10644SOL     OW32830   1.745   4.037   3.898
10644SOL    HW132831   1.731   4.093   3.816
10644SOL    HW232832   1.798   4.089   3.965
10645SOL     OW32833   1.895   3.160   3.228
10645SOL    HW132834   1.968   3.158   3.297
10645SOL    HW232835   1.932   3.132   3.139
10646SOL     OW32836   5.184   1.248   3.289
10646SOL    HW132837   5.214   1.233   3.383
10646SOL    HW232838   5.125   1.172   3.260
10647SOL     OW32839   4.741   6.074   4.756
10647SOL    HW132840   4.656   6.107   4.714
10647SOL    HW232841   4.797   6.027   4.687
10648SOL     OW32842   4.369   3.361   5.683
10648SOL    HW132843   4.280   3.359   5.637
10648SOL    HW232844   4.360   3.321   5.775
10649SOL     OW32845   6.080   3.168   3.445
10649SOL    HW132846   6.038   3.203   3.361
10649SOL    HW232847   6.150   3.233   3.476
10650SOL     OW32848   0.598   1.023   2.771
10650SOL    HW132849   0.545   0.958   2.826
10650SOL    HW232850   0.641   0.975   2.695
10651SOL     OW32851   2.496   5.688   5.146
10651SOL    HW132852   2.429   5.761   5.132
10651SOL    HW232853   2.513   5.678   5.244
10652SOL     OW32854   3.596   0.428   0.168
10652SOL    HW132855   3.545   0.512   0.186
10652SOL    HW232856   3.590   0.368   0.248
10653SOL     OW32857   6.132   5.926   4.837
10653SOL    HW132858   6.067   6.000   4.853
10653SOL    HW232859   6.160   5.887   4.925
10654SOL     OW32860   6.558   1.496   3.809
10654SOL    HW132861   6.482   1.482   3.873
10654SOL    HW232862   6.528   1.471   3.717
10655SOL     OW32863   6.286   4.801   0.668
10655SOL    HW132864   6.260   4.798   0.572
10655SOL    HW232865   6.386   4.799   0.675
10656SOL     OW32866   5.520   0.537   5.589
10656SOL    HW132867   5.549   0.536   5.685
10656SOL    HW232868   5.432   0.490   5.580
10657SOL     OW32869   5.053   0.267   5.694
10657SOL    HW132870   4.969   0.314   5.670
10657SOL    HW232871   5.089   0.303   5.780
10658SOL     OW32872   1.272   0.904   5.033
10658SOL    HW132873   1.273   0.972   5.105
10658SOL    HW232874   1.305   0.816   5.069
10659SOL     OW32875   0.555   5.643   6.711
10659SOL    HW132876   0.591   5.706   6.643
10659SOL    HW232877   0.625   5.626   6.781
10660SOL     OW32878   6.384   2.317   6.017
10660SOL    HW132879   6.357   2.344   6.109
10660SOL    HW232880   6.468   2.262   6.022
10661SOL     OW32881   4.225   5.609   6.001
10661SOL    HW132882   4.142   5.657   5.974
10661SOL    HW232883   4.258   5.553   5.925
10662SOL     OW32884   3.367   1.647   1.331
10662SOL    HW132885   3.323   1.736   1.333
10662SOL    HW232886   3.435   1.642   1.404
10663SOL     OW32887   6.889   3.413   3.878
10663SOL    HW132888   6.897   3.439   3.974
10663SOL    HW232889   6.976   3.374   3.846
10664SOL     OW32890   0.488   6.202   4.437
10664SOL    HW132891   0.583   6.196   4.470
10664SOL    HW232892   0.446   6.112   4.441
10665SOL     OW32893   4.583   3.745   0.914
10665SOL    HW132894   4.582   3.652   0.951
10665SOL    HW232895   4.675   3.766   0.882
10666SOL     OW32896   5.176   3.600   1.997
10666SOL    HW132897   5.083   3.581   1.965
10666SOL    HW232898   5.173   3.667   2.071
10667SOL     OW32899   5.602   2.828   4.190
10667SOL    HW132900   5.653   2.745   4.213
10667SOL    HW232901   5.594   2.835   4.091
10668SOL     OW32902   2.917   3.524   5.955
10668SOL    HW132903   2.864   3.518   5.871
10668SOL    HW232904   2.870   3.583   6.021
10669SOL     OW32905   6.988   2.557   1.762
10669SOL    HW132906   0.047   2.619   1.757
10669SOL    HW232907   6.924   2.578   1.688
10670SOL     OW32908   4.814   4.745   4.245
10670SOL    HW132909   4.821   4.646   4.256
10670SOL    HW232910   4.892   4.790   4.287
10671SOL     OW32911   1.906   3.279   4.207
10671SOL    HW132912   1.884   3.222   4.129
10671SOL    HW232913   1.845   3.358   4.209
10672SOL     OW32914   6.378   5.013   1.500
10672SOL    HW132915   6.458   5.006   1.440
10672SOL    HW232916   6.404   4.992   1.594
10673SOL     OW32917   3.438   0.906   1.566
10673SOL    HW132918   3.341   0.895   1.585
10673SOL    HW232919   3.455   0.998   1.532
10674SOL     OW32920   3.856   2.946   3.265
10674SOL    HW132921   3.922   2.962   3.191
10674SOL    HW232922   3.763   2.948   3.227
10675SOL     OW32923   3.838   6.325   5.739
10675SOL    HW132924   3.927   6.312   5.696
10675SOL    HW232925   3.815   6.422   5.741
10676SOL     OW32926   1.351   1.383   4.463
10676SOL    HW132927   1.317   1.475   4.439
10676SOL    HW232928   1.433   1.392   4.519
10677SOL     OW32929   0.206   1.139   6.734
10677SOL    HW132930   0.235   1.046   6.710
10677SOL    HW232931   0.237   1.203   6.663
10678SOL     OW32932   3.360   4.908   2.869
10678SOL    HW132933   3.274   4.958   2.866
10678SOL    HW232934   3.436   4.972   2.851
10679SOL     OW32935   5.519   3.951   6.783
10679SOL    HW132936   5.615   3.930   6.763
10679SOL    HW232937   5.506   4.050   6.784
10680SOL     OW32938   4.158   2.006   4.813
10680SOL    HW132939   4.089   2.015   4.742
10680SOL    HW232940   4.150   1.916   4.856
10681SOL     OW32941   2.655   3.239   5.653
10681SOL    HW132942   2.662   3.154   5.706
10681SOL    HW232943   2.661   3.218   5.555
10682SOL     OW32944   5.188   3.364   6.128
10682SOL    HW132945   5.192   3.308   6.046
10682SOL    HW232946   5.242   3.322   6.201
10683SOL     OW32947   1.704   6.587   3.135
10683SOL    HW132948   1.688   6.557   3.041
10683SOL    HW232949   1.647   6.534   3.197
10684SOL     OW32950   4.908   3.700   1.323
10684SOL    HW132951   4.949   3.687   1.233
10684SOL    HW232952   4.957   3.772   1.372
10685SOL     OW32953   0.413   0.814   2.567
10685SOL    HW132954   0.497   0.798   2.516
10685SOL    HW232955   0.343   0.849   2.505
10686SOL     OW32956   2.832   1.978   6.799
10686SOL    HW132957   2.756   2.043   6.795
10686SOL    HW232958   2.806   1.893   6.752
10687SOL     OW32959   0.720   3.314   3.399
10687SOL    HW132960   0.655   3.389   3.412
10687SOL    HW232961   0.671   3.227   3.408
10688SOL     OW32962   4.695   1.238   3.613
10688SOL    HW132963   4.606   1.264   3.575
10688SOL    HW232964   4.741   1.175   3.552
10689SOL     OW32965   1.684   1.129   3.238
10689SOL    HW132966   1.659   1.189   3.162
10689SOL    HW232967   1.601   1.091   3.279
10690SOL     OW32968   1.486   5.908   4.866
10690SOL    HW132969   1.419   5.851   4.818
10690SOL    HW232970   1.443   5.993   4.894
10691SOL     OW32971   3.536   6.679   1.330
10691SOL    HW132972   3.571   6.733   1.253
10691SOL    HW232973   3.437   6.687   1.334
10692SOL     OW32974   2.679   2.369   4.182
10692SOL    HW132975   2.769   2.347   4.143
10692SOL    HW232976   2.681   2.352   4.281
10693SOL     OW32977   1.201   4.062   0.163
10693SOL    HW132978   1.119   4.016   0.199
10693SOL    HW232979   1.193   4.072   0.064
10694SOL     OW32980   5.087   2.655   5.573
10694SOL    HW132981   5.078   2.745   5.615
10694SOL    HW232982   5.056   2.659   5.478
10695SOL     OW32983   4.712   4.717   1.526
10695SOL    HW132984   4.653   4.772   1.585
10695SOL    HW232985   4.682   4.622   1.529
10696SOL     OW32986   6.618   5.221   4.352
10696SOL    HW132987   6.656   5.182   4.436
10696SOL    HW232988   6.674   5.192   4.274
10697SOL     OW32989   2.734   5.129   4.944
10697SOL    HW132990   2.775   5.048   4.986
10697SOL    HW232991   2.649   5.152   4.991
10698SOL     OW32992   3.925   4.941   6.981
10698SOL    HW132993   3.858   4.897   0.022
10698SOL    HW232994   3.976   4.871   6.932
10699SOL     OW32995   4.608   3.808   1.626
10699SOL    HW132996   4.707   3.795   1.626
10699SOL    HW232997   4.586   3.905   1.631
10700SOL     OW32998   4.829   0.249   1.493
10700SOL    HW132999   4.872   0.249   1.403
10700SOL    HW233000   4.733   0.277   1.485
10701SOL     OW33001   3.611   0.009   5.687
10701SOL    HW133002   3.542   0.058   5.633
10701SOL    HW233003   3.701   0.026   5.648
10702SOL     OW33004   5.992   2.939   2.450
10702SOL    HW133005   5.931   2.860   2.458
10702SOL    HW233006   5.968   2.992   2.369
10703SOL     OW33007   0.727   2.009   5.643
10703SOL    HW133008   0.763   2.027   5.734
10703SOL    HW233009   0.636   2.050   5.634
10704SOL     OW33010   5.093   6.686   2.044
10704SOL    HW133011   5.120   6.602   2.090
10704SOL    HW233012   5.169   6.751   2.045
10705SOL     OW33013   4.916   3.739   1.748
10705SOL    HW133014   5.000   3.788   1.723
10705SOL    HW233015   4.899   3.666   1.682
10706SOL     OW33016   3.227   1.040   2.156
10706SOL    HW133017   3.176   0.962   2.192
10706SOL    HW233018   3.289   1.009   2.085
10707SOL     OW33019   3.692   6.991   3.401
10707SOL    HW133020   3.605   6.978   3.354
10707SOL    HW233021   3.680   0.037   3.475
10708SOL     OW33022   4.306   1.086   1.374
10708SOL    HW133023   4.313   0.989   1.353
10708SOL    HW233024   4.397   1.126   1.381
10709SOL     OW33025   5.640   4.253   2.926
10709SOL    HW133026   5.681   4.206   3.004
10709SOL    HW233027   5.668   4.208   2.841
10710SOL     OW33028   4.464   1.707   3.191
10710SOL    HW133029   4.552   1.726   3.148
10710SOL    HW233030   4.392   1.710   3.122
10711SOL     OW33031   2.398   6.428   3.230
10711SOL    HW133032   2.379   6.364   3.304
10711SOL    HW233033   2.348   6.399   3.147
10712SOL     OW33034   5.322   0.922   3.299
10712SOL    HW133035   5.331   0.873   3.212
10712SOL    HW233036   5.305   0.856   3.373
10713SOL     OW33037   1.016   4.036   1.245
10713SOL    HW133038   1.051   4.126   1.219
10713SOL    HW233039   1.057   3.966   1.187
10714SOL     OW33040   3.041   4.064   4.980
10714SOL    HW133041   2.994   4.151   4.966
10714SOL    HW233042   3.019   4.029   5.071
10715SOL     OW33043   6.627   0.734   1.510
10715SOL    HW133044   6.615   0.830   1.487
10715SOL    HW233045   6.571   0.678   1.449
10716SOL     OW33046   4.876   0.880   3.192
10716SOL    HW133047   4.837   0.788   3.205
10716SOL    HW233048   4.951   0.893   3.256
10717SOL     OW33049   3.416   3.021   0.307
10717SOL    HW133050   3.318   3.030   0.289
10717SOL    HW233051   3.441   2.924   0.307
10718SOL     OW33052   1.758   5.153   6.461
10718SOL    HW133053   1.687   5.222   6.474
10718SOL    HW233054   1.719   5.075   6.411
10719SOL     OW33055   6.719   4.554   5.684
10719SOL    HW133056   6.626   4.556   5.718
10719SOL    HW233057   6.783   4.546   5.760
10720SOL     OW33058   6.876   5.582   2.917
10720SOL    HW133059   6.784   5.605   2.948
10720SOL    HW233060   6.872   5.543   2.825
10721SOL     OW33061   5.035   2.974   6.561
10721SOL    HW133062   5.043   3.035   6.482
10721SOL    HW233063   5.102   3.001   6.631
10722SOL     OW33064   0.089   3.952   5.624
10722SOL    HW133065   0.124   4.004   5.701
10722SOL    HW233066   0.008   3.901   5.651
10723SOL     OW33067   5.824   5.966   0.956
10723SOL    HW133068   5.738   5.973   0.904
10723SOL    HW233069   5.899   6.002   0.900
10724SOL     OW33070   0.477   6.061   6.184
10724SOL    HW133071   0.573   6.089   6.183
10724SOL    HW233072   0.421   6.130   6.137
10725SOL     OW33073   2.585   6.566   6.157
10725SOL    HW133074   2.683   6.589   6.155
10725SOL    HW233075   2.567   6.493   6.091
10726SOL     OW33076   3.537   0.720   4.225
10726SOL    HW133077   3.498   0.800   4.179
10726SOL    HW233078   3.614   0.685   4.171
10727SOL     OW33079   2.225   6.142   6.802
10727SOL    HW133080   2.199   6.113   6.894
10727SOL    HW233081   2.215   6.241   6.794
10728SOL     OW33082   5.281   6.213   2.027
10728SOL    HW133083   5.342   6.255   1.960
10728SOL    HW233084   5.265   6.276   2.103
10729SOL     OW33085   6.579   1.885   0.351
10729SOL    HW133086   6.498   1.885   0.293
10729SOL    HW233087   6.640   1.959   0.322
10730SOL     OW33088   4.717   0.551   3.098
10730SOL    HW133089   4.663   0.635   3.095
10730SOL    HW233090   4.702   0.504   3.185
10731SOL     OW33091   3.303   6.917   0.621
10731SOL    HW133092   3.304   6.891   0.717
10731SOL    HW233093   3.294   7.016   0.613
10732SOL     OW33094   0.614   3.085   5.819
10732SOL    HW133095   0.630   3.132   5.732
10732SOL    HW233096   0.517   3.091   5.843
10733SOL     OW33097   6.110   0.425   0.041
10733SOL    HW133098   6.191   0.413   7.003
10733SOL    HW233099   6.030   0.384   7.015
10734SOL     OW33100   5.477   2.870   1.871
10734SOL    HW133101   5.398   2.890   1.813
10734SOL    HW233102   5.559   2.909   1.829
10735SOL     OW33103   6.754   5.678   2.588
10735SOL    HW133104   6.661   5.647   2.567
10735SOL    HW233105   6.806   5.602   2.626
10736SOL     OW33106   2.056   1.412   4.990
10736SOL    HW133107   2.074   1.410   5.088
10736SOL    HW233108   2.067   1.506   4.956
10737SOL     OW33109   0.269   1.513   6.495
10737SOL    HW133110   0.353   1.560   6.525
10737SOL    HW233111   0.225   1.568   6.424
10738SOL     OW33112   3.967   0.180   4.386
10738SOL    HW133113   4.030   0.257   4.373
10738SOL    HW233114   3.971   0.121   4.305
10739SOL     OW33115   1.697   1.393   2.088
10739SOL    HW133116   1.677   1.295   2.089
10739SOL    HW233117   1.658   1.435   2.006
10740SOL     OW33118   4.154   6.225   3.734
10740SOL    HW133119   4.194   6.154   3.791
10740SOL    HW233120   4.099   6.287   3.790
10741SOL     OW33121   2.297   0.592   3.125
10741SOL    HW133122   2.297   0.504   3.078
10741SOL    HW233123   2.205   0.632   3.121
10742SOL     OW33124   6.720   5.528   0.131
10742SOL    HW133125   6.675   5.606   0.088
10742SOL    HW233126   6.683   5.515   0.223
10743SOL     OW33127   3.218   1.348   5.008
10743SOL    HW133128   3.270   1.272   4.967
10743SOL    HW233129   3.155   1.386   4.940
10744SOL     OW33130   5.999   1.270   0.620
10744SOL    HW133131   5.986   1.210   0.542
10744SOL    HW233132   5.930   1.342   0.618
10745SOL     OW33133   6.550   6.027   6.331
10745SOL    HW133134   6.552   5.961   6.407
10745SOL    HW233135   6.572   6.118   6.366
10746SOL     OW33136   1.830   4.519   5.081
10746SOL    HW133137   1.860   4.575   5.004
10746SOL    HW233138   1.890   4.535   5.159
10747SOL     OW33139   2.857   2.272   5.044
10747SOL    HW133140   2.950   2.293   5.074
10747SOL    HW233141   2.791   2.327   5.095
10748SOL     OW33142   5.487   1.532   2.854
10748SOL    HW133143   5.573   1.576   2.830
10748SOL    HW233144   5.457   1.473   2.779
10749SOL     OW33145   3.694   0.228   0.509
10749SOL    HW133146   3.627   0.200   0.439
10749SOL    HW233147   3.694   0.160   0.583
10750SOL     OW33148   4.717   6.165   6.447
10750SOL    HW133149   4.765   6.170   6.360
10750SOL    HW233150   4.623   6.198   6.435
10751SOL     OW33151   2.438   6.242   2.674
10751SOL    HW133152   2.382   6.269   2.595
10751SOL    HW233153   2.424   6.145   2.694
10752SOL     OW33154   4.965   5.697   4.140
10752SOL    HW133155   4.940   5.737   4.228
10752SOL    HW233156   4.920   5.748   4.067
10753SOL     OW33157   5.704   4.198   4.518
10753SOL    HW133158   5.674   4.140   4.442
10753SOL    HW233159   5.627   4.254   4.549
10754SOL     OW33160   1.297   6.680   2.443
10754SOL    HW133161   1.389   6.641   2.447
10754SOL    HW233162   1.232   6.611   2.412
10755SOL     OW33163   6.189   5.851   1.366
10755SOL    HW133164   6.206   5.867   1.463
10755SOL    HW233165   6.201   5.754   1.345
10756SOL     OW33166   0.328   6.862   5.109
10756SOL    HW133167   0.418   6.903   5.101
10756SOL    HW233168   0.334   6.764   5.090
10757SOL     OW33169   2.904   2.677   1.723
10757SOL    HW133170   2.907   2.599   1.786
10757SOL    HW233171   2.906   2.644   1.629
10758SOL     OW33172   6.737   5.463   4.197
10758SOL    HW133173   6.658   5.524   4.203
10758SOL    HW233174   6.753   5.420   4.286
10759SOL     OW33175   6.763   0.924   6.688
10759SOL    HW133176   6.783   0.877   6.774
10759SOL    HW233177   6.674   0.893   6.654
10760SOL     OW33178   5.750   1.899   4.501
10760SOL    HW133179   5.793   1.943   4.579
10760SOL    HW233180   5.783   1.941   4.416
10761SOL     OW33181   3.596   5.456   5.748
10761SOL    HW133182   3.591   5.533   5.685
10761SOL    HW233183   3.623   5.489   5.839
10762SOL     OW33184   2.991   0.985   6.153
10762SOL    HW133185   3.080   0.940   6.155
10762SOL    HW233186   2.924   0.927   6.107
10763SOL     OW33187   4.918   5.175   4.273
10763SOL    HW133188   4.902   5.137   4.365
10763SOL    HW233189   4.936   5.273   4.281
10764SOL     OW33190   4.711   0.355   4.895
10764SOL    HW133191   4.685   0.446   4.929
10764SOL    HW233192   4.797   0.327   4.938
10765SOL     OW33193   6.996   3.654   6.905
10765SOL    HW133194   7.004   3.753   6.894
10765SOL    HW233195   6.957   3.633   6.995
10766SOL     OW33196   3.115   3.449   1.976
10766SOL    HW133197   3.040   3.386   1.959
10766SOL    HW233198   3.079   3.542   1.989
10767SOL     OW33199   4.757   1.970   2.164
10767SOL    HW133200   4.697   1.965   2.244
10767SOL    HW233201   4.702   1.956   2.081
10768SOL     OW33202   5.728   4.449   6.522
10768SOL    HW133203   5.828   4.442   6.522
10768SOL    HW233204   5.691   4.398   6.444
10769SOL     OW33205   1.975   3.578   4.526
10769SOL    HW133206   2.043   3.651   4.524
10769SOL    HW233207   1.883   3.617   4.522
10770SOL     OW33208   3.816   6.048   3.874
10770SOL    HW133209   3.768   6.094   3.949
10770SOL    HW233210   3.824   5.951   3.895
10771SOL     OW33211   2.491   1.970   3.845
10771SOL    HW133212   2.587   1.994   3.861
10771SOL    HW233213   2.453   2.030   3.775
10772SOL     OW33214   5.245   5.719   4.151
10772SOL    HW133215   5.175   5.721   4.080
10772SOL    HW233216   5.236   5.801   4.208
10773SOL     OW33217   5.379   5.324   2.786
10773SOL    HW133218   5.461   5.360   2.741
10773SOL    HW233219   5.362   5.230   2.756
10774SOL     OW33220   0.225   0.058   3.367
10774SOL    HW133221   0.188   0.109   3.444
10774SOL    HW233222   0.324   0.053   3.374
10775SOL     OW33223   0.280   2.863   1.038
10775SOL    HW133224   0.372   2.897   1.017
10775SOL    HW233225   0.285   2.767   1.066
10776SOL     OW33226   1.768   0.462   5.769
10776SOL    HW133227   1.795   0.546   5.722
10776SOL    HW233228   1.724   0.485   5.855
10777SOL     OW33229   3.293   5.720   1.551
10777SOL    HW133230   3.202   5.681   1.540
10777SOL    HW233231   3.347   5.703   1.469
10778SOL     OW33232   5.691   6.150   1.257
10778SOL    HW133233   5.779   6.105   1.242
10778SOL    HW233234   5.645   6.107   1.334
10779SOL     OW33235   4.828   2.986   3.583
10779SOL    HW133236   4.756   2.920   3.567
10779SOL    HW233237   4.818   3.063   3.520
10780SOL     OW33238   6.755   0.394   1.917
10780SOL    HW133239   6.748   0.478   1.970
10780SOL    HW233240   6.674   0.338   1.932
10781SOL     OW33241   3.189   0.336   3.894
10781SOL    HW133242   3.265   0.367   3.838
10781SOL    HW233243   3.115   0.403   3.891
10782SOL     OW33244   6.685   5.719   3.314
10782SOL    HW133245   6.693   5.810   3.356
10782SOL    HW233246   6.683   5.729   3.214
10783SOL     OW33247   6.506   2.630   2.778
10783SOL    HW133248   6.448   2.560   2.821
10783SOL    HW233249   6.500   2.715   2.831
10784SOL     OW33250   1.849   1.824   4.989
10784SOL    HW133251   1.855   1.827   5.088
10784SOL    HW233252   1.826   1.914   4.953
10785SOL     OW33253   1.532   3.461   5.919
10785SOL    HW133254   1.570   3.378   5.877
10785SOL    HW233255   1.548   3.458   6.018
10786SOL     OW33256   6.505   4.377   4.703
10786SOL    HW133257   6.539   4.310   4.636
10786SOL    HW233258   6.451   4.447   4.656
10787SOL     OW33259   1.992   2.110   5.656
10787SOL    HW133260   2.060   2.039   5.674
10787SOL    HW233261   1.999   2.181   5.726
10788SOL     OW33262   5.753   3.553   6.096
10788SOL    HW133263   5.765   3.651   6.112
10788SOL    HW233264   5.661   3.526   6.125
10789SOL     OW33265   4.977   1.052   6.770
10789SOL    HW133266   4.919   1.131   6.792
10789SOL    HW233267   4.928   0.968   6.792
10790SOL     OW33268   5.474   6.694   2.636
10790SOL    HW133269   5.499   6.753   2.560
10790SOL    HW233270   5.524   6.608   2.629
10791SOL     OW33271   0.963   5.958   2.824
10791SOL    HW133272   0.907   5.995   2.750
10791SOL    HW233273   0.920   5.979   2.912
10792SOL     OW33274   3.907   4.562   6.313
10792SOL    HW133275   3.811   4.586   6.301
10792SOL    HW233276   3.929   4.484   6.254
10793SOL     OW33277   5.444   4.298   4.562
10793SOL    HW133278   5.404   4.324   4.650
10793SOL    HW233279   5.371   4.278   4.496
10794SOL     OW33280   3.459   3.251   4.577
10794SOL    HW133281   3.486   3.225   4.485
10794SOL    HW233282   3.396   3.183   4.614
10795SOL     OW33283   6.847   4.787   3.083
10795SOL    HW133284   6.814   4.694   3.066
10795SOL    HW233285   6.778   4.838   3.133
10796SOL     OW33286   0.856   6.636   5.408
10796SOL    HW133287   0.941   6.669   5.369
10796SOL    HW233288   0.823   6.702   5.477
10797SOL     OW33289   3.940   2.563   0.415
10797SOL    HW133290   3.902   2.648   0.453
10797SOL    HW233291   3.903   2.549   0.323
10798SOL     OW33292   5.726   1.385   0.806
10798SOL    HW133293   5.737   1.451   0.732
10798SOL    HW233294   5.779   1.415   0.886
10799SOL     OW33295   5.166   1.427   1.132
10799SOL    HW133296   5.172   1.437   1.231
10799SOL    HW233297   5.083   1.376   1.108
10800SOL     OW33298   6.608   6.483   1.109
10800SOL    HW133299   6.531   6.430   1.075
10800SOL    HW233300   6.692   6.431   1.097
10801SOL     OW33301   2.255   0.689   1.302
10801SOL    HW133302   2.280   0.627   1.228
10801SOL    HW233303   2.315   0.769   1.301
10802SOL     OW33304   5.332   1.337   3.866
10802SOL    HW133305   5.259   1.344   3.799
10802SOL    HW233306   5.418   1.314   3.820
10803SOL     OW33307   2.252   4.745   4.914
10803SOL    HW133308   2.306   4.792   4.983
10803SOL    HW233309   2.174   4.700   4.957
10804SOL     OW33310   6.221   3.432   4.029
10804SOL    HW133311   6.174   3.384   3.955
10804SOL    HW233312   6.309   3.466   3.996
10805SOL     OW33313   6.768   6.755   6.536
10805SOL    HW133314   6.737   6.783   6.446
10805SOL    HW233315   6.820   6.829   6.579
10806SOL     OW33316   1.571   4.807   0.932
10806SOL    HW133317   1.607   4.806   1.025
10806SOL    HW233318   1.501   4.877   0.924
10807SOL     OW33319   3.131   5.240   5.074
10807SOL    HW133320   3.224   5.271   5.054
10807SOL    HW233321   3.066   5.292   5.020
10808SOL     OW33322   1.736   3.147   0.219
10808SOL    HW133323   1.714   3.238   0.255
10808SOL    HW233324   1.653   3.102   0.188
10809SOL     OW33325   1.209   0.817   4.766
10809SOL    HW133326   1.262   0.732   4.768
10809SOL    HW233327   1.212   0.859   4.857
10810SOL     OW33328   6.556   0.518   3.425
10810SOL    HW133329   6.586   0.550   3.335
10810SOL    HW233330   6.567   0.591   3.492
10811SOL     OW33331   5.455   5.641   4.992
10811SOL    HW133332   5.367   5.677   4.960
10811SOL    HW233333   5.521   5.715   4.998
10812SOL     OW33334   0.530   2.994   1.001
10812SOL    HW133335   0.566   2.993   1.094
10812SOL    HW233336   0.596   2.953   0.939
10813SOL     OW33337   1.142   3.507   6.709
10813SOL    HW133338   1.140   3.439   6.636
10813SOL    HW233339   1.060   3.565   6.703
10814SOL     OW33340   3.361   2.002   2.323
10814SOL    HW133341   3.343   1.907   2.350
10814SOL    HW233342   3.277   2.043   2.287
10815SOL     OW33343   5.612   0.888   4.666
10815SOL    HW133344   5.519   0.910   4.635
10815SOL    HW233345   5.678   0.914   4.595
10816SOL     OW33346   3.123   3.174   5.826
10816SOL    HW133347   3.050   3.119   5.866
10816SOL    HW233348   3.107   3.185   5.728
10817SOL     OW33349   1.639   6.084   4.676
10817SOL    HW133350   1.660   6.021   4.751
10817SOL    HW233351   1.703   6.070   4.601
10818SOL     OW33352   4.704   3.580   0.216
10818SOL    HW133353   4.604   3.570   0.219
10818SOL    HW233354   4.744   3.537   0.298
10819SOL     OW33355   6.083   5.758   5.496
10819SOL    HW133356   6.166   5.785   5.545
10819SOL    HW233357   6.030   5.695   5.553
10820SOL     OW33358   1.563   4.930   6.275
10820SOL    HW133359   1.605   4.853   6.226
10820SOL    HW233360   1.536   5.001   6.209
10821SOL     OW33361   4.177   5.822   3.992
10821SOL    HW133362   4.120   5.771   3.927
10821SOL    HW233363   4.132   5.826   4.081
10822SOL     OW33364   5.186   0.327   2.798
10822SOL    HW133365   5.183   0.276   2.712
10822SOL    HW233366   5.135   0.413   2.788
10823SOL     OW33367   5.199   6.673   2.626
10823SOL    HW133368   5.160   6.581   2.629
10823SOL    HW233369   5.297   6.667   2.609
10824SOL     OW33370   1.672   2.310   3.421
10824SOL    HW133371   1.725   2.395   3.416
10824SOL    HW233372   1.621   2.298   3.335
10825SOL     OW33373   6.997   1.318   0.384
10825SOL    HW133374   7.009   1.377   0.304
10825SOL    HW233375   6.966   1.372   0.462
10826SOL     OW33376   6.927   3.148   2.944
10826SOL    HW133377   6.914   3.238   2.986
10826SOL    HW233378   7.016   3.143   2.900
10827SOL     OW33379   0.280   3.098   3.805
10827SOL    HW133380   0.262   3.030   3.876
10827SOL    HW233381   0.287   3.189   3.847
10828SOL     OW33382   6.863   4.312   4.841
10828SOL    HW133383   6.872   4.303   4.741
10828SOL    HW233384   6.870   4.222   4.883
10829SOL     OW33385   3.983   2.915   5.373
10829SOL    HW133386   3.961   2.940   5.468
10829SOL    HW233387   3.956   2.820   5.357
10830SOL     OW33388   4.943   1.907   3.752
10830SOL    HW133389   4.905   1.921   3.660
10830SOL    HW233390   5.021   1.968   3.766
10831SOL     OW33391   4.225   0.068   2.909
10831SOL    HW133392   4.256   0.042   3.000
10831SOL    HW233393   4.127   0.049   2.901
10832SOL     OW33394   6.808   3.144   6.369
10832SOL    HW133395   6.767   3.230   6.398
10832SOL    HW233396   6.837   3.151   6.273
10833SOL     OW33397   0.943   1.125   6.600
10833SOL    HW133398   0.998   1.202   6.569
10833SOL    HW233399   0.977   1.092   6.688
10834SOL     OW33400   6.894   6.454   2.331
10834SOL    HW133401   6.936   6.453   2.240
10834SOL    HW233402   6.797   6.432   2.323
10835SOL     OW33403   6.913   2.861   5.451
10835SOL    HW133404   6.833   2.804   5.465
10835SOL    HW233405   6.904   2.945   5.503
10836SOL     OW33406   6.924   1.751   3.387
10836SOL    HW133407   6.854   1.748   3.316
10836SOL    HW233408   7.008   1.791   3.351
10837SOL     OW33409   6.988   3.322   3.599
10837SOL    HW133410   0.063   3.341   3.625
10837SOL    HW233411   6.958   3.389   3.531
10838SOL     OW33412   0.297   6.657   2.684
10838SOL    HW133413   0.353   6.596   2.628
10838SOL    HW233414   0.354   6.706   2.749
10839SOL     OW33415   4.582   2.376   0.114
10839SOL    HW133416   4.672   2.352   0.079
10839SOL    HW233417   4.546   2.454   0.063
10840SOL     OW33418   2.860   0.688   2.328
10840SOL    HW133419   2.848   0.706   2.231
10840SOL    HW233420   2.773   0.700   2.375
10841SOL     OW33421   2.132   5.348   4.646
10841SOL    HW133422   2.203   5.412   4.677
10841SOL    HW233423   2.118   5.360   4.548
10842SOL     OW33424   6.698   4.833   1.868
10842SOL    HW133425   6.721   4.736   1.863
10842SOL    HW233426   6.599   4.845   1.865
10843SOL     OW33427   2.924   1.123   1.351
10843SOL    HW133428   2.951   1.213   1.384
10843SOL    HW233429   2.918   1.125   1.251
10844SOL     OW33430   1.675   5.594   4.242
10844SOL    HW133431   1.663   5.681   4.290
10844SOL    HW233432   1.601   5.582   4.175
10845SOL     OW33433   3.752   0.888   4.141
10845SOL    HW133434   3.663   0.892   4.097
10845SOL    HW233435   3.740   0.891   4.240
10846SOL     OW33436   5.738   6.622   6.555
10846SOL    HW133437   5.766   6.664   6.470
10846SOL    HW233438   5.650   6.661   6.585
10847SOL     OW33439   3.344   0.109   0.018
10847SOL    HW133440   3.376   0.182   0.079
10847SOL    HW233441   3.258   0.072   0.053
10848SOL     OW33442   1.459   3.271   2.140
10848SOL    HW133443   1.447   3.205   2.066
10848SOL    HW233444   1.504   3.353   2.106
10849SOL     OW33445   1.211   6.512   3.717
10849SOL    HW133446   1.300   6.469   3.729
10849SOL    HW233447   1.209   6.562   3.631
10850SOL     OW33448   4.925   4.261   0.242
10850SOL    HW133449   4.899   4.342   0.190
10850SOL    HW233450   4.847   4.199   0.248
10851SOL     OW33451   1.350   4.857   0.693
10851SOL    HW133452   1.354   4.758   0.709
10851SOL    HW233453   1.403   4.880   0.612
10852SOL     OW33454   3.256   0.557   1.279
10852SOL    HW133455   3.287   0.586   1.370
10852SOL    HW233456   3.178   0.612   1.251
10853SOL     OW33457   3.253   1.036   5.968
10853SOL    HW133458   3.200   1.117   5.993
10853SOL    HW233459   3.243   0.966   6.040
10854SOL     OW33460   3.042   6.291   5.999
10854SOL    HW133461   3.095   6.225   5.945
10854SOL    HW233462   3.039   6.262   6.094
10855SOL     OW33463   4.261   0.956   6.600
10855SOL    HW133464   4.214   0.893   6.662
10855SOL    HW233465   4.229   0.941   6.506
10856SOL     OW33466   0.357   0.298   0.708
10856SOL    HW133467   0.365   0.223   0.773
10856SOL    HW233468   0.439   0.356   0.714
10857SOL     OW33469   6.353   1.704   1.568
10857SOL    HW133470   6.309   1.731   1.483
10857SOL    HW233471   6.291   1.647   1.622
10858SOL     OW33472   2.128   6.349   1.806
10858SOL    HW133473   2.064   6.281   1.771
10858SOL    HW233474   2.149   6.415   1.733
10859SOL     OW33475   1.669   5.151   3.795
10859SOL    HW133476   1.767   5.129   3.806
10859SOL    HW233477   1.659   5.225   3.729
10860SOL     OW33478   0.566   3.928   3.048
10860SOL    HW133479   0.529   3.835   3.058
10860SOL    HW233480   0.523   3.987   3.116
10861SOL     OW33481   4.539   3.324   5.312
10861SOL    HW133482   4.450   3.306   5.270
10861SOL    HW233483   4.569   3.417   5.291
10862SOL     OW33484   1.175   0.344   5.882
10862SOL    HW133485   1.267   0.308   5.896
10862SOL    HW233486   1.180   0.434   5.839
10863SOL     OW33487   2.051   6.621   4.217
10863SOL    HW133488   1.967   6.569   4.199
10863SOL    HW233489   2.118   6.562   4.263
10864SOL     OW33490   3.303   6.864   3.635
10864SOL    HW133491   3.248   6.864   3.719
10864SOL    HW233492   3.316   6.770   3.604
10865SOL     OW33493   6.532   0.987   6.085
10865SOL    HW133494   6.597   0.936   6.030
10865SOL    HW233495   6.523   0.944   6.175
10866SOL     OW33496   6.349   4.953   6.871
10866SOL    HW133497   6.408   4.901   6.933
10866SOL    HW233498   6.266   4.901   6.852
10867SOL     OW33499   2.922   1.812   0.114
10867SOL    HW133500   2.933   1.764   0.201
10867SOL    HW233501   2.916   1.911   0.130
10868SOL     OW33502   1.345   2.417   3.511
10868SOL    HW133503   1.296   2.504   3.501
10868SOL    HW233504   1.399   2.418   3.595
10869NA      NA33505   6.799   2.358   5.173
10870NA      NA33506   4.536   4.467   5.143
10871NA      NA33507   2.037   3.366   1.909
10872NA      NA33508   4.951   3.417   5.034
10873NA      NA33509   4.275   2.342   5.256
10874NA      NA33510   3.744   4.938   2.112
10875NA      NA33511   6.730   6.513   4.895
10876NA      NA33512   3.814   3.357   5.009
10877NA      NA33513   4.673   5.897   6.058
10878NA      NA33514   2.785   6.789   4.951
10879NA      NA33515   0.373   4.957   3.146
10880NA      NA33516   1.931   0.525   1.875
10881NA      NA33517   4.059   4.324   1.217
10882NA      NA33518   3.990   3.489   3.139
   7.01933   7.01933   7.01933
